<LesHouchesEvents version="3.0">
<header>
<!--
#*********************************************************************
#                                                                    *
#                        MadGraph5_aMC@NLO                           *
#                                                                    *
#                           Going Beyond                             *
#                                                                    *
#                   http://madgraph.hep.uiuc.edu                     *
#                   http://madgraph.phys.ucl.ac.be                   *
#                   http://amcatnlo.cern.ch                          *
#                                                                    *
#                     The MadGraph5_aMC@NLO team                     *
#                                                                    *
#....................................................................*
#                                                                    *
# This file contains all the information necessary to reproduce      *
# the events generated:                                              *
#                                                                    *
# 1. software version                                                *
# 2. proc_card          : code generation info including model       *
# 3. param_card         : model primary parameters in the LH format  *
# 4. run_card           : running parameters (collider and cuts)     *
# 5. pythia_card        : present only if pythia has been run        *
# 6. pgs_card           : present only if pgs has been run           *
# 7. delphes_cards      : present only if delphes has been run       *
#                                                                    *
#                                                                    *
#*********************************************************************
-->
<MGVersion>
#5.2.2.3
</MGVersion>
<MG5ProcCard>
#************************************************************
#*                     MadGraph5_aMC@NLO                    *
#*                                                          *
#*                *                       *                 *
#*                  *        * *        *                   *
#*                    * * * * 5 * * * *                     *
#*                  *        * *        *                   *
#*                *                       *                 *
#*                                                          *
#*                                                          *
#*         VERSION 2.2.3                 2015-02-10         *
#*                                                          *
#*    The MadGraph5_aMC@NLO Development Team - Find us at   *
#*    https://server06.fynu.ucl.ac.be/projects/madgraph     *
#*                                                          *
#************************************************************
#*                                                          *
#*               Command File for MadGraph5_aMC@NLO         *
#*                                                          *
#*     run as ./bin/mg5_aMC  filename                       *
#*                                                          *
#************************************************************
set group_subprocesses Auto
set ignore_six_quark_processes False
set loop_optimized_output True
set gauge unitary
set complex_mass_scheme False
import model sm
define p = g u c d s u~ c~ d~ s~
define j = g u c d s u~ c~ d~ s~
define l+ = e+ mu+
define l- = e- mu-
define vl = ve vm vt
define vl~ = ve~ vm~ vt~
import model Zprime_UFO
generate p p > zph, zph > j j
add process p p > zph, zph > b b~
output Dijet_signal
</MG5ProcCard>
<MGProcCard>
#*********************************************************************
#                        MadGraph/MadEvent                           *
#                   http://madgraph.hep.uiuc.edu                     *
#                                                                    *
#                          proc_card.dat                             *
#*********************************************************************
#                                                                    *
#            This Files is generated by MADGRAPH 5                   *
#                                                                    *
# WARNING: This Files is generated for MADEVENT (compatibility issue)*
#          This files is NOT a valid MG4 proc_card.dat               *
#          Running this in MG4 will NEVER reproduce the result of MG5*
#                                                                    *
#*********************************************************************
#*********************************************************************
# Process(es) requested : mg2 input                                  *
#*********************************************************************
# Begin PROCESS # This is TAG. Do not modify this line
p p > zph , zph > j j           #Process
# Be carefull the coupling are here in MG5 convention
          
end_coup           # End the couplings input

done               # this tells MG there are no more procs
# End PROCESS  # This is TAG. Do not modify this line
#*********************************************************************
# Model information                                                  *
#*********************************************************************
# Begin MODEL  # This is TAG. Do not modify this line
Zprime_UFO
# End   MODEL  # This is TAG. Do not modify this line
#*********************************************************************
# Start multiparticle definitions                                    *
#*********************************************************************
# Begin MULTIPARTICLES # This is TAG. Do not modify this line

# End  MULTIPARTICLES # This is TAG. Do not modify this line
</MGProcCard>
<MGRunCard>
#*********************************************************************
#                       MadGraph5_aMC@NLO                            *
#                                                                    *
#                     run_card.dat MadEvent                          *
#                                                                    *
#  This file is used to set the parameters of the run.               *
#                                                                    *
#  Some notation/conventions:                                        *
#                                                                    *
#   Lines starting with a '# ' are info or comments                  *
#                                                                    *
#   mind the format:   value    = variable     ! comment             *
#*********************************************************************
#
#*******************                                                 
# Running parameters
#*******************                                                 
#                                                                    
#*********************************************************************
# Tag name for the run (one word)                                    *
#*********************************************************************
  tag_1     = run_tag ! name of the run 
#*********************************************************************
# Run to generate the grid pack                                      *
#*********************************************************************
  .false.     = gridpack  !True = setting up the grid pack
#*********************************************************************
# Number of events and rnd seed                                      *
# Warning: Do not generate more than 1M events in a single run       *
# If you want to run Pythia, avoid more than 50k events in a run.    *
#*********************************************************************
  2000 = nevents ! Number of unweighted events requested 
 1137 = iseed   ! rnd seed (0=assigned automatically=default))
#*********************************************************************
# Collider type and energy                                           *
# lpp: 0=No PDF, 1=proton, -1=antiproton, 2=photon from proton,      *
#                                         3=photon from electron     *
#*********************************************************************
        1     = lpp1    ! beam 1 type 
        1     = lpp2    ! beam 2 type
     4000     = ebeam1  ! beam 1 total energy in GeV
     4000     = ebeam2  ! beam 2 total energy in GeV
#*********************************************************************
# Beam polarization from -100 (left-handed) to 100 (right-handed)    *
#*********************************************************************
        0     = polbeam1 ! beam polarization for beam 1
        0     = polbeam2 ! beam polarization for beam 2
#*********************************************************************
# PDF CHOICE: this automatically fixes also alpha_s and its evol.    *
#*********************************************************************
 'nn23lo1'    = pdlabel     ! PDF set                                     
 230000    = lhaid     ! if pdlabel=lhapdf, this is the lhapdf number
#*********************************************************************
# Renormalization and factorization scales                           *
#*********************************************************************
 F        = fixed_ren_scale  ! if .true. use fixed ren scale
 F        = fixed_fac_scale  ! if .true. use fixed fac scale
 91.1880  = scale            ! fixed ren scale
 91.1880  = dsqrt_q2fact1    ! fixed fact scale for pdf1
 91.1880  = dsqrt_q2fact2    ! fixed fact scale for pdf2
 1        = scalefact        ! scale factor for event-by-event scales
#*********************************************************************
# Matching - Warning! ickkw > 1 is still beta
#*********************************************************************
 0        = ickkw            ! 0 no matching, 1 MLM, 2 CKKW matching
 1        = highestmult      ! for ickkw=2, highest mult group
 1        = ktscheme         ! for ickkw=1, 1 Durham kT, 2 Pythia pTE
 1        = alpsfact         ! scale factor for QCD emission vx
 F        = chcluster        ! cluster only according to channel diag
 T        = pdfwgt           ! for ickkw=1, perform pdf reweighting
 5        = asrwgtflavor     ! highest quark flavor for a_s reweight
 T        = clusinfo         ! include clustering tag in output
 3.0      = lhe_version       ! Change the way clustering information pass to shower.        
#*********************************************************************
#**********************************************************
#
#**********************************************************
# Automatic ptj and mjj cuts if xqcut > 0
# (turn off for VBF and single top processes)
#**********************************************************
   T  = auto_ptj_mjj  ! Automatic setting of ptj and mjj
#**********************************************************
#                                                                    
#**********************************
# BW cutoff (M+/-bwcutoff*Gamma)
#**********************************
  15  = bwcutoff      ! (M+/-bwcutoff*Gamma)
#**********************************************************
# Apply pt/E/eta/dr/mij cuts on decay products or not
# (note that etmiss/ptll/ptheavy/ht/sorted cuts always apply)
#**********************************************************
   T  = cut_decays    ! Cut decay products 
#*************************************************************
# Number of helicities to sum per event (0 = all helicities)
# 0 gives more stable result, but longer run time (needed for
# long decay chains e.g.).
# Use >=2 if most helicities contribute, e.g. pure QCD.
#*************************************************************
   0  = nhel          ! Number of helicities used per event
#*******************                                                 
# Standard Cuts
#*******************                                                 
#                                                                    
#*********************************************************************
# Minimum and maximum pt's (for max, -1 means no cut)                *
#*********************************************************************
 20  = ptj       ! minimum pt for the jets 
  0  = ptb       ! minimum pt for the b 
 10  = pta       ! minimum pt for the photons 
 10  = ptl       ! minimum pt for the charged leptons 
  0  = misset    ! minimum missing Et (sum of neutrino's momenta)
  0  = ptheavy   ! minimum pt for one heavy final state
 1.0 = ptonium   ! minimum pt for the quarkonium states
 -1  = ptjmax    ! maximum pt for the jets
 -1  = ptbmax    ! maximum pt for the b
 -1  = ptamax    ! maximum pt for the photons
 -1  = ptlmax    ! maximum pt for the charged leptons
 -1  = missetmax ! maximum missing Et (sum of neutrino's momenta)
#*********************************************************************
# Minimum and maximum E's (in the center of mass frame)              *
#*********************************************************************
  0  = ej     ! minimum E for the jets 
  0  = eb     ! minimum E for the b 
  0  = ea     ! minimum E for the photons 
  0  = el     ! minimum E for the charged leptons 
 -1   = ejmax ! maximum E for the jets
 -1   = ebmax ! maximum E for the b
 -1   = eamax ! maximum E for the photons
 -1   = elmax ! maximum E for the charged leptons
#*********************************************************************
# Maximum and minimum absolute rapidity (for max, -1 means no cut)   *
#*********************************************************************
   5  = etaj    ! max rap for the jets 
  -1  = etab    ! max rap for the b
 2.5  = etaa    ! max rap for the photons 
 2.5  = etal    ! max rap for the charged leptons 
 0.6  = etaonium ! max rap for the quarkonium states
   0  = etajmin ! min rap for the jets
   0  = etabmin ! min rap for the b
   0  = etaamin ! min rap for the photons
   0  = etalmin ! main rap for the charged leptons
#*********************************************************************
# Minimum and maximum DeltaR distance                                *
#*********************************************************************
 0.4 = drjj    ! min distance between jets 
 0   = drbb    ! min distance between b's 
 0.4 = drll    ! min distance between leptons 
 0.4 = draa    ! min distance between gammas 
 0   = drbj    ! min distance between b and jet 
 0.4 = draj    ! min distance between gamma and jet 
 0.4 = drjl    ! min distance between jet and lepton 
 0   = drab    ! min distance between gamma and b 
 0   = drbl    ! min distance between b and lepton 
 0.4 = dral    ! min distance between gamma and lepton 
 -1  = drjjmax ! max distance between jets
 -1  = drbbmax ! max distance between b's
 -1  = drllmax ! max distance between leptons
 -1  = draamax ! max distance between gammas
 -1  = drbjmax ! max distance between b and jet
 -1  = drajmax ! max distance between gamma and jet
 -1  = drjlmax ! max distance between jet and lepton
 -1  = drabmax ! max distance between gamma and b
 -1  = drblmax ! max distance between b and lepton
 -1  = dralmax ! maxdistance between gamma and lepton
#*********************************************************************
# Minimum and maximum invariant mass for pairs                       *
# WARNING: for four lepton final state mmll cut require to have      *
#          different lepton masses for each flavor!                  *           
#*********************************************************************
 0   = mmjj    ! min invariant mass of a jet pair 
 0   = mmbb    ! min invariant mass of a b pair 
 0   = mmaa    ! min invariant mass of gamma gamma pair
 0   = mmll    ! min invariant mass of l+l- (same flavour) lepton pair
 -1  = mmjjmax ! max invariant mass of a jet pair
 -1  = mmbbmax ! max invariant mass of a b pair
 -1  = mmaamax ! max invariant mass of gamma gamma pair
 -1  = mmllmax ! max invariant mass of l+l- (same flavour) lepton pair
#*********************************************************************
# Minimum and maximum invariant mass for all letpons                 *
#*********************************************************************
 0   = mmnl    ! min invariant mass for all letpons (l+- and vl) 
 -1  = mmnlmax ! max invariant mass for all letpons (l+- and vl) 
#*********************************************************************
# Minimum and maximum pt for 4-momenta sum of leptons                *
#*********************************************************************
 0   = ptllmin  ! Minimum pt for 4-momenta sum of leptons(l and vl)
 -1  = ptllmax  ! Maximum pt for 4-momenta sum of leptons(l and vl)
#*********************************************************************
# Inclusive cuts                                                     *
#*********************************************************************
 0  = xptj ! minimum pt for at least one jet  
 0  = xptb ! minimum pt for at least one b 
 0  = xpta ! minimum pt for at least one photon 
 0  = xptl ! minimum pt for at least one charged lepton 
#*********************************************************************
# Control the pt's of the jets sorted by pt                          *
#*********************************************************************
 0   = ptj1min ! minimum pt for the leading jet in pt
 0   = ptj2min ! minimum pt for the second jet in pt
 0   = ptj3min ! minimum pt for the third jet in pt
 0   = ptj4min ! minimum pt for the fourth jet in pt
 -1  = ptj1max ! maximum pt for the leading jet in pt 
 -1  = ptj2max ! maximum pt for the second jet in pt
 -1  = ptj3max ! maximum pt for the third jet in pt
 -1  = ptj4max ! maximum pt for the fourth jet in pt
 0   = cutuse  ! reject event if fails any (0) / all (1) jet pt cuts
#*********************************************************************
# Control the pt's of leptons sorted by pt                           *
#*********************************************************************
 0   = ptl1min ! minimum pt for the leading lepton in pt
 0   = ptl2min ! minimum pt for the second lepton in pt
 0   = ptl3min ! minimum pt for the third lepton in pt
 0   = ptl4min ! minimum pt for the fourth lepton in pt
 -1  = ptl1max ! maximum pt for the leading lepton in pt 
 -1  = ptl2max ! maximum pt for the second lepton in pt
 -1  = ptl3max ! maximum pt for the third lepton in pt
 -1  = ptl4max ! maximum pt for the fourth lepton in pt
#*********************************************************************
# Control the Ht(k)=Sum of k leading jets                            *
#*********************************************************************
 0   = htjmin ! minimum jet HT=Sum(jet pt)
 -1  = htjmax ! maximum jet HT=Sum(jet pt)
 0   = ihtmin  !inclusive Ht for all partons (including b)
 -1  = ihtmax  !inclusive Ht for all partons (including b)
 0   = ht2min ! minimum Ht for the two leading jets
 0   = ht3min ! minimum Ht for the three leading jets
 0   = ht4min ! minimum Ht for the four leading jets
 -1  = ht2max ! maximum Ht for the two leading jets
 -1  = ht3max ! maximum Ht for the three leading jets
 -1  = ht4max ! maximum Ht for the four leading jets
#***********************************************************************
# Photon-isolation cuts, according to hep-ph/9801442                   *
# When ptgmin=0, all the other parameters are ignored                  *
# When ptgmin>0, pta and draj are not going to be used                 *
#***********************************************************************
   0 = ptgmin ! Min photon transverse momentum
 0.4 = R0gamma ! Radius of isolation code
 1.0 = xn ! n parameter of eq.(3.4) in hep-ph/9801442
 1.0 = epsgamma ! epsilon_gamma parameter of eq.(3.4) in hep-ph/9801442
 .true. = isoEM ! isolate photons from EM energy (photons and leptons)
#*********************************************************************
# WBF cuts                                                           *
#*********************************************************************
 0   = xetamin ! minimum rapidity for two jets in the WBF case  
 0   = deltaeta ! minimum rapidity for two jets in the WBF case 
#*********************************************************************
# KT DURHAM CUT                                                      *
#*********************************************************************
 -1    =  ktdurham        
 0.4  =  dparameter 
#*********************************************************************
# maximal pdg code for quark to be considered as a light jet         *
# (otherwise b cuts are applied)                                     *
#*********************************************************************
 4 = maxjetflavor    ! Maximum jet pdg code
#*********************************************************************
# Jet measure cuts                                                   *
#*********************************************************************
 0   = xqcut   ! minimum kt jet measure between partons
#*********************************************************************
#
#*********************************************************************
# Store info for systematics studies                                 *
# WARNING: If use_syst is T, matched Pythia output is                *
#          meaningful ONLY if plotted taking matchscale              *
#          reweighting into account!                                 *
#*********************************************************************
   F  = use_syst      ! Enable systematics studies
#
#**************************************
# Parameter of the systematics study
#  will be used by SysCalc (if installed)
#**************************************                                  
#
0.5 1 2 = sys_scalefact  # factorization/renormalization scale factor
0.5 1 2 = sys_alpsfact  # \alpha_s emission scale factors
30 50 = sys_matchscale # variation of merging scale
# PDF sets and number of members (0 or none for all members).
CT10nlo.LHgrid = sys_pdf # matching scales
# MSTW2008nlo68cl.LHgrid 1  = sys_pdf
</MGRunCard>
<slha>
######################################################################
## PARAM_CARD AUTOMATICALY GENERATED BY MG5 FOLLOWING UFO MODEL   ####
######################################################################
##                                                                  ##
##  Width set on Auto will be computed following the information    ##
##        present in the decay.py files of the model.               ##
##        See  arXiv:1402.1178 for more details.                    ##
##                                                                  ##
######################################################################

###################################
## INFORMATION FOR CKMBLOCK
###################################
Block ckmblock 
    1 2.277360e-01 # cabi 

###################################
## INFORMATION FOR FRBLOCK
###################################
Block frblock 
    1 4.000000e-01 # gz 

###################################
## INFORMATION FOR MASS
###################################
Block mass 
    1 5.040000e-03 # MD 
    2 2.550000e-03 # MU 
    3 1.010000e-01 # MS 
    4 1.270000e+00 # MC 
    5 4.700000e+00 # MB 
    6 1.720000e+02 # MT 
   11 5.110000e-04 # Me 
   13 1.056600e-01 # MM 
   15 1.777000e+00 # MTA 
   23 9.118760e+01 # MZ 
   25 1.200000e+02 # MH 
  10030 4.000000e+03 # MZph 
  10031 3.000000e+02 # MZpl 
## Dependent parameters, given by model restrictions.
## Those values should be edited following the 
## analytical expression. MG5 ignores those values 
## but they are important for interfacing the output of MG5
## to external program such as Pythia.
  12 0.000000 # ve : 0.0 
  14 0.000000 # vm : 0.0 
  16 0.000000 # vt : 0.0 
  21 0.000000 # g : 0.0 
  22 0.000000 # a : 0.0 
  24 79.824360 # w+ : cmath.sqrt(MZ__exp__2/2. + cmath.sqrt(MZ__exp__4/4. - (aEW*cmath.pi*MZ__exp__2)/(Gf*sqrt__2))) 

###################################
## INFORMATION FOR SMINPUTS
###################################
Block sminputs 
    1 1.279000e+02 # aEWM1 
    2 1.166370e-05 # Gf 
    3 1.184000e-01 # aS 

###################################
## INFORMATION FOR YUKAWA
###################################
Block yukawa 
    1 5.040000e-03 # ymdo 
    2 2.550000e-03 # ymup 
    3 1.010000e-01 # yms 
    4 1.270000e+00 # ymc 
    5 4.700000e+00 # ymb 
    6 1.720000e+02 # ymt 
   11 5.110000e-04 # yme 
   13 1.056600e-01 # ymm 
   15 1.777000e+00 # ymtau 

###################################
## INFORMATION FOR DECAY
###################################
DECAY   6 1.508336e+00 # WT 
DECAY  23 2.495200e+00 # WZ 
DECAY  24 2.085000e+00 # WW 
DECAY  25 5.753088e-03 # WH 
## Dependent parameters, given by model restrictions.
## Those values should be edited following the 
## analytical expression. MG5 ignores those values 
## but they are important for interfacing the output of MG5
## to external program such as Pythia.
DECAY  1 0.000000 # d : 0.0 
DECAY  2 0.000000 # u : 0.0 
DECAY  3 0.000000 # s : 0.0 
DECAY  4 0.000000 # c : 0.0 
DECAY  5 0.000000 # b : 0.0 
DECAY  11 0.000000 # e- : 0.0 
DECAY  12 0.000000 # ve : 0.0 
DECAY  13 0.000000 # mu- : 0.0 
DECAY  14 0.000000 # vm : 0.0 
DECAY  15 0.000000 # ta- : 0.0 
DECAY  16 0.000000 # vt : 0.0 
DECAY  21 0.000000 # g : 0.0 
DECAY  22 0.000000 # a : 0.0 
DECAY  10030 0.308725 # zph : (gz__exp__2*MZph*(5 + cmath.sqrt(1 - (4*MT__exp__2)/MZph__exp__2)))/(144.*cmath.pi) 
DECAY  10031 0.132629 # zpl : (5*gz__exp__2*MZpl)/(144.*cmath.pi) 
#===========================================================
# QUANTUM NUMBERS OF NEW STATE(S) (NON SM PDG CODE)
#===========================================================

Block QNUMBERS 10030  # zph 
        1 0  # 3 times electric charge
        2 3  # number of spin states (2S+1)
        3 1  # colour rep (1: singlet, 3: triplet, 8: octet)
        4 0  # Particle/Antiparticle distinction (0=own anti)
Block QNUMBERS 10031  # zpl 
        1 0  # 3 times electric charge
        2 3  # number of spin states (2S+1)
        3 1  # colour rep (1: singlet, 3: triplet, 8: octet)
        4 0  # Particle/Antiparticle distinction (0=own anti)
</slha>
## END BANNER##
<MGGenerationInfo>
#  Number of Events        :         3825
#  Integrated weight (pb)  :  0.66639E-05
#  Max wgt                 :  0.27469E-08
#  Average wgt             :  0.17422E-08
</MGGenerationInfo>
</header>
<init>
     2212     2212  0.40000000000E+04  0.40000000000E+04 0 0  247000  247000 2   1
  0.66719939430E-05  0.15470767930E-07  0.27468760000E-08   0
</init>
<event>
 5   0  0.2746876E-08  0.4004198E+04  0.7818609E-02  0.8003700E-01
       -2   -1    0    0    0  501  0.00000000000E+00  0.00000000000E+00  0.14678115671E+04  0.14678115671E+04  0.25500000920E-02 0.  1.
        2   -1    0    0  501    0  0.00000000000E+00  0.00000000000E+00 -0.27308688303E+04  0.27308688303E+04  0.25500000920E-02 0. -1.
    10030    2    1    2    0    0  0.00000000000E+00  0.00000000000E+00 -0.12630572631E+04  0.41986803974E+04  0.40041982256E+04 0.  0.
        1    1    3    3  502    0  0.81923717532E+03 -0.15832603635E+04  0.32407322326E+03  0.18118737213E+04  0.50400001928E-02 0. -1.
       -1    1    3    3    0  502 -0.81923717532E+03  0.15832603635E+04 -0.15871304864E+04  0.23868066761E+04  0.50400001928E-02 0.  1.
</event>
<event>
 5   0  0.2746876E-08  0.3997929E+04  0.7818609E-02  0.8004964E-01
        2   -1    0    0  501    0  0.00000000000E+00  0.00000000000E+00  0.24416645806E+04  0.24416645806E+04  0.25500000920E-02 0. -1.
       -2   -1    0    0    0  501  0.00000000000E+00  0.00000000000E+00 -0.16365309785E+04  0.16365309785E+04  0.25500000920E-02 0.  1.
    10030    2    1    2    0    0  0.00000000000E+00  0.00000000000E+00  0.80513360206E+03  0.40781955591E+04  0.39979293266E+04 0.  0.
        1    1    3    3  502    0 -0.31112453325E+03  0.19483277575E+04  0.73007378055E+03  0.21037555112E+04  0.50400001928E-02 0. -1.
       -1    1    3    3    0  502  0.31112453325E+03 -0.19483277575E+04  0.75059821513E+02  0.19744400479E+04  0.50400001928E-02 0.  1.
</event>
<event>
 5   0  0.2650452E-08  0.3994661E+04  0.7818609E-02  0.8005625E-01
       -2   -1    0    0    0  501  0.00000000000E+00  0.00000000000E+00  0.17879128283E+04  0.17879128283E+04  0.25500000920E-02 0. -1.
        2   -1    0    0  501    0  0.00000000000E+00  0.00000000000E+00 -0.22312769191E+04  0.22312769191E+04  0.25500000920E-02 0.  1.
    10030    2    1    2    0    0  0.00000000000E+00  0.00000000000E+00 -0.44336409084E+03  0.40191897475E+04  0.39946607502E+04 0.  0.
        3    1    3    3  502    0 -0.15524250602E+04  0.31752514308E+03  0.10017130937E+04  0.18746399431E+04  0.10100000352E+00 0. -1.
       -3    1    3    3    0  502  0.15524250602E+04 -0.31752514308E+03 -0.14450771846E+04  0.21445498044E+04  0.10100000352E+00 0.  1.
</event>
<event>
 5   0  0.2746876E-08  0.4001777E+04  0.7818609E-02  0.8004188E-01
        2   -1    0    0  501    0  0.00000000000E+00  0.00000000000E+00  0.18124194780E+04  0.18124194780E+04  0.25500000920E-02 0.  1.
       -2   -1    0    0    0  501  0.00000000000E+00  0.00000000000E+00 -0.22089558447E+04  0.22089558447E+04  0.25500000920E-02 0. -1.
    10030    2    1    2    0    0  0.00000000000E+00  0.00000000000E+00 -0.39653636670E+03  0.40213753227E+04  0.40017769048E+04 0.  0.
        1    1    3    3  502    0 -0.86885148375E+03 -0.14055641303E+04 -0.13320851724E+04  0.21224901252E+04  0.50400001928E-02 0. -1.
       -1    1    3    3    0  502  0.86885148375E+03  0.14055641303E+04  0.93554880568E+03  0.18988851974E+04  0.50400001928E-02 0.  1.
</event>
<event>
 5   0  0.2650452E-08  0.3999754E+04  0.7818609E-02  0.8004596E-01
        2   -1    0    0  501    0  0.00000000000E+00  0.00000000000E+00  0.12779933323E+04  0.12779933323E+04  0.25500000920E-02 0. -1.
       -2   -1    0    0    0  501  0.00000000000E+00  0.00000000000E+00 -0.31295210747E+04  0.31295210747E+04  0.25500000920E-02 0.  1.
    10030    2    1    2    0    0  0.00000000000E+00  0.00000000000E+00 -0.18515277425E+04  0.44075144070E+04  0.39997535257E+04 0.  0.
        3    1    3    3  502    0  0.10561841703E+04 -0.14482440194E+04 -0.19030676160E+04  0.26143071936E+04  0.10100000352E+00 0.  1.
       -3    1    3    3    0  502 -0.10561841703E+04  0.14482440194E+04  0.51539873550E+02  0.17932072134E+04  0.10100000352E+00 0. -1.
</event>
<event>
 5   0  0.8329875E-09  0.3988712E+04  0.7818609E-02  0.8006828E-01
       -1   -1    0    0    0  501  0.00000000000E+00  0.00000000000E+00  0.26444072038E+04  0.26444072038E+04  0.50400001928E-02 0. -1.
        1   -1    0    0  501    0  0.00000000000E+00  0.00000000000E+00 -0.15041012215E+04  0.15041012216E+04  0.50400001928E-02 0.  1.
    10030    2    1    2    0    0  0.00000000000E+00  0.00000000000E+00  0.11403059823E+04  0.41485084254E+04  0.39887121258E+04 0.  0.
        1    1    3    3  502    0 -0.14321618463E+04 -0.12636922170E+04 -0.26819597265E+02  0.19101635700E+04  0.50400001928E-02 0.  1.
       -1    1    3    3    0  502  0.14321618463E+04  0.12636922170E+04  0.11671255795E+04  0.22383448554E+04  0.50400001928E-02 0. -1.
</event>
<event>
 5   0  0.8329875E-09  0.4017099E+04  0.7818609E-02  0.8001106E-01
        1   -1    0    0  501    0  0.00000000000E+00  0.00000000000E+00  0.26125870935E+04  0.26125870935E+04  0.50400001928E-02 0.  1.
       -1   -1    0    0    0  501  0.00000000000E+00  0.00000000000E+00 -0.15441674700E+04  0.15441674700E+04  0.50400001928E-02 0. -1.
    10030    2    1    2    0    0  0.00000000000E+00  0.00000000000E+00  0.10684196235E+04  0.41567545634E+04  0.40170994522E+04 0.  0.
        3    1    3    3  502    0  0.44581706963E+03  0.79973856921E+03 -0.13156589869E+04  0.16029015000E+04  0.10100000352E+00 0. -1.
       -3    1    3    3    0  502 -0.44581706963E+03 -0.79973856921E+03  0.23840786104E+04  0.25538530634E+04  0.10100000352E+00 0.  1.
</event>
<event>
 5   0  0.2746876E-08  0.3995223E+04  0.7818609E-02  0.8005511E-01
        2   -1    0    0  501    0  0.00000000000E+00  0.00000000000E+00  0.14259787995E+04  0.14259787995E+04  0.25500000920E-02 0. -1.
       -2   -1    0    0    0  501  0.00000000000E+00  0.00000000000E+00 -0.27983951798E+04  0.27983951799E+04  0.25500000920E-02 0.  1.
    10030    2    1    2    0    0  0.00000000000E+00  0.00000000000E+00 -0.13724163804E+04  0.42243739793E+04  0.39952232473E+04 0.  0.
        1    1    3    3  502    0 -0.14826075869E+04  0.47321149243E+03  0.63797912269E+03  0.16819844631E+04  0.50400001928E-02 0. -1.
       -1    1    3    3    0  502  0.14826075869E+04 -0.47321149243E+03 -0.20103955031E+04  0.25423895162E+04  0.50400001928E-02 0.  1.
</event>
<event>
 5   0  0.8329875E-09  0.4002469E+04  0.7818609E-02  0.8004049E-01
       -1   -1    0    0    0  501  0.00000000000E+00  0.00000000000E+00  0.33990860856E+04  0.33990860856E+04  0.50400001928E-02 0.  1.
        1   -1    0    0  501    0  0.00000000000E+00  0.00000000000E+00 -0.11782400159E+04  0.11782400159E+04  0.50400001928E-02 0. -1.
    10030    2    1    2    0    0  0.00000000000E+00  0.00000000000E+00  0.22208460697E+04  0.45773261016E+04  0.40024688599E+04 0.  0.
        2    1    3    3  502    0 -0.17513130063E+04  0.70695092592E+03  0.18673463352E+04  0.26559102382E+04  0.25500000920E-02 0. -1.
       -2    1    3    3    0  502  0.17513130063E+04 -0.70695092592E+03  0.35349973453E+03  0.19214158634E+04  0.25500000920E-02 0.  1.
</event>
<event>
 5   0  0.2746876E-08  0.3998998E+04  0.7818609E-02  0.8004749E-01
       -2   -1    0    0    0  501  0.00000000000E+00  0.00000000000E+00  0.22492053859E+04  0.22492053860E+04  0.25500000920E-02 0. -1.
        2   -1    0    0  501    0  0.00000000000E+00  0.00000000000E+00 -0.17775149546E+04  0.17775149546E+04  0.25500000920E-02 0.  1.
    10030    2    1    2    0    0  0.00000000000E+00  0.00000000000E+00  0.47169043134E+03  0.40267203406E+04  0.39989979793E+04 0.  0.
        1    1    3    3  502    0 -0.54683915581E+03  0.18194721778E+04 -0.39176055948E+03  0.19398423658E+04  0.50400001928E-02 0.  1.
       -1    1    3    3    0  502  0.54683915581E+03 -0.18194721778E+04  0.86345099082E+03  0.20868779748E+04  0.50400001928E-02 0. -1.
</event>
<event>
 5   0  0.2587493E-08  0.3993402E+04  0.7818609E-02  0.8005879E-01
       -2   -1    0    0    0  501  0.00000000000E+00  0.00000000000E+00  0.20598207800E+04  0.20598207800E+04  0.25500000920E-02 0. -1.
        2   -1    0    0  501    0  0.00000000000E+00  0.00000000000E+00 -0.19355150332E+04  0.19355150332E+04  0.25500000920E-02 0.  1.
    10030    2    1    2    0    0  0.00000000000E+00  0.00000000000E+00  0.12430574682E+03  0.39953358132E+04  0.39934016003E+04 0.  0.
        5    1    3    3  502    0 -0.12053352344E+04 -0.44587009541E+03 -0.14667099238E+04  0.19501008332E+04  0.46999998093E+01 0.  1.
       -5    1    3    3    0  502  0.12053352344E+04  0.44587009541E+03  0.15910156706E+04  0.20452349800E+04  0.46999998093E+01 0. -1.
</event>
<event>
 5   0  0.2587493E-08  0.3974636E+04  0.7818609E-02  0.8009683E-01
        2   -1    0    0  501    0  0.00000000000E+00  0.00000000000E+00  0.26093651141E+04  0.26093651141E+04  0.25500000920E-02 0.  1.
       -2   -1    0    0    0  501  0.00000000000E+00  0.00000000000E+00 -0.15135606851E+04  0.15135606851E+04  0.25500000920E-02 0. -1.
    10030    2    1    2    0    0  0.00000000000E+00  0.00000000000E+00  0.10958044290E+04  0.41229257992E+04  0.39746358071E+04 0.  0.
        5    1    3    3  502    0  0.57473013212E+03  0.94235788318E+03 -0.11663455057E+04  0.16058446479E+04  0.46999998093E+01 0. -1.
       -5    1    3    3    0  502 -0.57473013212E+03 -0.94235788318E+03  0.22621499347E+04  0.25170811512E+04  0.46999998093E+01 0.  1.
</event>
<event>
 5   0  0.8329875E-09  0.3997576E+04  0.7818609E-02  0.8005036E-01
       -1   -1    0    0    0  501  0.00000000000E+00  0.00000000000E+00  0.22878924196E+04  0.22878924196E+04  0.50400001928E-02 0.  1.
        1   -1    0    0  501    0  0.00000000000E+00  0.00000000000E+00 -0.17462157291E+04  0.17462157291E+04  0.50400001928E-02 0. -1.
    10030    2    1    2    0    0  0.00000000000E+00  0.00000000000E+00  0.54167669055E+03  0.40341081487E+04  0.39975761304E+04 0.  0.
        5    1    3    3  502    0  0.10878482929E+04 -0.11018659598E+04  0.15463547882E+04  0.21883230389E+04  0.46999998093E+01 0.  1.
       -5    1    3    3    0  502 -0.10878482929E+04  0.11018659598E+04 -0.10046780977E+04  0.18457851098E+04  0.46999998093E+01 0. -1.
</event>
<event>
 5   0  0.8329875E-09  0.3999538E+04  0.7818609E-02  0.8004640E-01
       -1   -1    0    0    0  501  0.00000000000E+00  0.00000000000E+00  0.15165615889E+04  0.15165615889E+04  0.50400001928E-02 0. -1.
        1   -1    0    0  501    0  0.00000000000E+00  0.00000000000E+00 -0.26369361961E+04  0.26369361961E+04  0.50400001928E-02 0.  1.
    10030    2    1    2    0    0  0.00000000000E+00  0.00000000000E+00 -0.11203746073E+04  0.41534977850E+04  0.39995380470E+04 0.  0.
        1    1    3    3  502    0  0.93733600388E+03  0.16059878491E+04 -0.13242259001E+04  0.22828425241E+04  0.50400001928E-02 0. -1.
       -1    1    3    3    0  502 -0.93733600388E+03 -0.16059878491E+04  0.20385129278E+03  0.18706552609E+04  0.50400001928E-02 0.  1.
</event>
<event>
 5   0  0.8329875E-09  0.4002566E+04  0.7818609E-02  0.8004029E-01
       -1   -1    0    0    0  501  0.00000000000E+00  0.00000000000E+00  0.17811318129E+04  0.17811318129E+04  0.50400001928E-02 0. -1.
        1   -1    0    0  501    0  0.00000000000E+00  0.00000000000E+00 -0.22486451079E+04  0.22486451079E+04  0.50400001928E-02 0.  1.
    10030    2    1    2    0    0  0.00000000000E+00  0.00000000000E+00 -0.46751329504E+03  0.40297769208E+04  0.40025658459E+04 0.  0.
        3    1    3    3  502    0 -0.10027564596E+04  0.59622551996E+03  0.14033755606E+04  0.18249570850E+04  0.10100000352E+00 0. -1.
       -3    1    3    3    0  502  0.10027564596E+04 -0.59622551996E+03 -0.18708888557E+04  0.22048198358E+04  0.10100000352E+00 0.  1.
</event>
<event>
 5   0  0.8329875E-09  0.3995974E+04  0.7818609E-02  0.8005359E-01
        1   -1    0    0  501    0  0.00000000000E+00  0.00000000000E+00  0.25341113513E+04  0.25341113513E+04  0.50400001928E-02 0. -1.
       -1   -1    0    0    0  501  0.00000000000E+00  0.00000000000E+00 -0.15752865708E+04  0.15752865708E+04  0.50400001928E-02 0.  1.
    10030    2    1    2    0    0  0.00000000000E+00  0.00000000000E+00  0.95882478049E+03  0.41093979221E+04  0.39959737640E+04 0.  0.
        3    1    3    3  502    0  0.52307350236E+03 -0.16000630467E+04 -0.62730525982E+03  0.17964741973E+04  0.10100000352E+00 0.  1.
       -3    1    3    3    0  502 -0.52307350236E+03  0.16000630467E+04  0.15861300403E+04  0.23129237249E+04  0.10100000352E+00 0. -1.
</event>
<event>
 5   0  0.2746876E-08  0.3996866E+04  0.7818609E-02  0.8005179E-01
       -2   -1    0    0    0  501  0.00000000000E+00  0.00000000000E+00  0.16793007227E+04  0.16793007227E+04  0.25500000920E-02 0. -1.
        2   -1    0    0  501    0  0.00000000000E+00  0.00000000000E+00 -0.23782130828E+04  0.23782130828E+04  0.25500000920E-02 0.  1.
    10030    2    1    2    0    0  0.00000000000E+00  0.00000000000E+00 -0.69891236003E+03  0.40575138055E+04  0.39968662468E+04 0.  0.
        1    1    3    3  502    0  0.60750451580E+03  0.93057774796E+03  0.13366793976E+04  0.17383177194E+04  0.50400001928E-02 0. -1.
       -1    1    3    3    0  502 -0.60750451580E+03 -0.93057774796E+03 -0.20355917576E+04  0.23191960860E+04  0.50400001928E-02 0.  1.
</event>
<event>
 5   0  0.8329875E-09  0.3996833E+04  0.7818609E-02  0.8005186E-01
        1   -1    0    0  501    0  0.00000000000E+00  0.00000000000E+00  0.19990737405E+04  0.19990737405E+04  0.50400001928E-02 0. -1.
       -1   -1    0    0    0  501  0.00000000000E+00  0.00000000000E+00 -0.19977593113E+04  0.19977593113E+04  0.50400001928E-02 0.  1.
    10030    2    1    2    0    0  0.00000000000E+00  0.00000000000E+00  0.13144291626E+01  0.39968330518E+04  0.39968328357E+04 0.  0.
        4    1    3    3  502    0 -0.10290266114E+04 -0.38467162857E+03 -0.16687135767E+04  0.19978675238E+04  0.12699999809E+01 0.  1.
       -4    1    3    3    0  502  0.10290266114E+04  0.38467162857E+03  0.16700280059E+04  0.19989655280E+04  0.12699999809E+01 0. -1.
</event>
<event>
 5   0  0.8329875E-09  0.3976592E+04  0.7818609E-02  0.8009285E-01
        1   -1    0    0  501    0  0.00000000000E+00  0.00000000000E+00  0.29126414711E+04  0.29126414711E+04  0.50400001928E-02 0. -1.
       -1   -1    0    0    0  501  0.00000000000E+00  0.00000000000E+00 -0.13572975624E+04  0.13572975624E+04  0.50400001928E-02 0.  1.
    10030    2    1    2    0    0  0.00000000000E+00  0.00000000000E+00  0.15553439087E+04  0.42699390335E+04  0.39765920931E+04 0.  0.
        1    1    3    3  502    0 -0.59367907074E+02  0.10413547976E+04 -0.10399413799E+04  0.14728959354E+04  0.50400001928E-02 0.  1.
       -1    1    3    3    0  502  0.59367907074E+02 -0.10413547976E+04  0.25952852886E+04  0.27970430980E+04  0.50400001928E-02 0. -1.
</event>
<event>
 5   0  0.2599332E-08  0.4004451E+04  0.7818609E-02  0.8003649E-01
        2   -1    0    0  501    0  0.00000000000E+00  0.00000000000E+00  0.11435694970E+04  0.11435694970E+04  0.25500000920E-02 0.  1.
       -2   -1    0    0    0  501  0.00000000000E+00  0.00000000000E+00 -0.35056083492E+04  0.35056083492E+04  0.25500000920E-02 0. -1.
    10030    2    1    2    0    0  0.00000000000E+00  0.00000000000E+00 -0.23620388522E+04  0.46491778463E+04  0.40044509120E+04 0.  0.
        2    1    3    3  502    0 -0.68361406639E+03 -0.11500392997E+04  0.54844120849E+03  0.14459275023E+04  0.25500000920E-02 0.  1.
       -2    1    3    3    0  502  0.68361406639E+03  0.11500392997E+04 -0.29104800607E+04  0.32032503440E+04  0.25500000920E-02 0. -1.
</event>
<event>
 5   0  0.8329875E-09  0.4004637E+04  0.7818609E-02  0.8003612E-01
        1   -1    0    0  501    0  0.00000000000E+00  0.00000000000E+00  0.28159839496E+04  0.28159839496E+04  0.50400001928E-02 0.  1.
       -1   -1    0    0    0  501  0.00000000000E+00  0.00000000000E+00 -0.14237581033E+04  0.14237581033E+04  0.50400001928E-02 0. -1.
    10030    2    1    2    0    0  0.00000000000E+00  0.00000000000E+00  0.13922258463E+04  0.42397420529E+04  0.40046372954E+04 0.  0.
        3    1    3    3  502    0 -0.21604151024E+03 -0.14458861116E+04  0.21446560066E+04  0.25955365493E+04  0.10100000352E+00 0.  1.
       -3    1    3    3    0  502  0.21604151024E+03  0.14458861116E+04 -0.75243016030E+03  0.16442055036E+04  0.10100000352E+00 0. -1.
</event>
<event>
 5   0  0.2650452E-08  0.4033351E+04  0.7818609E-02  0.7997852E-01
       -2   -1    0    0    0  501  0.00000000000E+00  0.00000000000E+00  0.26235907297E+04  0.26235907297E+04  0.25500000920E-02 0.  1.
        2   -1    0    0  501    0  0.00000000000E+00  0.00000000000E+00 -0.15501582413E+04  0.15501582413E+04  0.25500000920E-02 0. -1.
    10030    2    1    2    0    0  0.00000000000E+00  0.00000000000E+00  0.10734324884E+04  0.41737489710E+04  0.40333513566E+04 0.  0.
        3    1    3    3  502    0  0.90908682828E+03 -0.93232496688E+03 -0.10567931393E+04  0.16770451558E+04  0.10100000352E+00 0. -1.
       -3    1    3    3    0  502 -0.90908682828E+03  0.93232496688E+03  0.21302256278E+04  0.24967038152E+04  0.10100000352E+00 0.  1.
</event>
<event>
 5   0  0.8329875E-09  0.4002445E+04  0.7818609E-02  0.8004053E-01
       -1   -1    0    0    0  501  0.00000000000E+00  0.00000000000E+00  0.16432300631E+04  0.16432300631E+04  0.50400001928E-02 0.  1.
        1   -1    0    0  501    0  0.00000000000E+00  0.00000000000E+00 -0.24372073531E+04  0.24372073531E+04  0.50400001928E-02 0. -1.
    10030    2    1    2    0    0  0.00000000000E+00  0.00000000000E+00 -0.79397728996E+03  0.40804374162E+04  0.40024454488E+04 0.  0.
        1    1    3    3  502    0  0.18482635925E+04 -0.30625866076E+03 -0.11142749665E+04  0.21797892962E+04  0.50400001928E-02 0. -1.
       -1    1    3    3    0  502 -0.18482635925E+04  0.30625866076E+03  0.32029767659E+03  0.19006481200E+04  0.50400001928E-02 0.  1.
</event>
<event>
 5   0  0.2599332E-08  0.4012378E+04  0.7818609E-02  0.8002054E-01
        2   -1    0    0  501    0  0.00000000000E+00  0.00000000000E+00  0.11388330305E+04  0.11388330305E+04  0.25500000920E-02 0.  1.
       -2   -1    0    0    0  501  0.00000000000E+00  0.00000000000E+00 -0.35341393690E+04  0.35341393690E+04  0.25500000920E-02 0. -1.
    10030    2    1    2    0    0  0.00000000000E+00  0.00000000000E+00 -0.23953063385E+04  0.46729723995E+04  0.40123781716E+04 0.  0.
        2    1    3    3  502    0 -0.16029181730E+04 -0.10545293576E+04 -0.18801513547E+04  0.26863261068E+04  0.25500000920E-02 0.  1.
       -2    1    3    3    0  502  0.16029181730E+04  0.10545293576E+04 -0.51515498374E+03  0.19866462928E+04  0.25500000920E-02 0. -1.
</event>
<event>
 5   0  0.8329875E-09  0.4001081E+04  0.7818609E-02  0.8004328E-01
       -1   -1    0    0    0  501  0.00000000000E+00  0.00000000000E+00  0.13942379173E+04  0.13942379173E+04  0.50400001928E-02 0.  1.
        1   -1    0    0  501    0  0.00000000000E+00  0.00000000000E+00 -0.28705023551E+04  0.28705023551E+04  0.50400001928E-02 0. -1.
    10030    2    1    2    0    0  0.00000000000E+00  0.00000000000E+00 -0.14762644378E+04  0.42647402724E+04  0.40010814664E+04 0.  0.
        2    1    3    3  502    0  0.17984343214E+03  0.19891022088E+04 -0.61524411677E+03  0.20898317110E+04  0.25500000920E-02 0.  1.
       -2    1    3    3    0  502 -0.17984343214E+03 -0.19891022088E+04 -0.86102032099E+03  0.21749085614E+04  0.25500000920E-02 0. -1.
</event>
<event>
 5   0  0.2650452E-08  0.3989692E+04  0.7818609E-02  0.8006629E-01
        2   -1    0    0  501    0  0.00000000000E+00  0.00000000000E+00  0.21818024054E+04  0.21818024054E+04  0.25500000920E-02 0. -1.
       -2   -1    0    0    0  501  0.00000000000E+00  0.00000000000E+00 -0.18239094082E+04  0.18239094082E+04  0.25500000920E-02 0.  1.
    10030    2    1    2    0    0  0.00000000000E+00  0.00000000000E+00  0.35789299728E+03  0.40057118136E+04  0.39896916844E+04 0.  0.
        3    1    3    3  502    0 -0.11506885106E+04  0.15334197823E+04  0.73247652879E+03  0.20523114170E+04  0.10100000352E+00 0. -1.
       -3    1    3    3    0  502  0.11506885106E+04 -0.15334197823E+04 -0.37458353151E+03  0.19534003966E+04  0.10100000352E+00 0.  1.
</event>
<event>
 5   0  0.2587493E-08  0.4006517E+04  0.7818609E-02  0.8003233E-01
        2   -1    0    0  501    0  0.00000000000E+00  0.00000000000E+00  0.28050128740E+04  0.28050128741E+04  0.25500000920E-02 0. -1.
       -2   -1    0    0    0  501  0.00000000000E+00  0.00000000000E+00 -0.14306689533E+04  0.14306689533E+04  0.25500000920E-02 0.  1.
    10030    2    1    2    0    0  0.00000000000E+00  0.00000000000E+00  0.13743439207E+04  0.42356818274E+04  0.40065171072E+04 0.  0.
        5    1    3    3  502    0  0.53339813380E+03  0.78503338762E+03 -0.11778858284E+04  0.15126890307E+04  0.46999998093E+01 0.  1.
       -5    1    3    3    0  502 -0.53339813380E+03 -0.78503338762E+03  0.25522297491E+04  0.27229927967E+04  0.46999998093E+01 0. -1.
</event>
<event>
 5   0  0.8329875E-09  0.4007166E+04  0.7818609E-02  0.8003102E-01
       -1   -1    0    0    0  501  0.00000000000E+00  0.00000000000E+00  0.16106928950E+04  0.16106928950E+04  0.50400001928E-02 0. -1.
        1   -1    0    0  501    0  0.00000000000E+00  0.00000000000E+00 -0.24923097722E+04  0.24923097722E+04  0.50400001928E-02 0.  1.
    10030    2    1    2    0    0  0.00000000000E+00  0.00000000000E+00 -0.88161687722E+03  0.41030026672E+04  0.40071664015E+04 0.  0.
        2    1    3    3  502    0 -0.15809524561E+04  0.80922145409E+03 -0.13904020584E+04  0.22555416011E+04  0.25500000920E-02 0.  1.
       -2    1    3    3    0  502  0.15809524561E+04 -0.80922145409E+03  0.50878518122E+03  0.18474610661E+04  0.25500000920E-02 0. -1.
</event>
<event>
 5   0  0.2650452E-08  0.3995543E+04  0.7818609E-02  0.8005446E-01
        2   -1    0    0  501    0  0.00000000000E+00  0.00000000000E+00  0.21246628142E+04  0.21246628142E+04  0.25500000920E-02 0. -1.
       -2   -1    0    0    0  501  0.00000000000E+00  0.00000000000E+00 -0.18784588486E+04  0.18784588486E+04  0.25500000920E-02 0.  1.
    10030    2    1    2    0    0  0.00000000000E+00  0.00000000000E+00  0.24620396565E+03  0.40031216628E+04  0.39955433491E+04 0.  0.
        3    1    3    3  502    0 -0.80754868609E+03 -0.16608875391E+04 -0.64018902233E+03  0.19546161497E+04  0.10100000352E+00 0.  1.
       -3    1    3    3    0  502  0.80754868609E+03  0.16608875391E+04  0.88639298798E+03  0.20485055131E+04  0.10100000352E+00 0. -1.
</event>
<event>
 5   0  0.2746876E-08  0.4005064E+04  0.7818609E-02  0.8003526E-01
       -2   -1    0    0    0  501  0.00000000000E+00  0.00000000000E+00  0.14314533871E+04  0.14314533871E+04  0.25500000920E-02 0. -1.
        2   -1    0    0  501    0  0.00000000000E+00  0.00000000000E+00 -0.28014420539E+04  0.28014420539E+04  0.25500000920E-02 0.  1.
    10030    2    1    2    0    0  0.00000000000E+00  0.00000000000E+00 -0.13699886668E+04  0.42328954410E+04  0.40050636534E+04 0.  0.
        1    1    3    3  502    0 -0.19030870626E+03  0.26155369060E+03  0.14036609630E+04  0.14404484843E+04  0.50400001928E-02 0. -1.
       -1    1    3    3    0  502  0.19030870626E+03 -0.26155369060E+03 -0.27736496299E+04  0.27924469567E+04  0.50400001928E-02 0.  1.
</event>
<event>
 5   0  0.8329875E-09  0.4000906E+04  0.7818609E-02  0.8004364E-01
        1   -1    0    0  501    0  0.00000000000E+00  0.00000000000E+00  0.21283178476E+04  0.21283178476E+04  0.50400001928E-02 0.  1.
       -1   -1    0    0    0  501  0.00000000000E+00  0.00000000000E+00 -0.18802703783E+04  0.18802703783E+04  0.50400001928E-02 0. -1.
    10030    2    1    2    0    0  0.00000000000E+00  0.00000000000E+00  0.24804746923E+03  0.40085882259E+04  0.40009063995E+04 0.  0.
        5    1    3    3  502    0 -0.12413479065E+03  0.13573978168E+04 -0.13429776372E+04  0.19135175210E+04  0.46999998093E+01 0. -1.
       -5    1    3    3    0  502  0.12413479065E+03 -0.13573978168E+04  0.15910251064E+04  0.20950707049E+04  0.46999998093E+01 0.  1.
</event>
<event>
 5   0  0.2650452E-08  0.3986837E+04  0.7818609E-02  0.8007207E-01
       -2   -1    0    0    0  501  0.00000000000E+00  0.00000000000E+00  0.23697414431E+04  0.23697414431E+04  0.25500000920E-02 0. -1.
        2   -1    0    0  501    0  0.00000000000E+00  0.00000000000E+00 -0.16768567162E+04  0.16768567162E+04  0.25500000920E-02 0.  1.
    10030    2    1    2    0    0  0.00000000000E+00  0.00000000000E+00  0.69288472684E+03  0.40465981593E+04  0.39868367684E+04 0.  0.
        3    1    3    3  502    0 -0.16913701252E+04  0.35413492236E+03 -0.66222065211E+03  0.18505892700E+04  0.10100000352E+00 0.  1.
       -3    1    3    3    0  502  0.16913701252E+04 -0.35413492236E+03  0.13551053790E+04  0.21960088893E+04  0.10100000352E+00 0. -1.
</event>
<event>
 5   0  0.8329875E-09  0.4072608E+04  0.7818609E-02  0.7990057E-01
        1   -1    0    0  501    0  0.00000000000E+00  0.00000000000E+00  0.14703738778E+04  0.14703738778E+04  0.50400001928E-02 0. -1.
       -1   -1    0    0    0  501  0.00000000000E+00  0.00000000000E+00 -0.28200542533E+04  0.28200542533E+04  0.50400001928E-02 0.  1.
    10030    2    1    2    0    0  0.00000000000E+00  0.00000000000E+00 -0.13496803755E+04  0.42904281311E+04  0.40726080627E+04 0.  0.
        4    1    3    3  502    0 -0.92753767892E+03  0.18121045595E+04 -0.62234099291E+03  0.21286988995E+04  0.12699999809E+01 0.  1.
       -4    1    3    3    0  502  0.92753767892E+03 -0.18121045595E+04 -0.72733938262E+03  0.21617292316E+04  0.12699999809E+01 0. -1.
</event>
<event>
 5   0  0.8329875E-09  0.3994951E+04  0.7818609E-02  0.8005566E-01
        1   -1    0    0  501    0  0.00000000000E+00  0.00000000000E+00  0.18847444243E+04  0.18847444243E+04  0.50400001928E-02 0.  1.
       -1   -1    0    0    0  501  0.00000000000E+00  0.00000000000E+00 -0.21169488481E+04  0.21169488481E+04  0.50400001928E-02 0. -1.
    10030    2    1    2    0    0  0.00000000000E+00  0.00000000000E+00 -0.23220442379E+03  0.40016932724E+04  0.39949505819E+04 0.  0.
        1    1    3    3  502    0  0.74624672447E+03  0.12965444789E+04 -0.14419660124E+04  0.20777819280E+04  0.50400001928E-02 0. -1.
       -1    1    3    3    0  502 -0.74624672447E+03 -0.12965444789E+04  0.12097615886E+04  0.19239113443E+04  0.50400001928E-02 0.  1.
</event>
<event>
 5   0  0.8329875E-09  0.4001075E+04  0.7818609E-02  0.8004330E-01
        1   -1    0    0  501    0  0.00000000000E+00  0.00000000000E+00  0.21558093155E+04  0.21558093155E+04  0.50400001928E-02 0.  1.
       -1   -1    0    0    0  501  0.00000000000E+00  0.00000000000E+00 -0.18564494532E+04  0.18564494532E+04  0.50400001928E-02 0. -1.
    10030    2    1    2    0    0  0.00000000000E+00  0.00000000000E+00  0.29935986228E+03  0.40122587687E+04  0.40010753679E+04 0.  0.
        5    1    3    3  502    0  0.12213910943E+04 -0.83371297996E+03 -0.12014000868E+04  0.19053235412E+04  0.46999998093E+01 0. -1.
       -5    1    3    3    0  502 -0.12213910943E+04  0.83371297996E+03  0.15007599491E+04  0.21069352275E+04  0.46999998093E+01 0.  1.
</event>
<event>
 5   0  0.2612363E-08  0.3991785E+04  0.7818609E-02  0.8006206E-01
        2   -1    0    0  501    0  0.00000000000E+00  0.00000000000E+00  0.13246688088E+04  0.13246688088E+04  0.25500000920E-02 0.  1.
       -2   -1    0    0    0  501  0.00000000000E+00  0.00000000000E+00 -0.30072317235E+04  0.30072317235E+04  0.25500000920E-02 0. -1.
    10030    2    1    2    0    0  0.00000000000E+00  0.00000000000E+00 -0.16825629147E+04  0.43319005323E+04  0.39917845959E+04 0.  0.
        4    1    3    3  502    0 -0.74736194900E+03  0.49657080325E+03 -0.27760062950E+04  0.29174209515E+04  0.12699999809E+01 0. -1.
       -4    1    3    3    0  502  0.74736194900E+03 -0.49657080325E+03  0.10934433803E+04  0.14144795808E+04  0.12699999809E+01 0.  1.
</event>
<event>
 5   0  0.2612363E-08  0.4053760E+04  0.7818609E-02  0.7993788E-01
        2   -1    0    0  501    0  0.00000000000E+00  0.00000000000E+00  0.13672715940E+04  0.13672715940E+04  0.25500000920E-02 0. -1.
       -2   -1    0    0    0  501  0.00000000000E+00  0.00000000000E+00 -0.30047016043E+04  0.30047016043E+04  0.25500000920E-02 0.  1.
    10030    2    1    2    0    0  0.00000000000E+00  0.00000000000E+00 -0.16374300103E+04  0.43719731983E+04  0.40537603047E+04 0.  0.
        4    1    3    3  502    0  0.42558445926E+03  0.11136475666E+04  0.94913683219E+03  0.15238751175E+04  0.12699999809E+01 0. -1.
       -4    1    3    3    0  502 -0.42558445926E+03 -0.11136475666E+04 -0.25865668425E+04  0.28480980808E+04  0.12699999809E+01 0.  1.
</event>
<event>
 5   0  0.8329875E-09  0.4007446E+04  0.7818609E-02  0.8003046E-01
       -1   -1    0    0    0  501  0.00000000000E+00  0.00000000000E+00  0.19433404380E+04  0.19433404380E+04  0.50400001928E-02 0.  1.
        1   -1    0    0  501    0  0.00000000000E+00  0.00000000000E+00 -0.20659821546E+04  0.20659821546E+04  0.50400001928E-02 0. -1.
    10030    2    1    2    0    0  0.00000000000E+00  0.00000000000E+00 -0.12264171669E+03  0.40093225926E+04  0.40074464015E+04 0.  0.
        2    1    3    3  502    0 -0.15756906186E+03 -0.35890253569E+03  0.19046099592E+04  0.19445251699E+04  0.25500000920E-02 0.  1.
       -2    1    3    3    0  502  0.15756906186E+03  0.35890253569E+03 -0.20272516759E+04  0.20647974227E+04  0.25500000920E-02 0. -1.
</event>
<event>
 5   0  0.8329875E-09  0.3989742E+04  0.7818609E-02  0.8006619E-01
       -1   -1    0    0    0  501  0.00000000000E+00  0.00000000000E+00  0.16870301111E+04  0.16870301111E+04  0.50400001928E-02 0.  1.
        1   -1    0    0  501    0  0.00000000000E+00  0.00000000000E+00 -0.23588846512E+04  0.23588846512E+04  0.50400001928E-02 0. -1.
    10030    2    1    2    0    0  0.00000000000E+00  0.00000000000E+00 -0.67185454012E+03  0.40459147623E+04  0.39897415632E+04 0.  0.
        5    1    3    3  502    0 -0.93098478664E+03 -0.16359171226E+03 -0.21173598542E+04  0.23187776443E+04  0.46999998093E+01 0. -1.
       -5    1    3    3    0  502  0.93098478664E+03  0.16359171226E+03  0.14455053141E+04  0.17271371180E+04  0.46999998093E+01 0.  1.
</event>
<event>
 5   0  0.8329875E-09  0.4007265E+04  0.7818609E-02  0.8003083E-01
       -1   -1    0    0    0  501  0.00000000000E+00  0.00000000000E+00  0.25793902847E+04  0.25793902847E+04  0.50400001928E-02 0. -1.
        1   -1    0    0  501    0  0.00000000000E+00  0.00000000000E+00 -0.15563922723E+04  0.15563922723E+04  0.50400001928E-02 0.  1.
    10030    2    1    2    0    0  0.00000000000E+00  0.00000000000E+00  0.10229980124E+04  0.41357825571E+04  0.40072649558E+04 0.  0.
        5    1    3    3  502    0  0.54990426644E+01 -0.61408754666E+03 -0.14568604437E+04  0.15810117637E+04  0.46999998093E+01 0.  1.
       -5    1    3    3    0  502 -0.54990426644E+01  0.61408754666E+03  0.24798584561E+04  0.25547707934E+04  0.46999998093E+01 0. -1.
</event>
<event>
 5   0  0.2599332E-08  0.3961482E+04  0.7818609E-02  0.8012362E-01
       -2   -1    0    0    0  501  0.00000000000E+00  0.00000000000E+00  0.23120881061E+04  0.23120881061E+04  0.25500000920E-02 0. -1.
        2   -1    0    0  501    0  0.00000000000E+00  0.00000000000E+00 -0.16968796794E+04  0.16968796794E+04  0.25500000920E-02 0.  1.
    10030    2    1    2    0    0  0.00000000000E+00  0.00000000000E+00  0.61520842669E+03  0.40089677855E+04  0.39614822095E+04 0.  0.
        2    1    3    3  502    0 -0.11006962336E+04 -0.12329066813E+01  0.19740984394E+04  0.22602208669E+04  0.25500000920E-02 0. -1.
       -2    1    3    3    0  502  0.11006962336E+04  0.12329066813E+01 -0.13588900127E+04  0.17487469186E+04  0.25500000920E-02 0.  1.
</event>
<event>
 5   0  0.2650452E-08  0.3990301E+04  0.7818609E-02  0.8006506E-01
        2   -1    0    0  501    0  0.00000000000E+00  0.00000000000E+00  0.15612761418E+04  0.15612761418E+04  0.25500000920E-02 0.  1.
       -2   -1    0    0    0  501  0.00000000000E+00  0.00000000000E+00 -0.25495978011E+04  0.25495978011E+04  0.25500000920E-02 0. -1.
    10030    2    1    2    0    0  0.00000000000E+00  0.00000000000E+00 -0.98832165930E+03  0.41108739429E+04  0.39903013510E+04 0.  0.
        3    1    3    3  502    0  0.17196727659E+04 -0.10080198806E+04 -0.40645493942E+03  0.20343510340E+04  0.10100000352E+00 0.  1.
       -3    1    3    3    0  502 -0.17196727659E+04  0.10080198806E+04 -0.58186671987E+03  0.20765229089E+04  0.10100000352E+00 0. -1.
</event>
<event>
 5   0  0.2746876E-08  0.3993549E+04  0.7818609E-02  0.8005849E-01
        2   -1    0    0  501    0  0.00000000000E+00  0.00000000000E+00  0.20742841135E+04  0.20742841135E+04  0.25500000920E-02 0.  1.
       -2   -1    0    0    0  501  0.00000000000E+00  0.00000000000E+00 -0.19221615083E+04  0.19221615083E+04  0.25500000920E-02 0. -1.
    10030    2    1    2    0    0  0.00000000000E+00  0.00000000000E+00  0.15212260521E+03  0.39964456218E+04  0.39935493387E+04 0.  0.
        1    1    3    3  502    0  0.11277673579E+03  0.19589690437E+04  0.44623601277E+03  0.20123133170E+04  0.50400001928E-02 0. -1.
       -1    1    3    3    0  502 -0.11277673579E+03 -0.19589690437E+04 -0.29411340756E+03  0.19841323048E+04  0.50400001928E-02 0.  1.
</event>
<event>
 5   0  0.2599332E-08  0.4017432E+04  0.7818609E-02  0.8001039E-01
        2   -1    0    0  501    0  0.00000000000E+00  0.00000000000E+00  0.20385472600E+04  0.20385472600E+04  0.25500000920E-02 0.  1.
       -2   -1    0    0    0  501  0.00000000000E+00  0.00000000000E+00 -0.19793208524E+04  0.19793208524E+04  0.25500000920E-02 0. -1.
    10030    2    1    2    0    0  0.00000000000E+00  0.00000000000E+00  0.59226407590E+02  0.40178681124E+04  0.40174315677E+04 0.  0.
        2    1    3    3  502    0  0.92343256242E+03  0.16569480821E+04 -0.63131748466E+03  0.19991914392E+04  0.25500000920E-02 0. -1.
       -2    1    3    3    0  502 -0.92343256242E+03 -0.16569480821E+04  0.69054389225E+03  0.20186766732E+04  0.25500000920E-02 0.  1.
</event>
<event>
 5   0  0.2650452E-08  0.3997661E+04  0.7818609E-02  0.8005019E-01
       -2   -1    0    0    0  501  0.00000000000E+00  0.00000000000E+00  0.14598748492E+04  0.14598748492E+04  0.25500000920E-02 0. -1.
        2   -1    0    0  501    0  0.00000000000E+00  0.00000000000E+00 -0.27367571883E+04  0.27367571883E+04  0.25500000920E-02 0.  1.
    10030    2    1    2    0    0  0.00000000000E+00  0.00000000000E+00 -0.12768823392E+04  0.41966320375E+04  0.39976608098E+04 0.  0.
        3    1    3    3  502    0  0.11442559874E+04  0.13967888618E+04 -0.15384221401E+04  0.23721474618E+04  0.10100000352E+00 0.  1.
       -3    1    3    3    0  502 -0.11442559874E+04 -0.13967888618E+04  0.26153980096E+03  0.18244845757E+04  0.10100000352E+00 0. -1.
</event>
<event>
 5   0  0.8329875E-09  0.3992202E+04  0.7818609E-02  0.8006121E-01
       -1   -1    0    0    0  501  0.00000000000E+00  0.00000000000E+00  0.22076541247E+04  0.22076541247E+04  0.50400001928E-02 0.  1.
        1   -1    0    0  501    0  0.00000000000E+00  0.00000000000E+00 -0.18048207493E+04  0.18048207493E+04  0.50400001928E-02 0. -1.
    10030    2    1    2    0    0  0.00000000000E+00  0.00000000000E+00  0.40283337541E+03  0.40124748741E+04  0.39922023855E+04 0.  0.
        5    1    3    3  502    0 -0.61763813716E+03  0.16962731572E+04 -0.65471770855E+03  0.19202856194E+04  0.46999998093E+01 0. -1.
       -5    1    3    3    0  502  0.61763813716E+03 -0.16962731572E+04  0.10575510840E+04  0.20921892547E+04  0.46999998093E+01 0.  1.
</event>
<event>
 5   0  0.2587493E-08  0.4006664E+04  0.7818609E-02  0.8003204E-01
        2   -1    0    0  501    0  0.00000000000E+00  0.00000000000E+00  0.28349616183E+04  0.28349616183E+04  0.25500000920E-02 0.  1.
       -2   -1    0    0    0  501  0.00000000000E+00  0.00000000000E+00 -0.14156589462E+04  0.14156589462E+04  0.25500000920E-02 0. -1.
    10030    2    1    2    0    0  0.00000000000E+00  0.00000000000E+00  0.14193026721E+04  0.42506205645E+04  0.40066638377E+04 0.  0.
        5    1    3    3  502    0  0.56239178967E+03 -0.17390619885E+04  0.15797704602E+04  0.24158472472E+04  0.46999998093E+01 0.  1.
       -5    1    3    3    0  502 -0.56239178967E+03  0.17390619885E+04 -0.16046778813E+03  0.18347733173E+04  0.46999998093E+01 0. -1.
</event>
<event>
 5   0  0.8329875E-09  0.3996122E+04  0.7818609E-02  0.8005329E-01
       -1   -1    0    0    0  501  0.00000000000E+00  0.00000000000E+00  0.16498022530E+04  0.16498022530E+04  0.50400001928E-02 0.  1.
        1   -1    0    0  501    0  0.00000000000E+00  0.00000000000E+00 -0.24198345475E+04  0.24198345475E+04  0.50400001928E-02 0. -1.
    10030    2    1    2    0    0  0.00000000000E+00  0.00000000000E+00 -0.77003229457E+03  0.40696368005E+04  0.39961223646E+04 0.  0.
        5    1    3    3  502    0  0.48415144953E+03  0.13672700169E+04 -0.17844857312E+04  0.22996176508E+04  0.46999998093E+01 0. -1.
       -5    1    3    3    0  502 -0.48415144953E+03 -0.13672700169E+04  0.10144534366E+04  0.17700191497E+04  0.46999998093E+01 0.  1.
</event>
<event>
 5   0  0.8329875E-09  0.3998258E+04  0.7818609E-02  0.8004898E-01
        1   -1    0    0  501    0  0.00000000000E+00  0.00000000000E+00  0.23181532736E+04  0.23181532736E+04  0.50400001928E-02 0.  1.
       -1   -1    0    0    0  501  0.00000000000E+00  0.00000000000E+00 -0.17240089685E+04  0.17240089685E+04  0.50400001928E-02 0. -1.
    10030    2    1    2    0    0  0.00000000000E+00  0.00000000000E+00  0.59414430509E+03  0.40421622420E+04  0.39982581377E+04 0.  0.
        3    1    3    3  502    0 -0.18235604184E+04  0.48021281179E+03  0.96809239889E+03  0.21197122086E+04  0.10100000352E+00 0.  1.
       -3    1    3    3    0  502  0.18235604184E+04 -0.48021281179E+03 -0.37394809380E+03  0.19224500335E+04  0.10100000352E+00 0. -1.
</event>
<event>
 5   0  0.2650452E-08  0.3992611E+04  0.7818609E-02  0.8006039E-01
        2   -1    0    0  501    0  0.00000000000E+00  0.00000000000E+00  0.30080925786E+04  0.30080925786E+04  0.25500000920E-02 0.  1.
       -2   -1    0    0    0  501  0.00000000000E+00  0.00000000000E+00 -0.13248381245E+04  0.13248381245E+04  0.25500000920E-02 0. -1.
    10030    2    1    2    0    0  0.00000000000E+00  0.00000000000E+00  0.16832544541E+04  0.43329307031E+04  0.39926110405E+04 0.  0.
        3    1    3    3  502    0  0.58045679095E+03  0.18421918380E+04  0.29400171237E+03  0.19537241032E+04  0.10100000352E+00 0. -1.
       -3    1    3    3    0  502 -0.58045679095E+03 -0.18421918380E+04  0.13892527418E+04  0.23792065999E+04  0.10100000352E+00 0.  1.
</event>
<event>
 5   0  0.8329875E-09  0.4000792E+04  0.7818609E-02  0.8004387E-01
        1   -1    0    0  501    0  0.00000000000E+00  0.00000000000E+00  0.29939963951E+04  0.29939963951E+04  0.50400001928E-02 0.  1.
       -1   -1    0    0    0  501  0.00000000000E+00  0.00000000000E+00 -0.13365360059E+04  0.13365360059E+04  0.50400001928E-02 0. -1.
    10030    2    1    2    0    0  0.00000000000E+00  0.00000000000E+00  0.16574603892E+04  0.43305324011E+04  0.40007919135E+04 0.  0.
        1    1    3    3  502    0  0.13317664034E+04  0.13728000180E+04  0.19442691862E+03  0.19224940752E+04  0.50400001928E-02 0. -1.
       -1    1    3    3    0  502 -0.13317664034E+04 -0.13728000180E+04  0.14630334706E+04  0.24080383258E+04  0.50400001928E-02 0.  1.
</event>
<event>
 5   0  0.8329875E-09  0.3990875E+04  0.7818609E-02  0.8006390E-01
        1   -1    0    0  501    0  0.00000000000E+00  0.00000000000E+00  0.28908771345E+04  0.28908771345E+04  0.50400001928E-02 0. -1.
       -1   -1    0    0    0  501  0.00000000000E+00  0.00000000000E+00 -0.13773573617E+04  0.13773573617E+04  0.50400001928E-02 0.  1.
    10030    2    1    2    0    0  0.00000000000E+00  0.00000000000E+00  0.15135197728E+04  0.42682344962E+04  0.39908750434E+04 0.  0.
        5    1    3    3  502    0 -0.17825248538E+04 -0.75122550331E+03  0.12807204632E+04  0.23199141376E+04  0.46999998093E+01 0.  1.
       -5    1    3    3    0  502  0.17825248538E+04  0.75122550331E+03  0.23279930960E+03  0.19483203586E+04  0.46999998093E+01 0. -1.
</event>
<event>
 5   0  0.8329875E-09  0.3997397E+04  0.7818609E-02  0.8005072E-01
        1   -1    0    0  501    0  0.00000000000E+00  0.00000000000E+00  0.18085176554E+04  0.18085176554E+04  0.50400001928E-02 0.  1.
       -1   -1    0    0    0  501  0.00000000000E+00  0.00000000000E+00 -0.22088786096E+04  0.22088786096E+04  0.50400001928E-02 0. -1.
    10030    2    1    2    0    0  0.00000000000E+00  0.00000000000E+00 -0.40036095419E+03  0.40173962650E+04  0.39973971352E+04 0.  0.
        4    1    3    3  502    0  0.19541459691E+03  0.13438543085E+03 -0.21946869416E+04  0.22074643130E+04  0.12699999809E+01 0. -1.
       -4    1    3    3    0  502 -0.19541459691E+03 -0.13438543085E+03  0.17943259874E+04  0.18099319520E+04  0.12699999809E+01 0.  1.
</event>
<event>
 5   0  0.8329875E-09  0.4001025E+04  0.7818609E-02  0.8004340E-01
       -1   -1    0    0    0  501  0.00000000000E+00  0.00000000000E+00  0.21135566855E+04  0.21135566855E+04  0.50400001928E-02 0.  1.
        1   -1    0    0  501    0  0.00000000000E+00  0.00000000000E+00 -0.18935141034E+04  0.18935141034E+04  0.50400001928E-02 0. -1.
    10030    2    1    2    0    0  0.00000000000E+00  0.00000000000E+00  0.22004258202E+03  0.40070707889E+04  0.40010245650E+04 0.  0.
        5    1    3    3  502    0  0.81010221266E+02  0.18718614856E+04 -0.59217962509E+03  0.19649750318E+04  0.46999998093E+01 0. -1.
       -5    1    3    3    0  502 -0.81010221266E+02 -0.18718614856E+04  0.81222220711E+03  0.20420957571E+04  0.46999998093E+01 0.  1.
</event>
<event>
 5   0  0.2612363E-08  0.3994794E+04  0.7818609E-02  0.8005598E-01
       -2   -1    0    0    0  501  0.00000000000E+00  0.00000000000E+00  0.16407789918E+04  0.16407789918E+04  0.25500000920E-02 0. -1.
        2   -1    0    0  501    0  0.00000000000E+00  0.00000000000E+00 -0.24315246616E+04  0.24315246616E+04  0.25500000920E-02 0.  1.
    10030    2    1    2    0    0  0.00000000000E+00  0.00000000000E+00 -0.79074566973E+03  0.40723036534E+04  0.39947939035E+04 0.  0.
        4    1    3    3  502    0 -0.45745526373E+03 -0.17637125171E+03 -0.23692325626E+04  0.24194289998E+04  0.12699999809E+01 0.  1.
       -4    1    3    3    0  502  0.45745526373E+03  0.17637125171E+03  0.15784868928E+04  0.16528746536E+04  0.12699999809E+01 0. -1.
</event>
<event>
 5   0  0.2746876E-08  0.4000314E+04  0.7818609E-02  0.8004483E-01
        2   -1    0    0  501    0  0.00000000000E+00  0.00000000000E+00  0.25844092244E+04  0.25844092244E+04  0.25500000920E-02 0. -1.
       -2   -1    0    0    0  501  0.00000000000E+00  0.00000000000E+00 -0.15479856357E+04  0.15479856357E+04  0.25500000920E-02 0.  1.
    10030    2    1    2    0    0  0.00000000000E+00  0.00000000000E+00  0.10364235887E+04  0.41323948602E+04  0.40003141658E+04 0.  0.
        1    1    3    3  502    0  0.14195804079E+04  0.13975516635E+04  0.33264442678E+03  0.20196562830E+04  0.50400001928E-02 0.  1.
       -1    1    3    3    0  502 -0.14195804079E+04 -0.13975516635E+04  0.70377916191E+03  0.21127385772E+04  0.50400001928E-02 0. -1.
</event>
<event>
 5   0  0.8329875E-09  0.3995873E+04  0.7818609E-02  0.8005380E-01
       -1   -1    0    0    0  501  0.00000000000E+00  0.00000000000E+00  0.13254223944E+04  0.13254223944E+04  0.50400001928E-02 0. -1.
        1   -1    0    0  501    0  0.00000000000E+00  0.00000000000E+00 -0.30116814032E+04  0.30116814032E+04  0.50400001928E-02 0.  1.
    10030    2    1    2    0    0  0.00000000000E+00  0.00000000000E+00 -0.16862590088E+04  0.43371037976E+04  0.39958728591E+04 0.  0.
        4    1    3    3  502    0  0.94843704901E+03  0.17483921024E+04 -0.63908494669E+03  0.20892197016E+04  0.12699999809E+01 0. -1.
       -4    1    3    3    0  502 -0.94843704901E+03 -0.17483921024E+04 -0.10471740621E+04  0.22478840960E+04  0.12699999809E+01 0.  1.
</event>
<event>
 5   0  0.2599332E-08  0.3999977E+04  0.7818609E-02  0.8004551E-01
       -2   -1    0    0    0  501  0.00000000000E+00  0.00000000000E+00  0.11808350725E+04  0.11808350725E+04  0.25500000920E-02 0. -1.
        2   -1    0    0  501    0  0.00000000000E+00  0.00000000000E+00 -0.33873943349E+04  0.33873943349E+04  0.25500000920E-02 0.  1.
    10030    2    1    2    0    0  0.00000000000E+00  0.00000000000E+00 -0.22065592624E+04  0.45682294074E+04  0.39999770175E+04 0.  0.
        2    1    3    3  502    0  0.14955387840E+04 -0.11911423493E+04 -0.17736017692E+04  0.26078956242E+04  0.25500000920E-02 0. -1.
       -2    1    3    3    0  502 -0.14955387840E+04  0.11911423493E+04 -0.43295749317E+03  0.19603337832E+04  0.25500000920E-02 0.  1.
</event>
<event>
 5   0  0.8329875E-09  0.4000355E+04  0.7818609E-02  0.8004475E-01
       -1   -1    0    0    0  501  0.00000000000E+00  0.00000000000E+00  0.13571498832E+04  0.13571498832E+04  0.50400001928E-02 0. -1.
        1   -1    0    0  501    0  0.00000000000E+00  0.00000000000E+00 -0.29478763029E+04  0.29478763030E+04  0.50400001928E-02 0.  1.
    10030    2    1    2    0    0  0.00000000000E+00  0.00000000000E+00 -0.15907264198E+04  0.43050261862E+04  0.40003549744E+04 0.  0.
        5    1    3    3  502    0 -0.62692447992E+03 -0.25579046624E+03  0.12300578817E+04  0.14041109459E+04  0.46999998093E+01 0. -1.
       -5    1    3    3    0  502  0.62692447992E+03  0.25579046624E+03 -0.28207843014E+04  0.29009152403E+04  0.46999998093E+01 0.  1.
</event>
<event>
 5   0  0.2599332E-08  0.4001452E+04  0.7818609E-02  0.8004254E-01
        2   -1    0    0  501    0  0.00000000000E+00  0.00000000000E+00  0.29588933504E+04  0.29588933504E+04  0.25500000920E-02 0. -1.
       -2   -1    0    0    0  501  0.00000000000E+00  0.00000000000E+00 -0.13528382572E+04  0.13528382572E+04  0.25500000920E-02 0.  1.
    10030    2    1    2    0    0  0.00000000000E+00  0.00000000000E+00  0.16060550932E+04  0.43117316076E+04  0.40014517983E+04 0.  0.
        2    1    3    3  502    0 -0.70137523516E+03 -0.45665045196E+03 -0.11551500414E+04  0.14264741406E+04  0.25500000920E-02 0.  1.
       -2    1    3    3    0  502  0.70137523516E+03  0.45665045196E+03  0.27612051346E+04  0.28852574670E+04  0.25500000920E-02 0. -1.
</event>
<event>
 5   0  0.8329875E-09  0.4006664E+04  0.7818609E-02  0.8003204E-01
        1   -1    0    0  501    0  0.00000000000E+00  0.00000000000E+00  0.18503242334E+04  0.18503242334E+04  0.50400001928E-02 0. -1.
       -1   -1    0    0    0  501  0.00000000000E+00  0.00000000000E+00 -0.21689922230E+04  0.21689922230E+04  0.50400001928E-02 0.  1.
    10030    2    1    2    0    0  0.00000000000E+00  0.00000000000E+00 -0.31866798963E+03  0.40193164565E+04  0.40066638853E+04 0.  0.
        4    1    3    3  502    0  0.15031207852E+04  0.14049364608E+03  0.11617250350E+04  0.19049192186E+04  0.12699999809E+01 0. -1.
       -4    1    3    3    0  502 -0.15031207852E+04 -0.14049364608E+03 -0.14803930246E+04  0.21143972379E+04  0.12699999809E+01 0.  1.
</event>
<event>
 5   0  0.8329875E-09  0.3999410E+04  0.7818609E-02  0.8004666E-01
        1   -1    0    0  501    0  0.00000000000E+00  0.00000000000E+00  0.16264200359E+04  0.16264200359E+04  0.50400001928E-02 0. -1.
       -1   -1    0    0    0  501  0.00000000000E+00  0.00000000000E+00 -0.24586637458E+04  0.24586637458E+04  0.50400001928E-02 0.  1.
    10030    2    1    2    0    0  0.00000000000E+00  0.00000000000E+00 -0.83224370991E+03  0.40850837818E+04  0.39994099454E+04 0.  0.
        4    1    3    3  502    0 -0.17187420497E+03  0.11559661611E+04  0.12412963810E+04  0.17048802968E+04  0.12699999809E+01 0. -1.
       -4    1    3    3    0  502  0.17187420497E+03 -0.11559661611E+04 -0.20735400910E+04  0.23802034849E+04  0.12699999809E+01 0.  1.
</event>
<event>
 5   0  0.8329875E-09  0.3993450E+04  0.7818609E-02  0.8005869E-01
        1   -1    0    0  501    0  0.00000000000E+00  0.00000000000E+00  0.22328183492E+04  0.22328183492E+04  0.50400001928E-02 0. -1.
       -1   -1    0    0    0  501  0.00000000000E+00  0.00000000000E+00 -0.17855955878E+04  0.17855955878E+04  0.50400001928E-02 0.  1.
    10030    2    1    2    0    0  0.00000000000E+00  0.00000000000E+00  0.44722276142E+03  0.40184139371E+04  0.39934499335E+04 0.  0.
        2    1    3    3  502    0  0.50886247979E+03 -0.18402138180E+04  0.81171566635E+03  0.20746590665E+04  0.25500000920E-02 0. -1.
       -2    1    3    3    0  502 -0.50886247979E+03  0.18402138180E+04 -0.36449290493E+03  0.19437548706E+04  0.25500000920E-02 0.  1.
</event>
<event>
 5   0  0.2599332E-08  0.3998647E+04  0.7818609E-02  0.8004820E-01
       -2   -1    0    0    0  501  0.00000000000E+00  0.00000000000E+00  0.21382586819E+04  0.21382586819E+04  0.25500000920E-02 0. -1.
        2   -1    0    0  501    0  0.00000000000E+00  0.00000000000E+00 -0.18694154053E+04  0.18694154053E+04  0.25500000920E-02 0.  1.
    10030    2    1    2    0    0  0.00000000000E+00  0.00000000000E+00  0.26884327661E+03  0.40076740872E+04  0.39986466313E+04 0.  0.
        2    1    3    3  502    0  0.17281914531E+04  0.20268543527E+03  0.11213103955E+04  0.20700396343E+04  0.25500000920E-02 0.  1.
       -2    1    3    3    0  502 -0.17281914531E+04 -0.20268543527E+03 -0.85246711893E+03  0.19376344529E+04  0.25500000920E-02 0. -1.
</event>
<event>
 5   0  0.2587493E-08  0.3996418E+04  0.7818609E-02  0.8005270E-01
        2   -1    0    0  501    0  0.00000000000E+00  0.00000000000E+00  0.25707357890E+04  0.25707357890E+04  0.25500000920E-02 0. -1.
       -2   -1    0    0    0  501  0.00000000000E+00  0.00000000000E+00 -0.15531893097E+04  0.15531893097E+04  0.25500000920E-02 0.  1.
    10030    2    1    2    0    0  0.00000000000E+00  0.00000000000E+00  0.10175464792E+04  0.41239250987E+04  0.39964180690E+04 0.  0.
        5    1    3    3  502    0 -0.12631151604E+04  0.31131895973E+03 -0.10563376293E+04  0.16757836018E+04  0.46999998093E+01 0.  1.
       -5    1    3    3    0  502  0.12631151604E+04 -0.31131895973E+03  0.20738841085E+04  0.24481414969E+04  0.46999998093E+01 0. -1.
</event>
<event>
 5   0  0.2587493E-08  0.3988843E+04  0.7818609E-02  0.8006801E-01
       -2   -1    0    0    0  501  0.00000000000E+00  0.00000000000E+00  0.16163144672E+04  0.16163144672E+04  0.25500000920E-02 0. -1.
        2   -1    0    0  501    0  0.00000000000E+00  0.00000000000E+00 -0.24609794911E+04  0.24609794911E+04  0.25500000920E-02 0.  1.
    10030    2    1    2    0    0  0.00000000000E+00  0.00000000000E+00 -0.84466502386E+03  0.40772939583E+04  0.39888428171E+04 0.  0.
        5    1    3    3  502    0  0.18381357754E+04 -0.72558009930E+03 -0.69753308829E+03  0.20956583950E+04  0.46999998093E+01 0.  1.
       -5    1    3    3    0  502 -0.18381357754E+04  0.72558009930E+03 -0.14713193558E+03  0.19816355633E+04  0.46999998093E+01 0. -1.
</event>
<event>
 5   0  0.2612363E-08  0.4011526E+04  0.7818609E-02  0.8002225E-01
        2   -1    0    0  501    0  0.00000000000E+00  0.00000000000E+00  0.19649585173E+04  0.19649585173E+04  0.25500000920E-02 0.  1.
       -2   -1    0    0    0  501  0.00000000000E+00  0.00000000000E+00 -0.20474150445E+04  0.20474150445E+04  0.25500000920E-02 0. -1.
    10030    2    1    2    0    0  0.00000000000E+00  0.00000000000E+00 -0.82456527202E+02  0.40123735618E+04  0.40115262084E+04 0.  0.
        4    1    3    3  502    0 -0.53300833214E+03  0.51314117555E+03  0.18234810313E+04  0.19678659590E+04  0.12699999809E+01 0.  1.
       -4    1    3    3    0  502  0.53300833214E+03 -0.51314117555E+03 -0.19059375585E+04  0.20445076028E+04  0.12699999809E+01 0. -1.
</event>
<event>
 5   0  0.8329875E-09  0.3982937E+04  0.7818609E-02  0.8007997E-01
        1   -1    0    0  501    0  0.00000000000E+00  0.00000000000E+00  0.22590431898E+04  0.22590431898E+04  0.50400001928E-02 0.  1.
       -1   -1    0    0    0  501  0.00000000000E+00  0.00000000000E+00 -0.17555872789E+04  0.17555872789E+04  0.50400001928E-02 0. -1.
    10030    2    1    2    0    0  0.00000000000E+00  0.00000000000E+00  0.50345591089E+03  0.40146304688E+04  0.39829373516E+04 0.  0.
        4    1    3    3  502    0 -0.29635166509E+03  0.19401171317E+04  0.59215359550E+03  0.20500064116E+04  0.12699999809E+01 0. -1.
       -4    1    3    3    0  502  0.29635166509E+03 -0.19401171317E+04 -0.88697684606E+02  0.19646240572E+04  0.12699999809E+01 0.  1.
</event>
<event>
 5   0  0.8329875E-09  0.3999499E+04  0.7818609E-02  0.8004648E-01
        1   -1    0    0  501    0  0.00000000000E+00  0.00000000000E+00  0.20845358644E+04  0.20845358644E+04  0.50400001928E-02 0. -1.
       -1   -1    0    0    0  501  0.00000000000E+00  0.00000000000E+00 -0.19184118340E+04  0.19184118340E+04  0.50400001928E-02 0.  1.
    10030    2    1    2    0    0  0.00000000000E+00  0.00000000000E+00  0.16612403040E+03  0.40029476983E+04  0.39994991039E+04 0.  0.
        2    1    3    3  502    0  0.56782106192E+03  0.12235204586E+04  0.15606734412E+04  0.20627953512E+04  0.25500000920E-02 0. -1.
       -2    1    3    3    0  502 -0.56782106192E+03 -0.12235204586E+04 -0.13945494108E+04  0.19401523471E+04  0.25500000920E-02 0.  1.
</event>
<event>
 5   0  0.2599332E-08  0.3994472E+04  0.7818609E-02  0.8005663E-01
        2   -1    0    0  501    0  0.00000000000E+00  0.00000000000E+00  0.27733511692E+04  0.27733511692E+04  0.25500000920E-02 0.  1.
       -2   -1    0    0    0  501  0.00000000000E+00  0.00000000000E+00 -0.14383144164E+04  0.14383144164E+04  0.25500000920E-02 0. -1.
    10030    2    1    2    0    0  0.00000000000E+00  0.00000000000E+00  0.13350367528E+04  0.42116655855E+04  0.39944716638E+04 0.  0.
        2    1    3    3  502    0 -0.37102872032E+03  0.14360899929E+04  0.20777541181E+04  0.25528570180E+04  0.25500000920E-02 0.  1.
       -2    1    3    3    0  502  0.37102872032E+03 -0.14360899929E+04 -0.74271736532E+03  0.16588085675E+04  0.25500000920E-02 0. -1.
</event>
<event>
 5   0  0.8329875E-09  0.4032734E+04  0.7818609E-02  0.7997976E-01
        1   -1    0    0  501    0  0.00000000000E+00  0.00000000000E+00  0.13446773656E+04  0.13446773656E+04  0.50400001928E-02 0.  1.
       -1   -1    0    0    0  501  0.00000000000E+00  0.00000000000E+00 -0.30235765345E+04  0.30235765345E+04  0.50400001928E-02 0. -1.
    10030    2    1    2    0    0  0.00000000000E+00  0.00000000000E+00 -0.16788991689E+04  0.43682539001E+04  0.40327335291E+04 0.  0.
        2    1    3    3  502    0 -0.10060145522E+04  0.31314976475E+03  0.10227733942E+04  0.14683982670E+04  0.25500000920E-02 0.  1.
       -2    1    3    3    0  502  0.10060145522E+04 -0.31314976475E+03 -0.27016725632E+04  0.28998556331E+04  0.25500000920E-02 0. -1.
</event>
<event>
 5   0  0.2650452E-08  0.3998638E+04  0.7818609E-02  0.8004821E-01
        2   -1    0    0  501    0  0.00000000000E+00  0.00000000000E+00  0.13674308294E+04  0.13674308294E+04  0.25500000920E-02 0.  1.
       -2   -1    0    0    0  501  0.00000000000E+00  0.00000000000E+00 -0.29232012176E+04  0.29232012176E+04  0.25500000920E-02 0. -1.
    10030    2    1    2    0    0  0.00000000000E+00  0.00000000000E+00 -0.15557703882E+04  0.42906320470E+04  0.39986375007E+04 0.  0.
        3    1    3    3  502    0 -0.31954224341E+03  0.62313751638E+03 -0.27872969447E+04  0.28739227334E+04  0.10100000352E+00 0. -1.
       -3    1    3    3    0  502  0.31954224341E+03 -0.62313751638E+03  0.12315265565E+04  0.14167093136E+04  0.10100000352E+00 0.  1.
</event>
<event>
 5   0  0.2587493E-08  0.4010833E+04  0.7818609E-02  0.8002365E-01
        2   -1    0    0  501    0  0.00000000000E+00  0.00000000000E+00  0.22592589611E+04  0.22592589611E+04  0.25500000920E-02 0.  1.
       -2   -1    0    0    0  501  0.00000000000E+00  0.00000000000E+00 -0.17800949843E+04  0.17800949843E+04  0.25500000920E-02 0. -1.
    10030    2    1    2    0    0  0.00000000000E+00  0.00000000000E+00  0.47916397686E+03  0.40393539454E+04  0.40108331029E+04 0.  0.
        5    1    3    3  502    0  0.38549152435E+03  0.11135437674E+04  0.18738006752E+04  0.22135343904E+04  0.46999998093E+01 0.  1.
       -5    1    3    3    0  502 -0.38549152435E+03 -0.11135437674E+04 -0.13946366983E+04  0.18258195550E+04  0.46999998093E+01 0. -1.
</event>
<event>
 5   0  0.8329875E-09  0.4003627E+04  0.7818609E-02  0.8003815E-01
        1   -1    0    0  501    0  0.00000000000E+00  0.00000000000E+00  0.21608201144E+04  0.21608201144E+04  0.50400001928E-02 0.  1.
       -1   -1    0    0    0  501  0.00000000000E+00  0.00000000000E+00 -0.18545071843E+04  0.18545071843E+04  0.50400001928E-02 0. -1.
    10030    2    1    2    0    0  0.00000000000E+00  0.00000000000E+00  0.30631293010E+03  0.40153272987E+04  0.40036265691E+04 0.  0.
        5    1    3    3  502    0  0.51721687700E+02 -0.19565991850E+04 -0.26792630513E+03  0.19755409636E+04  0.46999998093E+01 0. -1.
       -5    1    3    3    0  502 -0.51721687700E+02  0.19565991850E+04  0.57423923523E+03  0.20397863352E+04  0.46999998093E+01 0.  1.
</event>
<event>
 5   0  0.8329875E-09  0.3998091E+04  0.7818609E-02  0.8004932E-01
        1   -1    0    0  501    0  0.00000000000E+00  0.00000000000E+00  0.25840174139E+04  0.25840174139E+04  0.50400001928E-02 0. -1.
       -1   -1    0    0    0  501  0.00000000000E+00  0.00000000000E+00 -0.15465002586E+04  0.15465002586E+04  0.50400001928E-02 0.  1.
    10030    2    1    2    0    0  0.00000000000E+00  0.00000000000E+00  0.10375171552E+04  0.41305176725E+04  0.39980913441E+04 0.  0.
        3    1    3    3  502    0 -0.76973293326E+02  0.19328116716E+04 -0.24286208033E+01  0.19343453038E+04  0.10100000352E+00 0.  1.
       -3    1    3    3    0  502  0.76973293326E+02 -0.19328116716E+04  0.10399457760E+04  0.21961723687E+04  0.10100000352E+00 0. -1.
</event>
<event>
 5   0  0.2650452E-08  0.4003048E+04  0.7818609E-02  0.8003932E-01
       -2   -1    0    0    0  501  0.00000000000E+00  0.00000000000E+00  0.21397077077E+04  0.21397077077E+04  0.25500000920E-02 0. -1.
        2   -1    0    0  501    0  0.00000000000E+00  0.00000000000E+00 -0.18722640430E+04  0.18722640430E+04  0.25500000920E-02 0.  1.
    10030    2    1    2    0    0  0.00000000000E+00  0.00000000000E+00  0.26744366474E+03  0.40119717507E+04  0.40030477407E+04 0.  0.
        3    1    3    3  502    0 -0.11990981225E+04 -0.15716144585E+04 -0.18048861105E+03  0.19850401664E+04  0.10100000352E+00 0.  1.
       -3    1    3    3    0  502  0.11990981225E+04  0.15716144585E+04  0.44793227580E+03  0.20269315843E+04  0.10100000352E+00 0. -1.
</event>
<event>
 5   0  0.2746876E-08  0.4003327E+04  0.7818609E-02  0.8003876E-01
       -2   -1    0    0    0  501  0.00000000000E+00  0.00000000000E+00  0.12340893977E+04  0.12340893977E+04  0.25500000920E-02 0. -1.
        2   -1    0    0  501    0  0.00000000000E+00  0.00000000000E+00 -0.32466501225E+04  0.32466501225E+04  0.25500000920E-02 0.  1.
    10030    2    1    2    0    0  0.00000000000E+00  0.00000000000E+00 -0.20125607247E+04  0.44807395202E+04  0.40033268637E+04 0.  0.
        1    1    3    3  502    0  0.12899345575E+04  0.10818016718E+04  0.20563473606E+03  0.16960282027E+04  0.50400001928E-02 0. -1.
       -1    1    3    3    0  502 -0.12899345575E+04 -0.10818016718E+04 -0.22181954608E+04  0.27847113175E+04  0.50400001928E-02 0.  1.
</event>
<event>
 5   0  0.2746876E-08  0.4000542E+04  0.7818609E-02  0.8004437E-01
       -2   -1    0    0    0  501  0.00000000000E+00  0.00000000000E+00  0.21436394206E+04  0.21436394206E+04  0.25500000920E-02 0. -1.
        2   -1    0    0  501    0  0.00000000000E+00  0.00000000000E+00 -0.18664912422E+04  0.18664912422E+04  0.25500000920E-02 0.  1.
    10030    2    1    2    0    0  0.00000000000E+00  0.00000000000E+00  0.27714817848E+03  0.40101306628E+04  0.40005420658E+04 0.  0.
        1    1    3    3  502    0  0.80826534733E+03  0.53113886033E+03  0.18936798590E+04  0.21263642137E+04  0.50400001928E-02 0. -1.
       -1    1    3    3    0  502 -0.80826534733E+03 -0.53113886033E+03 -0.16165316805E+04  0.18837664491E+04  0.50400001928E-02 0.  1.
</event>
<event>
 5   0  0.2599332E-08  0.3999412E+04  0.7818609E-02  0.8004665E-01
        2   -1    0    0  501    0  0.00000000000E+00  0.00000000000E+00  0.21527937205E+04  0.21527937205E+04  0.25500000920E-02 0.  1.
       -2   -1    0    0    0  501  0.00000000000E+00  0.00000000000E+00 -0.18575043035E+04  0.18575043035E+04  0.25500000920E-02 0. -1.
    10030    2    1    2    0    0  0.00000000000E+00  0.00000000000E+00  0.29528941702E+03  0.40102980241E+04  0.39994117570E+04 0.  0.
        2    1    3    3  502    0  0.11679099838E+04  0.90049849028E+03  0.15018437749E+04  0.21048624624E+04  0.25500000920E-02 0.  1.
       -2    1    3    3    0  502 -0.11679099838E+04 -0.90049849028E+03 -0.12065543579E+04  0.19054355617E+04  0.25500000920E-02 0. -1.
</event>
<event>
 5   0  0.8329875E-09  0.4011879E+04  0.7818609E-02  0.8002154E-01
        1   -1    0    0  501    0  0.00000000000E+00  0.00000000000E+00  0.18883128696E+04  0.18883128696E+04  0.50400001928E-02 0.  1.
       -1   -1    0    0    0  501  0.00000000000E+00  0.00000000000E+00 -0.21308933929E+04  0.21308933929E+04  0.50400001928E-02 0. -1.
    10030    2    1    2    0    0  0.00000000000E+00  0.00000000000E+00 -0.24258052330E+03  0.40192062625E+04  0.40118790697E+04 0.  0.
        1    1    3    3  502    0 -0.28983101970E+03  0.51776494437E+03 -0.20409607917E+04  0.21254654810E+04  0.50400001928E-02 0. -1.
       -1    1    3    3    0  502  0.28983101970E+03 -0.51776494437E+03  0.17983802684E+04  0.18937407815E+04  0.50400001928E-02 0.  1.
</event>
<event>
 5   0  0.2746876E-08  0.3995959E+04  0.7818609E-02  0.8005362E-01
       -2   -1    0    0    0  501  0.00000000000E+00  0.00000000000E+00  0.19873079585E+04  0.19873079585E+04  0.25500000920E-02 0.  1.
        2   -1    0    0  501    0  0.00000000000E+00  0.00000000000E+00 -0.20087079335E+04  0.20087079335E+04  0.25500000920E-02 0. -1.
    10030    2    1    2    0    0  0.00000000000E+00  0.00000000000E+00 -0.21399974963E+02  0.39960158921E+04  0.39959585897E+04 0.  0.
        1    1    3    3  502    0  0.18820015774E+04 -0.66820923080E+03 -0.69758003459E+02  0.19983242211E+04  0.50400001928E-02 0. -1.
       -1    1    3    3    0  502 -0.18820015774E+04  0.66820923080E+03  0.48358028497E+02  0.19976916710E+04  0.50400001928E-02 0.  1.
</event>
<event>
 5   0  0.2612363E-08  0.4004190E+04  0.7818609E-02  0.8003702E-01
       -2   -1    0    0    0  501  0.00000000000E+00  0.00000000000E+00  0.29747518290E+04  0.29747518290E+04  0.25500000920E-02 0.  1.
        2   -1    0    0  501    0  0.00000000000E+00  0.00000000000E+00 -0.13474683863E+04  0.13474683863E+04  0.25500000920E-02 0. -1.
    10030    2    1    2    0    0  0.00000000000E+00  0.00000000000E+00  0.16272834427E+04  0.43222202153E+04  0.40041898290E+04 0.  0.
        4    1    3    3  502    0 -0.18768179138E+04 -0.26474751863E+03  0.11756302635E+03  0.18990417079E+04  0.12699999809E+01 0. -1.
       -4    1    3    3    0  502  0.18768179138E+04  0.26474751863E+03  0.15097204164E+04  0.24231785074E+04  0.12699999809E+01 0.  1.
</event>
<event>
 5   0  0.2650452E-08  0.4000521E+04  0.7818609E-02  0.8004441E-01
        2   -1    0    0  501    0  0.00000000000E+00  0.00000000000E+00  0.19607631355E+04  0.19607631355E+04  0.25500000920E-02 0. -1.
       -2   -1    0    0    0  501  0.00000000000E+00  0.00000000000E+00 -0.20405535016E+04  0.20405535016E+04  0.25500000920E-02 0.  1.
    10030    2    1    2    0    0  0.00000000000E+00  0.00000000000E+00 -0.79790366103E+02  0.40013166371E+04  0.40005210071E+04 0.  0.
        3    1    3    3  502    0  0.62273920516E+03 -0.54987963577E+03  0.17800464132E+04  0.19643668127E+04  0.10100000352E+00 0. -1.
       -3    1    3    3    0  502 -0.62273920516E+03  0.54987963577E+03 -0.18598367793E+04  0.20369498244E+04  0.10100000352E+00 0.  1.
</event>
<event>
 5   0  0.8329875E-09  0.4004229E+04  0.7818609E-02  0.8003694E-01
       -1   -1    0    0    0  501  0.00000000000E+00  0.00000000000E+00  0.17486835909E+04  0.17486835909E+04  0.50400001928E-02 0. -1.
        1   -1    0    0  501    0  0.00000000000E+00  0.00000000000E+00 -0.22922746338E+04  0.22922746338E+04  0.50400001928E-02 0.  1.
    10030    2    1    2    0    0  0.00000000000E+00  0.00000000000E+00 -0.54359104291E+03  0.40409582246E+04  0.40042292831E+04 0.  0.
        5    1    3    3  502    0 -0.55399114269E+03 -0.13611134169E+03 -0.22085152738E+04  0.22810072968E+04  0.46999998093E+01 0.  1.
       -5    1    3    3    0  502  0.55399114269E+03  0.13611134169E+03  0.16649242309E+04  0.17599509278E+04  0.46999998093E+01 0. -1.
</event>
<event>
 5   0  0.8329875E-09  0.3999582E+04  0.7818609E-02  0.8004631E-01
       -1   -1    0    0    0  501  0.00000000000E+00  0.00000000000E+00  0.23003237609E+04  0.23003237609E+04  0.50400001928E-02 0. -1.
        1   -1    0    0  501    0  0.00000000000E+00  0.00000000000E+00 -0.17385222567E+04  0.17385222567E+04  0.50400001928E-02 0.  1.
    10030    2    1    2    0    0  0.00000000000E+00  0.00000000000E+00  0.56180150418E+03  0.40388460177E+04  0.39995820062E+04 0.  0.
        2    1    3    3  502    0  0.16259920467E+04 -0.54721601433E+03  0.13185429331E+04  0.21637585283E+04  0.25500000920E-02 0. -1.
       -2    1    3    3    0  502 -0.16259920467E+04  0.54721601433E+03 -0.75674142895E+03  0.18750874893E+04  0.25500000920E-02 0.  1.
</event>
<event>
 5   0  0.2746876E-08  0.4001423E+04  0.7818609E-02  0.8004260E-01
       -2   -1    0    0    0  501  0.00000000000E+00  0.00000000000E+00  0.20308975455E+04  0.20308975455E+04  0.25500000920E-02 0. -1.
        2   -1    0    0  501    0  0.00000000000E+00  0.00000000000E+00 -0.19709739029E+04  0.19709739029E+04  0.25500000920E-02 0.  1.
    10030    2    1    2    0    0  0.00000000000E+00  0.00000000000E+00  0.59923642562E+02  0.40018714484E+04  0.40014227778E+04 0.  0.
        1    1    3    3  502    0  0.61400098235E+03  0.66981387200E+02  0.19331629418E+04  0.20294340768E+04  0.50400001928E-02 0. -1.
       -1    1    3    3    0  502 -0.61400098235E+03 -0.66981387200E+02 -0.18732392993E+04  0.19724373716E+04  0.50400001928E-02 0.  1.
</event>
<event>
 5   0  0.2612363E-08  0.4018126E+04  0.7818609E-02  0.8000900E-01
        2   -1    0    0  501    0  0.00000000000E+00  0.00000000000E+00  0.22895487726E+04  0.22895487726E+04  0.25500000920E-02 0. -1.
       -2   -1    0    0    0  501  0.00000000000E+00  0.00000000000E+00 -0.17629390736E+04  0.17629390736E+04  0.25500000920E-02 0.  1.
    10030    2    1    2    0    0  0.00000000000E+00  0.00000000000E+00  0.52660969898E+03  0.40524878462E+04  0.40181264252E+04 0.  0.
        4    1    3    3  502    0 -0.11376849814E+04  0.15119376556E+04 -0.41778550367E+03  0.19377380967E+04  0.12699999809E+01 0.  1.
       -4    1    3    3    0  502  0.11376849814E+04 -0.15119376556E+04  0.94439520265E+03  0.21147497495E+04  0.12699999809E+01 0. -1.
</event>
<event>
 5   0  0.2650452E-08  0.3971724E+04  0.7818609E-02  0.8010275E-01
        2   -1    0    0  501    0  0.00000000000E+00  0.00000000000E+00  0.18370681206E+04  0.18370681206E+04  0.25500000920E-02 0. -1.
       -2   -1    0    0    0  501  0.00000000000E+00  0.00000000000E+00 -0.21467071267E+04  0.21467071267E+04  0.25500000920E-02 0.  1.
    10030    2    1    2    0    0  0.00000000000E+00  0.00000000000E+00 -0.30963900609E+03  0.39837752472E+04  0.39717236694E+04 0.  0.
        3    1    3    3  502    0  0.72025943843E+03 -0.36012824434E+03  0.16659520298E+04  0.18503681220E+04  0.10100000352E+00 0. -1.
       -3    1    3    3    0  502 -0.72025943843E+03  0.36012824434E+03 -0.19755910359E+04  0.21334071253E+04  0.10100000352E+00 0.  1.
</event>
<event>
 5   0  0.8329875E-09  0.4002573E+04  0.7818609E-02  0.8004028E-01
        1   -1    0    0  501    0  0.00000000000E+00  0.00000000000E+00  0.13518571981E+04  0.13518571981E+04  0.50400001928E-02 0. -1.
       -1   -1    0    0    0  501  0.00000000000E+00  0.00000000000E+00 -0.29627008879E+04  0.29627008879E+04  0.50400001928E-02 0.  1.
    10030    2    1    2    0    0  0.00000000000E+00  0.00000000000E+00 -0.16108436898E+04  0.43145580860E+04  0.40025734328E+04 0.  0.
        3    1    3    3  502    0 -0.10895259370E+04  0.66216894370E+03  0.85741742570E+03  0.15364566800E+04  0.10100000352E+00 0. -1.
       -3    1    3    3    0  502  0.10895259370E+04 -0.66216894370E+03 -0.24682611155E+04  0.27781014060E+04  0.10100000352E+00 0.  1.
</event>
<event>
 5   0  0.2599332E-08  0.4006922E+04  0.7818609E-02  0.8003152E-01
       -2   -1    0    0    0  501  0.00000000000E+00  0.00000000000E+00  0.17788739464E+04  0.17788739464E+04  0.25500000920E-02 0. -1.
        2   -1    0    0  501    0  0.00000000000E+00  0.00000000000E+00 -0.22564028301E+04  0.22564028302E+04  0.25500000920E-02 0.  1.
    10030    2    1    2    0    0  0.00000000000E+00  0.00000000000E+00 -0.47752888373E+03  0.40352767766E+04  0.40069221141E+04 0.  0.
        2    1    3    3  502    0  0.83698012225E+03 -0.14183690550E+04 -0.13876924231E+04  0.21536008827E+04  0.25500000920E-02 0.  1.
       -2    1    3    3    0  502 -0.83698012225E+03  0.14183690550E+04  0.91016353933E+03  0.18816758938E+04  0.25500000920E-02 0. -1.
</event>
<event>
 5   0  0.8329875E-09  0.4018909E+04  0.7818609E-02  0.8000743E-01
       -1   -1    0    0    0  501  0.00000000000E+00  0.00000000000E+00  0.17996288078E+04  0.17996288078E+04  0.50400001928E-02 0.  1.
        1   -1    0    0  501    0  0.00000000000E+00  0.00000000000E+00 -0.22437449426E+04  0.22437449426E+04  0.50400001928E-02 0. -1.
    10030    2    1    2    0    0  0.00000000000E+00  0.00000000000E+00 -0.44411613476E+03  0.40433737505E+04  0.40189093228E+04 0.  0.
        1    1    3    3  502    0  0.15477598616E+04  0.50470707220E+03 -0.14072008510E+04  0.21518606026E+04  0.50400001928E-02 0.  1.
       -1    1    3    3    0  502 -0.15477598616E+04 -0.50470707220E+03  0.96308471622E+03  0.18915131479E+04  0.50400001928E-02 0. -1.
</event>
<event>
 5   0  0.8329875E-09  0.3999461E+04  0.7818609E-02  0.8004655E-01
        1   -1    0    0  501    0  0.00000000000E+00  0.00000000000E+00  0.14349417115E+04  0.14349417115E+04  0.50400001928E-02 0.  1.
       -1   -1    0    0    0  501  0.00000000000E+00  0.00000000000E+00 -0.27868187632E+04  0.27868187632E+04  0.50400001928E-02 0. -1.
    10030    2    1    2    0    0  0.00000000000E+00  0.00000000000E+00 -0.13518770518E+04  0.42217604747E+04  0.39994612066E+04 0.  0.
        2    1    3    3  502    0 -0.20621471089E+03  0.76649694823E+03  0.12615310790E+04  0.14904706445E+04  0.25500000920E-02 0.  1.
       -2    1    3    3    0  502  0.20621471089E+03 -0.76649694823E+03 -0.26134081308E+04  0.27312898303E+04  0.25500000920E-02 0. -1.
</event>
<event>
 5   0  0.2587493E-08  0.3999318E+04  0.7818609E-02  0.8004684E-01
        2   -1    0    0  501    0  0.00000000000E+00  0.00000000000E+00  0.11900484504E+04  0.11900484504E+04  0.25500000920E-02 0.  1.
       -2   -1    0    0    0  501  0.00000000000E+00  0.00000000000E+00 -0.33600615645E+04  0.33600615645E+04  0.25500000920E-02 0. -1.
    10030    2    1    2    0    0  0.00000000000E+00  0.00000000000E+00 -0.21700131140E+04  0.45501100149E+04  0.39993179709E+04 0.  0.
        5    1    3    3  502    0 -0.17673831130E+04  0.59476889175E+03 -0.19063917303E+04  0.26667854474E+04  0.46999998093E+01 0. -1.
       -5    1    3    3    0  502  0.17673831130E+04 -0.59476889175E+03 -0.26362138372E+03  0.18833245676E+04  0.46999998093E+01 0.  1.
</event>
<event>
 5   0  0.8329875E-09  0.4004376E+04  0.7818609E-02  0.8003664E-01
        1   -1    0    0  501    0  0.00000000000E+00  0.00000000000E+00  0.27297771576E+04  0.27297771576E+04  0.50400001928E-02 0.  1.
       -1   -1    0    0    0  501  0.00000000000E+00  0.00000000000E+00 -0.14685290213E+04  0.14685290213E+04  0.50400001928E-02 0. -1.
    10030    2    1    2    0    0  0.00000000000E+00  0.00000000000E+00  0.12612481363E+04  0.41983061789E+04  0.40043760950E+04 0.  0.
        1    1    3    3  502    0  0.35026421089E+03  0.83611281077E+03  0.25022946586E+04  0.26614372448E+04  0.50400001928E-02 0.  1.
       -1    1    3    3    0  502 -0.35026421089E+03 -0.83611281077E+03 -0.12410465223E+04  0.15368689340E+04  0.50400001928E-02 0. -1.
</event>
<event>
 5   0  0.2612363E-08  0.4002984E+04  0.7818609E-02  0.8003945E-01
        2   -1    0    0  501    0  0.00000000000E+00  0.00000000000E+00  0.24960890623E+04  0.24960890623E+04  0.25500000920E-02 0. -1.
       -2   -1    0    0    0  501  0.00000000000E+00  0.00000000000E+00 -0.16048989850E+04  0.16048989850E+04  0.25500000920E-02 0.  1.
    10030    2    1    2    0    0  0.00000000000E+00  0.00000000000E+00  0.89119007727E+03  0.41009880473E+04  0.40029842880E+04 0.  0.
        4    1    3    3  502    0 -0.75306908932E+03 -0.15069084342E+04 -0.66164425510E+03  0.18098786743E+04  0.12699999809E+01 0.  1.
       -4    1    3    3    0  502  0.75306908932E+03  0.15069084342E+04  0.15528343324E+04  0.22911093730E+04  0.12699999809E+01 0. -1.
</event>
<event>
 5   0  0.2650452E-08  0.4000587E+04  0.7818609E-02  0.8004428E-01
        2   -1    0    0  501    0  0.00000000000E+00  0.00000000000E+00  0.19556801234E+04  0.19556801234E+04  0.25500000920E-02 0. -1.
       -2   -1    0    0    0  501  0.00000000000E+00  0.00000000000E+00 -0.20459242752E+04  0.20459242752E+04  0.25500000920E-02 0.  1.
    10030    2    1    2    0    0  0.00000000000E+00  0.00000000000E+00 -0.90244151726E+02  0.40016043986E+04  0.40005866765E+04 0.  0.
        3    1    3    3  502    0  0.50346277137E+03  0.38329532308E+03  0.18529336727E+04  0.19579972606E+04  0.10100000352E+00 0. -1.
       -3    1    3    3    0  502 -0.50346277137E+03 -0.38329532308E+03 -0.19431778244E+04  0.20436071380E+04  0.10100000352E+00 0.  1.
</event>
<event>
 5   0  0.2650452E-08  0.4002769E+04  0.7818609E-02  0.8003988E-01
        2   -1    0    0  501    0  0.00000000000E+00  0.00000000000E+00  0.20219424510E+04  0.20219424510E+04  0.25500000920E-02 0. -1.
       -2   -1    0    0    0  501  0.00000000000E+00  0.00000000000E+00 -0.19810351090E+04  0.19810351090E+04  0.25500000920E-02 0.  1.
    10030    2    1    2    0    0  0.00000000000E+00  0.00000000000E+00  0.40907341939E+02  0.40029775600E+04  0.40027685338E+04 0.  0.
        3    1    3    3  502    0 -0.12732356082E+04 -0.63965330070E+02  0.15633623219E+04  0.20172561159E+04  0.10100000352E+00 0. -1.
       -3    1    3    3    0  502  0.12732356082E+04  0.63965330070E+02 -0.15224549800E+04  0.19857214441E+04  0.10100000352E+00 0.  1.
</event>
<event>
 5   0  0.8329875E-09  0.4006670E+04  0.7818609E-02  0.8003202E-01
        1   -1    0    0  501    0  0.00000000000E+00  0.00000000000E+00  0.25826171575E+04  0.25826171575E+04  0.50400001928E-02 0.  1.
       -1   -1    0    0    0  501  0.00000000000E+00  0.00000000000E+00 -0.15539857304E+04  0.15539857305E+04  0.50400001928E-02 0. -1.
    10030    2    1    2    0    0  0.00000000000E+00  0.00000000000E+00  0.10286314271E+04  0.41366028880E+04  0.40066695446E+04 0.  0.
        5    1    3    3  502    0  0.15357032240E+04 -0.12507542023E+04  0.82500257358E+03  0.21455586226E+04  0.46999998093E+01 0.  1.
       -5    1    3    3    0  502 -0.15357032240E+04  0.12507542023E+04  0.20362885348E+03  0.19910442654E+04  0.46999998093E+01 0. -1.
</event>
<event>
 5   0  0.2599332E-08  0.4019825E+04  0.7818609E-02  0.8000559E-01
        2   -1    0    0  501    0  0.00000000000E+00  0.00000000000E+00  0.15007146524E+04  0.15007146524E+04  0.25500000920E-02 0.  1.
       -2   -1    0    0    0  501  0.00000000000E+00  0.00000000000E+00 -0.26918834300E+04  0.26918834300E+04  0.25500000920E-02 0. -1.
    10030    2    1    2    0    0  0.00000000000E+00  0.00000000000E+00 -0.11911687776E+04  0.41925980824E+04  0.40198253226E+04 0.  0.
        2    1    3    3  502    0  0.15149972110E+04  0.11465756564E+04  0.88261224320E+02  0.19020100760E+04  0.25500000920E-02 0.  1.
       -2    1    3    3    0  502 -0.15149972110E+04 -0.11465756564E+04 -0.12794300019E+04  0.22905880064E+04  0.25500000920E-02 0. -1.
</event>
<event>
 5   0  0.2612363E-08  0.3998046E+04  0.7818609E-02  0.8004941E-01
        2   -1    0    0  501    0  0.00000000000E+00  0.00000000000E+00  0.19372468748E+04  0.19372468748E+04  0.25500000920E-02 0.  1.
       -2   -1    0    0    0  501  0.00000000000E+00  0.00000000000E+00 -0.20627694306E+04  0.20627694306E+04  0.25500000920E-02 0. -1.
    10030    2    1    2    0    0  0.00000000000E+00  0.00000000000E+00 -0.12552255580E+03  0.40000163054E+04  0.39980463393E+04 0.  0.
        4    1    3    3  502    0  0.56277185520E+03 -0.49650178089E+03  0.17909511164E+04  0.19418377104E+04  0.12699999809E+01 0.  1.
       -4    1    3    3    0  502 -0.56277185520E+03  0.49650178089E+03 -0.19164736722E+04  0.20581785949E+04  0.12699999809E+01 0. -1.
</event>
<event>
 5   0  0.2612363E-08  0.4000863E+04  0.7818609E-02  0.8004372E-01
       -2   -1    0    0    0  501  0.00000000000E+00  0.00000000000E+00  0.25821078878E+04  0.25821078878E+04  0.25500000920E-02 0.  1.
        2   -1    0    0  501    0  0.00000000000E+00  0.00000000000E+00 -0.15497906862E+04  0.15497906862E+04  0.25500000920E-02 0. -1.
    10030    2    1    2    0    0  0.00000000000E+00  0.00000000000E+00  0.10323172016E+04  0.41318985740E+04  0.40008632845E+04 0.  0.
        4    1    3    3  502    0  0.44766910186E+03 -0.10250903506E+04  0.22289415915E+04  0.24938725073E+04  0.12699999809E+01 0.  1.
       -4    1    3    3    0  502 -0.44766910186E+03  0.10250903506E+04 -0.11966243899E+04  0.16380260667E+04  0.12699999809E+01 0. -1.
</event>
<event>
 5   0  0.8329875E-09  0.3997589E+04  0.7818609E-02  0.8005033E-01
        1   -1    0    0  501    0  0.00000000000E+00  0.00000000000E+00  0.17043930655E+04  0.17043930655E+04  0.50400001928E-02 0.  1.
       -1   -1    0    0    0  501  0.00000000000E+00  0.00000000000E+00 -0.23440485192E+04  0.23440485192E+04  0.50400001928E-02 0. -1.
    10030    2    1    2    0    0  0.00000000000E+00  0.00000000000E+00 -0.63965545375E+03  0.40484415847E+04  0.39975892942E+04 0.  0.
        4    1    3    3  502    0  0.80346182363E+03  0.48492347282E+03 -0.21070651538E+04  0.23066050490E+04  0.12699999809E+01 0. -1.
       -4    1    3    3    0  502 -0.80346182363E+03 -0.48492347282E+03  0.14674097001E+04  0.17418365358E+04  0.12699999809E+01 0.  1.
</event>
<event>
 5   0  0.8329875E-09  0.4018143E+04  0.7818609E-02  0.8000896E-01
       -1   -1    0    0    0  501  0.00000000000E+00  0.00000000000E+00  0.27415262117E+04  0.27415262117E+04  0.50400001928E-02 0.  1.
        1   -1    0    0  501    0  0.00000000000E+00  0.00000000000E+00 -0.14723073662E+04  0.14723073662E+04  0.50400001928E-02 0. -1.
    10030    2    1    2    0    0  0.00000000000E+00  0.00000000000E+00  0.12692188455E+04  0.42138335779E+04  0.40181434698E+04 0.  0.
        5    1    3    3  502    0  0.28353903165E+03 -0.18058043524E+04  0.15088916596E+04  0.23702531241E+04  0.46999998093E+01 0.  1.
       -5    1    3    3    0  502 -0.28353903165E+03  0.18058043524E+04 -0.23967281414E+03  0.18435804538E+04  0.46999998093E+01 0. -1.
</event>
<event>
 5   0  0.8329875E-09  0.3989561E+04  0.7818609E-02  0.8006656E-01
        1   -1    0    0  501    0  0.00000000000E+00  0.00000000000E+00  0.25858443580E+04  0.25858443580E+04  0.50400001928E-02 0. -1.
       -1   -1    0    0    0  501  0.00000000000E+00  0.00000000000E+00 -0.15388203553E+04  0.15388203553E+04  0.50400001928E-02 0.  1.
    10030    2    1    2    0    0  0.00000000000E+00  0.00000000000E+00  0.10470240027E+04  0.41246647134E+04  0.39895613462E+04 0.  0.
        1    1    3    3  502    0  0.43644062455E+03 -0.16833950538E+04  0.15337674893E+04  0.23187802908E+04  0.50400001928E-02 0. -1.
       -1    1    3    3    0  502 -0.43644062455E+03  0.16833950538E+04 -0.48674348654E+03  0.18058844225E+04  0.50400001928E-02 0.  1.
</event>
<event>
 5   0  0.8329875E-09  0.4000665E+04  0.7818609E-02  0.8004412E-01
       -1   -1    0    0    0  501  0.00000000000E+00  0.00000000000E+00  0.13730659086E+04  0.13730659086E+04  0.50400001928E-02 0. -1.
        1   -1    0    0  501    0  0.00000000000E+00  0.00000000000E+00 -0.29141572233E+04  0.29141572233E+04  0.50400001928E-02 0.  1.
    10030    2    1    2    0    0  0.00000000000E+00  0.00000000000E+00 -0.15410913147E+04  0.42872231319E+04  0.40006649125E+04 0.  0.
        4    1    3    3  502    0  0.57175967273E+03  0.14393560908E+04 -0.21271912343E+04  0.26312733114E+04  0.12699999809E+01 0.  1.
       -4    1    3    3    0  502 -0.57175967273E+03 -0.14393560908E+04  0.58609991954E+03  0.16559498205E+04  0.12699999809E+01 0. -1.
</event>
<event>
 5   0  0.8329875E-09  0.3994753E+04  0.7818609E-02  0.8005606E-01
       -1   -1    0    0    0  501  0.00000000000E+00  0.00000000000E+00  0.13668525233E+04  0.13668525233E+04  0.50400001928E-02 0.  1.
        1   -1    0    0  501    0  0.00000000000E+00  0.00000000000E+00 -0.29187583089E+04  0.29187583089E+04  0.50400001928E-02 0. -1.
    10030    2    1    2    0    0  0.00000000000E+00  0.00000000000E+00 -0.15519057856E+04  0.42856108321E+04  0.39947526378E+04 0.  0.
        1    1    3    3  502    0  0.25473352517E+03 -0.68182426896E+03  0.12195138126E+04  0.14202068306E+04  0.50400001928E-02 0.  1.
       -1    1    3    3    0  502 -0.25473352517E+03  0.68182426896E+03 -0.27714195982E+04  0.28654040015E+04  0.50400001928E-02 0. -1.
</event>
<event>
 5   0  0.2599332E-08  0.3994483E+04  0.7818609E-02  0.8005660E-01
       -2   -1    0    0    0  501  0.00000000000E+00  0.00000000000E+00  0.13548725848E+04  0.13548725848E+04  0.25500000920E-02 0. -1.
        2   -1    0    0  501    0  0.00000000000E+00  0.00000000000E+00 -0.29441683474E+04  0.29441683474E+04  0.25500000920E-02 0.  1.
    10030    2    1    2    0    0  0.00000000000E+00  0.00000000000E+00 -0.15892957625E+04  0.42990409322E+04  0.39944826844E+04 0.  0.
        2    1    3    3  502    0 -0.14565957301E+04  0.11617781309E+04 -0.20369693220E+02  0.18632805669E+04  0.25500000920E-02 0. -1.
       -2    1    3    3    0  502  0.14565957301E+04 -0.11617781309E+04 -0.15689260693E+04  0.24357603653E+04  0.25500000920E-02 0.  1.
</event>
<event>
 5   0  0.8329875E-09  0.3988092E+04  0.7818609E-02  0.8006953E-01
        1   -1    0    0  501    0  0.00000000000E+00  0.00000000000E+00  0.22477577395E+04  0.22477577395E+04  0.50400001928E-02 0. -1.
       -1   -1    0    0    0  501  0.00000000000E+00  0.00000000000E+00 -0.17689713052E+04  0.17689713052E+04  0.50400001928E-02 0.  1.
    10030    2    1    2    0    0  0.00000000000E+00  0.00000000000E+00  0.47878643430E+03  0.40167290448E+04  0.39880917454E+04 0.  0.
        4    1    3    3  502    0 -0.16802064569E+04 -0.95263150678E+03  0.73854937612E+03  0.20678629837E+04  0.12699999809E+01 0. -1.
       -4    1    3    3    0  502  0.16802064569E+04  0.95263150678E+03 -0.25976294181E+03  0.19488660611E+04  0.12699999809E+01 0.  1.
</event>
<event>
 5   0  0.2599332E-08  0.3991284E+04  0.7818609E-02  0.8006307E-01
        2   -1    0    0  501    0  0.00000000000E+00  0.00000000000E+00  0.23580789720E+04  0.23580789720E+04  0.25500000920E-02 0.  1.
       -2   -1    0    0    0  501  0.00000000000E+00  0.00000000000E+00 -0.16889115178E+04  0.16889115178E+04  0.25500000920E-02 0. -1.
    10030    2    1    2    0    0  0.00000000000E+00  0.00000000000E+00  0.66916745427E+03  0.40469904898E+04  0.39912838715E+04 0.  0.
        2    1    3    3  502    0  0.13040314209E+04  0.71697470458E+03  0.16828172649E+04  0.22464248531E+04  0.25500000920E-02 0. -1.
       -2    1    3    3    0  502 -0.13040314209E+04 -0.71697470458E+03 -0.10136498106E+04  0.18005656367E+04  0.25500000920E-02 0.  1.
</event>
<event>
 5   0  0.8329875E-09  0.3993366E+04  0.7818609E-02  0.8005886E-01
        1   -1    0    0  501    0  0.00000000000E+00  0.00000000000E+00  0.25563092653E+04  0.25563092653E+04  0.50400001928E-02 0.  1.
       -1   -1    0    0    0  501  0.00000000000E+00  0.00000000000E+00 -0.15595697412E+04  0.15595697413E+04  0.50400001928E-02 0. -1.
    10030    2    1    2    0    0  0.00000000000E+00  0.00000000000E+00  0.99673952406E+03  0.41158790066E+04  0.39933657881E+04 0.  0.
        1    1    3    3  502    0 -0.13751397720E+04 -0.22511677357E+03 -0.97555755905E+03  0.17009995606E+04  0.50400001928E-02 0.  1.
       -1    1    3    3    0  502  0.13751397720E+04  0.22511677357E+03  0.19722970831E+04  0.24148794459E+04  0.50400001928E-02 0. -1.
</event>
<event>
 5   0  0.8329875E-09  0.4000564E+04  0.7818609E-02  0.8004433E-01
       -1   -1    0    0    0  501  0.00000000000E+00  0.00000000000E+00  0.25016440894E+04  0.25016440894E+04  0.50400001928E-02 0. -1.
        1   -1    0    0  501    0  0.00000000000E+00  0.00000000000E+00 -0.15993992073E+04  0.15993992073E+04  0.50400001928E-02 0.  1.
    10030    2    1    2    0    0  0.00000000000E+00  0.00000000000E+00  0.90224488212E+03  0.41010432967E+04  0.40005637470E+04 0.  0.
        5    1    3    3  502    0  0.89534891821E+03  0.17269020991E+04  0.92894646621E+03  0.21556447231E+04  0.46999998093E+01 0. -1.
       -5    1    3    3    0  502 -0.89534891821E+03 -0.17269020991E+04 -0.26701584089E+02  0.19453985735E+04  0.46999998093E+01 0.  1.
</event>
<event>
 5   0  0.2599332E-08  0.3977461E+04  0.7818609E-02  0.8009109E-01
       -2   -1    0    0    0  501  0.00000000000E+00  0.00000000000E+00  0.23881857782E+04  0.23881857782E+04  0.25500000920E-02 0.  1.
        2   -1    0    0  501    0  0.00000000000E+00  0.00000000000E+00 -0.16560894871E+04  0.16560894872E+04  0.25500000920E-02 0. -1.
    10030    2    1    2    0    0  0.00000000000E+00  0.00000000000E+00  0.73209629101E+03  0.40442752653E+04  0.39774611805E+04 0.  0.
        2    1    3    3  502    0  0.18115805984E+04  0.27254027173E+03  0.11529651263E+04  0.21645856524E+04  0.25500000920E-02 0. -1.
       -2    1    3    3    0  502 -0.18115805984E+04 -0.27254027173E+03 -0.42086883533E+03  0.18796896129E+04  0.25500000920E-02 0.  1.
</event>
<event>
 5   0  0.2746876E-08  0.3987235E+04  0.7818609E-02  0.8007127E-01
        2   -1    0    0  501    0  0.00000000000E+00  0.00000000000E+00  0.24264039935E+04  0.24264039935E+04  0.25500000920E-02 0.  1.
       -2   -1    0    0    0  501  0.00000000000E+00  0.00000000000E+00 -0.16380254437E+04  0.16380254437E+04  0.25500000920E-02 0. -1.
    10030    2    1    2    0    0  0.00000000000E+00  0.00000000000E+00  0.78837854975E+03  0.40644294372E+04  0.39872353721E+04 0.  0.
        1    1    3    3  502    0  0.35823409356E+03  0.80768821093E+03  0.22159146314E+04  0.23855753112E+04  0.50400001928E-02 0.  1.
       -1    1    3    3    0  502 -0.35823409356E+03 -0.80768821093E+03 -0.14275360817E+04  0.16788541260E+04  0.50400001928E-02 0. -1.
</event>
<event>
 5   0  0.2587493E-08  0.3991335E+04  0.7818609E-02  0.8006297E-01
        2   -1    0    0  501    0  0.00000000000E+00  0.00000000000E+00  0.13796273874E+04  0.13796273875E+04  0.25500000920E-02 0.  1.
       -2   -1    0    0    0  501  0.00000000000E+00  0.00000000000E+00 -0.28867864480E+04  0.28867864480E+04  0.25500000920E-02 0. -1.
    10030    2    1    2    0    0  0.00000000000E+00  0.00000000000E+00 -0.15071590605E+04  0.42664138354E+04  0.39913354384E+04 0.  0.
        5    1    3    3  502    0 -0.65481679698E+03 -0.16848762764E+04 -0.16574795203E+04  0.24525198377E+04  0.46999998093E+01 0. -1.
       -5    1    3    3    0  502  0.65481679698E+03  0.16848762764E+04  0.15032045979E+03  0.18138939977E+04  0.46999998093E+01 0.  1.
</event>
<event>
 5   0  0.8329875E-09  0.4004756E+04  0.7818609E-02  0.8003588E-01
       -1   -1    0    0    0  501  0.00000000000E+00  0.00000000000E+00  0.18487958792E+04  0.18487958792E+04  0.50400001928E-02 0.  1.
        1   -1    0    0  501    0  0.00000000000E+00  0.00000000000E+00 -0.21687182068E+04  0.21687182068E+04  0.50400001928E-02 0. -1.
    10030    2    1    2    0    0  0.00000000000E+00  0.00000000000E+00 -0.31992232765E+03  0.40175140860E+04  0.40047558147E+04 0.  0.
        4    1    3    3  502    0 -0.55168585976E+03 -0.83592573058E+03  0.15794561068E+04  0.18702439202E+04  0.12699999809E+01 0.  1.
       -4    1    3    3    0  502  0.55168585976E+03  0.83592573058E+03 -0.18993784344E+04  0.21472701658E+04  0.12699999809E+01 0. -1.
</event>
<event>
 5   0  0.8329875E-09  0.4000166E+04  0.7818609E-02  0.8004513E-01
        1   -1    0    0  501    0  0.00000000000E+00  0.00000000000E+00  0.18745849173E+04  0.18745849173E+04  0.50400001928E-02 0.  1.
       -1   -1    0    0    0  501  0.00000000000E+00  0.00000000000E+00 -0.21339828542E+04  0.21339828542E+04  0.50400001928E-02 0. -1.
    10030    2    1    2    0    0  0.00000000000E+00  0.00000000000E+00 -0.25939793693E+03  0.40085677715E+04  0.40001660326E+04 0.  0.
        1    1    3    3  502    0  0.17760509961E+04 -0.66718873305E+03 -0.76414335235E+03  0.20453393384E+04  0.50400001928E-02 0.  1.
       -1    1    3    3    0  502 -0.17760509961E+04  0.66718873305E+03  0.50474541543E+03  0.19632284331E+04  0.50400001928E-02 0. -1.
</event>
<event>
 5   0  0.8329875E-09  0.3996114E+04  0.7818609E-02  0.8005331E-01
        1   -1    0    0  501    0  0.00000000000E+00  0.00000000000E+00  0.12982438749E+04  0.12982438749E+04  0.50400001928E-02 0.  1.
       -1   -1    0    0    0  501  0.00000000000E+00  0.00000000000E+00 -0.30751012946E+04  0.30751012946E+04  0.50400001928E-02 0. -1.
    10030    2    1    2    0    0  0.00000000000E+00  0.00000000000E+00 -0.17768574197E+04  0.43733451695E+04  0.39961138224E+04 0.  0.
        5    1    3    3  502    0  0.20838125555E+03  0.90436624397E+03  0.10480426508E+04  0.13998987602E+04  0.46999998093E+01 0.  1.
       -5    1    3    3    0  502 -0.20838125555E+03 -0.90436624397E+03 -0.28249000705E+04  0.29734464093E+04  0.46999998093E+01 0. -1.
</event>
<event>
 5   0  0.2650452E-08  0.4000872E+04  0.7818609E-02  0.8004371E-01
       -2   -1    0    0    0  501  0.00000000000E+00  0.00000000000E+00  0.19334314040E+04  0.19334314040E+04  0.25500000920E-02 0.  1.
        2   -1    0    0  501    0  0.00000000000E+00  0.00000000000E+00 -0.20697630241E+04  0.20697630241E+04  0.25500000920E-02 0. -1.
    10030    2    1    2    0    0  0.00000000000E+00  0.00000000000E+00 -0.13633162005E+03  0.40031944281E+04  0.40008723197E+04 0.  0.
        3    1    3    3  502    0  0.81579258027E+03 -0.19217109560E+03  0.17492852883E+04  0.19397026304E+04  0.10100000352E+00 0.  1.
       -3    1    3    3    0  502 -0.81579258027E+03  0.19217109560E+03 -0.18856169084E+04  0.20634917978E+04  0.10100000352E+00 0. -1.
</event>
<event>
 5   0  0.2599332E-08  0.4010859E+04  0.7818609E-02  0.8002360E-01
        2   -1    0    0  501    0  0.00000000000E+00  0.00000000000E+00  0.17623752249E+04  0.17623752249E+04  0.25500000920E-02 0.  1.
       -2   -1    0    0    0  501  0.00000000000E+00  0.00000000000E+00 -0.22820042097E+04  0.22820042097E+04  0.25500000920E-02 0. -1.
    10030    2    1    2    0    0  0.00000000000E+00  0.00000000000E+00 -0.51962898484E+03  0.40443794346E+04  0.40108591011E+04 0.  0.
        2    1    3    3  502    0  0.17779031633E+04  0.92756380786E+03 -0.23882208900E+03  0.20194925764E+04  0.25500000920E-02 0. -1.
       -2    1    3    3    0  502 -0.17779031633E+04 -0.92756380786E+03 -0.28080689583E+03  0.20248868582E+04  0.25500000920E-02 0.  1.
</event>
<event>
 5   0  0.8329875E-09  0.3985293E+04  0.7818609E-02  0.8007520E-01
        1   -1    0    0  501    0  0.00000000000E+00  0.00000000000E+00  0.18007641868E+04  0.18007641868E+04  0.50400001928E-02 0.  1.
       -1   -1    0    0    0  501  0.00000000000E+00  0.00000000000E+00 -0.22049754250E+04  0.22049754250E+04  0.50400001928E-02 0. -1.
    10030    2    1    2    0    0  0.00000000000E+00  0.00000000000E+00 -0.40421123822E+03  0.40057396117E+04  0.39852933533E+04 0.  0.
        2    1    3    3  502    0  0.17580470284E+04 -0.92702150502E+03 -0.34616768214E+03  0.20174068229E+04  0.25500000920E-02 0. -1.
       -2    1    3    3    0  502 -0.17580470284E+04  0.92702150502E+03 -0.58043556079E+02  0.19883327889E+04  0.25500000920E-02 0.  1.
</event>
<event>
 5   0  0.8329875E-09  0.4000708E+04  0.7818609E-02  0.8004404E-01
       -1   -1    0    0    0  501  0.00000000000E+00  0.00000000000E+00  0.19402602610E+04  0.19402602610E+04  0.50400001928E-02 0.  1.
        1   -1    0    0  501    0  0.00000000000E+00  0.00000000000E+00 -0.20623094696E+04  0.20623094696E+04  0.50400001928E-02 0. -1.
    10030    2    1    2    0    0  0.00000000000E+00  0.00000000000E+00 -0.12204920853E+03  0.40025697306E+04  0.40007084921E+04 0.  0.
        2    1    3    3  502    0 -0.74974231213E+03 -0.44648826608E+03 -0.18618486190E+04  0.20561968744E+04  0.25500000920E-02 0. -1.
       -2    1    3    3    0  502  0.74974231213E+03  0.44648826608E+03  0.17397994105E+04  0.19463728561E+04  0.25500000920E-02 0.  1.
</event>
<event>
 5   0  0.2612363E-08  0.4008005E+04  0.7818609E-02  0.8002934E-01
       -2   -1    0    0    0  501  0.00000000000E+00  0.00000000000E+00  0.19718403795E+04  0.19718403795E+04  0.25500000920E-02 0. -1.
        2   -1    0    0  501    0  0.00000000000E+00  0.00000000000E+00 -0.20366890829E+04  0.20366890829E+04  0.25500000920E-02 0.  1.
    10030    2    1    2    0    0  0.00000000000E+00  0.00000000000E+00 -0.64848703454E+02  0.40085294624E+04  0.40080048773E+04 0.  0.
        4    1    3    3  502    0 -0.31304874620E+03 -0.11608589191E+04 -0.16358906333E+04  0.20302050942E+04  0.12699999809E+01 0.  1.
       -4    1    3    3    0  502  0.31304874620E+03  0.11608589191E+04  0.15710419299E+04  0.19783243682E+04  0.12699999809E+01 0. -1.
</event>
<event>
 5   0  0.8329875E-09  0.4013131E+04  0.7818609E-02  0.8001903E-01
       -1   -1    0    0    0  501  0.00000000000E+00  0.00000000000E+00  0.21733789294E+04  0.21733789294E+04  0.50400001928E-02 0. -1.
        1   -1    0    0  501    0  0.00000000000E+00  0.00000000000E+00 -0.18525552921E+04  0.18525552922E+04  0.50400001928E-02 0.  1.
    10030    2    1    2    0    0  0.00000000000E+00  0.00000000000E+00  0.32082363721E+03  0.40259342215E+04  0.40131307666E+04 0.  0.
        3    1    3    3  502    0  0.16710187097E+04 -0.74458629773E+03  0.98741580384E+03  0.20788704296E+04  0.10100000352E+00 0.  1.
       -3    1    3    3    0  502 -0.16710187097E+04  0.74458629773E+03 -0.66659216662E+03  0.19470637919E+04  0.10100000352E+00 0. -1.
</event>
<event>
 5   0  0.2746876E-08  0.4001918E+04  0.7818609E-02  0.8004160E-01
       -2   -1    0    0    0  501  0.00000000000E+00  0.00000000000E+00  0.28126879842E+04  0.28126879842E+04  0.25500000920E-02 0.  1.
        2   -1    0    0  501    0  0.00000000000E+00  0.00000000000E+00 -0.14234909629E+04  0.14234909629E+04  0.25500000920E-02 0. -1.
    10030    2    1    2    0    0  0.00000000000E+00  0.00000000000E+00  0.13891970213E+04  0.42361789471E+04  0.40019175039E+04 0.  0.
        1    1    3    3  502    0  0.16184098483E+04  0.33027484340E+03 -0.50089460966E+03  0.17260438347E+04  0.50400001928E-02 0. -1.
       -1    1    3    3    0  502 -0.16184098483E+04 -0.33027484340E+03  0.18900916309E+04  0.25101351124E+04  0.50400001928E-02 0.  1.
</event>
<event>
 5   0  0.8329875E-09  0.3988354E+04  0.7818609E-02  0.8006900E-01
        1   -1    0    0  501    0  0.00000000000E+00  0.00000000000E+00  0.16985608757E+04  0.16985608757E+04  0.50400001928E-02 0. -1.
       -1   -1    0    0    0  501  0.00000000000E+00  0.00000000000E+00 -0.23412419836E+04  0.23412419836E+04  0.50400001928E-02 0.  1.
    10030    2    1    2    0    0  0.00000000000E+00  0.00000000000E+00 -0.64268110797E+03  0.40398028593E+04  0.39883540635E+04 0.  0.
        2    1    3    3  502    0  0.14549840865E+04 -0.12490419968E+04 -0.87581175423E+03  0.21081107254E+04  0.25500000920E-02 0.  1.
       -2    1    3    3    0  502 -0.14549840865E+04  0.12490419968E+04  0.23313064625E+03  0.19316921339E+04  0.25500000920E-02 0. -1.
</event>
<event>
 5   0  0.8329875E-09  0.4001487E+04  0.7818609E-02  0.8004247E-01
       -1   -1    0    0    0  501  0.00000000000E+00  0.00000000000E+00  0.12598878414E+04  0.12598878414E+04  0.50400001928E-02 0. -1.
        1   -1    0    0  501    0  0.00000000000E+00  0.00000000000E+00 -0.31772467795E+04  0.31772467795E+04  0.50400001928E-02 0.  1.
    10030    2    1    2    0    0  0.00000000000E+00  0.00000000000E+00 -0.19173589381E+04  0.44371346209E+04  0.40014870169E+04 0.  0.
        4    1    3    3  502    0 -0.99068893034E+03  0.77544210340E+03 -0.26837491350E+04  0.29639983206E+04  0.12699999809E+01 0.  1.
       -4    1    3    3    0  502  0.99068893034E+03 -0.77544210340E+03  0.76639019687E+03  0.14731363003E+04  0.12699999809E+01 0. -1.
</event>
<event>
 5   0  0.2612363E-08  0.4000792E+04  0.7818609E-02  0.8004387E-01
       -2   -1    0    0    0  501  0.00000000000E+00  0.00000000000E+00  0.22460524534E+04  0.22460524534E+04  0.25500000920E-02 0.  1.
        2   -1    0    0  501    0  0.00000000000E+00  0.00000000000E+00 -0.17816080156E+04  0.17816080156E+04  0.25500000920E-02 0. -1.
    10030    2    1    2    0    0  0.00000000000E+00  0.00000000000E+00  0.46444443781E+03  0.40276604691E+04  0.40007924488E+04 0.  0.
        4    1    3    3  502    0 -0.10416336449E+04 -0.14830258341E+04  0.10847963845E+04  0.21121437175E+04  0.12699999809E+01 0.  1.
       -4    1    3    3    0  502  0.10416336449E+04  0.14830258341E+04 -0.62035194665E+03  0.19155167515E+04  0.12699999809E+01 0. -1.
</event>
<event>
 5   0  0.2599332E-08  0.3967601E+04  0.7818609E-02  0.8011115E-01
       -2   -1    0    0    0  501  0.00000000000E+00  0.00000000000E+00  0.19192784618E+04  0.19192784618E+04  0.25500000920E-02 0. -1.
        2   -1    0    0  501    0  0.00000000000E+00  0.00000000000E+00 -0.20504911622E+04  0.20504911622E+04  0.25500000920E-02 0.  1.
    10030    2    1    2    0    0  0.00000000000E+00  0.00000000000E+00 -0.13121270047E+03  0.39697696240E+04  0.39676005463E+04 0.  0.
        2    1    3    3  502    0 -0.14738162572E+04  0.51299471008E+03  0.11598757237E+04  0.19443789823E+04  0.25500000920E-02 0. -1.
       -2    1    3    3    0  502  0.14738162572E+04 -0.51299471008E+03 -0.12910884242E+04  0.20253906417E+04  0.25500000920E-02 0.  1.
</event>
<event>
 5   0  0.8329875E-09  0.3997597E+04  0.7818609E-02  0.8005032E-01
        1   -1    0    0  501    0  0.00000000000E+00  0.00000000000E+00  0.22771480722E+04  0.22771480722E+04  0.50400001928E-02 0.  1.
       -1   -1    0    0    0  501  0.00000000000E+00  0.00000000000E+00 -0.17544731055E+04  0.17544731055E+04  0.50400001928E-02 0. -1.
    10030    2    1    2    0    0  0.00000000000E+00  0.00000000000E+00  0.52267496673E+03  0.40316211777E+04  0.39975968030E+04 0.  0.
        5    1    3    3  502    0 -0.54000347520E+03 -0.71376707332E+03 -0.15410799341E+04  0.17821382218E+04  0.46999998093E+01 0. -1.
       -5    1    3    3    0  502  0.54000347520E+03  0.71376707332E+03  0.20637549008E+04  0.22494829559E+04  0.46999998093E+01 0.  1.
</event>
<event>
 5   0  0.2587493E-08  0.4008581E+04  0.7818609E-02  0.8002818E-01
       -2   -1    0    0    0  501  0.00000000000E+00  0.00000000000E+00  0.17979445897E+04  0.17979445897E+04  0.25500000920E-02 0. -1.
        2   -1    0    0  501    0  0.00000000000E+00  0.00000000000E+00 -0.22343178605E+04  0.22343178605E+04  0.25500000920E-02 0.  1.
    10030    2    1    2    0    0  0.00000000000E+00  0.00000000000E+00 -0.43637327078E+03  0.40322624502E+04  0.40085806510E+04 0.  0.
        5    1    3    3  502    0  0.91387315580E+03 -0.69332398863E+03 -0.18714582101E+04  0.21950490246E+04  0.46999998093E+01 0.  1.
       -5    1    3    3    0  502 -0.91387315580E+03  0.69332398863E+03  0.14350849393E+04  0.18372134256E+04  0.46999998093E+01 0. -1.
</event>
<event>
 5   0  0.2599332E-08  0.3997159E+04  0.7818609E-02  0.8005120E-01
       -2   -1    0    0    0  501  0.00000000000E+00  0.00000000000E+00  0.14708017393E+04  0.14708017393E+04  0.25500000920E-02 0. -1.
        2   -1    0    0  501    0  0.00000000000E+00  0.00000000000E+00 -0.27157437133E+04  0.27157437133E+04  0.25500000920E-02 0.  1.
    10030    2    1    2    0    0  0.00000000000E+00  0.00000000000E+00 -0.12449419740E+04  0.41865454526E+04  0.39971592798E+04 0.  0.
        2    1    3    3  502    0  0.19944946295E+04 -0.46857471558E+02 -0.74691160020E+03  0.21302773031E+04  0.25500000920E-02 0.  1.
       -2    1    3    3    0  502 -0.19944946295E+04  0.46857471558E+02 -0.49803037382E+03  0.20562681495E+04  0.25500000920E-02 0. -1.
</event>
<event>
 5   0  0.2587493E-08  0.3999757E+04  0.7818609E-02  0.8004596E-01
        2   -1    0    0  501    0  0.00000000000E+00  0.00000000000E+00  0.13372284384E+04  0.13372284384E+04  0.25500000920E-02 0.  1.
       -2   -1    0    0    0  501  0.00000000000E+00  0.00000000000E+00 -0.29908978809E+04  0.29908978809E+04  0.25500000920E-02 0. -1.
    10030    2    1    2    0    0  0.00000000000E+00  0.00000000000E+00 -0.16536694425E+04  0.43281263193E+04  0.39997568440E+04 0.  0.
        5    1    3    3  502    0 -0.18561272426E+04 -0.40005517930E+03 -0.14740240651E+03  0.19044689671E+04  0.46999998093E+01 0.  1.
       -5    1    3    3    0  502  0.18561272426E+04  0.40005517930E+03 -0.15062670360E+04  0.24236573522E+04  0.46999998093E+01 0. -1.
</event>
<event>
 5   0  0.8329875E-09  0.4000356E+04  0.7818609E-02  0.8004475E-01
        1   -1    0    0  501    0  0.00000000000E+00  0.00000000000E+00  0.12625834553E+04  0.12625834554E+04  0.50400001928E-02 0.  1.
       -1   -1    0    0    0  501  0.00000000000E+00  0.00000000000E+00 -0.31686710155E+04  0.31686710155E+04  0.50400001928E-02 0. -1.
    10030    2    1    2    0    0  0.00000000000E+00  0.00000000000E+00 -0.19060875602E+04  0.44312544709E+04  0.40003557840E+04 0.  0.
        3    1    3    3  502    0 -0.10470001426E+04  0.92821569986E+03 -0.25363084830E+04  0.28966626340E+04  0.10100000352E+00 0. -1.
       -3    1    3    3    0  502  0.10470001426E+04 -0.92821569986E+03  0.63022092280E+03  0.15345918369E+04  0.10100000352E+00 0.  1.
</event>
<event>
 5   0  0.2746876E-08  0.4001401E+04  0.7818609E-02  0.8004264E-01
       -2   -1    0    0    0  501  0.00000000000E+00  0.00000000000E+00  0.30236498382E+04  0.30236498382E+04  0.25500000920E-02 0. -1.
        2   -1    0    0  501    0  0.00000000000E+00  0.00000000000E+00 -0.13238314716E+04  0.13238314716E+04  0.25500000920E-02 0.  1.
    10030    2    1    2    0    0  0.00000000000E+00  0.00000000000E+00  0.16998183666E+04  0.43474813098E+04  0.40014011620E+04 0.  0.
        1    1    3    3  502    0  0.10962623403E+04  0.16524356349E+04  0.11383270242E+04  0.22865089242E+04  0.50400001928E-02 0. -1.
       -1    1    3    3    0  502 -0.10962623403E+04 -0.16524356349E+04  0.56149134232E+03  0.20609723855E+04  0.50400001928E-02 0.  1.
</event>
<event>
 5   0  0.8329875E-09  0.4007019E+04  0.7818609E-02  0.8003132E-01
        1   -1    0    0  501    0  0.00000000000E+00  0.00000000000E+00  0.19729694925E+04  0.19729694925E+04  0.50400001928E-02 0. -1.
       -1   -1    0    0    0  501  0.00000000000E+00  0.00000000000E+00 -0.20345221709E+04  0.20345221709E+04  0.50400001928E-02 0.  1.
    10030    2    1    2    0    0  0.00000000000E+00  0.00000000000E+00 -0.61552678393E+02  0.40074916635E+04  0.40070189294E+04 0.  0.
        3    1    3    3  502    0  0.43358099827E+03  0.18866129517E+04 -0.54731500881E+03  0.20116795572E+04  0.10100000352E+00 0.  1.
       -3    1    3    3    0  502 -0.43358099827E+03 -0.18866129517E+04  0.48576233042E+03  0.19958121063E+04  0.10100000352E+00 0. -1.
</event>
<event>
 5   0  0.2599332E-08  0.3999649E+04  0.7818609E-02  0.8004617E-01
        2   -1    0    0  501    0  0.00000000000E+00  0.00000000000E+00  0.21476605417E+04  0.21476605417E+04  0.25500000920E-02 0. -1.
       -2   -1    0    0    0  501  0.00000000000E+00  0.00000000000E+00 -0.18621646355E+04  0.18621646355E+04  0.25500000920E-02 0.  1.
    10030    2    1    2    0    0  0.00000000000E+00  0.00000000000E+00  0.28549590613E+03  0.40098251772E+04  0.39996487395E+04 0.  0.
        2    1    3    3  502    0 -0.18992089667E+03 -0.19884548826E+04  0.23929845070E+03  0.20117868962E+04  0.25500000920E-02 0.  1.
       -2    1    3    3    0  502  0.18992089667E+03  0.19884548826E+04  0.46197455436E+02  0.19980382810E+04  0.25500000920E-02 0. -1.
</event>
<event>
 5   0  0.2650452E-08  0.4003111E+04  0.7818609E-02  0.8003919E-01
        2   -1    0    0  501    0  0.00000000000E+00  0.00000000000E+00  0.20349957998E+04  0.20349957998E+04  0.25500000920E-02 0.  1.
       -2   -1    0    0    0  501  0.00000000000E+00  0.00000000000E+00 -0.19686642223E+04  0.19686642223E+04  0.25500000920E-02 0. -1.
    10030    2    1    2    0    0  0.00000000000E+00  0.00000000000E+00  0.66331577557E+02  0.40036600221E+04  0.40031105024E+04 0.  0.
        3    1    3    3  502    0  0.16366336371E+04  0.85310351758E+03 -0.74145208008E+03  0.19889963476E+04  0.10100000352E+00 0. -1.
       -3    1    3    3    0  502 -0.16366336371E+04 -0.85310351758E+03  0.80778365763E+03  0.20146636745E+04  0.10100000352E+00 0.  1.
</event>
<event>
 5   0  0.2746876E-08  0.3958536E+04  0.7818609E-02  0.8012964E-01
       -2   -1    0    0    0  501  0.00000000000E+00  0.00000000000E+00  0.16007857475E+04  0.16007857475E+04  0.25500000920E-02 0. -1.
        2   -1    0    0  501    0  0.00000000000E+00  0.00000000000E+00 -0.24472372157E+04  0.24472372157E+04  0.25500000920E-02 0.  1.
    10030    2    1    2    0    0  0.00000000000E+00  0.00000000000E+00 -0.84645146820E+03  0.40480229632E+04  0.39585363232E+04 0.  0.
        1    1    3    3  502    0  0.15349260056E+04 -0.78324824263E+03  0.57245164673E+03  0.18158129144E+04  0.50400001928E-02 0. -1.
       -1    1    3    3    0  502 -0.15349260056E+04  0.78324824263E+03 -0.14189031149E+04  0.22322100488E+04  0.50400001928E-02 0.  1.
</event>
<event>
 5   0  0.2587493E-08  0.4005818E+04  0.7818609E-02  0.8003374E-01
       -2   -1    0    0    0  501  0.00000000000E+00  0.00000000000E+00  0.20041269325E+04  0.20041269325E+04  0.25500000920E-02 0. -1.
        2   -1    0    0  501    0  0.00000000000E+00  0.00000000000E+00 -0.20016918780E+04  0.20016918780E+04  0.25500000920E-02 0.  1.
    10030    2    1    2    0    0  0.00000000000E+00  0.00000000000E+00  0.24350545427E+01  0.40058188105E+04  0.40058180704E+04 0.  0.
        5    1    3    3  502    0 -0.18972961855E+04  0.48895089708E+03  0.41692990594E+03  0.20031621082E+04  0.46999998093E+01 0. -1.
       -5    1    3    3    0  502  0.18972961855E+04 -0.48895089708E+03 -0.41449485140E+03  0.20026567023E+04  0.46999998093E+01 0.  1.
</event>
<event>
 5   0  0.8329875E-09  0.4000201E+04  0.7818609E-02  0.8004506E-01
       -1   -1    0    0    0  501  0.00000000000E+00  0.00000000000E+00  0.20953833024E+04  0.20953833024E+04  0.50400001928E-02 0. -1.
        1   -1    0    0  501    0  0.00000000000E+00  0.00000000000E+00 -0.19091503116E+04  0.19091503116E+04  0.50400001928E-02 0.  1.
    10030    2    1    2    0    0  0.00000000000E+00  0.00000000000E+00  0.18623299076E+03  0.40045336140E+04  0.40002008373E+04 0.  0.
        4    1    3    3  502    0  0.97988255085E+03 -0.17082028369E+04 -0.25693828303E+03  0.19859873212E+04  0.12699999809E+01 0.  1.
       -4    1    3    3    0  502 -0.97988255085E+03  0.17082028369E+04  0.44317127379E+03  0.20185462929E+04  0.12699999809E+01 0. -1.
</event>
<event>
 5   0  0.8329875E-09  0.4025737E+04  0.7818609E-02  0.7999375E-01
        1   -1    0    0  501    0  0.00000000000E+00  0.00000000000E+00  0.26664410275E+04  0.26664410275E+04  0.50400001928E-02 0. -1.
       -1   -1    0    0    0  501  0.00000000000E+00  0.00000000000E+00 -0.15194931581E+04  0.15194931582E+04  0.50400001928E-02 0.  1.
    10030    2    1    2    0    0  0.00000000000E+00  0.00000000000E+00  0.11469478693E+04  0.41859341856E+04  0.40257366520E+04 0.  0.
        5    1    3    3  502    0 -0.51501046573E+03 -0.45366957317E+02 -0.14492710133E+04  0.15387340578E+04  0.46999998093E+01 0.  1.
       -5    1    3    3    0  502  0.51501046573E+03  0.45366957317E+02  0.25962188826E+04  0.26472001279E+04  0.46999998093E+01 0. -1.
</event>
<event>
 5   0  0.2612363E-08  0.4001155E+04  0.7818609E-02  0.8004314E-01
       -2   -1    0    0    0  501  0.00000000000E+00  0.00000000000E+00  0.19474920898E+04  0.19474920898E+04  0.25500000920E-02 0.  1.
        2   -1    0    0  501    0  0.00000000000E+00  0.00000000000E+00 -0.20551098970E+04  0.20551098970E+04  0.25500000920E-02 0. -1.
    10030    2    1    2    0    0  0.00000000000E+00  0.00000000000E+00 -0.10761780720E+03  0.40026019868E+04  0.40011549673E+04 0.  0.
        4    1    3    3  502    0  0.11259684661E+04  0.87690792942E+03  0.13486739244E+04  0.19635924910E+04  0.12699999809E+01 0.  1.
       -4    1    3    3    0  502 -0.11259684661E+04 -0.87690792942E+03 -0.14562917316E+04  0.20390094958E+04  0.12699999809E+01 0. -1.
</event>
<event>
 5   0  0.8329875E-09  0.3999698E+04  0.7818609E-02  0.8004607E-01
        1   -1    0    0  501    0  0.00000000000E+00  0.00000000000E+00  0.20164191734E+04  0.20164191734E+04  0.50400001928E-02 0.  1.
       -1   -1    0    0    0  501  0.00000000000E+00  0.00000000000E+00 -0.19834152852E+04  0.19834152852E+04  0.50400001928E-02 0. -1.
    10030    2    1    2    0    0  0.00000000000E+00  0.00000000000E+00  0.33003888190E+02  0.39998344586E+04  0.39996982936E+04 0.  0.
        4    1    3    3  502    0  0.41258494626E+03 -0.24591408312E+03  0.19578807142E+04  0.20159361542E+04  0.12699999809E+01 0.  1.
       -4    1    3    3    0  502 -0.41258494626E+03  0.24591408312E+03 -0.19248768260E+04  0.19838983044E+04  0.12699999809E+01 0. -1.
</event>
<event>
 5   0  0.8329875E-09  0.3986689E+04  0.7818609E-02  0.8007237E-01
       -1   -1    0    0    0  501  0.00000000000E+00  0.00000000000E+00  0.20177100451E+04  0.20177100451E+04  0.50400001928E-02 0.  1.
        1   -1    0    0  501    0  0.00000000000E+00  0.00000000000E+00 -0.19692736219E+04  0.19692736219E+04  0.50400001928E-02 0. -1.
    10030    2    1    2    0    0  0.00000000000E+00  0.00000000000E+00  0.48436423136E+02  0.39869836670E+04  0.39866894379E+04 0.  0.
        3    1    3    3  502    0 -0.18756536232E+04  0.33372284497E+03 -0.56231949511E+03  0.19863661990E+04  0.10100000352E+00 0.  1.
       -3    1    3    3    0  502  0.18756536232E+04 -0.33372284497E+03  0.61075591824E+03  0.20006174680E+04  0.10100000352E+00 0. -1.
</event>
<event>
 5   0  0.2746876E-08  0.3974798E+04  0.7818609E-02  0.8009650E-01
       -2   -1    0    0    0  501  0.00000000000E+00  0.00000000000E+00  0.17346837485E+04  0.17346837485E+04  0.25500000920E-02 0.  1.
        2   -1    0    0  501    0  0.00000000000E+00  0.00000000000E+00 -0.22769311435E+04  0.22769311435E+04  0.25500000920E-02 0. -1.
    10030    2    1    2    0    0  0.00000000000E+00  0.00000000000E+00 -0.54224739499E+03  0.40116148921E+04  0.39747983351E+04 0.  0.
        1    1    3    3  502    0 -0.17440395963E+04 -0.82797792620E+03  0.20498072651E+03  0.19414527184E+04  0.50400001928E-02 0.  1.
       -1    1    3    3    0  502  0.17440395963E+04  0.82797792620E+03 -0.74722812150E+03  0.20701621736E+04  0.50400001928E-02 0. -1.
</event>
<event>
 5   0  0.8329875E-09  0.4001868E+04  0.7818609E-02  0.8004170E-01
       -1   -1    0    0    0  501  0.00000000000E+00  0.00000000000E+00  0.13453763369E+04  0.13453763369E+04  0.50400001928E-02 0. -1.
        1   -1    0    0  501    0  0.00000000000E+00  0.00000000000E+00 -0.29759231629E+04  0.29759231629E+04  0.50400001928E-02 0.  1.
    10030    2    1    2    0    0  0.00000000000E+00  0.00000000000E+00 -0.16305468260E+04  0.43212994998E+04  0.40018678658E+04 0.  0.
        5    1    3    3  502    0 -0.26445686710E+03  0.54054974354E+03  0.12453409949E+04  0.13831224615E+04  0.46999998093E+01 0. -1.
       -5    1    3    3    0  502  0.26445686710E+03 -0.54054974354E+03 -0.28758878210E+04  0.29381770383E+04  0.46999998093E+01 0.  1.
</event>
<event>
 5   0  0.2612363E-08  0.3998727E+04  0.7818609E-02  0.8004803E-01
        2   -1    0    0  501    0  0.00000000000E+00  0.00000000000E+00  0.20478347726E+04  0.20478347726E+04  0.25500000920E-02 0. -1.
       -2   -1    0    0    0  501  0.00000000000E+00  0.00000000000E+00 -0.19520399585E+04  0.19520399585E+04  0.25500000920E-02 0.  1.
    10030    2    1    2    0    0  0.00000000000E+00  0.00000000000E+00  0.95794814143E+02  0.39998747310E+04  0.39987274498E+04 0.  0.
        4    1    3    3  502    0 -0.66739519485E+03  0.13055477750E+04 -0.13117505952E+04  0.19673745388E+04  0.12699999809E+01 0.  1.
       -4    1    3    3    0  502  0.66739519485E+03 -0.13055477750E+04  0.14075454094E+04  0.20325001922E+04  0.12699999809E+01 0. -1.
</event>
<event>
 5   0  0.2746876E-08  0.4003564E+04  0.7818609E-02  0.8003828E-01
        2   -1    0    0  501    0  0.00000000000E+00  0.00000000000E+00  0.16182147218E+04  0.16182147218E+04  0.25500000920E-02 0. -1.
       -2   -1    0    0    0  501  0.00000000000E+00  0.00000000000E+00 -0.24762665588E+04  0.24762665588E+04  0.25500000920E-02 0.  1.
    10030    2    1    2    0    0  0.00000000000E+00  0.00000000000E+00 -0.85805183697E+03  0.40944812806E+04  0.40035639126E+04 0.  0.
        1    1    3    3  502    0  0.36953867018E+03  0.99138481779E+03  0.13088961163E+04  0.16830364610E+04  0.50400001928E-02 0. -1.
       -1    1    3    3    0  502 -0.36953867018E+03 -0.99138481779E+03 -0.21669479533E+04  0.24114448196E+04  0.50400001928E-02 0.  1.
</event>
<event>
 5   0  0.2650452E-08  0.3997344E+04  0.7818609E-02  0.8005083E-01
       -2   -1    0    0    0  501  0.00000000000E+00  0.00000000000E+00  0.29497286061E+04  0.29497286061E+04  0.25500000920E-02 0. -1.
        2   -1    0    0  501    0  0.00000000000E+00  0.00000000000E+00 -0.13542568142E+04  0.13542568142E+04  0.25500000920E-02 0.  1.
    10030    2    1    2    0    0  0.00000000000E+00  0.00000000000E+00  0.15954717920E+04  0.43039854203E+04  0.39973441507E+04 0.  0.
        3    1    3    3  502    0  0.18320964241E+04 -0.32652376598E+03  0.15826982584E+04  0.24429754121E+04  0.10100000352E+00 0. -1.
       -3    1    3    3    0  502 -0.18320964241E+04  0.32652376598E+03  0.12773533546E+02  0.18610100081E+04  0.10100000352E+00 0.  1.
</event>
<event>
 5   0  0.2599332E-08  0.4001251E+04  0.7818609E-02  0.8004294E-01
        2   -1    0    0  501    0  0.00000000000E+00  0.00000000000E+00  0.15017469638E+04  0.15017469638E+04  0.25500000920E-02 0.  1.
       -2   -1    0    0    0  501  0.00000000000E+00  0.00000000000E+00 -0.26652308909E+04  0.26652308910E+04  0.25500000920E-02 0. -1.
    10030    2    1    2    0    0  0.00000000000E+00  0.00000000000E+00 -0.11634839272E+04  0.41669778547E+04  0.40012510035E+04 0.  0.
        2    1    3    3  502    0 -0.12879980083E+04  0.48033770134E+03 -0.20955075277E+04  0.25061554173E+04  0.25500000920E-02 0. -1.
       -2    1    3    3    0  502  0.12879980083E+04 -0.48033770134E+03  0.93202360057E+03  0.16608224375E+04  0.25500000920E-02 0.  1.
</event>
<event>
 5   0  0.2746876E-08  0.3983331E+04  0.7818609E-02  0.8007918E-01
        2   -1    0    0  501    0  0.00000000000E+00  0.00000000000E+00  0.17117947387E+04  0.17117947387E+04  0.25500000920E-02 0. -1.
       -2   -1    0    0    0  501  0.00000000000E+00  0.00000000000E+00 -0.23172941460E+04  0.23172941460E+04  0.25500000920E-02 0.  1.
    10030    2    1    2    0    0  0.00000000000E+00  0.00000000000E+00 -0.60549940732E+03  0.40290888848E+04  0.39833312327E+04 0.  0.
        1    1    3    3  502    0 -0.13238020149E+04 -0.12402485466E+04  0.52892642130E+03  0.18895585175E+04  0.50400001928E-02 0. -1.
       -1    1    3    3    0  502  0.13238020149E+04  0.12402485466E+04 -0.11344258286E+04  0.21395303673E+04  0.50400001928E-02 0.  1.
</event>
<event>
 5   0  0.2587493E-08  0.4011440E+04  0.7818609E-02  0.8002243E-01
        2   -1    0    0  501    0  0.00000000000E+00  0.00000000000E+00  0.17962766448E+04  0.17962766448E+04  0.25500000920E-02 0.  1.
       -2   -1    0    0    0  501  0.00000000000E+00  0.00000000000E+00 -0.22395839076E+04  0.22395839076E+04  0.25500000920E-02 0. -1.
    10030    2    1    2    0    0  0.00000000000E+00  0.00000000000E+00 -0.44330726277E+03  0.40358605524E+04  0.40114397751E+04 0.  0.
        5    1    3    3  502    0 -0.21741424247E+03 -0.15477160465E+04 -0.14863649082E+04  0.21568487762E+04  0.46999998093E+01 0. -1.
       -5    1    3    3    0  502  0.21741424247E+03  0.15477160465E+04  0.10430576454E+04  0.18790117762E+04  0.46999998093E+01 0.  1.
</event>
<event>
 5   0  0.2599332E-08  0.3996832E+04  0.7818609E-02  0.8005186E-01
       -2   -1    0    0    0  501  0.00000000000E+00  0.00000000000E+00  0.23506827271E+04  0.23506827271E+04  0.25500000920E-02 0. -1.
        2   -1    0    0  501    0  0.00000000000E+00  0.00000000000E+00 -0.16989390387E+04  0.16989390387E+04  0.25500000920E-02 0.  1.
    10030    2    1    2    0    0  0.00000000000E+00  0.00000000000E+00  0.65174368840E+03  0.40496217658E+04  0.39968320719E+04 0.  0.
        2    1    3    3  502    0  0.55540529809E+03  0.13366272205E+04  0.17219749843E+04  0.22494988816E+04  0.25500000920E-02 0. -1.
       -2    1    3    3    0  502 -0.55540529809E+03 -0.13366272205E+04 -0.10702312959E+04  0.18001228842E+04  0.25500000920E-02 0.  1.
</event>
<event>
 5   0  0.8329875E-09  0.4004159E+04  0.7818609E-02  0.8003708E-01
       -1   -1    0    0    0  501  0.00000000000E+00  0.00000000000E+00  0.16158237416E+04  0.16158237416E+04  0.50400001928E-02 0.  1.
        1   -1    0    0  501    0  0.00000000000E+00  0.00000000000E+00 -0.24806678433E+04  0.24806678433E+04  0.50400001928E-02 0. -1.
    10030    2    1    2    0    0  0.00000000000E+00  0.00000000000E+00 -0.86484410168E+03  0.40964915850E+04  0.40041588362E+04 0.  0.
        3    1    3    3  502    0  0.31998211850E+02  0.83100637686E+03 -0.22956054281E+04  0.24415977916E+04  0.10100000352E+00 0. -1.
       -3    1    3    3    0  502 -0.31998211850E+02 -0.83100637686E+03  0.14307613265E+04  0.16548937934E+04  0.10100000352E+00 0.  1.
</event>
<event>
 5   0  0.8329875E-09  0.3993674E+04  0.7818609E-02  0.8005824E-01
        1   -1    0    0  501    0  0.00000000000E+00  0.00000000000E+00  0.29396117946E+04  0.29396117946E+04  0.50400001928E-02 0.  1.
       -1   -1    0    0    0  501  0.00000000000E+00  0.00000000000E+00 -0.13564230315E+04  0.13564230315E+04  0.50400001928E-02 0. -1.
    10030    2    1    2    0    0  0.00000000000E+00  0.00000000000E+00  0.15831887631E+04  0.42960348261E+04  0.39936735680E+04 0.  0.
        1    1    3    3  502    0  0.14622969198E+04 -0.99721086189E+03  0.17860389401E+04  0.25144933646E+04  0.50400001928E-02 0. -1.
       -1    1    3    3    0  502 -0.14622969198E+04  0.99721086189E+03 -0.20285017700E+03  0.17815414615E+04  0.50400001928E-02 0.  1.
</event>
<event>
 5   0  0.2599332E-08  0.3989441E+04  0.7818609E-02  0.8006680E-01
       -2   -1    0    0    0  501  0.00000000000E+00  0.00000000000E+00  0.13828907947E+04  0.13828907947E+04  0.25500000920E-02 0.  1.
        2   -1    0    0  501    0  0.00000000000E+00  0.00000000000E+00 -0.28772414455E+04  0.28772414455E+04  0.25500000920E-02 0. -1.
    10030    2    1    2    0    0  0.00000000000E+00  0.00000000000E+00 -0.14943506508E+04  0.42601322402E+04  0.39894414191E+04 0.  0.
        2    1    3    3  502    0  0.96073629488E+03 -0.35292761135E+03 -0.25754606793E+04  0.27713841014E+04  0.25500000920E-02 0. -1.
       -2    1    3    3    0  502 -0.96073629488E+03  0.35292761135E+03  0.10811100284E+04  0.14887481388E+04  0.25500000920E-02 0.  1.
</event>
<event>
 5   0  0.2587493E-08  0.4006960E+04  0.7818609E-02  0.8003144E-01
       -2   -1    0    0    0  501  0.00000000000E+00  0.00000000000E+00  0.15591792185E+04  0.15591792185E+04  0.25500000920E-02 0. -1.
        2   -1    0    0  501    0  0.00000000000E+00  0.00000000000E+00 -0.25743878998E+04  0.25743878998E+04  0.25500000920E-02 0.  1.
    10030    2    1    2    0    0  0.00000000000E+00  0.00000000000E+00 -0.10152086813E+04  0.41335671182E+04  0.40069600016E+04 0.  0.
        5    1    3    3  502    0  0.16510565954E+04  0.60775734223E+03 -0.14962988750E+04  0.23096080363E+04  0.46999998093E+01 0.  1.
       -5    1    3    3    0  502 -0.16510565954E+04 -0.60775734223E+03  0.48109019365E+03  0.18239590819E+04  0.46999998093E+01 0. -1.
</event>
<event>
 5   0  0.2587493E-08  0.3997579E+04  0.7818609E-02  0.8005035E-01
        2   -1    0    0  501    0  0.00000000000E+00  0.00000000000E+00  0.29389159894E+04  0.29389159894E+04  0.25500000920E-02 0.  1.
       -2   -1    0    0    0  501  0.00000000000E+00  0.00000000000E+00 -0.13593987636E+04  0.13593987636E+04  0.25500000920E-02 0. -1.
    10030    2    1    2    0    0  0.00000000000E+00  0.00000000000E+00  0.15795172258E+04  0.42983147530E+04  0.39975786483E+04 0.  0.
        5    1    3    3  502    0  0.99256351146E+03 -0.51831592838E+03 -0.99048613860E+03  0.14949644165E+04  0.46999998093E+01 0. -1.
       -5    1    3    3    0  502 -0.99256351146E+03  0.51831592838E+03  0.25700033644E+04  0.28033503365E+04  0.46999998093E+01 0.  1.
</event>
<event>
 5   0  0.8329875E-09  0.3991033E+04  0.7818609E-02  0.8006358E-01
        1   -1    0    0  501    0  0.00000000000E+00  0.00000000000E+00  0.18850187775E+04  0.18850187775E+04  0.50400001928E-02 0.  1.
       -1   -1    0    0    0  501  0.00000000000E+00  0.00000000000E+00 -0.21124916481E+04  0.21124916481E+04  0.50400001928E-02 0. -1.
    10030    2    1    2    0    0  0.00000000000E+00  0.00000000000E+00 -0.22747287063E+03  0.39975104256E+04  0.39910331615E+04 0.  0.
        4    1    3    3  502    0  0.15370131313E+04  0.52193788677E+03  0.10488610474E+04  0.19325991910E+04  0.12699999809E+01 0.  1.
       -4    1    3    3    0  502 -0.15370131313E+04 -0.52193788677E+03 -0.12763339181E+04  0.20649112346E+04  0.12699999809E+01 0. -1.
</event>
<event>
 5   0  0.8329875E-09  0.3992348E+04  0.7818609E-02  0.8006092E-01
       -3   -1    0    0    0  501  0.00000000000E+00  0.00000000000E+00  0.16923341643E+04  0.16923341673E+04  0.10100000352E+00 0.  1.
        3   -1    0    0  501    0  0.00000000000E+00  0.00000000000E+00 -0.23545645891E+04  0.23545645913E+04  0.10100000352E+00 0. -1.
    10030    2    1    2    0    0  0.00000000000E+00  0.00000000000E+00 -0.66223042483E+03  0.40468987586E+04  0.39923477337E+04 0.  0.
        3    1    3    3  502    0 -0.14626592136E+04  0.12431996124E+04 -0.88613007143E+03  0.21142714502E+04  0.10100000352E+00 0. -1.
       -3    1    3    3    0  502  0.14626592136E+04 -0.12431996124E+04  0.22389964660E+03  0.19326273084E+04  0.10100000352E+00 0.  1.
</event>
<event>
 5   0  0.2746876E-08  0.4010949E+04  0.7818609E-02  0.8002341E-01
       -2   -1    0    0    0  501  0.00000000000E+00  0.00000000000E+00  0.16865692043E+04  0.16865692043E+04  0.25500000920E-02 0. -1.
        2   -1    0    0  501    0  0.00000000000E+00  0.00000000000E+00 -0.23846800615E+04  0.23846800615E+04  0.25500000920E-02 0.  1.
    10030    2    1    2    0    0  0.00000000000E+00  0.00000000000E+00 -0.69811085714E+03  0.40712492658E+04  0.40109489919E+04 0.  0.
        1    1    3    3  502    0 -0.10722980037E+04 -0.11914517192E+04  0.87428058949E+03  0.18258550756E+04  0.50400001928E-02 0.  1.
       -1    1    3    3    0  502  0.10722980037E+04  0.11914517192E+04 -0.15723914466E+04  0.22453941902E+04  0.50400001928E-02 0. -1.
</event>
<event>
 5   0  0.2612363E-08  0.4001286E+04  0.7818609E-02  0.8004287E-01
       -2   -1    0    0    0  501  0.00000000000E+00  0.00000000000E+00  0.18404755305E+04  0.18404755305E+04  0.25500000920E-02 0.  1.
        2   -1    0    0  501    0  0.00000000000E+00  0.00000000000E+00 -0.21747495366E+04  0.21747495366E+04  0.25500000920E-02 0. -1.
    10030    2    1    2    0    0  0.00000000000E+00  0.00000000000E+00 -0.33427400613E+03  0.40152250670E+04  0.40012864466E+04 0.  0.
        4    1    3    3  502    0 -0.60828749501E+03  0.11197036521E+03  0.17421260797E+04  0.18486632819E+04  0.12699999809E+01 0.  1.
       -4    1    3    3    0  502  0.60828749501E+03 -0.11197036521E+03 -0.20764000859E+04  0.21665617851E+04  0.12699999809E+01 0. -1.
</event>
<event>
 5   0  0.2599332E-08  0.3999172E+04  0.7818609E-02  0.8004714E-01
        2   -1    0    0  501    0  0.00000000000E+00  0.00000000000E+00  0.18668150118E+04  0.18668150118E+04  0.25500000920E-02 0.  1.
       -2   -1    0    0    0  501  0.00000000000E+00  0.00000000000E+00 -0.21418000015E+04  0.21418000015E+04  0.25500000920E-02 0. -1.
    10030    2    1    2    0    0  0.00000000000E+00  0.00000000000E+00 -0.27498498966E+03  0.40086150134E+04  0.39991721119E+04 0.  0.
        2    1    3    3  502    0  0.13964708441E+04 -0.13836396793E+04 -0.50408110339E+03  0.20294549365E+04  0.25500000920E-02 0.  1.
       -2    1    3    3    0  502 -0.13964708441E+04  0.13836396793E+04  0.22909611373E+03  0.19791600769E+04  0.25500000920E-02 0. -1.
</event>
<event>
 5   0  0.2599332E-08  0.3999770E+04  0.7818609E-02  0.8004593E-01
        2   -1    0    0  501    0  0.00000000000E+00  0.00000000000E+00  0.27743524784E+04  0.27743524784E+04  0.25500000920E-02 0.  1.
       -2   -1    0    0    0  501  0.00000000000E+00  0.00000000000E+00 -0.14416123490E+04  0.14416123490E+04  0.25500000920E-02 0. -1.
    10030    2    1    2    0    0  0.00000000000E+00  0.00000000000E+00  0.13327401294E+04  0.42159648274E+04  0.39997703901E+04 0.  0.
        2    1    3    3  502    0  0.31007098854E+03  0.16559881411E+04  0.18021566638E+04  0.24670243984E+04  0.25500000920E-02 0.  1.
       -2    1    3    3    0  502 -0.31007098854E+03 -0.16559881411E+04 -0.46941653443E+03  0.17489404290E+04  0.25500000920E-02 0. -1.
</event>
<event>
 5   0  0.8329875E-09  0.4000091E+04  0.7818609E-02  0.8004528E-01
       -1   -1    0    0    0  501  0.00000000000E+00  0.00000000000E+00  0.12092127947E+04  0.12092127947E+04  0.50400001928E-02 0. -1.
        1   -1    0    0  501    0  0.00000000000E+00  0.00000000000E+00 -0.33080883514E+04  0.33080883514E+04  0.50400001928E-02 0.  1.
    10030    2    1    2    0    0  0.00000000000E+00  0.00000000000E+00 -0.20988755566E+04  0.45173011461E+04  0.40000913792E+04 0.  0.
        2    1    3    3  502    0  0.10037881032E+04  0.87150344419E+03  0.63812789943E+03  0.14745562130E+04  0.25500000920E-02 0. -1.
       -2    1    3    3    0  502 -0.10037881032E+04 -0.87150344419E+03 -0.27370034561E+04  0.30427449331E+04  0.25500000920E-02 0.  1.
</event>
<event>
 5   0  0.8329875E-09  0.3928825E+04  0.7818609E-02  0.8019061E-01
       -1   -1    0    0    0  501  0.00000000000E+00  0.00000000000E+00  0.16448507646E+04  0.16448507646E+04  0.50400001928E-02 0. -1.
        1   -1    0    0  501    0  0.00000000000E+00  0.00000000000E+00 -0.23460581859E+04  0.23460581859E+04  0.50400001928E-02 0.  1.
    10030    2    1    2    0    0  0.00000000000E+00  0.00000000000E+00 -0.70120742121E+03  0.39909089505E+04  0.39288245575E+04 0.  0.
        3    1    3    3  502    0  0.16141347211E+03  0.19229326693E+04  0.22890130913E+02  0.19298311657E+04  0.10100000352E+00 0. -1.
       -3    1    3    3    0  502 -0.16141347211E+03 -0.19229326693E+04 -0.72409755212E+03  0.20610777848E+04  0.10100000352E+00 0.  1.
</event>
<event>
 5   0  0.2587493E-08  0.3994549E+04  0.7818609E-02  0.8005647E-01
        2   -1    0    0  501    0  0.00000000000E+00  0.00000000000E+00  0.14761154310E+04  0.14761154310E+04  0.25500000920E-02 0.  1.
       -2   -1    0    0    0  501  0.00000000000E+00  0.00000000000E+00 -0.27024350826E+04  0.27024350826E+04  0.25500000920E-02 0. -1.
    10030    2    1    2    0    0  0.00000000000E+00  0.00000000000E+00 -0.12263196516E+04  0.41785505137E+04  0.39945493497E+04 0.  0.
        5    1    3    3  502    0 -0.17829810790E+04  0.89958749753E+03 -0.58348327406E+03  0.20805657920E+04  0.46999998093E+01 0. -1.
       -5    1    3    3    0  502  0.17829810790E+04 -0.89958749753E+03 -0.64283637753E+03  0.20979847216E+04  0.46999998093E+01 0.  1.
</event>
<event>
 5   0  0.2746876E-08  0.3994978E+04  0.7818609E-02  0.8005560E-01
       -2   -1    0    0    0  501  0.00000000000E+00  0.00000000000E+00  0.14628944346E+04  0.14628944346E+04  0.25500000920E-02 0.  1.
        2   -1    0    0  501    0  0.00000000000E+00  0.00000000000E+00 -0.27274434204E+04  0.27274434204E+04  0.25500000920E-02 0. -1.
    10030    2    1    2    0    0  0.00000000000E+00  0.00000000000E+00 -0.12645489858E+04  0.41903378550E+04  0.39949777473E+04 0.  0.
        1    1    3    3  502    0 -0.11044051584E+04 -0.48042450035E+03 -0.23037650980E+04  0.25995869058E+04  0.50400001928E-02 0.  1.
       -1    1    3    3    0  502  0.11044051584E+04  0.48042450035E+03  0.10392161122E+04  0.15907509492E+04  0.50400001928E-02 0. -1.
</event>
<event>
 5   0  0.8329875E-09  0.4004028E+04  0.7818609E-02  0.8003734E-01
       -1   -1    0    0    0  501  0.00000000000E+00  0.00000000000E+00  0.25680738551E+04  0.25680738552E+04  0.50400001928E-02 0. -1.
        1   -1    0    0  501    0  0.00000000000E+00  0.00000000000E+00 -0.15607264470E+04  0.15607264470E+04  0.50400001928E-02 0.  1.
    10030    2    1    2    0    0  0.00000000000E+00  0.00000000000E+00  0.10073474081E+04  0.41288003022E+04  0.40040283634E+04 0.  0.
        4    1    3    3  502    0  0.60963985830E+03  0.15972585335E+04  0.15778469706E+04  0.23264776498E+04  0.12699999809E+01 0. -1.
       -4    1    3    3    0  502 -0.60963985830E+03 -0.15972585335E+04 -0.57049956248E+03  0.18023226524E+04  0.12699999809E+01 0.  1.
</event>
<event>
 5   0  0.8329875E-09  0.4001567E+04  0.7818609E-02  0.8004231E-01
       -1   -1    0    0    0  501  0.00000000000E+00  0.00000000000E+00  0.18072105233E+04  0.18072105233E+04  0.50400001928E-02 0. -1.
        1   -1    0    0  501    0  0.00000000000E+00  0.00000000000E+00 -0.22150899452E+04  0.22150899452E+04  0.50400001928E-02 0.  1.
    10030    2    1    2    0    0  0.00000000000E+00  0.00000000000E+00 -0.40787942191E+03  0.40223004685E+04  0.40015666227E+04 0.  0.
        3    1    3    3  502    0  0.18342957416E+04  0.82668428596E+02  0.59494805702E+03  0.19301394088E+04  0.10100000352E+00 0. -1.
       -3    1    3    3    0  502 -0.18342957416E+04 -0.82668428596E+02 -0.10028274789E+04  0.20921610597E+04  0.10100000352E+00 0.  1.
</event>
<event>
 5   0  0.2587493E-08  0.4006973E+04  0.7818609E-02  0.8003141E-01
        2   -1    0    0  501    0  0.00000000000E+00  0.00000000000E+00  0.17818077446E+04  0.17818077446E+04  0.25500000920E-02 0.  1.
       -2   -1    0    0    0  501  0.00000000000E+00  0.00000000000E+00 -0.22527450023E+04  0.22527450023E+04  0.25500000920E-02 0. -1.
    10030    2    1    2    0    0  0.00000000000E+00  0.00000000000E+00 -0.47093725771E+03  0.40345527470E+04  0.40069731678E+04 0.  0.
        5    1    3    3  502    0  0.18711341408E+04  0.35644531895E+02  0.48466236406E+03  0.19332183536E+04  0.46999998093E+01 0.  1.
       -5    1    3    3    0  502 -0.18711341408E+04 -0.35644531895E+02 -0.95559962177E+03  0.21013343934E+04  0.46999998093E+01 0. -1.
</event>
<event>
 5   0  0.2587493E-08  0.3999893E+04  0.7818609E-02  0.8004568E-01
        2   -1    0    0  501    0  0.00000000000E+00  0.00000000000E+00  0.25418754134E+04  0.25418754134E+04  0.25500000920E-02 0. -1.
       -2   -1    0    0    0  501  0.00000000000E+00  0.00000000000E+00 -0.15735567304E+04  0.15735567304E+04  0.25500000920E-02 0.  1.
    10030    2    1    2    0    0  0.00000000000E+00  0.00000000000E+00  0.96831868303E+03  0.41154321438E+04  0.39998925809E+04 0.  0.
        5    1    3    3  502    0  0.15091100214E+04 -0.10892725558E+04  0.12373116030E+04  0.22349250212E+04  0.46999998093E+01 0.  1.
       -5    1    3    3    0  502 -0.15091100214E+04  0.10892725558E+04 -0.26899291995E+03  0.18805071227E+04  0.46999998093E+01 0. -1.
</event>
<event>
 5   0  0.2599332E-08  0.4002015E+04  0.7818609E-02  0.8004140E-01
        2   -1    0    0  501    0  0.00000000000E+00  0.00000000000E+00  0.23957443681E+04  0.23957443681E+04  0.25500000920E-02 0.  1.
       -2   -1    0    0    0  501  0.00000000000E+00  0.00000000000E+00 -0.16713100319E+04  0.16713100319E+04  0.25500000920E-02 0. -1.
    10030    2    1    2    0    0  0.00000000000E+00  0.00000000000E+00  0.72443433624E+03  0.40670544000E+04  0.40020152904E+04 0.  0.
        2    1    3    3  502    0 -0.14012988357E+04  0.24729267373E+03 -0.10675009243E+04  0.17788620848E+04  0.25500000920E-02 0. -1.
       -2    1    3    3    0  502  0.14012988357E+04 -0.24729267373E+03  0.17919352605E+04  0.22881923152E+04  0.25500000920E-02 0.  1.
</event>
<event>
 5   0  0.2612363E-08  0.4050319E+04  0.7818609E-02  0.7994472E-01
        2   -1    0    0  501    0  0.00000000000E+00  0.00000000000E+00  0.24177171585E+04  0.24177171585E+04  0.25500000920E-02 0.  1.
       -2   -1    0    0    0  501  0.00000000000E+00  0.00000000000E+00 -0.16963406068E+04  0.16963406068E+04  0.25500000920E-02 0. -1.
    10030    2    1    2    0    0  0.00000000000E+00  0.00000000000E+00  0.72137655174E+03  0.41140577653E+04  0.40503193907E+04 0.  0.
        4    1    3    3  502    0  0.83404222147E+03 -0.12435797732E+03 -0.15095305266E+04  0.17290966883E+04  0.12699999809E+01 0. -1.
       -4    1    3    3    0  502 -0.83404222147E+03  0.12435797732E+03  0.22309070783E+04  0.23849610770E+04  0.12699999809E+01 0.  1.
</event>
<event>
 5   0  0.8329875E-09  0.3999613E+04  0.7818609E-02  0.8004625E-01
        1   -1    0    0  501    0  0.00000000000E+00  0.00000000000E+00  0.13540052986E+04  0.13540052986E+04  0.50400001928E-02 0.  1.
       -1   -1    0    0    0  501  0.00000000000E+00  0.00000000000E+00 -0.29536261990E+04  0.29536261990E+04  0.50400001928E-02 0. -1.
    10030    2    1    2    0    0  0.00000000000E+00  0.00000000000E+00 -0.15996209004E+04  0.43076314976E+04  0.39996127430E+04 0.  0.
        1    1    3    3  502    0  0.13754273695E+04 -0.11961456627E+04 -0.16857540076E+04  0.24828071753E+04  0.50400001928E-02 0. -1.
       -1    1    3    3    0  502 -0.13754273695E+04  0.11961456627E+04  0.86133107205E+02  0.18248243224E+04  0.50400001928E-02 0.  1.
</event>
<event>
 5   0  0.8329875E-09  0.3996907E+04  0.7818609E-02  0.8005171E-01
        1   -1    0    0  501    0  0.00000000000E+00  0.00000000000E+00  0.14296614307E+04  0.14296614307E+04  0.50400001928E-02 0.  1.
       -1   -1    0    0    0  501  0.00000000000E+00  0.00000000000E+00 -0.27935396171E+04  0.27935396171E+04  0.50400001928E-02 0. -1.
    10030    2    1    2    0    0  0.00000000000E+00  0.00000000000E+00 -0.13638781863E+04  0.42232010478E+04  0.39969067268E+04 0.  0.
        1    1    3    3  502    0 -0.84327181851E+03  0.79099373981E+03 -0.24042699251E+04  0.26678253933E+04  0.50400001928E-02 0. -1.
       -1    1    3    3    0  502  0.84327181851E+03 -0.79099373981E+03  0.10403917388E+04  0.15553756545E+04  0.50400001928E-02 0.  1.
</event>
<event>
 5   0  0.8329875E-09  0.4000805E+04  0.7818609E-02  0.8004384E-01
       -1   -1    0    0    0  501  0.00000000000E+00  0.00000000000E+00  0.29784682857E+04  0.29784682857E+04  0.50400001928E-02 0.  1.
        1   -1    0    0  501    0  0.00000000000E+00  0.00000000000E+00 -0.13435128134E+04  0.13435128134E+04  0.50400001928E-02 0. -1.
    10030    2    1    2    0    0  0.00000000000E+00  0.00000000000E+00  0.16349554723E+04  0.43219810990E+04  0.40008050720E+04 0.  0.
        5    1    3    3  502    0  0.66424473023E+03  0.12676598647E+04 -0.69236490920E+03  0.15898345359E+04  0.46999998093E+01 0. -1.
       -5    1    3    3    0  502 -0.66424473023E+03 -0.12676598647E+04  0.23273203815E+04  0.27321465631E+04  0.46999998093E+01 0.  1.
</event>
<event>
 5   0  0.2746876E-08  0.3998669E+04  0.7818609E-02  0.8004815E-01
       -2   -1    0    0    0  501  0.00000000000E+00  0.00000000000E+00  0.12787904571E+04  0.12787904571E+04  0.25500000920E-02 0.  1.
        2   -1    0    0  501    0  0.00000000000E+00  0.00000000000E+00 -0.31258740921E+04  0.31258740921E+04  0.25500000920E-02 0. -1.
    10030    2    1    2    0    0  0.00000000000E+00  0.00000000000E+00 -0.18470836349E+04  0.44046645492E+04  0.39986687580E+04 0.  0.
        1    1    3    3  502    0 -0.57817835153E+03 -0.16732182271E+04  0.99988105140E+02  0.17731178931E+04  0.50400001928E-02 0.  1.
       -1    1    3    3    0  502  0.57817835153E+03  0.16732182271E+04 -0.19470717401E+04  0.26315466560E+04  0.50400001928E-02 0. -1.
</event>
<event>
 5   0  0.2612363E-08  0.3977602E+04  0.7818609E-02  0.8009080E-01
        2   -1    0    0  501    0  0.00000000000E+00  0.00000000000E+00  0.18810527379E+04  0.18810527379E+04  0.25500000920E-02 0. -1.
       -2   -1    0    0    0  501  0.00000000000E+00  0.00000000000E+00 -0.21027209892E+04  0.21027209892E+04  0.25500000920E-02 0.  1.
    10030    2    1    2    0    0  0.00000000000E+00  0.00000000000E+00 -0.22166825130E+03  0.39837737271E+04  0.39776018271E+04 0.  0.
        4    1    3    3  502    0 -0.17226563864E+04 -0.99339136985E+03 -0.79866547560E+02  0.19901637414E+04  0.12699999809E+01 0. -1.
       -4    1    3    3    0  502  0.17226563864E+04  0.99339136985E+03 -0.14180170374E+03  0.19936099857E+04  0.12699999809E+01 0.  1.
</event>
<event>
 5   0  0.8329875E-09  0.3983455E+04  0.7818609E-02  0.8007893E-01
       -1   -1    0    0    0  501  0.00000000000E+00  0.00000000000E+00  0.13973996435E+04  0.13973996435E+04  0.50400001928E-02 0.  1.
        1   -1    0    0  501    0  0.00000000000E+00  0.00000000000E+00 -0.28388284094E+04  0.28388284094E+04  0.50400001928E-02 0. -1.
    10030    2    1    2    0    0  0.00000000000E+00  0.00000000000E+00 -0.14414287659E+04  0.42362280528E+04  0.39834546851E+04 0.  0.
        4    1    3    3  502    0 -0.15351513286E+04  0.50872217048E+02 -0.20691237752E+04  0.25769269284E+04  0.12699999809E+01 0. -1.
       -4    1    3    3    0  502  0.15351513286E+04 -0.50872217048E+02  0.62769500927E+03  0.16593011245E+04  0.12699999809E+01 0.  1.
</event>
<event>
 5   0  0.8329875E-09  0.3998312E+04  0.7818609E-02  0.8004887E-01
       -3   -1    0    0    0  501  0.00000000000E+00  0.00000000000E+00  0.15919173787E+04  0.15919173819E+04  0.10100000352E+00 0. -1.
        3   -1    0    0  501    0  0.00000000000E+00  0.00000000000E+00 -0.25105730303E+04  0.25105730323E+04  0.10100000352E+00 0.  1.
    10030    2    1    2    0    0  0.00000000000E+00  0.00000000000E+00 -0.91865565156E+03  0.41024904143E+04  0.39983120680E+04 0.  0.
        1    1    3    3  502    0 -0.47262586985E+03 -0.78487647752E+03  0.13638255677E+04  0.16429931457E+04  0.50400001928E-02 0. -1.
       -1    1    3    3    0  502  0.47262586985E+03  0.78487647752E+03 -0.22824812192E+04  0.24594972686E+04  0.50400001928E-02 0.  1.
</event>
<event>
 5   0  0.2746876E-08  0.3999849E+04  0.7818609E-02  0.8004577E-01
        2   -1    0    0  501    0  0.00000000000E+00  0.00000000000E+00  0.20050297557E+04  0.20050297557E+04  0.25500000920E-02 0.  1.
       -2   -1    0    0    0  501  0.00000000000E+00  0.00000000000E+00 -0.19948319539E+04  0.19948319539E+04  0.25500000920E-02 0. -1.
    10030    2    1    2    0    0  0.00000000000E+00  0.00000000000E+00  0.10197801823E+02  0.39998617096E+04  0.39998487098E+04 0.  0.
        1    1    3    3  502    0 -0.11077063649E+04 -0.10728964741E+04  0.12785146738E+04  0.20031774775E+04  0.50400001928E-02 0.  1.
       -1    1    3    3    0  502  0.11077063649E+04  0.10728964741E+04 -0.12683168720E+04  0.19966842322E+04  0.50400001928E-02 0. -1.
</event>
<event>
 5   0  0.8329875E-09  0.3973385E+04  0.7818609E-02  0.8009937E-01
       -1   -1    0    0    0  501  0.00000000000E+00  0.00000000000E+00  0.17860941930E+04  0.17860941930E+04  0.50400001928E-02 0.  1.
        1   -1    0    0  501    0  0.00000000000E+00  0.00000000000E+00 -0.22098197547E+04  0.22098197547E+04  0.50400001928E-02 0. -1.
    10030    2    1    2    0    0  0.00000000000E+00  0.00000000000E+00 -0.42372556171E+03  0.39959139477E+04  0.39733845681E+04 0.  0.
        3    1    3    3  502    0 -0.69530478955E+02  0.72397061128E+03 -0.20711229956E+04  0.21951123904E+04  0.10100000352E+00 0. -1.
       -3    1    3    3    0  502  0.69530478955E+02 -0.72397061128E+03  0.16473974339E+04  0.18008015573E+04  0.10100000352E+00 0.  1.
</event>
<event>
 5   0  0.2599332E-08  0.4007165E+04  0.7818609E-02  0.8003103E-01
        2   -1    0    0  501    0  0.00000000000E+00  0.00000000000E+00  0.15732036569E+04  0.15732036569E+04  0.25500000920E-02 0. -1.
       -2   -1    0    0    0  501  0.00000000000E+00  0.00000000000E+00 -0.25516992599E+04  0.25516992599E+04  0.25500000920E-02 0.  1.
    10030    2    1    2    0    0  0.00000000000E+00  0.00000000000E+00 -0.97849560304E+03  0.41249029168E+04  0.40071648865E+04 0.  0.
        2    1    3    3  502    0  0.13560321889E+04  0.14748121951E+04 -0.51104297249E+03  0.20676216356E+04  0.25500000920E-02 0. -1.
       -2    1    3    3    0  502 -0.13560321889E+04 -0.14748121951E+04 -0.46745263056E+03  0.20572812812E+04  0.25500000920E-02 0.  1.
</event>
<event>
 5   0  0.2599332E-08  0.3994147E+04  0.7818609E-02  0.8005728E-01
        2   -1    0    0  501    0  0.00000000000E+00  0.00000000000E+00  0.18093807755E+04  0.18093807755E+04  0.25500000920E-02 0. -1.
       -2   -1    0    0    0  501  0.00000000000E+00  0.00000000000E+00 -0.22042357967E+04  0.22042357967E+04  0.25500000920E-02 0.  1.
    10030    2    1    2    0    0  0.00000000000E+00  0.00000000000E+00 -0.39485502112E+03  0.40136165722E+04  0.39941466549E+04 0.  0.
        2    1    3    3  502    0 -0.13270959281E+04 -0.84346118849E+03  0.10397080235E+04  0.18851003031E+04  0.25500000920E-02 0. -1.
       -2    1    3    3    0  502  0.13270959281E+04  0.84346118849E+03 -0.14345630446E+04  0.21285162691E+04  0.25500000920E-02 0.  1.
</event>
<event>
 5   0  0.2612363E-08  0.3992227E+04  0.7818609E-02  0.8006116E-01
       -2   -1    0    0    0  501  0.00000000000E+00  0.00000000000E+00  0.26813521239E+04  0.26813521239E+04  0.25500000920E-02 0.  1.
        2   -1    0    0  501    0  0.00000000000E+00  0.00000000000E+00 -0.14859928150E+04  0.14859928150E+04  0.25500000920E-02 0. -1.
    10030    2    1    2    0    0  0.00000000000E+00  0.00000000000E+00  0.11953593088E+04  0.41673449389E+04  0.39922274438E+04 0.  0.
        4    1    3    3  502    0 -0.93738413396E+03  0.46387821570E+03  0.23724325751E+04  0.25927417823E+04  0.12699999809E+01 0.  1.
       -4    1    3    3    0  502  0.93738413396E+03 -0.46387821570E+03 -0.11770732663E+04  0.15746031566E+04  0.12699999809E+01 0. -1.
</event>
<event>
 5   0  0.2650452E-08  0.4004917E+04  0.7818609E-02  0.8003555E-01
        2   -1    0    0  501    0  0.00000000000E+00  0.00000000000E+00  0.31203369969E+04  0.31203369969E+04  0.25500000920E-02 0.  1.
       -2   -1    0    0    0  501  0.00000000000E+00  0.00000000000E+00 -0.12850663130E+04  0.12850663130E+04  0.25500000920E-02 0. -1.
    10030    2    1    2    0    0  0.00000000000E+00  0.00000000000E+00  0.18352706839E+04  0.44054033099E+04  0.40049169579E+04 0.  0.
        3    1    3    3  502    0 -0.18992822862E+04 -0.36045841544E+03  0.34327540441E+03  0.19634259562E+04  0.10100000352E+00 0. -1.
       -3    1    3    3    0  502  0.18992822862E+04  0.36045841544E+03  0.14919952795E+04  0.24419773537E+04  0.10100000352E+00 0.  1.
</event>
<event>
 5   0  0.2746876E-08  0.3995953E+04  0.7818609E-02  0.8005364E-01
        2   -1    0    0  501    0  0.00000000000E+00  0.00000000000E+00  0.25501655837E+04  0.25501655837E+04  0.25500000920E-02 0.  1.
       -2   -1    0    0    0  501  0.00000000000E+00  0.00000000000E+00 -0.15653530556E+04  0.15653530556E+04  0.25500000920E-02 0. -1.
    10030    2    1    2    0    0  0.00000000000E+00  0.00000000000E+00  0.98481252812E+03  0.41155186393E+04  0.39959526968E+04 0.  0.
        1    1    3    3  502    0 -0.77759703496E+03 -0.90885369958E+03 -0.11558667292E+04  0.16633400409E+04  0.50400001928E-02 0. -1.
       -1    1    3    3    0  502  0.77759703496E+03  0.90885369958E+03  0.21406792573E+04  0.24521785984E+04  0.50400001928E-02 0.  1.
</event>
<event>
 5   0  0.2587493E-08  0.3998265E+04  0.7818609E-02  0.8004897E-01
       -2   -1    0    0    0  501  0.00000000000E+00  0.00000000000E+00  0.31670763959E+04  0.31670763959E+04  0.25500000920E-02 0. -1.
        2   -1    0    0  501    0  0.00000000000E+00  0.00000000000E+00 -0.12618989223E+04  0.12618989223E+04  0.25500000920E-02 0.  1.
    10030    2    1    2    0    0  0.00000000000E+00  0.00000000000E+00  0.19051774736E+04  0.44289753182E+04  0.39982647690E+04 0.  0.
        5    1    3    3  502    0 -0.10002058178E+04 -0.16621581752E+04  0.14876628634E+04  0.24446562872E+04  0.46999998093E+01 0. -1.
       -5    1    3    3    0  502  0.10002058178E+04  0.16621581752E+04  0.41751461014E+03  0.19843190310E+04  0.46999998093E+01 0.  1.
</event>
<event>
 5   0  0.8329875E-09  0.3999364E+04  0.7818609E-02  0.8004675E-01
        1   -1    0    0  501    0  0.00000000000E+00  0.00000000000E+00  0.24110861008E+04  0.24110861008E+04  0.50400001928E-02 0. -1.
       -1   -1    0    0    0  501  0.00000000000E+00  0.00000000000E+00 -0.16584756800E+04  0.16584756800E+04  0.50400001928E-02 0.  1.
    10030    2    1    2    0    0  0.00000000000E+00  0.00000000000E+00  0.75261042081E+03  0.40695617808E+04  0.39993637797E+04 0.  0.
        4    1    3    3  502    0 -0.53698213584E+03  0.68140098045E+03  0.22096139394E+04  0.23738265489E+04  0.12699999809E+01 0. -1.
       -4    1    3    3    0  502  0.53698213584E+03 -0.68140098045E+03 -0.14570035186E+04  0.16957352318E+04  0.12699999809E+01 0.  1.
</event>
<event>
 5   0  0.8329875E-09  0.4016500E+04  0.7818609E-02  0.8001226E-01
       -1   -1    0    0    0  501  0.00000000000E+00  0.00000000000E+00  0.15740542452E+04  0.15740542452E+04  0.50400001928E-02 0. -1.
        1   -1    0    0  501    0  0.00000000000E+00  0.00000000000E+00 -0.25622163874E+04  0.25622163874E+04  0.50400001928E-02 0.  1.
    10030    2    1    2    0    0  0.00000000000E+00  0.00000000000E+00 -0.98816214221E+03  0.41362706326E+04  0.40164997606E+04 0.  0.
        5    1    3    3  502    0 -0.96642567234E+01 -0.16478834983E+04 -0.16761024094E+04  0.23505222396E+04  0.46999998093E+01 0.  1.
       -5    1    3    3    0  502  0.96642567234E+01  0.16478834983E+04  0.68794026722E+03  0.17857483930E+04  0.46999998093E+01 0. -1.
</event>
<event>
 5   0  0.2612363E-08  0.3977227E+04  0.7818609E-02  0.8009156E-01
        2   -1    0    0  501    0  0.00000000000E+00  0.00000000000E+00  0.32664897207E+04  0.32664897207E+04  0.25500000920E-02 0. -1.
       -2   -1    0    0    0  501  0.00000000000E+00  0.00000000000E+00 -0.12106522986E+04  0.12106522986E+04  0.25500000920E-02 0.  1.
    10030    2    1    2    0    0  0.00000000000E+00  0.00000000000E+00  0.20558374221E+04  0.44771420194E+04  0.39772268172E+04 0.  0.
        4    1    3    3  502    0  0.59457262431E+03 -0.15014460913E+04 -0.27843241930E+03  0.16387138846E+04  0.12699999809E+01 0.  1.
       -4    1    3    3    0  502 -0.59457262431E+03  0.15014460913E+04  0.23342698414E+04  0.28384281347E+04  0.12699999809E+01 0. -1.
</event>
<event>
 5   0  0.2599332E-08  0.4001501E+04  0.7818609E-02  0.8004244E-01
       -2   -1    0    0    0  501  0.00000000000E+00  0.00000000000E+00  0.14543673610E+04  0.14543673610E+04  0.25500000920E-02 0. -1.
        2   -1    0    0  501    0  0.00000000000E+00  0.00000000000E+00 -0.27524007871E+04  0.27524007871E+04  0.25500000920E-02 0.  1.
    10030    2    1    2    0    0  0.00000000000E+00  0.00000000000E+00 -0.12980334261E+04  0.42067681481E+04  0.40015006530E+04 0.  0.
        2    1    3    3  502    0 -0.27822890686E+03  0.12579471567E+04 -0.22582781730E+04  0.25999351301E+04  0.25500000920E-02 0.  1.
       -2    1    3    3    0  502  0.27822890686E+03 -0.12579471567E+04  0.96024474692E+03  0.16068330180E+04  0.25500000920E-02 0. -1.
</event>
<event>
 5   0  0.8329875E-09  0.3996282E+04  0.7818609E-02  0.8005297E-01
        1   -1    0    0  501    0  0.00000000000E+00  0.00000000000E+00  0.26536749267E+04  0.26536749267E+04  0.50400001928E-02 0.  1.
       -1   -1    0    0    0  501  0.00000000000E+00  0.00000000000E+00 -0.15045429128E+04  0.15045429128E+04  0.50400001928E-02 0. -1.
    10030    2    1    2    0    0  0.00000000000E+00  0.00000000000E+00  0.11491320139E+04  0.41582178396E+04  0.39962821742E+04 0.  0.
        5    1    3    3  502    0  0.48994538887E+03  0.22499319233E+03  0.25765569158E+04  0.26323632065E+04  0.46999998093E+01 0.  1.
       -5    1    3    3    0  502 -0.48994538887E+03 -0.22499319233E+03 -0.14274249019E+04  0.15258546330E+04  0.46999998093E+01 0. -1.
</event>
<event>
 5   0  0.8329875E-09  0.4015534E+04  0.7818609E-02  0.8001420E-01
       -1   -1    0    0    0  501  0.00000000000E+00  0.00000000000E+00  0.36286288190E+04  0.36286288190E+04  0.50400001928E-02 0. -1.
        1   -1    0    0  501    0  0.00000000000E+00  0.00000000000E+00 -0.11109232849E+04  0.11109232849E+04  0.50400001928E-02 0.  1.
    10030    2    1    2    0    0  0.00000000000E+00  0.00000000000E+00  0.25177055341E+04  0.47395521039E+04  0.40155339607E+04 0.  0.
        4    1    3    3  502    0 -0.63021683782E+03 -0.17160101277E+04  0.27894238287E+03  0.18492361902E+04  0.12699999809E+01 0.  1.
       -4    1    3    3    0  502  0.63021683782E+03  0.17160101277E+04  0.22387631512E+04  0.28903159138E+04  0.12699999809E+01 0. -1.
</event>
<event>
 5   0  0.2587493E-08  0.4002108E+04  0.7818609E-02  0.8004122E-01
        2   -1    0    0  501    0  0.00000000000E+00  0.00000000000E+00  0.14813186431E+04  0.14813186431E+04  0.25500000920E-02 0. -1.
       -2   -1    0    0    0  501  0.00000000000E+00  0.00000000000E+00 -0.27031431575E+04  0.27031431575E+04  0.25500000920E-02 0.  1.
    10030    2    1    2    0    0  0.00000000000E+00  0.00000000000E+00 -0.12218245144E+04  0.41844618005E+04  0.40021076217E+04 0.  0.
        5    1    3    3  502    0 -0.76269724444E+03  0.13501297532E+04  0.71148378675E+03  0.17061033691E+04  0.46999998093E+01 0. -1.
       -5    1    3    3    0  502  0.76269724444E+03 -0.13501297532E+04 -0.19333083011E+04  0.24783584314E+04  0.46999998093E+01 0.  1.
</event>
<event>
 5   0  0.8329875E-09  0.4002646E+04  0.7818609E-02  0.8004013E-01
        1   -1    0    0  501    0  0.00000000000E+00  0.00000000000E+00  0.15148093350E+04  0.15148093351E+04  0.50400001928E-02 0.  1.
       -1   -1    0    0    0  501  0.00000000000E+00  0.00000000000E+00 -0.26440904278E+04  0.26440904278E+04  0.50400001928E-02 0. -1.
    10030    2    1    2    0    0  0.00000000000E+00  0.00000000000E+00 -0.11292810927E+04  0.41588997628E+04  0.40026455565E+04 0.  0.
        2    1    3    3  502    0  0.15388314550E+03 -0.90152172692E+03  0.12849842019E+04  0.15772145846E+04  0.25500000920E-02 0.  1.
       -2    1    3    3    0  502 -0.15388314550E+03  0.90152172692E+03 -0.24142652947E+04  0.25816851783E+04  0.25500000920E-02 0. -1.
</event>
<event>
 5   0  0.8329875E-09  0.4000068E+04  0.7818609E-02  0.8004533E-01
        1   -1    0    0  501    0  0.00000000000E+00  0.00000000000E+00  0.22423711547E+04  0.22423711547E+04  0.50400001928E-02 0.  1.
       -1   -1    0    0    0  501  0.00000000000E+00  0.00000000000E+00 -0.17838865275E+04  0.17838865276E+04  0.50400001928E-02 0. -1.
    10030    2    1    2    0    0  0.00000000000E+00  0.00000000000E+00  0.45848462712E+03  0.40262576822E+04  0.40000678457E+04 0.  0.
        3    1    3    3  502    0 -0.91725247537E+03  0.12638997162E+04 -0.10284751843E+04  0.18699079686E+04  0.10100000352E+00 0. -1.
       -3    1    3    3    0  502  0.91725247537E+03 -0.12638997162E+04  0.14869598115E+04  0.21563497136E+04  0.10100000352E+00 0.  1.
</event>
<event>
 5   0  0.8329875E-09  0.3998372E+04  0.7818609E-02  0.8004875E-01
       -1   -1    0    0    0  501  0.00000000000E+00  0.00000000000E+00  0.19698191744E+04  0.19698191744E+04  0.50400001928E-02 0.  1.
        1   -1    0    0  501    0  0.00000000000E+00  0.00000000000E+00 -0.20289909376E+04  0.20289909376E+04  0.50400001928E-02 0. -1.
    10030    2    1    2    0    0  0.00000000000E+00  0.00000000000E+00 -0.59171763210E+02  0.39988101121E+04  0.39983722957E+04 0.  0.
        1    1    3    3  502    0  0.82717631014E+03 -0.75045416988E+03 -0.16878817769E+04  0.20239434285E+04  0.50400001928E-02 0. -1.
       -1    1    3    3    0  502 -0.82717631014E+03  0.75045416988E+03  0.16287100137E+04  0.19748666836E+04  0.50400001928E-02 0.  1.
</event>
<event>
 5   0  0.2746876E-08  0.3996757E+04  0.7818609E-02  0.8005201E-01
        2   -1    0    0  501    0  0.00000000000E+00  0.00000000000E+00  0.28895176663E+04  0.28895176663E+04  0.25500000920E-02 0.  1.
       -2   -1    0    0    0  501  0.00000000000E+00  0.00000000000E+00 -0.13820706701E+04  0.13820706701E+04  0.25500000920E-02 0. -1.
    10030    2    1    2    0    0  0.00000000000E+00  0.00000000000E+00  0.15074469962E+04  0.42715883364E+04  0.39967574944E+04 0.  0.
        1    1    3    3  502    0  0.53775323721E+03 -0.77954430343E+03 -0.11270116353E+04  0.14720812108E+04  0.50400001928E-02 0.  1.
       -1    1    3    3    0  502 -0.53775323721E+03  0.77954430343E+03  0.26344586315E+04  0.27995071256E+04  0.50400001928E-02 0. -1.
</event>
<event>
 5   0  0.2650452E-08  0.4024104E+04  0.7818609E-02  0.7999702E-01
        2   -1    0    0  501    0  0.00000000000E+00  0.00000000000E+00  0.24561986713E+04  0.24561986713E+04  0.25500000920E-02 0. -1.
       -2   -1    0    0    0  501  0.00000000000E+00  0.00000000000E+00 -0.16482186884E+04  0.16482186884E+04  0.25500000920E-02 0.  1.
    10030    2    1    2    0    0  0.00000000000E+00  0.00000000000E+00  0.80797998295E+03  0.41044173597E+04  0.40241036530E+04 0.  0.
        3    1    3    3  502    0  0.11349694433E+04  0.64788526470E+02  0.20972432210E+04  0.23855360673E+04  0.10100000352E+00 0. -1.
       -3    1    3    3    0  502 -0.11349694433E+04 -0.64788526470E+02 -0.12892632380E+04  0.17188812924E+04  0.10100000352E+00 0.  1.
</event>
<event>
 5   0  0.2587493E-08  0.3998735E+04  0.7818609E-02  0.8004802E-01
        2   -1    0    0  501    0  0.00000000000E+00  0.00000000000E+00  0.15761756061E+04  0.15761756061E+04  0.25500000920E-02 0.  1.
       -2   -1    0    0    0  501  0.00000000000E+00  0.00000000000E+00 -0.25361839536E+04  0.25361839536E+04  0.25500000920E-02 0. -1.
    10030    2    1    2    0    0  0.00000000000E+00  0.00000000000E+00 -0.96000834748E+03  0.41123595597E+04  0.39987354403E+04 0.  0.
        5    1    3    3  502    0 -0.19792007042E+04 -0.18731049323E+03 -0.69847530593E+03  0.21071806973E+04  0.46999998093E+01 0.  1.
       -5    1    3    3    0  502  0.19792007042E+04  0.18731049323E+03 -0.26153304155E+03  0.20051788624E+04  0.46999998093E+01 0. -1.
</event>
<event>
 5   0  0.2612363E-08  0.3998667E+04  0.7818609E-02  0.8004815E-01
       -2   -1    0    0    0  501  0.00000000000E+00  0.00000000000E+00  0.28311222029E+04  0.28311222029E+04  0.25500000920E-02 0.  1.
        2   -1    0    0  501    0  0.00000000000E+00  0.00000000000E+00 -0.14119260493E+04  0.14119260493E+04  0.25500000920E-02 0. -1.
    10030    2    1    2    0    0  0.00000000000E+00  0.00000000000E+00  0.14191961536E+04  0.42430482521E+04  0.39986673715E+04 0.  0.
        4    1    3    3  502    0  0.72368910859E+02 -0.19885312181E+04  0.50318474958E+03  0.20524839025E+04  0.12699999809E+01 0.  1.
       -4    1    3    3    0  502 -0.72368910859E+02  0.19885312181E+04  0.91601140405E+03  0.21905643497E+04  0.12699999809E+01 0. -1.
</event>
<event>
 5   0  0.2746876E-08  0.3999399E+04  0.7818609E-02  0.8004668E-01
        2   -1    0    0  501    0  0.00000000000E+00  0.00000000000E+00  0.27862780312E+04  0.27862780312E+04  0.25500000920E-02 0.  1.
       -2   -1    0    0    0  501  0.00000000000E+00  0.00000000000E+00 -0.14351755650E+04  0.14351755650E+04  0.25500000920E-02 0. -1.
    10030    2    1    2    0    0  0.00000000000E+00  0.00000000000E+00  0.13511024662E+04  0.42214535963E+04  0.39993990288E+04 0.  0.
        1    1    3    3  502    0  0.10396549550E+04  0.48678151195E+03 -0.10527220173E+04  0.15575822005E+04  0.50400001928E-02 0. -1.
       -1    1    3    3    0  502 -0.10396549550E+04 -0.48678151195E+03  0.24038244835E+04  0.26638713957E+04  0.50400001928E-02 0.  1.
</event>
<event>
 5   0  0.8329875E-09  0.3999537E+04  0.7818609E-02  0.8004640E-01
       -1   -1    0    0    0  501  0.00000000000E+00  0.00000000000E+00  0.27937174944E+04  0.27937174944E+04  0.50400001928E-02 0. -1.
        1   -1    0    0  501    0  0.00000000000E+00  0.00000000000E+00 -0.14314524182E+04  0.14314524182E+04  0.50400001928E-02 0.  1.
    10030    2    1    2    0    0  0.00000000000E+00  0.00000000000E+00  0.13622650762E+04  0.42251699126E+04  0.39995368047E+04 0.  0.
        2    1    3    3  502    0  0.66643717402E+03  0.99615356848E+03  0.23722587164E+04  0.26578321723E+04  0.25500000920E-02 0. -1.
       -2    1    3    3    0  502 -0.66643717402E+03 -0.99615356848E+03 -0.10099936402E+04  0.15673377403E+04  0.25500000920E-02 0.  1.
</event>
<event>
 5   0  0.8329875E-09  0.4005415E+04  0.7818609E-02  0.8003455E-01
        1   -1    0    0  501    0  0.00000000000E+00  0.00000000000E+00  0.25952775408E+04  0.25952775408E+04  0.50400001928E-02 0. -1.
       -1   -1    0    0    0  501  0.00000000000E+00  0.00000000000E+00 -0.15454369888E+04  0.15454369888E+04  0.50400001928E-02 0.  1.
    10030    2    1    2    0    0  0.00000000000E+00  0.00000000000E+00  0.10498405520E+04  0.41407145295E+04  0.40054152881E+04 0.  0.
        3    1    3    3  502    0  0.15980404643E+04  0.37496182703E+03  0.17110700307E+04  0.23710947593E+04  0.10100000352E+00 0. -1.
       -3    1    3    3    0  502 -0.15980404643E+04 -0.37496182703E+03 -0.66122947872E+03  0.17696197702E+04  0.10100000352E+00 0.  1.
</event>
<event>
 5   0  0.2650452E-08  0.3877287E+04  0.7818609E-02  0.8029770E-01
        2   -1    0    0  501    0  0.00000000000E+00  0.00000000000E+00  0.15452463868E+04  0.15452463868E+04  0.25500000920E-02 0. -1.
       -2   -1    0    0    0  501  0.00000000000E+00  0.00000000000E+00 -0.24321938099E+04  0.24321938099E+04  0.25500000920E-02 0.  1.
    10030    2    1    2    0    0  0.00000000000E+00  0.00000000000E+00 -0.88694742315E+03  0.39774401967E+04  0.38772870395E+04 0.  0.
        3    1    3    3  502    0  0.14831802746E+04  0.12165063316E+04 -0.73112240131E+03  0.20528641839E+04  0.10100000352E+00 0. -1.
       -3    1    3    3    0  502 -0.14831802746E+04 -0.12165063316E+04 -0.15582502184E+03  0.19245760128E+04  0.10100000352E+00 0.  1.
</event>
<event>
 5   0  0.2650452E-08  0.4006792E+04  0.7818609E-02  0.8003178E-01
        2   -1    0    0  501    0  0.00000000000E+00  0.00000000000E+00  0.22702085915E+04  0.22702085915E+04  0.25500000920E-02 0. -1.
       -2   -1    0    0    0  501  0.00000000000E+00  0.00000000000E+00 -0.17679409986E+04  0.17679409986E+04  0.25500000920E-02 0.  1.
    10030    2    1    2    0    0  0.00000000000E+00  0.00000000000E+00  0.50226759299E+03  0.40381495901E+04  0.40067916563E+04 0.  0.
        3    1    3    3  502    0 -0.11438525657E+04 -0.13407303754E+04  0.12112902953E+04  0.21384996660E+04  0.10100000352E+00 0. -1.
       -3    1    3    3    0  502  0.11438525657E+04  0.13407303754E+04 -0.70902270232E+03  0.18996499241E+04  0.10100000352E+00 0.  1.
</event>
<event>
 5   0  0.8329875E-09  0.4002881E+04  0.7818609E-02  0.8003966E-01
       -1   -1    0    0    0  501  0.00000000000E+00  0.00000000000E+00  0.31434790193E+04  0.31434790193E+04  0.50400001928E-02 0. -1.
        1   -1    0    0  501    0  0.00000000000E+00  0.00000000000E+00 -0.12743089243E+04  0.12743089243E+04  0.50400001928E-02 0.  1.
    10030    2    1    2    0    0  0.00000000000E+00  0.00000000000E+00  0.18691700950E+04  0.44177879435E+04  0.40028806465E+04 0.  0.
        4    1    3    3  502    0 -0.71315424145E+03 -0.10795433503E+04  0.26198727419E+04  0.29219407273E+04  0.12699999809E+01 0. -1.
       -4    1    3    3    0  502  0.71315424145E+03  0.10795433503E+04 -0.75070264689E+03  0.14958472162E+04  0.12699999809E+01 0.  1.
</event>
<event>
 5   0  0.8329875E-09  0.4015085E+04  0.7818609E-02  0.8001510E-01
        1   -1    0    0  501    0  0.00000000000E+00  0.00000000000E+00  0.26709156695E+04  0.26709156695E+04  0.50400001928E-02 0. -1.
       -1   -1    0    0    0  501  0.00000000000E+00  0.00000000000E+00 -0.15089311362E+04  0.15089311363E+04  0.50400001928E-02 0.  1.
    10030    2    1    2    0    0  0.00000000000E+00  0.00000000000E+00  0.11619845333E+04  0.41798468058E+04  0.40150854617E+04 0.  0.
        1    1    3    3  502    0  0.50013183047E+03  0.18756115541E+04  0.47948233264E+02  0.19417388040E+04  0.50400001928E-02 0. -1.
       -1    1    3    3    0  502 -0.50013183047E+03 -0.18756115541E+04  0.11140363000E+04  0.22381080018E+04  0.50400001928E-02 0.  1.
</event>
<event>
 5   0  0.2587493E-08  0.4000740E+04  0.7818609E-02  0.8004397E-01
        2   -1    0    0  501    0  0.00000000000E+00  0.00000000000E+00  0.25453270080E+04  0.25453270080E+04  0.25500000920E-02 0. -1.
       -2   -1    0    0    0  501  0.00000000000E+00  0.00000000000E+00 -0.15720890656E+04  0.15720890656E+04  0.25500000920E-02 0.  1.
    10030    2    1    2    0    0  0.00000000000E+00  0.00000000000E+00  0.97323794240E+03  0.41174160736E+04  0.40007403103E+04 0.  0.
        5    1    3    3  502    0  0.22809364570E+03  0.13536110533E+04 -0.10108649368E+04  0.17047461997E+04  0.46999998093E+01 0.  1.
       -5    1    3    3    0  502 -0.22809364570E+03 -0.13536110533E+04  0.19841028792E+04  0.24126698739E+04  0.46999998093E+01 0. -1.
</event>
<event>
 5   0  0.8329875E-09  0.3999397E+04  0.7818609E-02  0.8004668E-01
        1   -1    0    0  501    0  0.00000000000E+00  0.00000000000E+00  0.25340102217E+04  0.25340102218E+04  0.50400001928E-02 0. -1.
       -1   -1    0    0    0  501  0.00000000000E+00  0.00000000000E+00 -0.15780495066E+04  0.15780495067E+04  0.50400001928E-02 0.  1.
    10030    2    1    2    0    0  0.00000000000E+00  0.00000000000E+00  0.95596071510E+03  0.41120597284E+04  0.39993967447E+04 0.  0.
        1    1    3    3  502    0  0.64291381273E+03 -0.13391266869E+04 -0.89846055043E+03  0.17360385407E+04  0.50400001928E-02 0.  1.
       -1    1    3    3    0  502 -0.64291381273E+03  0.13391266869E+04  0.18544212655E+04  0.23760211877E+04  0.50400001928E-02 0. -1.
</event>
<event>
 5   0  0.8329875E-09  0.3991352E+04  0.7818609E-02  0.8006293E-01
       -1   -1    0    0    0  501  0.00000000000E+00  0.00000000000E+00  0.18461496477E+04  0.18461496477E+04  0.50400001928E-02 0. -1.
        1   -1    0    0  501    0  0.00000000000E+00  0.00000000000E+00 -0.21573134087E+04  0.21573134088E+04  0.50400001928E-02 0.  1.
    10030    2    1    2    0    0  0.00000000000E+00  0.00000000000E+00 -0.31116376110E+03  0.40034630564E+04  0.39913523470E+04 0.  0.
        1    1    3    3  502    0 -0.68222270595E+03  0.14260915871E+03  0.17201077506E+04  0.18559460839E+04  0.50400001928E-02 0. -1.
       -1    1    3    3    0  502  0.68222270595E+03 -0.14260915871E+03 -0.20312715117E+04  0.21475169725E+04  0.50400001928E-02 0.  1.
</event>
<event>
 5   0  0.2612363E-08  0.3999638E+04  0.7818609E-02  0.8004620E-01
        2   -1    0    0  501    0  0.00000000000E+00  0.00000000000E+00  0.26524569120E+04  0.26524569120E+04  0.25500000920E-02 0. -1.
       -2   -1    0    0    0  501  0.00000000000E+00  0.00000000000E+00 -0.15077626426E+04  0.15077626426E+04  0.25500000920E-02 0.  1.
    10030    2    1    2    0    0  0.00000000000E+00  0.00000000000E+00  0.11446942693E+04  0.41602195546E+04  0.39996377051E+04 0.  0.
        4    1    3    3  502    0  0.38395661144E+03 -0.18711050531E+04 -0.43731192983E+02  0.19105943655E+04  0.12699999809E+01 0. -1.
       -4    1    3    3    0  502 -0.38395661144E+03  0.18711050531E+04  0.11884254623E+04  0.22496251891E+04  0.12699999809E+01 0.  1.
</event>
<event>
 5   0  0.8329875E-09  0.4044220E+04  0.7818609E-02  0.7995685E-01
        1   -1    0    0  501    0  0.00000000000E+00  0.00000000000E+00  0.17622042559E+04  0.17622042559E+04  0.50400001928E-02 0. -1.
       -1   -1    0    0    0  501  0.00000000000E+00  0.00000000000E+00 -0.23203488257E+04  0.23203488257E+04  0.50400001928E-02 0.  1.
    10030    2    1    2    0    0  0.00000000000E+00  0.00000000000E+00 -0.55814456982E+03  0.40825530816E+04  0.40442198634E+04 0.  0.
        3    1    3    3  502    0 -0.40338129022E+03 -0.53327567126E+03 -0.22055184039E+04  0.23046498317E+04  0.10100000352E+00 0.  1.
       -3    1    3    3    0  502  0.40338129022E+03  0.53327567126E+03  0.16473738340E+04  0.17779032499E+04  0.10100000352E+00 0. -1.
</event>
<event>
 5   0  0.8329875E-09  0.4006989E+04  0.7818609E-02  0.8003138E-01
       -1   -1    0    0    0  501  0.00000000000E+00  0.00000000000E+00  0.14948667277E+04  0.14948667277E+04  0.50400001928E-02 0. -1.
        1   -1    0    0  501    0  0.00000000000E+00  0.00000000000E+00 -0.26851832572E+04  0.26851832572E+04  0.50400001928E-02 0.  1.
    10030    2    1    2    0    0  0.00000000000E+00  0.00000000000E+00 -0.11903165295E+04  0.41800499848E+04  0.40069894479E+04 0.  0.
        3    1    3    3  502    0  0.16551400113E+04  0.87590942261E+03  0.14784278235E+03  0.18784470374E+04  0.10100000352E+00 0. -1.
       -3    1    3    3    0  502 -0.16551400113E+04 -0.87590942261E+03 -0.13381593118E+04  0.23016029475E+04  0.10100000352E+00 0.  1.
</event>
<event>
 5   0  0.8329875E-09  0.3998187E+04  0.7818609E-02  0.8004912E-01
       -1   -1    0    0    0  501  0.00000000000E+00  0.00000000000E+00  0.15902474292E+04  0.15902474292E+04  0.50400001928E-02 0. -1.
        1   -1    0    0  501    0  0.00000000000E+00  0.00000000000E+00 -0.25130519516E+04  0.25130519516E+04  0.50400001928E-02 0.  1.
    10030    2    1    2    0    0  0.00000000000E+00  0.00000000000E+00 -0.92280452238E+03  0.41032993808E+04  0.39981867918E+04 0.  0.
        1    1    3    3  502    0  0.49210839558E+03 -0.54380149320E+02 -0.24491347127E+04  0.24986773931E+04  0.50400001928E-02 0.  1.
       -1    1    3    3    0  502 -0.49210839558E+03  0.54380149320E+02  0.15263301903E+04  0.16046219877E+04  0.50400001928E-02 0. -1.
</event>
<event>
 5   0  0.8329875E-09  0.3994822E+04  0.7818609E-02  0.8005592E-01
        1   -1    0    0  501    0  0.00000000000E+00  0.00000000000E+00  0.30930577206E+04  0.30930577206E+04  0.50400001928E-02 0.  1.
       -1   -1    0    0    0  501  0.00000000000E+00  0.00000000000E+00 -0.12898725167E+04  0.12898725167E+04  0.50400001928E-02 0. -1.
    10030    2    1    2    0    0  0.00000000000E+00  0.00000000000E+00  0.18031852038E+04  0.43829302373E+04  0.39948217214E+04 0.  0.
        5    1    3    3  502    0  0.59214980926E+03 -0.27877328344E+03  0.29720663821E+04  0.30432805670E+04  0.46999998093E+01 0.  1.
       -5    1    3    3    0  502 -0.59214980926E+03  0.27877328344E+03 -0.11688811783E+04  0.13396496703E+04  0.46999998093E+01 0. -1.
</event>
<event>
 5   0  0.8329875E-09  0.4000866E+04  0.7818609E-02  0.8004372E-01
        1   -1    0    0  501    0  0.00000000000E+00  0.00000000000E+00  0.17756016062E+04  0.17756016063E+04  0.50400001928E-02 0.  1.
       -1   -1    0    0    0  501  0.00000000000E+00  0.00000000000E+00 -0.22537327441E+04  0.22537327441E+04  0.50400001928E-02 0. -1.
    10030    2    1    2    0    0  0.00000000000E+00  0.00000000000E+00 -0.47813113784E+03  0.40293343503E+04  0.40008656466E+04 0.  0.
        5    1    3    3  502    0 -0.13524545506E+04 -0.35060631340E+03  0.12027819320E+04  0.18435738565E+04  0.46999998093E+01 0.  1.
       -5    1    3    3    0  502  0.13524545506E+04  0.35060631340E+03 -0.16809130698E+04  0.21857604939E+04  0.46999998093E+01 0. -1.
</event>
<event>
 5   0  0.8329875E-09  0.3987537E+04  0.7818609E-02  0.8007066E-01
       -1   -1    0    0    0  501  0.00000000000E+00  0.00000000000E+00  0.16446631694E+04  0.16446631694E+04  0.50400001928E-02 0.  1.
        1   -1    0    0  501    0  0.00000000000E+00  0.00000000000E+00 -0.24169764397E+04  0.24169764397E+04  0.50400001928E-02 0. -1.
    10030    2    1    2    0    0  0.00000000000E+00  0.00000000000E+00 -0.77231327024E+03  0.40616396091E+04  0.39875366490E+04 0.  0.
        2    1    3    3  502    0  0.10424736762E+04 -0.24360320387E+02 -0.21170798325E+04  0.23599516537E+04  0.25500000920E-02 0. -1.
       -2    1    3    3    0  502 -0.10424736762E+04  0.24360320387E+02  0.13447665622E+04  0.17016879554E+04  0.25500000920E-02 0.  1.
</event>
<event>
 5   0  0.8329875E-09  0.4003258E+04  0.7818609E-02  0.8003890E-01
       -1   -1    0    0    0  501  0.00000000000E+00  0.00000000000E+00  0.19400642113E+04  0.19400642113E+04  0.50400001928E-02 0. -1.
        1   -1    0    0  501    0  0.00000000000E+00  0.00000000000E+00 -0.20651471037E+04  0.20651471037E+04  0.50400001928E-02 0.  1.
    10030    2    1    2    0    0  0.00000000000E+00  0.00000000000E+00 -0.12508289233E+03  0.40052113150E+04  0.40032576669E+04 0.  0.
        2    1    3    3  502    0  0.12240729483E+04 -0.88886571752E+03 -0.13739370565E+04  0.20435605892E+04  0.25500000920E-02 0.  1.
       -2    1    3    3    0  502 -0.12240729483E+04  0.88886571752E+03  0.12488541642E+04  0.19616507258E+04  0.25500000920E-02 0. -1.
</event>
<event>
 5   0  0.8329875E-09  0.3984009E+04  0.7818609E-02  0.8007780E-01
       -1   -1    0    0    0  501  0.00000000000E+00  0.00000000000E+00  0.17201537699E+04  0.17201537699E+04  0.50400001928E-02 0.  1.
        1   -1    0    0  501    0  0.00000000000E+00  0.00000000000E+00 -0.23068185771E+04  0.23068185771E+04  0.50400001928E-02 0. -1.
    10030    2    1    2    0    0  0.00000000000E+00  0.00000000000E+00 -0.58666480721E+03  0.40269723470E+04  0.39840093734E+04 0.  0.
        2    1    3    3  502    0 -0.56350768952E+03 -0.10207044676E+04  0.13392334549E+04  0.17756477053E+04  0.25500000920E-02 0.  1.
       -2    1    3    3    0  502  0.56350768952E+03  0.10207044676E+04 -0.19258982621E+04  0.22513246417E+04  0.25500000920E-02 0. -1.
</event>
<event>
 5   0  0.2587493E-08  0.4002376E+04  0.7818609E-02  0.8004067E-01
        2   -1    0    0  501    0  0.00000000000E+00  0.00000000000E+00  0.16726012828E+04  0.16726012828E+04  0.25500000920E-02 0. -1.
       -2   -1    0    0    0  501  0.00000000000E+00  0.00000000000E+00 -0.23943261099E+04  0.23943261099E+04  0.25500000920E-02 0.  1.
    10030    2    1    2    0    0  0.00000000000E+00  0.00000000000E+00 -0.72172482708E+03  0.40669273926E+04  0.40023757558E+04 0.  0.
        5    1    3    3  502    0  0.18034316235E+03 -0.15415133928E+04 -0.16445440676E+04  0.22612683337E+04  0.46999998093E+01 0.  1.
       -5    1    3    3    0  502 -0.18034316235E+03  0.15415133928E+04  0.92281924054E+03  0.18056590590E+04  0.46999998093E+01 0. -1.
</event>
<event>
 5   0  0.8329875E-09  0.3999763E+04  0.7818609E-02  0.8004594E-01
       -1   -1    0    0    0  501  0.00000000000E+00  0.00000000000E+00  0.24803091020E+04  0.24803091020E+04  0.50400001928E-02 0. -1.
        1   -1    0    0  501    0  0.00000000000E+00  0.00000000000E+00 -0.16125109633E+04  0.16125109633E+04  0.50400001928E-02 0.  1.
    10030    2    1    2    0    0  0.00000000000E+00  0.00000000000E+00  0.86779813877E+03  0.40928200653E+04  0.39997628026E+04 0.  0.
        1    1    3    3  502    0 -0.72225400441E+03  0.14198348099E+04  0.16711385395E+04  0.23087411619E+04  0.50400001928E-02 0. -1.
       -1    1    3    3    0  502  0.72225400441E+03 -0.14198348099E+04 -0.80334040071E+03  0.17840789035E+04  0.50400001928E-02 0.  1.
</event>
<event>
 5   0  0.2650452E-08  0.3997889E+04  0.7818609E-02  0.8004973E-01
       -2   -1    0    0    0  501  0.00000000000E+00  0.00000000000E+00  0.22266431067E+04  0.22266431067E+04  0.25500000920E-02 0.  1.
        2   -1    0    0  501    0  0.00000000000E+00  0.00000000000E+00 -0.17945303258E+04  0.17945303258E+04  0.25500000920E-02 0. -1.
    10030    2    1    2    0    0  0.00000000000E+00  0.00000000000E+00  0.43211278090E+03  0.40211734324E+04  0.39978887326E+04 0.  0.
        3    1    3    3  502    0  0.11097932646E+04  0.91151678313E+03 -0.11824642421E+04  0.18603025641E+04  0.10100000352E+00 0. -1.
       -3    1    3    3    0  502 -0.11097932646E+04 -0.91151678313E+03  0.16145770230E+04  0.21608708683E+04  0.10100000352E+00 0.  1.
</event>
<event>
 5   0  0.8329875E-09  0.3994727E+04  0.7818609E-02  0.8005611E-01
       -1   -1    0    0    0  501  0.00000000000E+00  0.00000000000E+00  0.16400741591E+04  0.16400741592E+04  0.50400001928E-02 0.  1.
        1   -1    0    0  501    0  0.00000000000E+00  0.00000000000E+00 -0.24324879315E+04  0.24324879315E+04  0.50400001928E-02 0. -1.
    10030    2    1    2    0    0  0.00000000000E+00  0.00000000000E+00 -0.79241377236E+03  0.40725620907E+04  0.39947268237E+04 0.  0.
        4    1    3    3  502    0  0.15316080888E+04  0.46038450918E+03  0.82363593111E+03  0.17989316257E+04  0.12699999809E+01 0.  1.
       -4    1    3    3    0  502 -0.15316080888E+04 -0.46038450918E+03 -0.16160497035E+04  0.22736304649E+04  0.12699999809E+01 0. -1.
</event>
<event>
 5   0  0.2612363E-08  0.3988519E+04  0.7818609E-02  0.8006867E-01
        2   -1    0    0  501    0  0.00000000000E+00  0.00000000000E+00  0.25658130533E+04  0.25658130533E+04  0.25500000920E-02 0. -1.
       -2   -1    0    0    0  501  0.00000000000E+00  0.00000000000E+00 -0.15500237111E+04  0.15500237111E+04  0.25500000920E-02 0.  1.
    10030    2    1    2    0    0  0.00000000000E+00  0.00000000000E+00  0.10157893421E+04  0.41158367644E+04  0.39885190590E+04 0.  0.
        4    1    3    3  502    0 -0.16819425357E+04 -0.28692327281E+03 -0.55744264648E+03  0.17949929178E+04  0.12699999809E+01 0.  1.
       -4    1    3    3    0  502  0.16819425357E+04  0.28692327281E+03  0.15732319886E+04  0.23208438467E+04  0.12699999809E+01 0. -1.
</event>
<event>
 5   0  0.2746876E-08  0.3998393E+04  0.7818609E-02  0.8004871E-01
       -2   -1    0    0    0  501  0.00000000000E+00  0.00000000000E+00  0.14916229508E+04  0.14916229508E+04  0.25500000920E-02 0. -1.
        2   -1    0    0  501    0  0.00000000000E+00  0.00000000000E+00 -0.26794882356E+04  0.26794882356E+04  0.25500000920E-02 0.  1.
    10030    2    1    2    0    0  0.00000000000E+00  0.00000000000E+00 -0.11878652848E+04  0.41711111864E+04  0.39983927514E+04 0.  0.
        1    1    3    3  502    0  0.19026777017E+04  0.16346571985E+02  0.46029799841E+02  0.19033045971E+04  0.50400001928E-02 0. -1.
       -1    1    3    3    0  502 -0.19026777017E+04 -0.16346571985E+02 -0.12338950847E+04  0.22678065894E+04  0.50400001928E-02 0.  1.
</event>
<event>
 5   0  0.8329875E-09  0.3995429E+04  0.7818609E-02  0.8005469E-01
       -1   -1    0    0    0  501  0.00000000000E+00  0.00000000000E+00  0.26127415849E+04  0.26127415849E+04  0.50400001928E-02 0.  1.
        1   -1    0    0  501    0  0.00000000000E+00  0.00000000000E+00 -0.15274617835E+04  0.15274617835E+04  0.50400001928E-02 0. -1.
    10030    2    1    2    0    0  0.00000000000E+00  0.00000000000E+00  0.10852798014E+04  0.41402033683E+04  0.39954288486E+04 0.  0.
        3    1    3    3  502    0 -0.10753377115E+04 -0.84727034579E+03 -0.96494664435E+03  0.16749150036E+04  0.10100000352E+00 0. -1.
       -3    1    3    3    0  502  0.10753377115E+04  0.84727034579E+03  0.20502264457E+04  0.24652883648E+04  0.10100000352E+00 0.  1.
</event>
<event>
 5   0  0.2650452E-08  0.3997980E+04  0.7818609E-02  0.8004954E-01
        2   -1    0    0  501    0  0.00000000000E+00  0.00000000000E+00  0.18904988536E+04  0.18904988536E+04  0.25500000920E-02 0. -1.
       -2   -1    0    0    0  501  0.00000000000E+00  0.00000000000E+00 -0.21137070993E+04  0.21137070993E+04  0.25500000920E-02 0.  1.
    10030    2    1    2    0    0  0.00000000000E+00  0.00000000000E+00 -0.22320824571E+03  0.40042059529E+04  0.39979799139E+04 0.  0.
        3    1    3    3  502    0  0.53567038257E+03  0.69060657548E+03  0.16889944135E+04  0.19017314058E+04  0.10100000352E+00 0. -1.
       -3    1    3    3    0  502 -0.53567038257E+03 -0.69060657548E+03 -0.19122026592E+04  0.21024745471E+04  0.10100000352E+00 0.  1.
</event>
<event>
 5   0  0.8329875E-09  0.4000858E+04  0.7818609E-02  0.8004373E-01
       -1   -1    0    0    0  501  0.00000000000E+00  0.00000000000E+00  0.26050755038E+04  0.26050755038E+04  0.50400001928E-02 0.  1.
        1   -1    0    0  501    0  0.00000000000E+00  0.00000000000E+00 -0.15361232009E+04  0.15361232009E+04  0.50400001928E-02 0. -1.
    10030    2    1    2    0    0  0.00000000000E+00  0.00000000000E+00  0.10689523029E+04  0.41411987047E+04  0.40008583686E+04 0.  0.
        4    1    3    3  502    0  0.13092364667E+04  0.69891358729E+03 -0.85389239369E+03  0.17122249155E+04  0.12699999809E+01 0. -1.
       -4    1    3    3    0  502 -0.13092364667E+04 -0.69891358729E+03  0.19228446966E+04  0.24289737892E+04  0.12699999809E+01 0.  1.
</event>
<event>
 5   0  0.2599332E-08  0.4004033E+04  0.7818609E-02  0.8003733E-01
       -2   -1    0    0    0  501  0.00000000000E+00  0.00000000000E+00  0.25066312067E+04  0.25066312067E+04  0.25500000920E-02 0.  1.
        2   -1    0    0  501    0  0.00000000000E+00  0.00000000000E+00 -0.15989871399E+04  0.15989871399E+04  0.25500000920E-02 0. -1.
    10030    2    1    2    0    0  0.00000000000E+00  0.00000000000E+00  0.90764406680E+03  0.41056183466E+04  0.40040334983E+04 0.  0.
        2    1    3    3  502    0 -0.30766513668E+03  0.28056838214E+03  0.24617413824E+04  0.24967072490E+04  0.25500000920E-02 0.  1.
       -2    1    3    3    0  502  0.30766513668E+03 -0.28056838214E+03 -0.15540973156E+04  0.16089110976E+04  0.25500000920E-02 0. -1.
</event>
<event>
 5   0  0.8329875E-09  0.3986843E+04  0.7818609E-02  0.8007206E-01
       -1   -1    0    0    0  501  0.00000000000E+00  0.00000000000E+00  0.21618110055E+04  0.21618110055E+04  0.50400001928E-02 0. -1.
        1   -1    0    0  501    0  0.00000000000E+00  0.00000000000E+00 -0.18381486346E+04  0.18381486347E+04  0.50400001928E-02 0.  1.
    10030    2    1    2    0    0  0.00000000000E+00  0.00000000000E+00  0.32366237084E+03  0.39999596401E+04  0.39868433368E+04 0.  0.
        4    1    3    3  502    0 -0.13871610589E+04  0.30559115292E+03  0.15650484389E+04  0.21135231215E+04  0.12699999809E+01 0. -1.
       -4    1    3    3    0  502  0.13871610589E+04 -0.30559115292E+03 -0.12413860681E+04  0.18864365187E+04  0.12699999809E+01 0.  1.
</event>
<event>
 5   0  0.8329875E-09  0.4001476E+04  0.7818609E-02  0.8004249E-01
       -1   -1    0    0    0  501  0.00000000000E+00  0.00000000000E+00  0.14530972092E+04  0.14530972092E+04  0.50400001928E-02 0. -1.
        1   -1    0    0  501    0  0.00000000000E+00  0.00000000000E+00 -0.27547728236E+04  0.27547728236E+04  0.50400001928E-02 0.  1.
    10030    2    1    2    0    0  0.00000000000E+00  0.00000000000E+00 -0.13016756144E+04  0.42078700328E+04  0.40014760786E+04 0.  0.
        4    1    3    3  502    0 -0.12125092338E+04  0.22984295481E+03  0.10051726983E+04  0.15916595717E+04  0.12699999809E+01 0. -1.
       -4    1    3    3    0  502  0.12125092338E+04 -0.22984295481E+03 -0.23068483127E+04  0.26162104611E+04  0.12699999809E+01 0.  1.
</event>
<event>
 5   0  0.8329875E-09  0.4040930E+04  0.7818609E-02  0.7996340E-01
       -1   -1    0    0    0  501  0.00000000000E+00  0.00000000000E+00  0.21323456024E+04  0.21323456024E+04  0.50400001928E-02 0.  1.
        1   -1    0    0  501    0  0.00000000000E+00  0.00000000000E+00 -0.19144542006E+04  0.19144542006E+04  0.50400001928E-02 0. -1.
    10030    2    1    2    0    0  0.00000000000E+00  0.00000000000E+00  0.21789140181E+03  0.40467998030E+04  0.40409295939E+04 0.  0.
        2    1    3    3  502    0 -0.75497133785E+03 -0.15259218941E+04  0.11985789879E+04  0.20820689081E+04  0.25500000920E-02 0.  1.
       -2    1    3    3    0  502  0.75497133785E+03  0.15259218941E+04 -0.98068758607E+03  0.19647308949E+04  0.25500000920E-02 0. -1.
</event>
<event>
 5   0  0.2599332E-08  0.4004364E+04  0.7818609E-02  0.8003667E-01
       -2   -1    0    0    0  501  0.00000000000E+00  0.00000000000E+00  0.13284087691E+04  0.13284087691E+04  0.25500000920E-02 0. -1.
        2   -1    0    0  501    0  0.00000000000E+00  0.00000000000E+00 -0.30176955377E+04  0.30176955377E+04  0.25500000920E-02 0.  1.
    10030    2    1    2    0    0  0.00000000000E+00  0.00000000000E+00 -0.16892867686E+04  0.43461043068E+04  0.40043642266E+04 0.  0.
        2    1    3    3  502    0 -0.17554902229E+04 -0.53963672951E+03 -0.17100492409E+04  0.25094266534E+04  0.25500000920E-02 0.  1.
       -2    1    3    3    0  502  0.17554902229E+04  0.53963672951E+03  0.20762472310E+02  0.18366776534E+04  0.25500000920E-02 0. -1.
</event>
<event>
 5   0  0.2746876E-08  0.3987451E+04  0.7818609E-02  0.8007083E-01
       -2   -1    0    0    0  501  0.00000000000E+00  0.00000000000E+00  0.20263106771E+04  0.20263106771E+04  0.25500000920E-02 0. -1.
        2   -1    0    0  501    0  0.00000000000E+00  0.00000000000E+00 -0.19616645358E+04  0.19616645358E+04  0.25500000920E-02 0.  1.
    10030    2    1    2    0    0  0.00000000000E+00  0.00000000000E+00  0.64646141266E+02  0.39879752129E+04  0.39874512129E+04 0.  0.
        1    1    3    3  502    0  0.19839020816E+04 -0.17122827756E+03  0.13110447335E+03  0.19955888793E+04  0.50400001928E-02 0.  1.
       -1    1    3    3    0  502 -0.19839020816E+04  0.17122827756E+03 -0.66458332087E+02  0.19923863336E+04  0.50400001928E-02 0. -1.
</event>
<event>
 5   0  0.2587493E-08  0.3992822E+04  0.7818609E-02  0.8005996E-01
        2   -1    0    0  501    0  0.00000000000E+00  0.00000000000E+00  0.16290893019E+04  0.16290893019E+04  0.25500000920E-02 0. -1.
       -2   -1    0    0    0  501  0.00000000000E+00  0.00000000000E+00 -0.24465550077E+04  0.24465550077E+04  0.25500000920E-02 0.  1.
    10030    2    1    2    0    0  0.00000000000E+00  0.00000000000E+00 -0.81746570579E+03  0.40756443096E+04  0.39928218540E+04 0.  0.
        5    1    3    3  502    0  0.65481801408E+03 -0.49033288229E+03  0.14501465032E+04  0.16649804617E+04  0.46999998093E+01 0. -1.
       -5    1    3    3    0  502 -0.65481801408E+03  0.49033288229E+03 -0.22676122090E+04  0.24106638479E+04  0.46999998093E+01 0.  1.
</event>
<event>
 5   0  0.2746876E-08  0.3990497E+04  0.7818609E-02  0.8006466E-01
        2   -1    0    0  501    0  0.00000000000E+00  0.00000000000E+00  0.14558214462E+04  0.14558214462E+04  0.25500000920E-02 0.  1.
       -2   -1    0    0    0  501  0.00000000000E+00  0.00000000000E+00 -0.27345495383E+04  0.27345495383E+04  0.25500000920E-02 0. -1.
    10030    2    1    2    0    0  0.00000000000E+00  0.00000000000E+00 -0.12787280921E+04  0.41903709845E+04  0.39904966425E+04 0.  0.
        1    1    3    3  502    0 -0.17143830729E+04 -0.97613192088E+03 -0.95276376512E+03  0.21908221378E+04  0.50400001928E-02 0.  1.
       -1    1    3    3    0  502  0.17143830729E+04  0.97613192088E+03 -0.32596432701E+03  0.19995488466E+04  0.50400001928E-02 0. -1.
</event>
<event>
 5   0  0.8329875E-09  0.3999863E+04  0.7818609E-02  0.8004574E-01
       -1   -1    0    0    0  501  0.00000000000E+00  0.00000000000E+00  0.21123639850E+04  0.21123639850E+04  0.50400001928E-02 0.  1.
        1   -1    0    0  501    0  0.00000000000E+00  0.00000000000E+00 -0.18934832397E+04  0.18934832397E+04  0.50400001928E-02 0. -1.
    10030    2    1    2    0    0  0.00000000000E+00  0.00000000000E+00  0.21888074528E+03  0.40058472247E+04  0.39998628986E+04 0.  0.
        1    1    3    3  502    0 -0.19092676906E+03 -0.85567305954E+03  0.19096547813E+04  0.21012878907E+04  0.50400001928E-02 0.  1.
       -1    1    3    3    0  502  0.19092676906E+03  0.85567305954E+03 -0.16907740360E+04  0.19045593340E+04  0.50400001928E-02 0. -1.
</event>
<event>
 5   0  0.2587493E-08  0.3999025E+04  0.7818609E-02  0.8004743E-01
        2   -1    0    0  501    0  0.00000000000E+00  0.00000000000E+00  0.18267458044E+04  0.18267458044E+04  0.25500000920E-02 0. -1.
       -2   -1    0    0    0  501  0.00000000000E+00  0.00000000000E+00 -0.21886188403E+04  0.21886188403E+04  0.25500000920E-02 0.  1.
    10030    2    1    2    0    0  0.00000000000E+00  0.00000000000E+00 -0.36187303596E+03  0.40153646447E+04  0.39990250232E+04 0.  0.
        5    1    3    3  502    0 -0.11372129187E+04 -0.15462065184E+04 -0.74360136397E+03  0.20583908517E+04  0.46999998093E+01 0.  1.
       -5    1    3    3    0  502  0.11372129187E+04  0.15462065184E+04  0.38172832801E+03  0.19569737930E+04  0.46999998093E+01 0. -1.
</event>
<event>
 5   0  0.2612363E-08  0.3996392E+04  0.7818609E-02  0.8005275E-01
        2   -1    0    0  501    0  0.00000000000E+00  0.00000000000E+00  0.21652638457E+04  0.21652638457E+04  0.25500000920E-02 0.  1.
       -2   -1    0    0    0  501  0.00000000000E+00  0.00000000000E+00 -0.18440184589E+04  0.18440184589E+04  0.25500000920E-02 0. -1.
    10030    2    1    2    0    0  0.00000000000E+00  0.00000000000E+00  0.32124538676E+03  0.40092823046E+04  0.39963916224E+04 0.  0.
        4    1    3    3  502    0  0.19801655585E+04  0.25506267118E+03  0.24257020641E+03  0.20112072303E+04  0.12699999809E+01 0.  1.
       -4    1    3    3    0  502 -0.19801655585E+04 -0.25506267118E+03  0.78675180343E+02  0.19980750742E+04  0.12699999809E+01 0. -1.
</event>
<event>
 5   0  0.2612363E-08  0.3999149E+04  0.7818609E-02  0.8004718E-01
        2   -1    0    0  501    0  0.00000000000E+00  0.00000000000E+00  0.25937123228E+04  0.25937123228E+04  0.25500000920E-02 0.  1.
       -2   -1    0    0    0  501  0.00000000000E+00  0.00000000000E+00 -0.15415348013E+04  0.15415348013E+04  0.25500000920E-02 0. -1.
    10030    2    1    2    0    0  0.00000000000E+00  0.00000000000E+00  0.10521775215E+04  0.41352471241E+04  0.39991488146E+04 0.  0.
        4    1    3    3  502    0  0.10416415605E+04  0.16532557897E+04  0.96482098084E+03  0.21792551444E+04  0.12699999809E+01 0.  1.
       -4    1    3    3    0  502 -0.10416415605E+04 -0.16532557897E+04  0.87356540619E+02  0.19559919797E+04  0.12699999809E+01 0. -1.
</event>
<event>
 5   0  0.8329875E-09  0.3990329E+04  0.7818609E-02  0.8006500E-01
       -1   -1    0    0    0  501  0.00000000000E+00  0.00000000000E+00  0.20182402756E+04  0.20182402756E+04  0.50400001928E-02 0.  1.
        1   -1    0    0  501    0  0.00000000000E+00  0.00000000000E+00 -0.19723521448E+04  0.19723521448E+04  0.50400001928E-02 0. -1.
    10030    2    1    2    0    0  0.00000000000E+00  0.00000000000E+00  0.45888130755E+02  0.39905924204E+04  0.39903285761E+04 0.  0.
        2    1    3    3  502    0  0.99260223773E+03 -0.14031775678E+04 -0.99029322167E+03  0.19836449163E+04  0.25500000920E-02 0. -1.
       -2    1    3    3    0  502 -0.99260223773E+03  0.14031775678E+04  0.10361813524E+04  0.20069475041E+04  0.25500000920E-02 0.  1.
</event>
<event>
 5   0  0.8329875E-09  0.4001319E+04  0.7818609E-02  0.8004281E-01
       -1   -1    0    0    0  501  0.00000000000E+00  0.00000000000E+00  0.13692518732E+04  0.13692518733E+04  0.50400001928E-02 0. -1.
        1   -1    0    0  501    0  0.00000000000E+00  0.00000000000E+00 -0.29232300794E+04  0.29232300794E+04  0.50400001928E-02 0.  1.
    10030    2    1    2    0    0  0.00000000000E+00  0.00000000000E+00 -0.15539782062E+04  0.42924819527E+04  0.40013189137E+04 0.  0.
        3    1    3    3  502    0  0.47083293072E+03  0.16200922888E+04  0.37654976258E+03  0.17286331036E+04  0.10100000352E+00 0. -1.
       -3    1    3    3    0  502 -0.47083293072E+03 -0.16200922888E+04 -0.19305279688E+04  0.25638488491E+04  0.10100000352E+00 0.  1.
</event>
<event>
 5   0  0.8329875E-09  0.3999464E+04  0.7818609E-02  0.8004655E-01
       -1   -1    0    0    0  501  0.00000000000E+00  0.00000000000E+00  0.18612659905E+04  0.18612659905E+04  0.50400001928E-02 0. -1.
        1   -1    0    0  501    0  0.00000000000E+00  0.00000000000E+00 -0.21484989213E+04  0.21484989214E+04  0.50400001928E-02 0.  1.
    10030    2    1    2    0    0  0.00000000000E+00  0.00000000000E+00 -0.28723293086E+03  0.40097649119E+04  0.39994639506E+04 0.  0.
        5    1    3    3  502    0 -0.13622560426E+04  0.10783031002E+04  0.84909881669E+03  0.19337709254E+04  0.46999998093E+01 0. -1.
       -5    1    3    3    0  502  0.13622560426E+04 -0.10783031002E+04 -0.11363317475E+04  0.20759939865E+04  0.46999998093E+01 0.  1.
</event>
<event>
 5   0  0.2612363E-08  0.4003440E+04  0.7818609E-02  0.8003853E-01
       -2   -1    0    0    0  501  0.00000000000E+00  0.00000000000E+00  0.31491469000E+04  0.31491469000E+04  0.25500000920E-02 0.  1.
        2   -1    0    0  501    0  0.00000000000E+00  0.00000000000E+00 -0.12723708812E+04  0.12723708812E+04  0.25500000920E-02 0. -1.
    10030    2    1    2    0    0  0.00000000000E+00  0.00000000000E+00  0.18767760188E+04  0.44215177812E+04  0.40034399290E+04 0.  0.
        4    1    3    3  502    0 -0.43784546917E+02 -0.14820893856E+04  0.24235790721E+04  0.28411693306E+04  0.12699999809E+01 0.  1.
       -4    1    3    3    0  502  0.43784546917E+02  0.14820893856E+04 -0.54680305326E+03  0.15803484507E+04  0.12699999809E+01 0. -1.
</event>
<event>
 5   0  0.2587493E-08  0.3998575E+04  0.7818609E-02  0.8004834E-01
        2   -1    0    0  501    0  0.00000000000E+00  0.00000000000E+00  0.21860838010E+04  0.21860838010E+04  0.25500000920E-02 0.  1.
       -2   -1    0    0    0  501  0.00000000000E+00  0.00000000000E+00 -0.18284521347E+04  0.18284521347E+04  0.25500000920E-02 0. -1.
    10030    2    1    2    0    0  0.00000000000E+00  0.00000000000E+00  0.35763166626E+03  0.40145359357E+04  0.39985745423E+04 0.  0.
        5    1    3    3  502    0 -0.12534488965E+04 -0.14979028688E+04  0.60746313510E+03  0.20454536639E+04  0.46999998093E+01 0.  1.
       -5    1    3    3    0  502  0.12534488965E+04  0.14979028688E+04 -0.24983146884E+03  0.19690822719E+04  0.46999998093E+01 0. -1.
</event>
<event>
 5   0  0.2746876E-08  0.3995250E+04  0.7818609E-02  0.8005506E-01
        2   -1    0    0  501    0  0.00000000000E+00  0.00000000000E+00  0.19032044362E+04  0.19032044362E+04  0.25500000920E-02 0. -1.
       -2   -1    0    0    0  501  0.00000000000E+00  0.00000000000E+00 -0.20967295602E+04  0.20967295602E+04  0.25500000920E-02 0.  1.
    10030    2    1    2    0    0  0.00000000000E+00  0.00000000000E+00 -0.19352512399E+03  0.39999339965E+04  0.39952496796E+04 0.  0.
        1    1    3    3  502    0 -0.64877858637E+03 -0.96556333637E+03 -0.17226366913E+04  0.20786301694E+04  0.50400001928E-02 0.  1.
       -1    1    3    3    0  502  0.64877858637E+03  0.96556333637E+03  0.15291115673E+04  0.19213038271E+04  0.50400001928E-02 0. -1.
</event>
<event>
 5   0  0.2746876E-08  0.3997636E+04  0.7818609E-02  0.8005024E-01
        2   -1    0    0  501    0  0.00000000000E+00  0.00000000000E+00  0.26483671272E+04  0.26483671272E+04  0.25500000920E-02 0. -1.
       -2   -1    0    0    0  501  0.00000000000E+00  0.00000000000E+00 -0.15085802474E+04  0.15085802474E+04  0.25500000920E-02 0.  1.
    10030    2    1    2    0    0  0.00000000000E+00  0.00000000000E+00  0.11397868798E+04  0.41569473746E+04  0.39976364697E+04 0.  0.
        1    1    3    3  502    0  0.70254248300E+03  0.71460018061E+02 -0.13745455470E+04  0.15453310116E+04  0.50400001928E-02 0.  1.
       -1    1    3    3    0  502 -0.70254248300E+03 -0.71460018061E+02  0.25143324268E+04  0.26116163629E+04  0.50400001928E-02 0. -1.
</event>
<event>
 5   0  0.2612363E-08  0.4000858E+04  0.7818609E-02  0.8004373E-01
       -2   -1    0    0    0  501  0.00000000000E+00  0.00000000000E+00  0.16060716979E+04  0.16060716979E+04  0.25500000920E-02 0. -1.
        2   -1    0    0  501    0  0.00000000000E+00  0.00000000000E+00 -0.24916175637E+04  0.24916175637E+04  0.25500000920E-02 0.  1.
    10030    2    1    2    0    0  0.00000000000E+00  0.00000000000E+00 -0.88554586586E+03  0.40976892616E+04  0.40008581335E+04 0.  0.
        4    1    3    3  502    0  0.54732870735E+03 -0.69571247140E+03  0.13945592430E+04  0.16517813572E+04  0.12699999809E+01 0. -1.
       -4    1    3    3    0  502 -0.54732870735E+03  0.69571247140E+03 -0.22801051089E+04  0.24459079045E+04  0.12699999809E+01 0.  1.
</event>
<event>
 5   0  0.8329875E-09  0.3995259E+04  0.7818609E-02  0.8005504E-01
        1   -1    0    0  501    0  0.00000000000E+00  0.00000000000E+00  0.27357829940E+04  0.27357829940E+04  0.50400001928E-02 0. -1.
       -1   -1    0    0    0  501  0.00000000000E+00  0.00000000000E+00 -0.14586407194E+04  0.14586407194E+04  0.50400001928E-02 0.  1.
    10030    2    1    2    0    0  0.00000000000E+00  0.00000000000E+00  0.12771422746E+04  0.41944237134E+04  0.39952594282E+04 0.  0.
        4    1    3    3  502    0  0.24104777264E+03 -0.17686608759E+04 -0.30293875030E+03  0.18105355070E+04  0.12699999809E+01 0.  1.
       -4    1    3    3    0  502 -0.24104777264E+03  0.17686608759E+04  0.15800810249E+04  0.23838882064E+04  0.12699999809E+01 0. -1.
</event>
<event>
 5   0  0.2612363E-08  0.4024557E+04  0.7818609E-02  0.7999611E-01
       -2   -1    0    0    0  501  0.00000000000E+00  0.00000000000E+00  0.19388285190E+04  0.19388285190E+04  0.25500000920E-02 0.  1.
        2   -1    0    0  501    0  0.00000000000E+00  0.00000000000E+00 -0.20885106938E+04  0.20885106938E+04  0.25500000920E-02 0. -1.
    10030    2    1    2    0    0  0.00000000000E+00  0.00000000000E+00 -0.14968217479E+03  0.40273392127E+04  0.40245566689E+04 0.  0.
        4    1    3    3  502    0 -0.51374952090E+03  0.47871844675E+03  0.18122391036E+04  0.19435334067E+04  0.12699999809E+01 0.  1.
       -4    1    3    3    0  502  0.51374952090E+03 -0.47871844675E+03 -0.19619212784E+04  0.20838058060E+04  0.12699999809E+01 0. -1.
</event>
<event>
 5   0  0.8329875E-09  0.4002387E+04  0.7818609E-02  0.8004065E-01
       -1   -1    0    0    0  501  0.00000000000E+00  0.00000000000E+00  0.20013887702E+04  0.20013887702E+04  0.50400001928E-02 0.  1.
        1   -1    0    0  501    0  0.00000000000E+00  0.00000000000E+00 -0.20009983783E+04  0.20009983783E+04  0.50400001928E-02 0. -1.
    10030    2    1    2    0    0  0.00000000000E+00  0.00000000000E+00  0.39039185529E+00  0.40023871485E+04  0.40023871295E+04 0.  0.
        3    1    3    3  502    0 -0.82651781356E+03 -0.10214289415E+04 -0.15092175761E+04  0.20010463465E+04  0.10100000352E+00 0. -1.
       -3    1    3    3    0  502  0.82651781356E+03  0.10214289415E+04  0.15096079680E+04  0.20013408020E+04  0.10100000352E+00 0.  1.
</event>
<event>
 5   0  0.8329875E-09  0.4000969E+04  0.7818609E-02  0.8004351E-01
        1   -1    0    0  501    0  0.00000000000E+00  0.00000000000E+00  0.14518113202E+04  0.14518113203E+04  0.50400001928E-02 0. -1.
       -1   -1    0    0    0  501  0.00000000000E+00  0.00000000000E+00 -0.27565144414E+04  0.27565144414E+04  0.50400001928E-02 0.  1.
    10030    2    1    2    0    0  0.00000000000E+00  0.00000000000E+00 -0.13047031211E+04  0.42083257616E+04  0.40009693178E+04 0.  0.
        4    1    3    3  502    0  0.16561555614E+03  0.12069573294E+04 -0.23213330952E+04  0.26215955941E+04  0.12699999809E+01 0.  1.
       -4    1    3    3    0  502 -0.16561555614E+03 -0.12069573294E+04  0.10166299740E+04  0.15867301675E+04  0.12699999809E+01 0. -1.
</event>
<event>
 5   0  0.8329875E-09  0.3996791E+04  0.7818609E-02  0.8005194E-01
       -1   -1    0    0    0  501  0.00000000000E+00  0.00000000000E+00  0.19582261794E+04  0.19582261794E+04  0.50400001928E-02 0. -1.
        1   -1    0    0  501    0  0.00000000000E+00  0.00000000000E+00 -0.20393888694E+04  0.20393888694E+04  0.50400001928E-02 0.  1.
    10030    2    1    2    0    0  0.00000000000E+00  0.00000000000E+00 -0.81162690050E+02  0.39976150488E+04  0.39967910498E+04 0.  0.
        2    1    3    3  502    0 -0.13588281704E+04 -0.10858612656E+04  0.94353002946E+03  0.19788273298E+04  0.25500000920E-02 0. -1.
       -2    1    3    3    0  502  0.13588281704E+04  0.10858612656E+04 -0.10246927195E+04  0.20187877189E+04  0.25500000920E-02 0.  1.
</event>
<event>
 5   0  0.2746876E-08  0.3989282E+04  0.7818609E-02  0.8006712E-01
       -2   -1    0    0    0  501  0.00000000000E+00  0.00000000000E+00  0.22046755797E+04  0.22046755797E+04  0.25500000920E-02 0.  1.
        2   -1    0    0  501    0  0.00000000000E+00  0.00000000000E+00 -0.18046163580E+04  0.18046163580E+04  0.25500000920E-02 0. -1.
    10030    2    1    2    0    0  0.00000000000E+00  0.00000000000E+00  0.40005922175E+03  0.40092919377E+04  0.39892824494E+04 0.  0.
        1    1    3    3  502    0  0.11492593399E+04  0.16213397658E+04  0.37133675534E+03  0.20217395115E+04  0.50400001928E-02 0.  1.
       -1    1    3    3    0  502 -0.11492593399E+04 -0.16213397658E+04  0.28722466409E+02  0.19875524262E+04  0.50400001928E-02 0. -1.
</event>
<event>
 5   0  0.8329875E-09  0.4000290E+04  0.7818609E-02  0.8004488E-01
       -1   -1    0    0    0  501  0.00000000000E+00  0.00000000000E+00  0.28855246786E+04  0.28855246787E+04  0.50400001928E-02 0.  1.
        1   -1    0    0  501    0  0.00000000000E+00  0.00000000000E+00 -0.13864305124E+04  0.13864305124E+04  0.50400001928E-02 0. -1.
    10030    2    1    2    0    0  0.00000000000E+00  0.00000000000E+00  0.14990941662E+04  0.42719551911E+04  0.40002897190E+04 0.  0.
        3    1    3    3  502    0 -0.11058838031E+04  0.10889200154E+04  0.20969168966E+04  0.26087901923E+04  0.10100000352E+00 0.  1.
       -3    1    3    3    0  502  0.11058838031E+04 -0.10889200154E+04 -0.59782273042E+03  0.16631649988E+04  0.10100000352E+00 0. -1.
</event>
<event>
 5   0  0.2746876E-08  0.3994137E+04  0.7818609E-02  0.8005730E-01
        2   -1    0    0  501    0  0.00000000000E+00  0.00000000000E+00  0.17546329345E+04  0.17546329345E+04  0.25500000920E-02 0.  1.
       -2   -1    0    0    0  501  0.00000000000E+00  0.00000000000E+00 -0.22730014513E+04  0.22730014513E+04  0.25500000920E-02 0. -1.
    10030    2    1    2    0    0  0.00000000000E+00  0.00000000000E+00 -0.51836851679E+03  0.40276343858E+04  0.39941373069E+04 0.  0.
        1    1    3    3  502    0 -0.42118323275E+03 -0.62535470488E+03 -0.21239686876E+04  0.22538204917E+04  0.50400001928E-02 0. -1.
       -1    1    3    3    0  502  0.42118323275E+03  0.62535470488E+03  0.16056001709E+04  0.17738138942E+04  0.50400001928E-02 0.  1.
</event>
<event>
 5   0  0.2599332E-08  0.3998233E+04  0.7818609E-02  0.8004903E-01
       -2   -1    0    0    0  501  0.00000000000E+00  0.00000000000E+00  0.19435230769E+04  0.19435230769E+04  0.25500000920E-02 0. -1.
        2   -1    0    0  501    0  0.00000000000E+00  0.00000000000E+00 -0.20563005784E+04  0.20563005784E+04  0.25500000920E-02 0.  1.
    10030    2    1    2    0    0  0.00000000000E+00  0.00000000000E+00 -0.11277750156E+03  0.39998236553E+04  0.39982334235E+04 0.  0.
        2    1    3    3  502    0 -0.18401033031E+04 -0.68124449414E+03 -0.43915483408E+03  0.20107041541E+04  0.25500000920E-02 0.  1.
       -2    1    3    3    0  502  0.18401033031E+04  0.68124449414E+03  0.32637733252E+03  0.19891195012E+04  0.25500000920E-02 0. -1.
</event>
<event>
 5   0  0.2612363E-08  0.3994888E+04  0.7818609E-02  0.8005579E-01
       -2   -1    0    0    0  501  0.00000000000E+00  0.00000000000E+00  0.16000076191E+04  0.16000076191E+04  0.25500000920E-02 0.  1.
        2   -1    0    0  501    0  0.00000000000E+00  0.00000000000E+00 -0.24936016216E+04  0.24936016216E+04  0.25500000920E-02 0. -1.
    10030    2    1    2    0    0  0.00000000000E+00  0.00000000000E+00 -0.89359400244E+03  0.40936092407E+04  0.39948875296E+04 0.  0.
        4    1    3    3  502    0  0.85812042428E+03 -0.10585040513E+03 -0.22919061561E+04  0.24495735164E+04  0.12699999809E+01 0. -1.
       -4    1    3    3    0  502 -0.85812042428E+03  0.10585040513E+03  0.13983121537E+04  0.16440357243E+04  0.12699999809E+01 0.  1.
</event>
<event>
 5   0  0.8329875E-09  0.4015011E+04  0.7818609E-02  0.8001525E-01
       -1   -1    0    0    0  501  0.00000000000E+00  0.00000000000E+00  0.15317271741E+04  0.15317271741E+04  0.50400001928E-02 0. -1.
        1   -1    0    0  501    0  0.00000000000E+00  0.00000000000E+00 -0.26310674908E+04  0.26310674908E+04  0.50400001928E-02 0.  1.
    10030    2    1    2    0    0  0.00000000000E+00  0.00000000000E+00 -0.10993403167E+04  0.41627946650E+04  0.40150106215E+04 0.  0.
        4    1    3    3  502    0 -0.11162695264E+04  0.16341025766E+04 -0.20002282351E+03  0.19890599864E+04  0.12699999809E+01 0. -1.
       -4    1    3    3    0  502  0.11162695264E+04 -0.16341025766E+04 -0.89931749317E+03  0.21737346786E+04  0.12699999809E+01 0.  1.
</event>
<event>
 5   0  0.8329875E-09  0.4027076E+04  0.7818609E-02  0.7999107E-01
       -1   -1    0    0    0  501  0.00000000000E+00  0.00000000000E+00  0.18252289700E+04  0.18252289700E+04  0.50400001928E-02 0. -1.
        1   -1    0    0  501    0  0.00000000000E+00  0.00000000000E+00 -0.22212749102E+04  0.22212749102E+04  0.50400001928E-02 0.  1.
    10030    2    1    2    0    0  0.00000000000E+00  0.00000000000E+00 -0.39604594020E+03  0.40465038802E+04  0.40270760193E+04 0.  0.
        1    1    3    3  502    0 -0.31111658790E+03 -0.17860244320E+03  0.17928590832E+04  0.18283971276E+04  0.50400001928E-02 0. -1.
       -1    1    3    3    0  502  0.31111658790E+03  0.17860244320E+03 -0.21889050234E+04  0.22181067525E+04  0.50400001928E-02 0.  1.
</event>
<event>
 5   0  0.2612363E-08  0.4011882E+04  0.7818609E-02  0.8002154E-01
       -2   -1    0    0    0  501  0.00000000000E+00  0.00000000000E+00  0.16035033560E+04  0.16035033560E+04  0.25500000920E-02 0. -1.
        2   -1    0    0  501    0  0.00000000000E+00  0.00000000000E+00 -0.25093805522E+04  0.25093805522E+04  0.25500000920E-02 0.  1.
    10030    2    1    2    0    0  0.00000000000E+00  0.00000000000E+00 -0.90587719626E+03  0.41128839082E+04  0.40118824195E+04 0.  0.
        4    1    3    3  502    0  0.10640697925E+04 -0.32738704829E+03 -0.21635913568E+04  0.24332192616E+04  0.12699999809E+01 0.  1.
       -4    1    3    3    0  502 -0.10640697925E+04  0.32738704829E+03  0.12577141605E+04  0.16796646467E+04  0.12699999809E+01 0. -1.
</event>
<event>
 5   0  0.2587493E-08  0.3999866E+04  0.7818609E-02  0.8004574E-01
       -2   -1    0    0    0  501  0.00000000000E+00  0.00000000000E+00  0.15001727422E+04  0.15001727422E+04  0.25500000920E-02 0. -1.
        2   -1    0    0  501    0  0.00000000000E+00  0.00000000000E+00 -0.26661804338E+04  0.26661804338E+04  0.25500000920E-02 0.  1.
    10030    2    1    2    0    0  0.00000000000E+00  0.00000000000E+00 -0.11660076915E+04  0.41663531760E+04  0.39998656040E+04 0.  0.
        5    1    3    3  502    0 -0.18870815798E+03  0.50256765055E+03  0.14237163688E+04  0.15215700448E+04  0.46999998093E+01 0. -1.
       -5    1    3    3    0  502  0.18870815798E+03 -0.50256765055E+03 -0.25897240604E+04  0.26447831312E+04  0.46999998093E+01 0.  1.
</event>
<event>
 5   0  0.8329875E-09  0.3991348E+04  0.7818609E-02  0.8006294E-01
       -1   -1    0    0    0  501  0.00000000000E+00  0.00000000000E+00  0.15018878039E+04  0.15018878039E+04  0.50400001928E-02 0. -1.
        1   -1    0    0  501    0  0.00000000000E+00  0.00000000000E+00 -0.26518053635E+04  0.26518053635E+04  0.50400001928E-02 0.  1.
    10030    2    1    2    0    0  0.00000000000E+00  0.00000000000E+00 -0.11499175596E+04  0.41536931674E+04  0.39913477091E+04 0.  0.
        2    1    3    3  502    0  0.66633386258E+03 -0.99689497726E+03  0.10852067048E+04  0.16172427166E+04  0.25500000920E-02 0. -1.
       -2    1    3    3    0  502 -0.66633386258E+03  0.99689497726E+03 -0.22351242644E+04  0.25364504508E+04  0.25500000920E-02 0.  1.
</event>
<event>
 5   0  0.8329875E-09  0.3982390E+04  0.7818609E-02  0.8008109E-01
       -1   -1    0    0    0  501  0.00000000000E+00  0.00000000000E+00  0.13572169207E+04  0.13572169207E+04  0.50400001928E-02 0.  1.
        1   -1    0    0  501    0  0.00000000000E+00  0.00000000000E+00 -0.29213140034E+04  0.29213140034E+04  0.50400001928E-02 0. -1.
    10030    2    1    2    0    0  0.00000000000E+00  0.00000000000E+00 -0.15640970828E+04  0.42785309241E+04  0.39823896324E+04 0.  0.
        3    1    3    3  502    0  0.88004058776E+03 -0.38537203159E+03 -0.26558411393E+04  0.28242654277E+04  0.10100000352E+00 0. -1.
       -3    1    3    3    0  502 -0.88004058776E+03  0.38537203159E+03  0.10917440565E+04  0.14542654964E+04  0.10100000352E+00 0.  1.
</event>
<event>
 5   0  0.2599332E-08  0.3996973E+04  0.7818609E-02  0.8005157E-01
       -2   -1    0    0    0  501  0.00000000000E+00  0.00000000000E+00  0.15426217125E+04  0.15426217125E+04  0.25500000920E-02 0. -1.
        2   -1    0    0  501    0  0.00000000000E+00  0.00000000000E+00 -0.25890658496E+04  0.25890658496E+04  0.25500000920E-02 0.  1.
    10030    2    1    2    0    0  0.00000000000E+00  0.00000000000E+00 -0.10464441371E+04  0.41316875621E+04  0.39969734523E+04 0.  0.
        2    1    3    3  502    0  0.66413258469E+03 -0.19249005379E+02  0.14251130315E+04  0.15723834668E+04  0.25500000920E-02 0. -1.
       -2    1    3    3    0  502 -0.66413258469E+03  0.19249005379E+02 -0.24715571686E+04  0.25593040952E+04  0.25500000920E-02 0.  1.
</event>
<event>
 5   0  0.2612363E-08  0.4003150E+04  0.7818609E-02  0.8003911E-01
        2   -1    0    0  501    0  0.00000000000E+00  0.00000000000E+00  0.25585551061E+04  0.25585551061E+04  0.25500000920E-02 0. -1.
       -2   -1    0    0    0  501  0.00000000000E+00  0.00000000000E+00 -0.15658456778E+04  0.15658456778E+04  0.25500000920E-02 0.  1.
    10030    2    1    2    0    0  0.00000000000E+00  0.00000000000E+00  0.99270942827E+03  0.41244007840E+04  0.40031499869E+04 0.  0.
        4    1    3    3  502    0  0.14279183181E+04 -0.35704242155E+03 -0.90114801676E+03  0.17258329511E+04  0.12699999809E+01 0.  1.
       -4    1    3    3    0  502 -0.14279183181E+04  0.35704242155E+03  0.18938574450E+04  0.23985678329E+04  0.12699999809E+01 0. -1.
</event>
<event>
 5   0  0.8329875E-09  0.4000256E+04  0.7818609E-02  0.8004495E-01
       -1   -1    0    0    0  501  0.00000000000E+00  0.00000000000E+00  0.29780377630E+04  0.29780377630E+04  0.50400001928E-02 0.  1.
        1   -1    0    0  501    0  0.00000000000E+00  0.00000000000E+00 -0.13433382342E+04  0.13433382342E+04  0.50400001928E-02 0. -1.
    10030    2    1    2    0    0  0.00000000000E+00  0.00000000000E+00  0.16346995288E+04  0.43213759973E+04  0.40002559869E+04 0.  0.
        1    1    3    3  502    0 -0.18799085715E+04 -0.61392103093E+03  0.49406639569E+03  0.20383956615E+04  0.50400001928E-02 0.  1.
       -1    1    3    3    0  502  0.18799085715E+04  0.61392103093E+03  0.11406331331E+04  0.22829803358E+04  0.50400001928E-02 0. -1.
</event>
<event>
 5   0  0.8329875E-09  0.4017955E+04  0.7818609E-02  0.8000934E-01
       -1   -1    0    0    0  501  0.00000000000E+00  0.00000000000E+00  0.21150157903E+04  0.21150157903E+04  0.50400001928E-02 0.  1.
        1   -1    0    0  501    0  0.00000000000E+00  0.00000000000E+00 -0.19082551333E+04  0.19082551333E+04  0.50400001928E-02 0. -1.
    10030    2    1    2    0    0  0.00000000000E+00  0.00000000000E+00  0.20676065701E+03  0.40232709235E+04  0.40179545735E+04 0.  0.
        1    1    3    3  502    0 -0.14246077506E+03  0.18561239727E+04  0.85969320760E+03  0.20505032762E+04  0.50400001928E-02 0.  1.
       -1    1    3    3    0  502  0.14246077506E+03 -0.18561239727E+04 -0.65293255059E+03  0.19727676473E+04  0.50400001928E-02 0. -1.
</event>
<event>
 5   0  0.2650452E-08  0.4001352E+04  0.7818609E-02  0.8004274E-01
       -2   -1    0    0    0  501  0.00000000000E+00  0.00000000000E+00  0.16698778964E+04  0.16698778964E+04  0.25500000920E-02 0.  1.
        2   -1    0    0  501    0  0.00000000000E+00  0.00000000000E+00 -0.23970046025E+04  0.23970046025E+04  0.25500000920E-02 0. -1.
    10030    2    1    2    0    0  0.00000000000E+00  0.00000000000E+00 -0.72712670602E+03  0.40668824989E+04  0.40013522731E+04 0.  0.
        3    1    3    3  502    0  0.16768438762E+04 -0.97724238137E+03 -0.85720976768E+03  0.21217013582E+04  0.10100000352E+00 0. -1.
       -3    1    3    3    0  502 -0.16768438762E+04  0.97724238137E+03  0.13008306166E+03  0.19451811407E+04  0.10100000352E+00 0.  1.
</event>
<event>
 5   0  0.8329875E-09  0.4006457E+04  0.7818609E-02  0.8003245E-01
       -1   -1    0    0    0  501  0.00000000000E+00  0.00000000000E+00  0.27494711708E+04  0.27494711708E+04  0.50400001928E-02 0.  1.
        1   -1    0    0  501    0  0.00000000000E+00  0.00000000000E+00 -0.14595260807E+04  0.14595260807E+04  0.50400001928E-02 0. -1.
    10030    2    1    2    0    0  0.00000000000E+00  0.00000000000E+00  0.12899450901E+04  0.42089972515E+04  0.40064572290E+04 0.  0.
        4    1    3    3  502    0 -0.52277176899E+03 -0.17415802005E+04 -0.23807451799E+03  0.18338683176E+04  0.12699999809E+01 0. -1.
       -4    1    3    3    0  502  0.52277176899E+03  0.17415802005E+04  0.15280196081E+04  0.23751289339E+04  0.12699999809E+01 0.  1.
</event>
<event>
 5   0  0.8329875E-09  0.3997003E+04  0.7818609E-02  0.8005151E-01
        1   -1    0    0  501    0  0.00000000000E+00  0.00000000000E+00  0.14117251038E+04  0.14117251038E+04  0.50400001928E-02 0. -1.
       -1   -1    0    0    0  501  0.00000000000E+00  0.00000000000E+00 -0.28291690558E+04  0.28291690558E+04  0.50400001928E-02 0.  1.
    10030    2    1    2    0    0  0.00000000000E+00  0.00000000000E+00 -0.14174439520E+04  0.42408941596E+04  0.39970033670E+04 0.  0.
        3    1    3    3  502    0 -0.95173669105E+03 -0.15790276297E+04 -0.15270677953E+04  0.23939647128E+04  0.10100000352E+00 0.  1.
       -3    1    3    3    0  502  0.95173669105E+03  0.15790276297E+04  0.10962384337E+03  0.18469294468E+04  0.10100000352E+00 0. -1.
</event>
<event>
 5   0  0.8329875E-09  0.4032782E+04  0.7818609E-02  0.7997966E-01
       -1   -1    0    0    0  501  0.00000000000E+00  0.00000000000E+00  0.19105160895E+04  0.19105160895E+04  0.50400001928E-02 0.  1.
        1   -1    0    0  501    0  0.00000000000E+00  0.00000000000E+00 -0.21281336649E+04  0.21281336650E+04  0.50400001928E-02 0. -1.
    10030    2    1    2    0    0  0.00000000000E+00  0.00000000000E+00 -0.21761757541E+03  0.40386497545E+04  0.40327824675E+04 0.  0.
        1    1    3    3  502    0  0.10198675403E+04 -0.17388450770E+04 -0.62680879056E+02  0.20168393328E+04  0.50400001928E-02 0.  1.
       -1    1    3    3    0  502 -0.10198675403E+04  0.17388450770E+04 -0.15493669635E+03  0.20218104217E+04  0.50400001928E-02 0. -1.
</event>
<event>
 5   0  0.8329875E-09  0.3999934E+04  0.7818609E-02  0.8004560E-01
        1   -1    0    0  501    0  0.00000000000E+00  0.00000000000E+00  0.19885343658E+04  0.19885343658E+04  0.50400001928E-02 0. -1.
       -1   -1    0    0    0  501  0.00000000000E+00  0.00000000000E+00 -0.20114655352E+04  0.20114655352E+04  0.50400001928E-02 0.  1.
    10030    2    1    2    0    0  0.00000000000E+00  0.00000000000E+00 -0.22931169432E+02  0.39999999010E+04  0.39999341706E+04 0.  0.
        3    1    3    3  502    0  0.43086435769E+03 -0.17947473438E+04  0.75868096129E+03  0.19955848602E+04  0.10100000352E+00 0. -1.
       -3    1    3    3    0  502 -0.43086435769E+03  0.17947473438E+04 -0.78161213073E+03  0.20044150408E+04  0.10100000352E+00 0.  1.
</event>
<event>
 5   0  0.2587493E-08  0.4003068E+04  0.7818609E-02  0.8003928E-01
        2   -1    0    0  501    0  0.00000000000E+00  0.00000000000E+00  0.28921255438E+04  0.28921255438E+04  0.25500000920E-02 0.  1.
       -2   -1    0    0    0  501  0.00000000000E+00  0.00000000000E+00 -0.13851879157E+04  0.13851879157E+04  0.25500000920E-02 0. -1.
    10030    2    1    2    0    0  0.00000000000E+00  0.00000000000E+00  0.15069376281E+04  0.42773134596E+04  0.40030675008E+04 0.  0.
        5    1    3    3  502    0 -0.93683842408E+03 -0.17677357799E+04  0.81721541553E+03  0.21611152550E+04  0.46999998093E+01 0.  1.
       -5    1    3    3    0  502  0.93683842408E+03  0.17677357799E+04  0.68972221261E+03  0.21161982045E+04  0.46999998093E+01 0. -1.
</event>
<event>
 5   0  0.8329875E-09  0.3996924E+04  0.7818609E-02  0.8005167E-01
        1   -1    0    0  501    0  0.00000000000E+00  0.00000000000E+00  0.14171453046E+04  0.14171453046E+04  0.50400001928E-02 0.  1.
       -1   -1    0    0    0  501  0.00000000000E+00  0.00000000000E+00 -0.28182360324E+04  0.28182360324E+04  0.50400001928E-02 0. -1.
    10030    2    1    2    0    0  0.00000000000E+00  0.00000000000E+00 -0.14010907277E+04  0.42353813370E+04  0.39969237974E+04 0.  0.
        4    1    3    3  502    0 -0.18504846532E+04 -0.45668944805E+02 -0.14987933180E+04  0.23817561016E+04  0.12699999809E+01 0. -1.
       -4    1    3    3    0  502  0.18504846532E+04  0.45668944805E+02  0.97702590283E+02  0.18536252354E+04  0.12699999809E+01 0.  1.
</event>
<event>
 5   0  0.8329875E-09  0.4006363E+04  0.7818609E-02  0.8003264E-01
       -1   -1    0    0    0  501  0.00000000000E+00  0.00000000000E+00  0.29631891719E+04  0.29631891719E+04  0.50400001928E-02 0.  1.
        1   -1    0    0  501    0  0.00000000000E+00  0.00000000000E+00 -0.13541950838E+04  0.13541950839E+04  0.50400001928E-02 0. -1.
    10030    2    1    2    0    0  0.00000000000E+00  0.00000000000E+00  0.16089940880E+04  0.43173842557E+04  0.40063630435E+04 0.  0.
        1    1    3    3  502    0 -0.52188604237E+03  0.59837235224E+03  0.27863793395E+04  0.28972960389E+04  0.50400001928E-02 0.  1.
       -1    1    3    3    0  502  0.52188604237E+03 -0.59837235224E+03 -0.11773852515E+04  0.14200882168E+04  0.50400001928E-02 0. -1.
</event>
<event>
 5   0  0.8329875E-09  0.3997687E+04  0.7818609E-02  0.8005013E-01
        1   -1    0    0  501    0  0.00000000000E+00  0.00000000000E+00  0.13000495867E+04  0.13000495867E+04  0.50400001928E-02 0.  1.
       -1   -1    0    0    0  501  0.00000000000E+00  0.00000000000E+00 -0.30732484004E+04  0.30732484004E+04  0.50400001928E-02 0. -1.
    10030    2    1    2    0    0  0.00000000000E+00  0.00000000000E+00 -0.17731988137E+04  0.43732979871E+04  0.39976869876E+04 0.  0.
        3    1    3    3  502    0  0.13465593894E+04 -0.12713074349E+04 -0.17095653084E+04  0.25203290136E+04  0.10100000352E+00 0.  1.
       -3    1    3    3    0  502 -0.13465593894E+04  0.12713074349E+04 -0.63633505340E+02  0.18529689734E+04  0.10100000352E+00 0. -1.
</event>
<event>
 5   0  0.2587493E-08  0.3989020E+04  0.7818609E-02  0.8006765E-01
       -2   -1    0    0    0  501  0.00000000000E+00  0.00000000000E+00  0.19019735300E+04  0.19019735300E+04  0.25500000920E-02 0.  1.
        2   -1    0    0  501    0  0.00000000000E+00  0.00000000000E+00 -0.20915487674E+04  0.20915487674E+04  0.25500000920E-02 0. -1.
    10030    2    1    2    0    0  0.00000000000E+00  0.00000000000E+00 -0.18957523736E+03  0.39935222974E+04  0.39890201265E+04 0.  0.
        5    1    3    3  502    0  0.14831522492E+04  0.47210996529E+03 -0.13433599598E+04  0.20560317325E+04  0.46999998093E+01 0. -1.
       -5    1    3    3    0  502 -0.14831522492E+04 -0.47210996529E+03  0.11537847224E+04  0.19374905649E+04  0.46999998093E+01 0.  1.
</event>
<event>
 5   0  0.2612363E-08  0.3998772E+04  0.7818609E-02  0.8004794E-01
        2   -1    0    0  501    0  0.00000000000E+00  0.00000000000E+00  0.25841111296E+04  0.25841111296E+04  0.25500000920E-02 0.  1.
       -2   -1    0    0    0  501  0.00000000000E+00  0.00000000000E+00 -0.15469706777E+04  0.15469706777E+04  0.25500000920E-02 0. -1.
    10030    2    1    2    0    0  0.00000000000E+00  0.00000000000E+00  0.10371404519E+04  0.41310818073E+04  0.39987718841E+04 0.  0.
        4    1    3    3  502    0 -0.10082829530E+04 -0.20210302390E+02  0.23021054739E+04  0.25133114004E+04  0.12699999809E+01 0.  1.
       -4    1    3    3    0  502  0.10082829530E+04  0.20210302390E+02 -0.12649650220E+04  0.16177704069E+04  0.12699999809E+01 0. -1.
</event>
<event>
 5   0  0.8329875E-09  0.3994617E+04  0.7818609E-02  0.8005633E-01
        3   -1    0    0  501    0  0.00000000000E+00  0.00000000000E+00  0.27139879151E+04  0.27139879170E+04  0.10100000352E+00 0.  1.
       -3   -1    0    0    0  501  0.00000000000E+00  0.00000000000E+00 -0.14698814987E+04  0.14698815022E+04  0.10100000352E+00 0. -1.
    10030    2    1    2    0    0  0.00000000000E+00  0.00000000000E+00  0.12441064164E+04  0.41838694192E+04  0.39946166952E+04 0.  0.
        4    1    3    3  502    0 -0.13811535951E+04 -0.13788919897E+04  0.17730552103E+03  0.19596854934E+04  0.12699999809E+01 0. -1.
       -4    1    3    3    0  502  0.13811535951E+04  0.13788919897E+04  0.10668008953E+04  0.22241839258E+04  0.12699999809E+01 0.  1.
</event>
<event>
 5   0  0.2612363E-08  0.3998975E+04  0.7818609E-02  0.8004753E-01
       -2   -1    0    0    0  501  0.00000000000E+00  0.00000000000E+00  0.34191659637E+04  0.34191659637E+04  0.25500000920E-02 0. -1.
        2   -1    0    0  501    0  0.00000000000E+00  0.00000000000E+00 -0.11692766030E+04  0.11692766030E+04  0.25500000920E-02 0.  1.
    10030    2    1    2    0    0  0.00000000000E+00  0.00000000000E+00  0.22498893607E+04  0.45884425667E+04  0.39989752503E+04 0.  0.
        4    1    3    3  502    0 -0.14831037869E+04  0.11517679582E+04  0.33683316820E+03  0.19077799843E+04  0.12699999809E+01 0.  1.
       -4    1    3    3    0  502  0.14831037869E+04 -0.11517679582E+04  0.19130561925E+04  0.26806625824E+04  0.12699999809E+01 0. -1.
</event>
<event>
 5   0  0.8329875E-09  0.4003083E+04  0.7818609E-02  0.8003925E-01
       -1   -1    0    0    0  501  0.00000000000E+00  0.00000000000E+00  0.24821325981E+04  0.24821325981E+04  0.50400001928E-02 0.  1.
        1   -1    0    0  501    0  0.00000000000E+00  0.00000000000E+00 -0.16140025735E+04  0.16140025735E+04  0.50400001928E-02 0. -1.
    10030    2    1    2    0    0  0.00000000000E+00  0.00000000000E+00  0.86813002464E+03  0.40961351716E+04  0.40030830124E+04 0.  0.
        5    1    3    3  502    0 -0.11879898498E+03  0.88776312729E+02 -0.16083670829E+04  0.16151969526E+04  0.46999998093E+01 0. -1.
       -5    1    3    3    0  502  0.11879898498E+03 -0.88776312729E+02  0.24764971075E+04  0.24809382189E+04  0.46999998093E+01 0.  1.
</event>
<event>
 5   0  0.2599332E-08  0.3991734E+04  0.7818609E-02  0.8006216E-01
       -2   -1    0    0    0  501  0.00000000000E+00  0.00000000000E+00  0.19762460898E+04  0.19762460898E+04  0.25500000920E-02 0. -1.
        2   -1    0    0  501    0  0.00000000000E+00  0.00000000000E+00 -0.20156823891E+04  0.20156823891E+04  0.25500000920E-02 0.  1.
    10030    2    1    2    0    0  0.00000000000E+00  0.00000000000E+00 -0.39436299292E+02  0.39919284790E+04  0.39917336784E+04 0.  0.
        2    1    3    3  502    0 -0.60891770399E+03 -0.33847721646E+03 -0.18901401012E+04  0.20144421557E+04  0.25500000920E-02 0.  1.
       -2    1    3    3    0  502  0.60891770399E+03  0.33847721646E+03  0.18507038019E+04  0.19774863233E+04  0.25500000920E-02 0. -1.
</event>
<event>
 5   0  0.2746876E-08  0.3992219E+04  0.7818609E-02  0.8006118E-01
        2   -1    0    0  501    0  0.00000000000E+00  0.00000000000E+00  0.15448283567E+04  0.15448283567E+04  0.25500000920E-02 0. -1.
       -2   -1    0    0    0  501  0.00000000000E+00  0.00000000000E+00 -0.25792212195E+04  0.25792212195E+04  0.25500000920E-02 0.  1.
    10030    2    1    2    0    0  0.00000000000E+00  0.00000000000E+00 -0.10343928629E+04  0.41240495762E+04  0.39922194719E+04 0.  0.
        1    1    3    3  502    0 -0.10701565625E+04  0.16849946965E+04 -0.51363549642E+03  0.20611316355E+04  0.50400001928E-02 0. -1.
       -1    1    3    3    0  502  0.10701565625E+04 -0.16849946965E+04 -0.52075736646E+03  0.20629179407E+04  0.50400001928E-02 0.  1.
</event>
<event>
 5   0  0.8329875E-09  0.3987420E+04  0.7818609E-02  0.8007089E-01
       -1   -1    0    0    0  501  0.00000000000E+00  0.00000000000E+00  0.15140778439E+04  0.15140778439E+04  0.50400001928E-02 0.  1.
        1   -1    0    0  501    0  0.00000000000E+00  0.00000000000E+00 -0.26252803122E+04  0.26252803122E+04  0.50400001928E-02 0. -1.
    10030    2    1    2    0    0  0.00000000000E+00  0.00000000000E+00 -0.11112024683E+04  0.41393581561E+04  0.39874195941E+04 0.  0.
        4    1    3    3  502    0 -0.25356194626E+03 -0.18931659371E+04  0.37579166976E+02  0.19104409786E+04  0.12699999809E+01 0.  1.
       -4    1    3    3    0  502  0.25356194626E+03  0.18931659371E+04 -0.11487816352E+04  0.22289171775E+04  0.12699999809E+01 0. -1.
</event>
<event>
 5   0  0.2746876E-08  0.4097175E+04  0.7818609E-02  0.7985225E-01
        2   -1    0    0  501    0  0.00000000000E+00  0.00000000000E+00  0.17242412815E+04  0.17242412815E+04  0.25500000920E-02 0. -1.
       -2   -1    0    0    0  501  0.00000000000E+00  0.00000000000E+00 -0.24339463865E+04  0.24339463865E+04  0.25500000920E-02 0.  1.
    10030    2    1    2    0    0  0.00000000000E+00  0.00000000000E+00 -0.70970510497E+03  0.41581876680E+04  0.40971750446E+04 0.  0.
        1    1    3    3  502    0 -0.76679570802E+03 -0.33403823741E+03 -0.22527682735E+04  0.24030235321E+04  0.50400001928E-02 0.  1.
       -1    1    3    3    0  502  0.76679570802E+03  0.33403823741E+03  0.15430631685E+04  0.17551641359E+04  0.50400001928E-02 0. -1.
</event>
<event>
 5   0  0.8329875E-09  0.4021385E+04  0.7818609E-02  0.8000246E-01
       -1   -1    0    0    0  501  0.00000000000E+00  0.00000000000E+00  0.25455486388E+04  0.25455486388E+04  0.50400001928E-02 0.  1.
        1   -1    0    0  501    0  0.00000000000E+00  0.00000000000E+00 -0.15882176612E+04  0.15882176612E+04  0.50400001928E-02 0. -1.
    10030    2    1    2    0    0  0.00000000000E+00  0.00000000000E+00  0.95733097763E+03  0.41337663001E+04  0.40213854855E+04 0.  0.
        2    1    3    3  502    0 -0.11428554631E+04 -0.12259141931E+04 -0.66318801210E+03  0.18024434964E+04  0.25500000920E-02 0. -1.
       -2    1    3    3    0  502  0.11428554631E+04  0.12259141931E+04  0.16205189897E+04  0.23313228036E+04  0.25500000920E-02 0.  1.
</event>
<event>
 5   0  0.2612363E-08  0.4002323E+04  0.7818609E-02  0.8004078E-01
       -2   -1    0    0    0  501  0.00000000000E+00  0.00000000000E+00  0.27782712602E+04  0.27782712602E+04  0.25500000920E-02 0. -1.
        2   -1    0    0  501    0  0.00000000000E+00  0.00000000000E+00 -0.14414172424E+04  0.14414172424E+04  0.25500000920E-02 0.  1.
    10030    2    1    2    0    0  0.00000000000E+00  0.00000000000E+00  0.13368540179E+04  0.42196885026E+04  0.40023233745E+04 0.  0.
        4    1    3    3  502    0 -0.11016679468E+04  0.14456266318E+04 -0.21438844559E+03  0.18301564528E+04  0.12699999809E+01 0. -1.
       -4    1    3    3    0  502  0.11016679468E+04 -0.14456266318E+04  0.15512424635E+04  0.23895320497E+04  0.12699999809E+01 0.  1.
</event>
<event>
 5   0  0.2650452E-08  0.3997735E+04  0.7818609E-02  0.8005004E-01
       -2   -1    0    0    0  501  0.00000000000E+00  0.00000000000E+00  0.22900042130E+04  0.22900042130E+04  0.25500000920E-02 0.  1.
        2   -1    0    0  501    0  0.00000000000E+00  0.00000000000E+00 -0.17447444476E+04  0.17447444476E+04  0.25500000920E-02 0. -1.
    10030    2    1    2    0    0  0.00000000000E+00  0.00000000000E+00  0.54525976532E+03  0.40347486606E+04  0.39977354268E+04 0.  0.
        3    1    3    3  502    0  0.13568360410E+04 -0.14313334318E+04  0.60083711700E+03  0.20617285676E+04  0.10100000352E+00 0.  1.
       -3    1    3    3    0  502 -0.13568360410E+04  0.14313334318E+04 -0.55577351684E+02  0.19730200930E+04  0.10100000352E+00 0. -1.
</event>
<event>
 5   0  0.8329875E-09  0.3993423E+04  0.7818609E-02  0.8005875E-01
        1   -1    0    0  501    0  0.00000000000E+00  0.00000000000E+00  0.25868393646E+04  0.25868393646E+04  0.50400001928E-02 0. -1.
       -1   -1    0    0    0  501  0.00000000000E+00  0.00000000000E+00 -0.15412077076E+04  0.15412077076E+04  0.50400001928E-02 0.  1.
    10030    2    1    2    0    0  0.00000000000E+00  0.00000000000E+00  0.10456316569E+04  0.41280470722E+04  0.39934229764E+04 0.  0.
        2    1    3    3  502    0 -0.15748296207E+03 -0.18267926646E+04 -0.29432928017E+03  0.18570412079E+04  0.25500000920E-02 0.  1.
       -2    1    3    3    0  502  0.15748296207E+03  0.18267926646E+04  0.13399609371E+04  0.22710058643E+04  0.25500000920E-02 0. -1.
</event>
<event>
 5   0  0.8329875E-09  0.4023945E+04  0.7818609E-02  0.7999733E-01
       -1   -1    0    0    0  501  0.00000000000E+00  0.00000000000E+00  0.13612398265E+04  0.13612398265E+04  0.50400001928E-02 0.  1.
        1   -1    0    0  501    0  0.00000000000E+00  0.00000000000E+00 -0.29737840359E+04  0.29737840359E+04  0.50400001928E-02 0. -1.
    10030    2    1    2    0    0  0.00000000000E+00  0.00000000000E+00 -0.16125442094E+04  0.43350238624E+04  0.40239449623E+04 0.  0.
        4    1    3    3  502    0 -0.19905857210E+04 -0.18928952524E+03 -0.56593457014E+03  0.20781110624E+04  0.12699999809E+01 0. -1.
       -4    1    3    3    0  502  0.19905857210E+04  0.18928952524E+03 -0.10466096393E+04  0.22569128000E+04  0.12699999809E+01 0.  1.
</event>
<event>
 5   0  0.8329875E-09  0.4000061E+04  0.7818609E-02  0.8004534E-01
       -1   -1    0    0    0  501  0.00000000000E+00  0.00000000000E+00  0.30551641557E+04  0.30551641557E+04  0.50400001928E-02 0. -1.
        1   -1    0    0  501    0  0.00000000000E+00  0.00000000000E+00 -0.13092985914E+04  0.13092985914E+04  0.50400001928E-02 0.  1.
    10030    2    1    2    0    0  0.00000000000E+00  0.00000000000E+00  0.17458655643E+04  0.43644627471E+04  0.40000610623E+04 0.  0.
        5    1    3    3  502    0  0.10115015405E+04  0.16181759777E+04  0.15262006380E+04  0.24435505599E+04  0.46999998093E+01 0.  1.
       -5    1    3    3    0  502 -0.10115015405E+04 -0.16181759777E+04  0.21966492627E+03  0.19209121872E+04  0.46999998093E+01 0. -1.
</event>
<event>
 5   0  0.8329875E-09  0.4002788E+04  0.7818609E-02  0.8003984E-01
        1   -1    0    0  501    0  0.00000000000E+00  0.00000000000E+00  0.20640485910E+04  0.20640485910E+04  0.50400001928E-02 0.  1.
       -1   -1    0    0    0  501  0.00000000000E+00  0.00000000000E+00 -0.19406411033E+04  0.19406411033E+04  0.50400001928E-02 0. -1.
    10030    2    1    2    0    0  0.00000000000E+00  0.00000000000E+00  0.12340748772E+03  0.40046896943E+04  0.40027877960E+04 0.  0.
        3    1    3    3  502    0  0.48745450633E+03 -0.40277692572E+03  0.19614836456E+04  0.20608879760E+04  0.10100000352E+00 0.  1.
       -3    1    3    3    0  502 -0.48745450633E+03  0.40277692572E+03 -0.18380761579E+04  0.19438017183E+04  0.10100000352E+00 0. -1.
</event>
<event>
 5   0  0.2746876E-08  0.4007543E+04  0.7818609E-02  0.8003027E-01
        2   -1    0    0  501    0  0.00000000000E+00  0.00000000000E+00  0.17919289247E+04  0.17919289247E+04  0.25500000920E-02 0. -1.
       -2   -1    0    0    0  501  0.00000000000E+00  0.00000000000E+00 -0.22406581568E+04  0.22406581568E+04  0.25500000920E-02 0.  1.
    10030    2    1    2    0    0  0.00000000000E+00  0.00000000000E+00 -0.44872923212E+03  0.40325870815E+04  0.40075429688E+04 0.  0.
        1    1    3    3  502    0  0.17899826092E+04  0.29221762090E+03 -0.10815515359E+04  0.21116776752E+04  0.50400001928E-02 0.  1.
       -1    1    3    3    0  502 -0.17899826092E+04 -0.29221762090E+03  0.63282230376E+03  0.19209094063E+04  0.50400001928E-02 0. -1.
</event>
<event>
 5   0  0.2587493E-08  0.3996061E+04  0.7818609E-02  0.8005342E-01
       -2   -1    0    0    0  501  0.00000000000E+00  0.00000000000E+00  0.27310403244E+04  0.27310403244E+04  0.25500000920E-02 0. -1.
        2   -1    0    0  501    0  0.00000000000E+00  0.00000000000E+00 -0.14617598914E+04  0.14617598914E+04  0.25500000920E-02 0.  1.
    10030    2    1    2    0    0  0.00000000000E+00  0.00000000000E+00  0.12692804331E+04  0.41928002158E+04  0.39960606642E+04 0.  0.
        5    1    3    3  502    0  0.11753202666E+04 -0.11493230648E+04 -0.55695906399E+03  0.17356689562E+04  0.46999998093E+01 0. -1.
       -5    1    3    3    0  502 -0.11753202666E+04  0.11493230648E+04  0.18262394971E+04  0.24571312596E+04  0.46999998093E+01 0.  1.
</event>
<event>
 5   0  0.2599332E-08  0.4001717E+04  0.7818609E-02  0.8004200E-01
       -2   -1    0    0    0  501  0.00000000000E+00  0.00000000000E+00  0.19376076061E+04  0.19376076061E+04  0.25500000920E-02 0. -1.
        2   -1    0    0  501    0  0.00000000000E+00  0.00000000000E+00 -0.20661739326E+04  0.20661739326E+04  0.25500000920E-02 0.  1.
    10030    2    1    2    0    0  0.00000000000E+00  0.00000000000E+00 -0.12856632652E+03  0.40037815387E+04  0.40017167952E+04 0.  0.
        2    1    3    3  502    0 -0.38044588086E+03  0.17769997245E+04  0.77338668406E+03  0.19749921651E+04  0.25500000920E-02 0. -1.
       -2    1    3    3    0  502  0.38044588086E+03 -0.17769997245E+04 -0.90195301058E+03  0.20287893736E+04  0.25500000920E-02 0.  1.
</event>
<event>
 5   0  0.8329875E-09  0.4004224E+04  0.7818609E-02  0.8003695E-01
        1   -1    0    0  501    0  0.00000000000E+00  0.00000000000E+00  0.21433104095E+04  0.21433104095E+04  0.50400001928E-02 0.  1.
       -1   -1    0    0    0  501  0.00000000000E+00  0.00000000000E+00 -0.18702160087E+04  0.18702160087E+04  0.50400001928E-02 0. -1.
    10030    2    1    2    0    0  0.00000000000E+00  0.00000000000E+00  0.27309440079E+03  0.40135264182E+04  0.40042244889E+04 0.  0.
        3    1    3    3  502    0 -0.50121706135E+03  0.18843534505E+04 -0.31887264844E+03  0.19757748468E+04  0.10100000352E+00 0. -1.
       -3    1    3    3    0  502  0.50121706135E+03 -0.18843534505E+04  0.59196704923E+03  0.20377515714E+04  0.10100000352E+00 0.  1.
</event>
<event>
 5   0  0.2599332E-08  0.3975562E+04  0.7818609E-02  0.8009495E-01
       -2   -1    0    0    0  501  0.00000000000E+00  0.00000000000E+00  0.15135375742E+04  0.15135375742E+04  0.25500000920E-02 0.  1.
        2   -1    0    0  501    0  0.00000000000E+00  0.00000000000E+00 -0.26106218669E+04  0.26106218669E+04  0.25500000920E-02 0. -1.
    10030    2    1    2    0    0  0.00000000000E+00  0.00000000000E+00 -0.10970842926E+04  0.41241594411E+04  0.39755624948E+04 0.  0.
        2    1    3    3  502    0  0.17348671011E+04 -0.58590844975E+03  0.25381541512E+03  0.18486413484E+04  0.25500000920E-02 0.  1.
       -2    1    3    3    0  502 -0.17348671011E+04  0.58590844975E+03 -0.13508997078E+04  0.22755180927E+04  0.25500000920E-02 0. -1.
</event>
<event>
 5   0  0.8329875E-09  0.4000997E+04  0.7818609E-02  0.8004346E-01
        1   -1    0    0  501    0  0.00000000000E+00  0.00000000000E+00  0.13816719864E+04  0.13816719864E+04  0.50400001928E-02 0.  1.
       -1   -1    0    0    0  501  0.00000000000E+00  0.00000000000E+00 -0.28964860760E+04  0.28964860760E+04  0.50400001928E-02 0. -1.
    10030    2    1    2    0    0  0.00000000000E+00  0.00000000000E+00 -0.15148140896E+04  0.42781580625E+04  0.40009967110E+04 0.  0.
        1    1    3    3  502    0  0.37954541021E+03  0.14684511828E+04 -0.21522204215E+04  0.26329558176E+04  0.50400001928E-02 0. -1.
       -1    1    3    3    0  502 -0.37954541021E+03 -0.14684511828E+04  0.63740633191E+03  0.16452022449E+04  0.50400001928E-02 0.  1.
</event>
<event>
 5   0  0.8329875E-09  0.3993097E+04  0.7818609E-02  0.8005941E-01
       -3   -1    0    0    0  501  0.00000000000E+00  0.00000000000E+00  0.16246710049E+04  0.16246710080E+04  0.10100000352E+00 0. -1.
        3   -1    0    0  501    0  0.00000000000E+00  0.00000000000E+00 -0.24535459503E+04  0.24535459523E+04  0.10100000352E+00 0.  1.
    10030    2    1    2    0    0  0.00000000000E+00  0.00000000000E+00 -0.82887494537E+03  0.40782169604E+04  0.39930965304E+04 0.  0.
        1    1    3    3  502    0  0.11422503440E+04  0.12840207125E+04 -0.14523486967E+04  0.22500581715E+04  0.50400001928E-02 0.  1.
       -1    1    3    3    0  502 -0.11422503440E+04 -0.12840207125E+04  0.62347375134E+03  0.18281587888E+04  0.50400001928E-02 0. -1.
</event>
<event>
 5   0  0.2612363E-08  0.4006854E+04  0.7818609E-02  0.8003165E-01
        2   -1    0    0  501    0  0.00000000000E+00  0.00000000000E+00  0.15565017647E+04  0.15565017647E+04  0.25500000920E-02 0. -1.
       -2   -1    0    0    0  501  0.00000000000E+00  0.00000000000E+00 -0.25786793750E+04  0.25786793750E+04  0.25500000920E-02 0.  1.
    10030    2    1    2    0    0  0.00000000000E+00  0.00000000000E+00 -0.10221776103E+04  0.41351811396E+04  0.40068536273E+04 0.  0.
        4    1    3    3  502    0  0.27849670697E+03  0.19548266360E+04 -0.16140096862E+03  0.19811510488E+04  0.12699999809E+01 0. -1.
       -4    1    3    3    0  502 -0.27849670697E+03 -0.19548266360E+04 -0.86077664168E+03  0.21540300908E+04  0.12699999809E+01 0.  1.
</event>
<event>
 5   0  0.8329875E-09  0.3997862E+04  0.7818609E-02  0.8004978E-01
        1   -1    0    0  501    0  0.00000000000E+00  0.00000000000E+00  0.25076927384E+04  0.25076927384E+04  0.50400001928E-02 0. -1.
       -1   -1    0    0    0  501  0.00000000000E+00  0.00000000000E+00 -0.15933874286E+04  0.15933874286E+04  0.50400001928E-02 0.  1.
    10030    2    1    2    0    0  0.00000000000E+00  0.00000000000E+00  0.91430530978E+03  0.41010801670E+04  0.39978624710E+04 0.  0.
        3    1    3    3  502    0  0.16245161810E+04 -0.32487603882E+03  0.16045700284E+04  0.23063482498E+04  0.10100000352E+00 0.  1.
       -3    1    3    3    0  502 -0.16245161810E+04  0.32487603882E+03 -0.69026471864E+03  0.17947319173E+04  0.10100000352E+00 0. -1.
</event>
<event>
 5   0  0.8329875E-09  0.4004964E+04  0.7818609E-02  0.8003546E-01
       -1   -1    0    0    0  501  0.00000000000E+00  0.00000000000E+00  0.32729568221E+04  0.32729568221E+04  0.50400001928E-02 0. -1.
        1   -1    0    0  501    0  0.00000000000E+00  0.00000000000E+00 -0.12251718565E+04  0.12251718565E+04  0.50400001928E-02 0.  1.
    10030    2    1    2    0    0  0.00000000000E+00  0.00000000000E+00  0.20477849656E+04  0.44981286786E+04  0.40049642125E+04 0.  0.
        1    1    3    3  502    0 -0.81576205871E+03 -0.12345507090E+04 -0.49145018225E+03  0.15592005872E+04  0.50400001928E-02 0.  1.
       -1    1    3    3    0  502  0.81576205871E+03  0.12345507090E+04  0.25392351479E+04  0.29389280913E+04  0.50400001928E-02 0. -1.
</event>
<event>
 5   0  0.8329875E-09  0.4004664E+04  0.7818609E-02  0.8003606E-01
       -1   -1    0    0    0  501  0.00000000000E+00  0.00000000000E+00  0.19546423539E+04  0.19546423539E+04  0.50400001928E-02 0. -1.
        1   -1    0    0  501    0  0.00000000000E+00  0.00000000000E+00 -0.20511852559E+04  0.20511852559E+04  0.50400001928E-02 0.  1.
    10030    2    1    2    0    0  0.00000000000E+00  0.00000000000E+00 -0.96542902057E+02  0.40058276098E+04  0.40046640693E+04 0.  0.
        2    1    3    3  502    0 -0.13221994611E+03  0.12763978994E+04 -0.15858126664E+04  0.20399694911E+04  0.25500000920E-02 0.  1.
       -2    1    3    3    0  502  0.13221994611E+03 -0.12763978994E+04  0.14892697644E+04  0.19658581187E+04  0.25500000920E-02 0. -1.
</event>
<event>
 5   0  0.8329875E-09  0.4058111E+04  0.7818609E-02  0.7992925E-01
       -1   -1    0    0    0  501  0.00000000000E+00  0.00000000000E+00  0.13527854933E+04  0.13527854933E+04  0.50400001928E-02 0.  1.
        1   -1    0    0  501    0  0.00000000000E+00  0.00000000000E+00 -0.30433992969E+04  0.30433992969E+04  0.50400001928E-02 0. -1.
    10030    2    1    2    0    0  0.00000000000E+00  0.00000000000E+00 -0.16906138036E+04  0.43961847902E+04  0.40581110972E+04 0.  0.
        4    1    3    3  502    0  0.19177060047E+04  0.30127420310E+02 -0.15627160730E+04  0.24739820370E+04  0.12699999809E+01 0. -1.
       -4    1    3    3    0  502 -0.19177060047E+04 -0.30127420310E+02 -0.12789773058E+03  0.19222027532E+04  0.12699999809E+01 0.  1.
</event>
<event>
 5   0  0.2746876E-08  0.3995534E+04  0.7818609E-02  0.8005448E-01
       -2   -1    0    0    0  501  0.00000000000E+00  0.00000000000E+00  0.23194002640E+04  0.23194002641E+04  0.25500000920E-02 0.  1.
        2   -1    0    0  501    0  0.00000000000E+00  0.00000000000E+00 -0.17207349613E+04  0.17207349613E+04  0.25500000920E-02 0. -1.
    10030    2    1    2    0    0  0.00000000000E+00  0.00000000000E+00  0.59866530279E+03  0.40401352253E+04  0.39955340687E+04 0.  0.
        1    1    3    3  502    0 -0.47601255382E+03 -0.31923336339E+03 -0.16358160389E+04  0.17333182065E+04  0.50400001928E-02 0. -1.
       -1    1    3    3    0  502  0.47601255382E+03  0.31923336339E+03  0.22344813417E+04  0.23068170188E+04  0.50400001928E-02 0.  1.
</event>
<event>
 5   0  0.8329875E-09  0.3989555E+04  0.7818609E-02  0.8006657E-01
        1   -1    0    0  501    0  0.00000000000E+00  0.00000000000E+00  0.27048734755E+04  0.27048734755E+04  0.50400001928E-02 0. -1.
       -1   -1    0    0    0  501  0.00000000000E+00  0.00000000000E+00 -0.14710989459E+04  0.14710989459E+04  0.50400001928E-02 0.  1.
    10030    2    1    2    0    0  0.00000000000E+00  0.00000000000E+00  0.12337745296E+04  0.41759724214E+04  0.39895546210E+04 0.  0.
        2    1    3    3  502    0  0.14700432482E+04  0.53266268846E+03 -0.67969371544E+03  0.17049164900E+04  0.25500000920E-02 0.  1.
       -2    1    3    3    0  502 -0.14700432482E+04 -0.53266268846E+03  0.19134682450E+04  0.24710559313E+04  0.25500000920E-02 0. -1.
</event>
<event>
 5   0  0.2650452E-08  0.4001552E+04  0.7818609E-02  0.8004234E-01
       -2   -1    0    0    0  501  0.00000000000E+00  0.00000000000E+00  0.18993643672E+04  0.18993643672E+04  0.25500000920E-02 0. -1.
        2   -1    0    0  501    0  0.00000000000E+00  0.00000000000E+00 -0.21076017717E+04  0.21076017717E+04  0.25500000920E-02 0.  1.
    10030    2    1    2    0    0  0.00000000000E+00  0.00000000000E+00 -0.20823740447E+03  0.40069661389E+04  0.40015515518E+04 0.  0.
        3    1    3    3  502    0 -0.17971128250E+04 -0.24835941129E+03 -0.94894674292E+03  0.20473878074E+04  0.10100000352E+00 0.  1.
       -3    1    3    3    0  502  0.17971128250E+04  0.24835941129E+03  0.74070933845E+03  0.19595783315E+04  0.10100000352E+00 0. -1.
</event>
<event>
 5   0  0.8329875E-09  0.3998309E+04  0.7818609E-02  0.8004888E-01
        1   -1    0    0  501    0  0.00000000000E+00  0.00000000000E+00  0.21169752208E+04  0.21169752208E+04  0.50400001928E-02 0.  1.
       -1   -1    0    0    0  501  0.00000000000E+00  0.00000000000E+00 -0.18878912670E+04  0.18878912670E+04  0.50400001928E-02 0. -1.
    10030    2    1    2    0    0  0.00000000000E+00  0.00000000000E+00  0.22908395382E+03  0.40048664877E+04  0.39983091585E+04 0.  0.
        4    1    3    3  502    0 -0.85446018133E+03  0.17929116477E+04 -0.11382984192E+03  0.19893700570E+04  0.12699999809E+01 0. -1.
       -4    1    3    3    0  502  0.85446018133E+03 -0.17929116477E+04  0.34291379575E+03  0.20154964307E+04  0.12699999809E+01 0.  1.
</event>
<event>
 5   0  0.2746876E-08  0.4012507E+04  0.7818609E-02  0.8002028E-01
       -2   -1    0    0    0  501  0.00000000000E+00  0.00000000000E+00  0.14427496117E+04  0.14427496117E+04  0.25500000920E-02 0.  1.
        2   -1    0    0  501    0  0.00000000000E+00  0.00000000000E+00 -0.27898491041E+04  0.27898491041E+04  0.25500000920E-02 0. -1.
    10030    2    1    2    0    0  0.00000000000E+00  0.00000000000E+00 -0.13470994923E+04  0.42325987158E+04  0.40125073017E+04 0.  0.
        1    1    3    3  502    0  0.55963594624E+03 -0.16986907753E+04 -0.16324270057E+04  0.24214790256E+04  0.50400001928E-02 0. -1.
       -1    1    3    3    0  502 -0.55963594624E+03  0.16986907753E+04  0.28532751339E+03  0.18111196902E+04  0.50400001928E-02 0.  1.
</event>
<event>
 5   0  0.8329875E-09  0.4002976E+04  0.7818609E-02  0.8003947E-01
       -1   -1    0    0    0  501  0.00000000000E+00  0.00000000000E+00  0.21620014123E+04  0.21620014123E+04  0.50400001928E-02 0.  1.
        1   -1    0    0  501    0  0.00000000000E+00  0.00000000000E+00 -0.18528911922E+04  0.18528911922E+04  0.50400001928E-02 0. -1.
    10030    2    1    2    0    0  0.00000000000E+00  0.00000000000E+00  0.30911022011E+03  0.40148926046E+04  0.40029755805E+04 0.  0.
        3    1    3    3  502    0  0.11640530551E+04  0.99389350897E+03  0.14480103948E+04  0.21070305969E+04  0.10100000352E+00 0.  1.
       -3    1    3    3    0  502 -0.11640530551E+04 -0.99389350897E+03 -0.11389001747E+04  0.19078620077E+04  0.10100000352E+00 0. -1.
</event>
<event>
 5   0  0.2612363E-08  0.3999016E+04  0.7818609E-02  0.8004745E-01
        2   -1    0    0  501    0  0.00000000000E+00  0.00000000000E+00  0.21778546828E+04  0.21778546828E+04  0.25500000920E-02 0. -1.
       -2   -1    0    0    0  501  0.00000000000E+00  0.00000000000E+00 -0.18357660768E+04  0.18357660768E+04  0.25500000920E-02 0.  1.
    10030    2    1    2    0    0  0.00000000000E+00  0.00000000000E+00  0.34208860595E+03  0.40136207596E+04  0.39990157523E+04 0.  0.
        4    1    3    3  502    0  0.19813613616E+04 -0.22060682372E+03  0.16958631799E+02  0.19936773621E+04  0.12699999809E+01 0. -1.
       -4    1    3    3    0  502 -0.19813613616E+04  0.22060682372E+03  0.32512997415E+03  0.20199433975E+04  0.12699999809E+01 0.  1.
</event>
<event>
 5   0  0.2599332E-08  0.4003289E+04  0.7818609E-02  0.8003883E-01
       -2   -1    0    0    0  501  0.00000000000E+00  0.00000000000E+00  0.17041371810E+04  0.17041371810E+04  0.25500000920E-02 0. -1.
        2   -1    0    0  501    0  0.00000000000E+00  0.00000000000E+00 -0.23510900154E+04  0.23510900154E+04  0.25500000920E-02 0.  1.
    10030    2    1    2    0    0  0.00000000000E+00  0.00000000000E+00 -0.64695283438E+03  0.40552271965E+04  0.40032886038E+04 0.  0.
        2    1    3    3  502    0 -0.74598626377E+03  0.25522840653E+03 -0.21871676488E+04  0.23249385732E+04  0.25500000920E-02 0.  1.
       -2    1    3    3    0  502  0.74598626377E+03 -0.25522840653E+03  0.15402148144E+04  0.17302886233E+04  0.25500000920E-02 0. -1.
</event>
<event>
 5   0  0.2587493E-08  0.3999428E+04  0.7818609E-02  0.8004662E-01
        2   -1    0    0  501    0  0.00000000000E+00  0.00000000000E+00  0.22375773994E+04  0.22375773994E+04  0.25500000920E-02 0. -1.
       -2   -1    0    0    0  501  0.00000000000E+00  0.00000000000E+00 -0.17871363935E+04  0.17871363935E+04  0.25500000920E-02 0.  1.
    10030    2    1    2    0    0  0.00000000000E+00  0.00000000000E+00  0.45044100588E+03  0.40247137929E+04  0.39994279610E+04 0.  0.
        5    1    3    3  502    0  0.84610208918E+02  0.93500325324E+03 -0.15515709235E+04  0.18135005905E+04  0.46999998093E+01 0.  1.
       -5    1    3    3    0  502 -0.84610208918E+02 -0.93500325324E+03  0.20020119294E+04  0.22112132024E+04  0.46999998093E+01 0. -1.
</event>
<event>
 5   0  0.2599332E-08  0.4002855E+04  0.7818609E-02  0.8003971E-01
       -2   -1    0    0    0  501  0.00000000000E+00  0.00000000000E+00  0.20437545608E+04  0.20437545608E+04  0.25500000920E-02 0.  1.
        2   -1    0    0  501    0  0.00000000000E+00  0.00000000000E+00 -0.19599774512E+04  0.19599774512E+04  0.25500000920E-02 0. -1.
    10030    2    1    2    0    0  0.00000000000E+00  0.00000000000E+00  0.83777109600E+02  0.40037320120E+04  0.40028554083E+04 0.  0.
        2    1    3    3  502    0 -0.18491781294E+04  0.61281303641E+03  0.50102424642E+03  0.20114733077E+04  0.25500000920E-02 0. -1.
       -2    1    3    3    0  502  0.18491781294E+04 -0.61281303641E+03 -0.41724713682E+03  0.19922587044E+04  0.25500000920E-02 0.  1.
</event>
<event>
 5   0  0.2650452E-08  0.3999628E+04  0.7818609E-02  0.8004622E-01
       -2   -1    0    0    0  501  0.00000000000E+00  0.00000000000E+00  0.18465395447E+04  0.18465395447E+04  0.25500000920E-02 0.  1.
        2   -1    0    0  501    0  0.00000000000E+00  0.00000000000E+00 -0.21658109118E+04  0.21658109118E+04  0.25500000920E-02 0. -1.
    10030    2    1    2    0    0  0.00000000000E+00  0.00000000000E+00 -0.31927136714E+03  0.40123504565E+04  0.39996277302E+04 0.  0.
        3    1    3    3  502    0  0.49408665430E+03  0.12650473039E+04  0.13129537560E+04  0.18889981151E+04  0.10100000352E+00 0.  1.
       -3    1    3    3    0  502 -0.49408665430E+03 -0.12650473039E+04 -0.16322251231E+04  0.21233523415E+04  0.10100000352E+00 0. -1.
</event>
<event>
 5   0  0.2650452E-08  0.4001824E+04  0.7818609E-02  0.8004179E-01
        2   -1    0    0  501    0  0.00000000000E+00  0.00000000000E+00  0.17411260347E+04  0.17411260347E+04  0.25500000920E-02 0.  1.
       -2   -1    0    0    0  501  0.00000000000E+00  0.00000000000E+00 -0.22994598310E+04  0.22994598310E+04  0.25500000920E-02 0. -1.
    10030    2    1    2    0    0  0.00000000000E+00  0.00000000000E+00 -0.55833379630E+03  0.40405858656E+04  0.40018242727E+04 0.  0.
        3    1    3    3  502    0  0.17581261571E+04  0.78245774590E+02  0.68216836505E+03  0.18874542839E+04  0.10100000352E+00 0.  1.
       -3    1    3    3    0  502 -0.17581261571E+04 -0.78245774590E+02 -0.12405021613E+04  0.21531315817E+04  0.10100000352E+00 0. -1.
</event>
<event>
 5   0  0.2599332E-08  0.4006667E+04  0.7818609E-02  0.8003203E-01
       -2   -1    0    0    0  501  0.00000000000E+00  0.00000000000E+00  0.24443660269E+04  0.24443660269E+04  0.25500000920E-02 0. -1.
        2   -1    0    0  501    0  0.00000000000E+00  0.00000000000E+00 -0.16418754351E+04  0.16418754351E+04  0.25500000920E-02 0.  1.
    10030    2    1    2    0    0  0.00000000000E+00  0.00000000000E+00  0.80249059182E+03  0.40862414620E+04  0.40066667114E+04 0.  0.
        2    1    3    3  502    0 -0.52686695453E+03  0.72048828910E+03  0.22303681355E+04  0.24023393146E+04  0.25500000920E-02 0. -1.
       -2    1    3    3    0  502  0.52686695453E+03 -0.72048828910E+03 -0.14278775437E+04  0.16839021475E+04  0.25500000920E-02 0.  1.
</event>
<event>
 5   0  0.2587493E-08  0.3998979E+04  0.7818609E-02  0.8004753E-01
        2   -1    0    0  501    0  0.00000000000E+00  0.00000000000E+00  0.23485661625E+04  0.23485661625E+04  0.25500000920E-02 0.  1.
       -2   -1    0    0    0  501  0.00000000000E+00  0.00000000000E+00 -0.17022974663E+04  0.17022974663E+04  0.25500000920E-02 0. -1.
    10030    2    1    2    0    0  0.00000000000E+00  0.00000000000E+00  0.64626869626E+03  0.40508636288E+04  0.39989789836E+04 0.  0.
        5    1    3    3  502    0  0.74021540441E+03  0.80820044348E+03 -0.13709361698E+04  0.17551623496E+04  0.46999998093E+01 0. -1.
       -5    1    3    3    0  502 -0.74021540441E+03 -0.80820044348E+03  0.20172048661E+04  0.22957012792E+04  0.46999998093E+01 0.  1.
</event>
<event>
 5   0  0.2650452E-08  0.4009789E+04  0.7818609E-02  0.8002575E-01
       -2   -1    0    0    0  501  0.00000000000E+00  0.00000000000E+00  0.17898555479E+04  0.17898555479E+04  0.25500000920E-02 0. -1.
        2   -1    0    0  501    0  0.00000000000E+00  0.00000000000E+00 -0.22457686730E+04  0.22457686730E+04  0.25500000920E-02 0.  1.
    10030    2    1    2    0    0  0.00000000000E+00  0.00000000000E+00 -0.45591312503E+03  0.40356242209E+04  0.40097887818E+04 0.  0.
        3    1    3    3  502    0 -0.91752825026E+03 -0.10410031618E+04  0.12284524312E+04  0.18532784623E+04  0.10100000352E+00 0. -1.
       -3    1    3    3    0  502  0.91752825026E+03  0.10410031618E+04 -0.16843655563E+04  0.21823457586E+04  0.10100000352E+00 0.  1.
</event>
<event>
 5   0  0.8329875E-09  0.3996495E+04  0.7818609E-02  0.8005254E-01
       -1   -1    0    0    0  501  0.00000000000E+00  0.00000000000E+00  0.34699891031E+04  0.34699891031E+04  0.50400001928E-02 0.  1.
        1   -1    0    0  501    0  0.00000000000E+00  0.00000000000E+00 -0.11507221930E+04  0.11507221930E+04  0.50400001928E-02 0. -1.
    10030    2    1    2    0    0  0.00000000000E+00  0.00000000000E+00  0.23192669102E+04  0.46207112961E+04  0.39964951997E+04 0.  0.
        1    1    3    3  502    0 -0.36485984863E+03  0.17931770639E+04  0.23151619482E+03  0.18445070995E+04  0.50400001928E-02 0. -1.
       -1    1    3    3    0  502  0.36485984863E+03 -0.17931770639E+04  0.20877507154E+04  0.27762041966E+04  0.50400001928E-02 0.  1.
</event>
<event>
 5   0  0.2746876E-08  0.4001412E+04  0.7818609E-02  0.8004262E-01
       -2   -1    0    0    0  501  0.00000000000E+00  0.00000000000E+00  0.16667569384E+04  0.16667569384E+04  0.25500000920E-02 0. -1.
        2   -1    0    0  501    0  0.00000000000E+00  0.00000000000E+00 -0.24015642653E+04  0.24015642653E+04  0.25500000920E-02 0.  1.
    10030    2    1    2    0    0  0.00000000000E+00  0.00000000000E+00 -0.73480732693E+03  0.40683212037E+04  0.40014117020E+04 0.  0.
        1    1    3    3  502    0 -0.30111773397E+03  0.18933566300E+04 -0.94911824387E+03  0.21392280522E+04  0.50400001928E-02 0. -1.
       -1    1    3    3    0  502  0.30111773397E+03 -0.18933566300E+04  0.21431091695E+03  0.19290931516E+04  0.50400001928E-02 0.  1.
</event>
<event>
 5   0  0.2599332E-08  0.4004243E+04  0.7818609E-02  0.8003691E-01
       -2   -1    0    0    0  501  0.00000000000E+00  0.00000000000E+00  0.14778941883E+04  0.14778941883E+04  0.25500000920E-02 0.  1.
        2   -1    0    0  501    0  0.00000000000E+00  0.00000000000E+00 -0.27122980379E+04  0.27122980379E+04  0.25500000920E-02 0. -1.
    10030    2    1    2    0    0  0.00000000000E+00  0.00000000000E+00 -0.12344038496E+04  0.41901922263E+04  0.40042425038E+04 0.  0.
        2    1    3    3  502    0  0.12036714722E+04  0.29487917055E+03  0.10283069757E+04  0.16103397078E+04  0.25500000920E-02 0.  1.
       -2    1    3    3    0  502 -0.12036714722E+04 -0.29487917055E+03 -0.22627108253E+04  0.25798525185E+04  0.25500000920E-02 0. -1.
</event>
<event>
 5   0  0.8329875E-09  0.4026759E+04  0.7818609E-02  0.7999170E-01
        1   -1    0    0  501    0  0.00000000000E+00  0.00000000000E+00  0.19915287122E+04  0.19915287122E+04  0.50400001928E-02 0. -1.
       -1   -1    0    0    0  501  0.00000000000E+00  0.00000000000E+00 -0.20354701684E+04  0.20354701684E+04  0.50400001928E-02 0.  1.
    10030    2    1    2    0    0  0.00000000000E+00  0.00000000000E+00 -0.43941456170E+02  0.40269988806E+04  0.40267591352E+04 0.  0.
        2    1    3    3  502    0  0.38412454586E+03  0.26803331765E+03 -0.19802251407E+04  0.20348673505E+04  0.25500000920E-02 0.  1.
       -2    1    3    3    0  502 -0.38412454586E+03 -0.26803331765E+03  0.19362836846E+04  0.19921315301E+04  0.25500000920E-02 0. -1.
</event>
<event>
 5   0  0.2587493E-08  0.3995054E+04  0.7818609E-02  0.8005545E-01
       -2   -1    0    0    0  501  0.00000000000E+00  0.00000000000E+00  0.16488820758E+04  0.16488820758E+04  0.25500000920E-02 0.  1.
        2   -1    0    0  501    0  0.00000000000E+00  0.00000000000E+00 -0.24198910005E+04  0.24198910005E+04  0.25500000920E-02 0. -1.
    10030    2    1    2    0    0  0.00000000000E+00  0.00000000000E+00 -0.77100892467E+03  0.40687730763E+04  0.39950543907E+04 0.  0.
        5    1    3    3  502    0 -0.13523973716E+04 -0.70136334350E+03  0.93031234975E+03  0.17850468757E+04  0.46999998093E+01 0.  1.
       -5    1    3    3    0  502  0.13523973716E+04  0.70136334350E+03 -0.17013212744E+04  0.22837262006E+04  0.46999998093E+01 0. -1.
</event>
<event>
 5   0  0.8329875E-09  0.4007947E+04  0.7818609E-02  0.8002945E-01
        1   -1    0    0  501    0  0.00000000000E+00  0.00000000000E+00  0.16078981940E+04  0.16078981940E+04  0.50400001928E-02 0.  1.
       -1   -1    0    0    0  501  0.00000000000E+00  0.00000000000E+00 -0.24976142524E+04  0.24976142524E+04  0.50400001928E-02 0. -1.
    10030    2    1    2    0    0  0.00000000000E+00  0.00000000000E+00 -0.88971605836E+03  0.41055124464E+04  0.40079468289E+04 0.  0.
        3    1    3    3  502    0  0.84794195093E+03 -0.58885150105E+03 -0.22042720333E+04  0.24340433130E+04  0.10100000352E+00 0. -1.
       -3    1    3    3    0  502 -0.84794195093E+03  0.58885150105E+03  0.13145559750E+04  0.16714691334E+04  0.10100000352E+00 0.  1.
</event>
<event>
 5   0  0.8329875E-09  0.4001604E+04  0.7818609E-02  0.8004223E-01
        1   -1    0    0  501    0  0.00000000000E+00  0.00000000000E+00  0.15190476399E+04  0.15190476399E+04  0.50400001928E-02 0.  1.
       -1   -1    0    0    0  501  0.00000000000E+00  0.00000000000E+00 -0.26353413457E+04  0.26353413457E+04  0.50400001928E-02 0. -1.
    10030    2    1    2    0    0  0.00000000000E+00  0.00000000000E+00 -0.11162937058E+04  0.41543889856E+04  0.40016042041E+04 0.  0.
        5    1    3    3  502    0  0.12170331812E+03 -0.32758858362E+03 -0.26034056106E+04  0.26267601415E+04  0.46999998093E+01 0. -1.
       -5    1    3    3    0  502 -0.12170331812E+03  0.32758858362E+03  0.14871119049E+04  0.15276288441E+04  0.46999998093E+01 0.  1.
</event>
<event>
 5   0  0.8329875E-09  0.4004554E+04  0.7818609E-02  0.8003629E-01
       -1   -1    0    0    0  501  0.00000000000E+00  0.00000000000E+00  0.27923062160E+04  0.27923062160E+04  0.50400001928E-02 0. -1.
        1   -1    0    0  501    0  0.00000000000E+00  0.00000000000E+00 -0.14357709722E+04  0.14357709722E+04  0.50400001928E-02 0.  1.
    10030    2    1    2    0    0  0.00000000000E+00  0.00000000000E+00  0.13565352438E+04  0.42280771882E+04  0.40045535134E+04 0.  0.
        4    1    3    3  502    0 -0.12320860327E+04  0.15235723157E+04  0.11133386978E+04  0.22536266909E+04  0.12699999809E+01 0. -1.
       -4    1    3    3    0  502  0.12320860327E+04 -0.15235723157E+04  0.24319654593E+03  0.19744504972E+04  0.12699999809E+01 0.  1.
</event>
<event>
 5   0  0.2612363E-08  0.3989301E+04  0.7818609E-02  0.8006708E-01
       -2   -1    0    0    0  501  0.00000000000E+00  0.00000000000E+00  0.27131087864E+04  0.27131087865E+04  0.25500000920E-02 0. -1.
        2   -1    0    0  501    0  0.00000000000E+00  0.00000000000E+00 -0.14664472582E+04  0.14664472582E+04  0.25500000920E-02 0.  1.
    10030    2    1    2    0    0  0.00000000000E+00  0.00000000000E+00  0.12466615283E+04  0.41795560447E+04  0.39893011624E+04 0.  0.
        4    1    3    3  502    0  0.61749685120E+03  0.19668168466E+03 -0.13530724792E+04  0.15002642411E+04  0.12699999809E+01 0.  1.
       -4    1    3    3    0  502 -0.61749685120E+03 -0.19668168466E+03  0.25997340074E+04  0.26792918036E+04  0.12699999809E+01 0. -1.
</event>
<event>
 5   0  0.2599332E-08  0.3983468E+04  0.7818609E-02  0.8007890E-01
       -2   -1    0    0    0  501  0.00000000000E+00  0.00000000000E+00  0.19064595129E+04  0.19064595129E+04  0.25500000920E-02 0.  1.
        2   -1    0    0  501    0  0.00000000000E+00  0.00000000000E+00 -0.20808225181E+04  0.20808225181E+04  0.25500000920E-02 0. -1.
    10030    2    1    2    0    0  0.00000000000E+00  0.00000000000E+00 -0.17436300514E+03  0.39872820310E+04  0.39834677778E+04 0.  0.
        2    1    3    3  502    0 -0.17879852051E+04  0.63981063682E+03 -0.68838557071E+03  0.20199315430E+04  0.25500000920E-02 0.  1.
       -2    1    3    3    0  502  0.17879852051E+04 -0.63981063682E+03  0.51402256557E+03  0.19673504880E+04  0.25500000920E-02 0. -1.
</event>
<event>
 5   0  0.2612363E-08  0.4002163E+04  0.7818609E-02  0.8004110E-01
       -2   -1    0    0    0  501  0.00000000000E+00  0.00000000000E+00  0.19212192278E+04  0.19212192278E+04  0.25500000920E-02 0. -1.
        2   -1    0    0  501    0  0.00000000000E+00  0.00000000000E+00 -0.20842636234E+04  0.20842636234E+04  0.25500000920E-02 0.  1.
    10030    2    1    2    0    0  0.00000000000E+00  0.00000000000E+00 -0.16304439561E+03  0.40054828511E+04  0.40021630896E+04 0.  0.
        4    1    3    3  502    0  0.84456305686E+03  0.95806759815E+03  0.14602573256E+04  0.19399828219E+04  0.12699999809E+01 0. -1.
       -4    1    3    3    0  502 -0.84456305686E+03 -0.95806759815E+03 -0.16233017212E+04  0.20655000292E+04  0.12699999809E+01 0.  1.
</event>
<event>
 5   0  0.2746876E-08  0.4006263E+04  0.7818609E-02  0.8003284E-01
       -2   -1    0    0    0  501  0.00000000000E+00  0.00000000000E+00  0.15873218415E+04  0.15873218415E+04  0.25500000920E-02 0. -1.
        2   -1    0    0  501    0  0.00000000000E+00  0.00000000000E+00 -0.25278648539E+04  0.25278648539E+04  0.25500000920E-02 0.  1.
    10030    2    1    2    0    0  0.00000000000E+00  0.00000000000E+00 -0.94054301231E+03  0.41151866954E+04  0.40062626449E+04 0.  0.
        1    1    3    3  502    0  0.66081778318E+03 -0.18852216140E+04 -0.31862836566E+03  0.20229346781E+04  0.50400001928E-02 0. -1.
       -1    1    3    3    0  502 -0.66081778318E+03  0.18852216140E+04 -0.62191464665E+03  0.20922520173E+04  0.50400001928E-02 0.  1.
</event>
<event>
 5   0  0.2650452E-08  0.3994783E+04  0.7818609E-02  0.8005600E-01
        2   -1    0    0  501    0  0.00000000000E+00  0.00000000000E+00  0.17133025980E+04  0.17133025980E+04  0.25500000920E-02 0.  1.
       -2   -1    0    0    0  501  0.00000000000E+00  0.00000000000E+00 -0.23285865972E+04  0.23285865972E+04  0.25500000920E-02 0. -1.
    10030    2    1    2    0    0  0.00000000000E+00  0.00000000000E+00 -0.61528399924E+03  0.40418891952E+04  0.39947833316E+04 0.  0.
        3    1    3    3  502    0 -0.70165827010E+03 -0.94358322637E+03 -0.19412706664E+04  0.22696267189E+04  0.10100000352E+00 0. -1.
       -3    1    3    3    0  502  0.70165827010E+03  0.94358322637E+03  0.13259866671E+04  0.17722624762E+04  0.10100000352E+00 0.  1.
</event>
<event>
 5   0  0.8329875E-09  0.3965812E+04  0.7818609E-02  0.8011479E-01
        1   -1    0    0  501    0  0.00000000000E+00  0.00000000000E+00  0.15841849913E+04  0.15841849914E+04  0.50400001928E-02 0. -1.
       -1   -1    0    0    0  501  0.00000000000E+00  0.00000000000E+00 -0.24819805076E+04  0.24819805076E+04  0.50400001928E-02 0.  1.
    10030    2    1    2    0    0  0.00000000000E+00  0.00000000000E+00 -0.89779551622E+03  0.40661654989E+04  0.39658120323E+04 0.  0.
        1    1    3    3  502    0  0.15852612905E+03  0.12694986439E+04 -0.20022119379E+04  0.23760492387E+04  0.50400001928E-02 0.  1.
       -1    1    3    3    0  502 -0.15852612905E+03 -0.12694986439E+04  0.11044164217E+04  0.16901162602E+04  0.50400001928E-02 0. -1.
</event>
<event>
 5   0  0.2599332E-08  0.3997217E+04  0.7818609E-02  0.8005108E-01
        2   -1    0    0  501    0  0.00000000000E+00  0.00000000000E+00  0.18510178531E+04  0.18510178531E+04  0.25500000920E-02 0.  1.
       -2   -1    0    0    0  501  0.00000000000E+00  0.00000000000E+00 -0.21579669165E+04  0.21579669165E+04  0.25500000920E-02 0. -1.
    10030    2    1    2    0    0  0.00000000000E+00  0.00000000000E+00 -0.30694906341E+03  0.40089847696E+04  0.39972166761E+04 0.  0.
        2    1    3    3  502    0  0.67162941733E+03  0.10617101059E+04 -0.17124383783E+04  0.21238548968E+04  0.25500000920E-02 0. -1.
       -2    1    3    3    0  502 -0.67162941733E+03 -0.10617101059E+04  0.14054893149E+04  0.18851298728E+04  0.25500000920E-02 0.  1.
</event>
<event>
 5   0  0.8329875E-09  0.3985379E+04  0.7818609E-02  0.8007503E-01
       -1   -1    0    0    0  501  0.00000000000E+00  0.00000000000E+00  0.26783575016E+04  0.26783575016E+04  0.50400001928E-02 0.  1.
        1   -1    0    0  501    0  0.00000000000E+00  0.00000000000E+00 -0.14825543334E+04  0.14825543334E+04  0.50400001928E-02 0. -1.
    10030    2    1    2    0    0  0.00000000000E+00  0.00000000000E+00  0.11958031682E+04  0.41609118351E+04  0.39853785369E+04 0.  0.
        2    1    3    3  502    0 -0.16506963527E+03 -0.17185011247E+04 -0.44107539803E+03  0.17818646433E+04  0.25500000920E-02 0. -1.
       -2    1    3    3    0  502  0.16506963527E+03  0.17185011247E+04  0.16368785662E+04  0.23790471918E+04  0.25500000920E-02 0.  1.
</event>
<event>
 5   0  0.2599332E-08  0.3998246E+04  0.7818609E-02  0.8004900E-01
        2   -1    0    0  501    0  0.00000000000E+00  0.00000000000E+00  0.28279953611E+04  0.28279953611E+04  0.25500000920E-02 0.  1.
       -2   -1    0    0    0  501  0.00000000000E+00  0.00000000000E+00 -0.14131894556E+04  0.14131894556E+04  0.25500000920E-02 0. -1.
    10030    2    1    2    0    0  0.00000000000E+00  0.00000000000E+00  0.14148059055E+04  0.42411848167E+04  0.39982462279E+04 0.  0.
        2    1    3    3  502    0 -0.64142495683E+03  0.18706843182E+04  0.10177684208E+04  0.22241264245E+04  0.25500000920E-02 0.  1.
       -2    1    3    3    0  502  0.64142495683E+03 -0.18706843182E+04  0.39703748462E+03  0.20170583922E+04  0.25500000920E-02 0. -1.
</event>
<event>
 5   0  0.2612363E-08  0.4008049E+04  0.7818609E-02  0.8002925E-01
       -2   -1    0    0    0  501  0.00000000000E+00  0.00000000000E+00  0.16018995664E+04  0.16018995664E+04  0.25500000920E-02 0.  1.
        2   -1    0    0  501    0  0.00000000000E+00  0.00000000000E+00 -0.25070942880E+04  0.25070942880E+04  0.25500000920E-02 0. -1.
    10030    2    1    2    0    0  0.00000000000E+00  0.00000000000E+00 -0.90519472153E+03  0.41089938544E+04  0.40080485291E+04 0.  0.
        4    1    3    3  502    0 -0.98169961247E+03 -0.16143310793E+04  0.23229469993E+03  0.19036179772E+04  0.12699999809E+01 0. -1.
       -4    1    3    3    0  502  0.98169961247E+03  0.16143310793E+04 -0.11374894215E+04  0.22053758772E+04  0.12699999809E+01 0.  1.
</event>
<event>
 5   0  0.8329875E-09  0.4005835E+04  0.7818609E-02  0.8003371E-01
        1   -1    0    0  501    0  0.00000000000E+00  0.00000000000E+00  0.15743405133E+04  0.15743405133E+04  0.50400001928E-02 0. -1.
       -1   -1    0    0    0  501  0.00000000000E+00  0.00000000000E+00 -0.25481642391E+04  0.25481642391E+04  0.50400001928E-02 0.  1.
    10030    2    1    2    0    0  0.00000000000E+00  0.00000000000E+00 -0.97382372580E+03  0.41225047524E+04  0.40058348424E+04 0.  0.
        1    1    3    3  502    0  0.69864879609E+03  0.41729232966E+03  0.13965373467E+04  0.16163414211E+04  0.50400001928E-02 0. -1.
       -1    1    3    3    0  502 -0.69864879609E+03 -0.41729232966E+03 -0.23703610725E+04  0.25061633313E+04  0.50400001928E-02 0.  1.
</event>
<event>
 5   0  0.8329875E-09  0.3997210E+04  0.7818609E-02  0.8005110E-01
       -1   -1    0    0    0  501  0.00000000000E+00  0.00000000000E+00  0.22844246105E+04  0.22844246105E+04  0.50400001928E-02 0.  1.
        1   -1    0    0  501    0  0.00000000000E+00  0.00000000000E+00 -0.17485460329E+04  0.17485460329E+04  0.50400001928E-02 0. -1.
    10030    2    1    2    0    0  0.00000000000E+00  0.00000000000E+00  0.53587857754E+03  0.40329706434E+04  0.39972098219E+04 0.  0.
        5    1    3    3  502    0  0.98031970549E+03  0.72301339193E+03 -0.13307313117E+04  0.18040629157E+04  0.46999998093E+01 0. -1.
       -5    1    3    3    0  502 -0.98031970549E+03 -0.72301339193E+03  0.18666098892E+04  0.22289077277E+04  0.46999998093E+01 0.  1.
</event>
<event>
 5   0  0.2650452E-08  0.4025896E+04  0.7818609E-02  0.7999343E-01
        2   -1    0    0  501    0  0.00000000000E+00  0.00000000000E+00  0.22143142001E+04  0.22143142001E+04  0.25500000920E-02 0.  1.
       -2   -1    0    0    0  501  0.00000000000E+00  0.00000000000E+00 -0.18298933705E+04  0.18298933705E+04  0.25500000920E-02 0. -1.
    10030    2    1    2    0    0  0.00000000000E+00  0.00000000000E+00  0.38442082967E+03  0.40442075706E+04  0.40258956146E+04 0.  0.
        3    1    3    3  502    0 -0.10846934548E+03  0.13384135420E+04  0.16986455753E+04  0.21652974874E+04  0.10100000352E+00 0.  1.
       -3    1    3    3    0  502  0.10846934548E+03 -0.13384135420E+04 -0.13142247457E+04  0.18789100832E+04  0.10100000352E+00 0. -1.
</event>
<event>
 5   0  0.8329875E-09  0.4009000E+04  0.7818609E-02  0.8002733E-01
       -3   -1    0    0    0  501  0.00000000000E+00  0.00000000000E+00  0.14368134939E+04  0.14368134974E+04  0.10100000352E+00 0. -1.
        3   -1    0    0  501    0  0.00000000000E+00  0.00000000000E+00 -0.27964795849E+04  0.27964795867E+04  0.10100000352E+00 0.  1.
    10030    2    1    2    0    0  0.00000000000E+00  0.00000000000E+00 -0.13596660910E+04  0.42332930841E+04  0.40089996829E+04 0.  0.
        4    1    3    3  502    0  0.15004786236E+04 -0.48968812809E+03 -0.19845959603E+04  0.25357155403E+04  0.12699999809E+01 0.  1.
       -4    1    3    3    0  502 -0.15004786236E+04  0.48968812809E+03  0.62492986931E+03  0.16975775438E+04  0.12699999809E+01 0. -1.
</event>
<event>
 5   0  0.8329875E-09  0.3993645E+04  0.7818609E-02  0.8005830E-01
        1   -1    0    0  501    0  0.00000000000E+00  0.00000000000E+00  0.18099393342E+04  0.18099393342E+04  0.50400001928E-02 0.  1.
       -1   -1    0    0    0  501  0.00000000000E+00  0.00000000000E+00 -0.22030017780E+04  0.22030017780E+04  0.50400001928E-02 0. -1.
    10030    2    1    2    0    0  0.00000000000E+00  0.00000000000E+00 -0.39306244384E+03  0.40129411122E+04  0.39936447369E+04 0.  0.
        4    1    3    3  502    0  0.12855289807E+04 -0.72314921474E+03  0.11559919045E+04  0.18739926476E+04  0.12699999809E+01 0.  1.
       -4    1    3    3    0  502 -0.12855289807E+04  0.72314921474E+03 -0.15490543483E+04  0.21389484646E+04  0.12699999809E+01 0. -1.
</event>
<event>
 5   0  0.2612363E-08  0.3978034E+04  0.7818609E-02  0.8008992E-01
        2   -1    0    0  501    0  0.00000000000E+00  0.00000000000E+00  0.27864901171E+04  0.27864901171E+04  0.25500000920E-02 0. -1.
       -2   -1    0    0    0  501  0.00000000000E+00  0.00000000000E+00 -0.14197751574E+04  0.14197751574E+04  0.25500000920E-02 0.  1.
    10030    2    1    2    0    0  0.00000000000E+00  0.00000000000E+00  0.13667149597E+04  0.42062652745E+04  0.39780344114E+04 0.  0.
        4    1    3    3  502    0 -0.16054558617E+04  0.10840142860E+04  0.11604802745E+04  0.22581611051E+04  0.12699999809E+01 0.  1.
       -4    1    3    3    0  502  0.16054558617E+04 -0.10840142860E+04  0.20623468514E+03  0.19481041693E+04  0.12699999809E+01 0. -1.
</event>
<event>
 5   0  0.2746876E-08  0.4005051E+04  0.7818609E-02  0.8003528E-01
       -2   -1    0    0    0  501  0.00000000000E+00  0.00000000000E+00  0.23809037391E+04  0.23809037391E+04  0.25500000920E-02 0. -1.
        2   -1    0    0  501    0  0.00000000000E+00  0.00000000000E+00 -0.16842797799E+04  0.16842797799E+04  0.25500000920E-02 0.  1.
    10030    2    1    2    0    0  0.00000000000E+00  0.00000000000E+00  0.69662395923E+03  0.40651835189E+04  0.40050508239E+04 0.  0.
        1    1    3    3  502    0  0.15375418705E+04 -0.11022690079E+04 -0.31810963581E+03  0.19183914381E+04  0.50400001928E-02 0.  1.
       -1    1    3    3    0  502 -0.15375418705E+04  0.11022690079E+04  0.10147335950E+04  0.21467920808E+04  0.50400001928E-02 0. -1.
</event>
<event>
 5   0  0.8329875E-09  0.4007532E+04  0.7818609E-02  0.8003029E-01
       -1   -1    0    0    0  501  0.00000000000E+00  0.00000000000E+00  0.14593080982E+04  0.14593080983E+04  0.50400001928E-02 0.  1.
        1   -1    0    0  501    0  0.00000000000E+00  0.00000000000E+00 -0.27513577285E+04  0.27513577285E+04  0.50400001928E-02 0. -1.
    10030    2    1    2    0    0  0.00000000000E+00  0.00000000000E+00 -0.12920496302E+04  0.42106658268E+04  0.40075322154E+04 0.  0.
        2    1    3    3  502    0  0.23541645902E+03  0.10204475631E+04  0.11488825119E+04  0.15545626923E+04  0.25500000920E-02 0.  1.
       -2    1    3    3    0  502 -0.23541645902E+03 -0.10204475631E+04 -0.24409321421E+04  0.26561031344E+04  0.25500000920E-02 0. -1.
</event>
<event>
 5   0  0.2599332E-08  0.4002104E+04  0.7818609E-02  0.8004122E-01
       -2   -1    0    0    0  501  0.00000000000E+00  0.00000000000E+00  0.17793508364E+04  0.17793508364E+04  0.25500000920E-02 0. -1.
        2   -1    0    0  501    0  0.00000000000E+00  0.00000000000E+00 -0.22503768090E+04  0.22503768090E+04  0.25500000920E-02 0.  1.
    10030    2    1    2    0    0  0.00000000000E+00  0.00000000000E+00 -0.47102597268E+03  0.40297276454E+04  0.40021043751E+04 0.  0.
        2    1    3    3  502    0  0.19294199748E+03 -0.94713957229E+03 -0.19997222440E+04  0.22210783500E+04  0.25500000920E-02 0.  1.
       -2    1    3    3    0  502 -0.19294199748E+03  0.94713957229E+03  0.15286962713E+04  0.18086492954E+04  0.25500000920E-02 0. -1.
</event>
<event>
 5   0  0.2746876E-08  0.3994688E+04  0.7818609E-02  0.8005619E-01
        2   -1    0    0  501    0  0.00000000000E+00  0.00000000000E+00  0.13252357334E+04  0.13252357334E+04  0.25500000920E-02 0. -1.
       -2   -1    0    0    0  501  0.00000000000E+00  0.00000000000E+00 -0.30103197690E+04  0.30103197690E+04  0.25500000920E-02 0.  1.
    10030    2    1    2    0    0  0.00000000000E+00  0.00000000000E+00 -0.16850840356E+04  0.43355555024E+04  0.39946881364E+04 0.  0.
        1    1    3    3  502    0 -0.25718834238E+03  0.21185779274E+03  0.12948568774E+04  0.13370429690E+04  0.50400001928E-02 0. -1.
       -1    1    3    3    0  502  0.25718834238E+03 -0.21185779274E+03 -0.29799409130E+04  0.29985125334E+04  0.50400001928E-02 0.  1.
</event>
<event>
 5   0  0.2650452E-08  0.4002244E+04  0.7818609E-02  0.8004094E-01
       -2   -1    0    0    0  501  0.00000000000E+00  0.00000000000E+00  0.16061286376E+04  0.16061286376E+04  0.25500000920E-02 0.  1.
        2   -1    0    0  501    0  0.00000000000E+00  0.00000000000E+00 -0.24932556248E+04  0.24932556248E+04  0.25500000920E-02 0. -1.
    10030    2    1    2    0    0  0.00000000000E+00  0.00000000000E+00 -0.88712698722E+03  0.40993842624E+04  0.40022440005E+04 0.  0.
        3    1    3    3  502    0 -0.88079985930E+03  0.14603357893E+04  0.62879551286E+03  0.18176283495E+04  0.10100000352E+00 0. -1.
       -3    1    3    3    0  502  0.88079985930E+03 -0.14603357893E+04 -0.15159225001E+04  0.22817559129E+04  0.10100000352E+00 0.  1.
</event>
<event>
 5   0  0.2599332E-08  0.3995995E+04  0.7818609E-02  0.8005355E-01
        2   -1    0    0  501    0  0.00000000000E+00  0.00000000000E+00  0.18927238838E+04  0.18927238838E+04  0.25500000920E-02 0.  1.
       -2   -1    0    0    0  501  0.00000000000E+00  0.00000000000E+00 -0.21091266669E+04  0.21091266669E+04  0.25500000920E-02 0. -1.
    10030    2    1    2    0    0  0.00000000000E+00  0.00000000000E+00 -0.21640278311E+03  0.40018505507E+04  0.39959952034E+04 0.  0.
        2    1    3    3  502    0 -0.16923681516E+04 -0.66849418289E+03  0.71823504849E+03  0.19562351642E+04  0.25500000920E-02 0.  1.
       -2    1    3    3    0  502  0.16923681516E+04  0.66849418289E+03 -0.93463783160E+03  0.20456153864E+04  0.25500000920E-02 0. -1.
</event>
<event>
 5   0  0.8329875E-09  0.4024745E+04  0.7818609E-02  0.7999573E-01
       -1   -1    0    0    0  501  0.00000000000E+00  0.00000000000E+00  0.17624490672E+04  0.17624490672E+04  0.50400001928E-02 0. -1.
        1   -1    0    0  501    0  0.00000000000E+00  0.00000000000E+00 -0.22977358377E+04  0.22977358378E+04  0.50400001928E-02 0.  1.
    10030    2    1    2    0    0  0.00000000000E+00  0.00000000000E+00 -0.53528677051E+03  0.40601849050E+04  0.40247446548E+04 0.  0.
        5    1    3    3  502    0  0.15044250292E+04 -0.15353875723E+02 -0.16158583251E+04  0.22078384513E+04  0.46999998093E+01 0.  1.
       -5    1    3    3    0  502 -0.15044250292E+04  0.15353875723E+02  0.10805715546E+04  0.18523464537E+04  0.46999998093E+01 0. -1.
</event>
<event>
 5   0  0.2612363E-08  0.3979480E+04  0.7818609E-02  0.8008699E-01
       -2   -1    0    0    0  501  0.00000000000E+00  0.00000000000E+00  0.14606288606E+04  0.14606288606E+04  0.25500000920E-02 0.  1.
        2   -1    0    0  501    0  0.00000000000E+00  0.00000000000E+00 -0.27105216568E+04  0.27105216568E+04  0.25500000920E-02 0. -1.
    10030    2    1    2    0    0  0.00000000000E+00  0.00000000000E+00 -0.12498927963E+04  0.41711505174E+04  0.39794804481E+04 0.  0.
        4    1    3    3  502    0  0.17006494393E+03  0.48330658134E+03 -0.26401930230E+04  0.26894475545E+04  0.12699999809E+01 0. -1.
       -4    1    3    3    0  502 -0.17006494393E+03 -0.48330658134E+03  0.13903002268E+04  0.14817029629E+04  0.12699999809E+01 0.  1.
</event>
<event>
 5   0  0.8329875E-09  0.4000437E+04  0.7818609E-02  0.8004458E-01
        1   -1    0    0  501    0  0.00000000000E+00  0.00000000000E+00  0.27703079403E+04  0.27703079403E+04  0.50400001928E-02 0. -1.
       -1   -1    0    0    0  501  0.00000000000E+00  0.00000000000E+00 -0.14441983957E+04  0.14441983957E+04  0.50400001928E-02 0.  1.
    10030    2    1    2    0    0  0.00000000000E+00  0.00000000000E+00  0.13261095446E+04  0.42145063360E+04  0.40004371176E+04 0.  0.
        3    1    3    3  502    0 -0.24119520687E+03 -0.13627112776E+04 -0.85842774260E+03  0.16285132340E+04  0.10100000352E+00 0.  1.
       -3    1    3    3    0  502  0.24119520687E+03  0.13627112776E+04  0.21845372872E+04  0.25859931019E+04  0.10100000352E+00 0. -1.
</event>
<event>
 5   0  0.8329875E-09  0.4004034E+04  0.7818609E-02  0.8003733E-01
        1   -1    0    0  501    0  0.00000000000E+00  0.00000000000E+00  0.23316899954E+04  0.23316899954E+04  0.50400001928E-02 0. -1.
       -1   -1    0    0    0  501  0.00000000000E+00  0.00000000000E+00 -0.17189559982E+04  0.17189559982E+04  0.50400001928E-02 0.  1.
    10030    2    1    2    0    0  0.00000000000E+00  0.00000000000E+00  0.61273399719E+03  0.40506459936E+04  0.40040342174E+04 0.  0.
        3    1    3    3  502    0  0.11687284205E+04  0.13807449807E+04  0.11740754724E+04  0.21565797105E+04  0.10100000352E+00 0. -1.
       -3    1    3    3    0  502 -0.11687284205E+04 -0.13807449807E+04 -0.56134147522E+03  0.18940662831E+04  0.10100000352E+00 0.  1.
</event>
<event>
 5   0  0.2650452E-08  0.4000761E+04  0.7818609E-02  0.8004393E-01
        2   -1    0    0  501    0  0.00000000000E+00  0.00000000000E+00  0.19151127480E+04  0.19151127480E+04  0.25500000920E-02 0. -1.
       -2   -1    0    0    0  501  0.00000000000E+00  0.00000000000E+00 -0.20894446654E+04  0.20894446654E+04  0.25500000920E-02 0.  1.
    10030    2    1    2    0    0  0.00000000000E+00  0.00000000000E+00 -0.17433191739E+03  0.40045574133E+04  0.40007609850E+04 0.  0.
        3    1    3    3  502    0 -0.34212464055E+03 -0.49153834087E+03 -0.19976056445E+04  0.20854466024E+04  0.10100000352E+00 0.  1.
       -3    1    3    3    0  502  0.34212464055E+03  0.49153834087E+03  0.18232737272E+04  0.19191108109E+04  0.10100000352E+00 0. -1.
</event>
<event>
 5   0  0.8329875E-09  0.4003737E+04  0.7818609E-02  0.8003793E-01
        1   -1    0    0  501    0  0.00000000000E+00  0.00000000000E+00  0.16363441170E+04  0.16363441170E+04  0.50400001928E-02 0.  1.
       -1   -1    0    0    0  501  0.00000000000E+00  0.00000000000E+00 -0.24490436553E+04  0.24490436553E+04  0.50400001928E-02 0. -1.
    10030    2    1    2    0    0  0.00000000000E+00  0.00000000000E+00 -0.81269953831E+03  0.40853877723E+04  0.40037373428E+04 0.  0.
        3    1    3    3  502    0 -0.97978516059E+03 -0.85965010866E+03 -0.19567103937E+04  0.23511046011E+04  0.10100000352E+00 0. -1.
       -3    1    3    3    0  502  0.97978516059E+03  0.85965010866E+03  0.11440108554E+04  0.17342831712E+04  0.10100000352E+00 0.  1.
</event>
<event>
 5   0  0.8329875E-09  0.3998760E+04  0.7818609E-02  0.8004797E-01
       -1   -1    0    0    0  501  0.00000000000E+00  0.00000000000E+00  0.23280785289E+04  0.23280785289E+04  0.50400001928E-02 0. -1.
        1   -1    0    0  501    0  0.00000000000E+00  0.00000000000E+00 -0.17170896563E+04  0.17170896563E+04  0.50400001928E-02 0.  1.
    10030    2    1    2    0    0  0.00000000000E+00  0.00000000000E+00  0.61098887258E+03  0.40451681853E+04  0.39987595883E+04 0.  0.
        4    1    3    3  502    0 -0.68711135669E+03  0.29239521750E+03 -0.15707277120E+04  0.17391964057E+04  0.12699999809E+01 0.  1.
       -4    1    3    3    0  502  0.68711135669E+03 -0.29239521750E+03  0.21817165845E+04  0.23059717795E+04  0.12699999809E+01 0. -1.
</event>
<event>
 5   0  0.8329875E-09  0.3993804E+04  0.7818609E-02  0.8005798E-01
        3   -1    0    0  501    0  0.00000000000E+00  0.00000000000E+00  0.20936507929E+04  0.20936507953E+04  0.10100000352E+00 0.  1.
       -3   -1    0    0    0  501  0.00000000000E+00  0.00000000000E+00 -0.19046237206E+04  0.19046237233E+04  0.10100000352E+00 0. -1.
    10030    2    1    2    0    0  0.00000000000E+00  0.00000000000E+00  0.18902707229E+03  0.39982745186E+04  0.39938036872E+04 0.  0.
        2    1    3    3  502    0 -0.15022602766E+04 -0.12803951858E+04  0.39720809208E+03  0.20134477989E+04  0.25500000920E-02 0.  1.
       -2    1    3    3    0  502  0.15022602766E+04  0.12803951858E+04 -0.20818101979E+03  0.19848267197E+04  0.25500000920E-02 0. -1.
</event>
<event>
 5   0  0.8329875E-09  0.3995573E+04  0.7818609E-02  0.8005440E-01
       -1   -1    0    0    0  501  0.00000000000E+00  0.00000000000E+00  0.21189581216E+04  0.21189581216E+04  0.50400001928E-02 0.  1.
        1   -1    0    0  501    0  0.00000000000E+00  0.00000000000E+00 -0.18835437428E+04  0.18835437428E+04  0.50400001928E-02 0. -1.
    10030    2    1    2    0    0  0.00000000000E+00  0.00000000000E+00  0.23541437882E+03  0.40025018644E+04  0.39955727055E+04 0.  0.
        4    1    3    3  502    0  0.14003849678E+04  0.11831168414E+04  0.91300162401E+03  0.20480276113E+04  0.12699999809E+01 0.  1.
       -4    1    3    3    0  502 -0.14003849678E+04 -0.11831168414E+04 -0.67758724519E+03  0.19544742531E+04  0.12699999809E+01 0. -1.
</event>
<event>
 5   0  0.2650452E-08  0.3943076E+04  0.7818609E-02  0.8016129E-01
        2   -1    0    0  501    0  0.00000000000E+00  0.00000000000E+00  0.24504058640E+04  0.24504058640E+04  0.25500000920E-02 0.  1.
       -2   -1    0    0    0  501  0.00000000000E+00  0.00000000000E+00 -0.15862520381E+04  0.15862520381E+04  0.25500000920E-02 0. -1.
    10030    2    1    2    0    0  0.00000000000E+00  0.00000000000E+00  0.86415382589E+03  0.40366579022E+04  0.39430755996E+04 0.  0.
        3    1    3    3  502    0  0.77211663052E+03 -0.15357864343E+04  0.14204739305E+04  0.22299215817E+04  0.10100000352E+00 0. -1.
       -3    1    3    3    0  502 -0.77211663052E+03  0.15357864343E+04 -0.55632010462E+03  0.18067363205E+04  0.10100000352E+00 0.  1.
</event>
<event>
 5   0  0.8329875E-09  0.4003503E+04  0.7818609E-02  0.8003840E-01
        1   -1    0    0  501    0  0.00000000000E+00  0.00000000000E+00  0.19065836624E+04  0.19065836624E+04  0.50400001928E-02 0. -1.
       -1   -1    0    0    0  501  0.00000000000E+00  0.00000000000E+00 -0.21016697994E+04  0.21016697994E+04  0.50400001928E-02 0.  1.
    10030    2    1    2    0    0  0.00000000000E+00  0.00000000000E+00 -0.19508613702E+03  0.40082534618E+04  0.40035031176E+04 0.  0.
        1    1    3    3  502    0 -0.50539740159E+03 -0.12074846190E+04 -0.16137916415E+04  0.20779242289E+04  0.50400001928E-02 0.  1.
       -1    1    3    3    0  502  0.50539740159E+03  0.12074846190E+04  0.14187055045E+04  0.19303292329E+04  0.50400001928E-02 0. -1.
</event>
<event>
 5   0  0.2650452E-08  0.4006483E+04  0.7818609E-02  0.8003240E-01
        2   -1    0    0  501    0  0.00000000000E+00  0.00000000000E+00  0.22554170916E+04  0.22554170916E+04  0.25500000920E-02 0. -1.
       -2   -1    0    0    0  501  0.00000000000E+00  0.00000000000E+00 -0.17792612278E+04  0.17792612278E+04  0.25500000920E-02 0.  1.
    10030    2    1    2    0    0  0.00000000000E+00  0.00000000000E+00  0.47615586378E+03  0.40346783194E+04  0.40064828384E+04 0.  0.
        3    1    3    3  502    0  0.85499993705E+03 -0.14128667593E+03  0.20568861071E+04  0.22319872950E+04  0.10100000352E+00 0. -1.
       -3    1    3    3    0  502 -0.85499993705E+03  0.14128667593E+03 -0.15807302433E+04  0.18026910244E+04  0.10100000352E+00 0.  1.
</event>
<event>
 5   0  0.2612363E-08  0.4002956E+04  0.7818609E-02  0.8003950E-01
       -2   -1    0    0    0  501  0.00000000000E+00  0.00000000000E+00  0.21918190269E+04  0.21918190269E+04  0.25500000920E-02 0.  1.
        2   -1    0    0  501    0  0.00000000000E+00  0.00000000000E+00 -0.18276665844E+04  0.18276665844E+04  0.25500000920E-02 0. -1.
    10030    2    1    2    0    0  0.00000000000E+00  0.00000000000E+00  0.36415244252E+03  0.40194856113E+04  0.40029561049E+04 0.  0.
        4    1    3    3  502    0  0.87971302396E+03  0.63824191439E+03  0.18696902528E+04  0.21626351981E+04  0.12699999809E+01 0.  1.
       -4    1    3    3    0  502 -0.87971302396E+03 -0.63824191439E+03 -0.15055378103E+04  0.18568504132E+04  0.12699999809E+01 0. -1.
</event>
<event>
 5   0  0.8329875E-09  0.3925857E+04  0.7818609E-02  0.8019673E-01
        1   -1    0    0  501    0  0.00000000000E+00  0.00000000000E+00  0.19946795911E+04  0.19946795911E+04  0.50400001928E-02 0.  1.
       -1   -1    0    0    0  501  0.00000000000E+00  0.00000000000E+00 -0.19316831335E+04  0.19316831335E+04  0.50400001928E-02 0. -1.
    10030    2    1    2    0    0  0.00000000000E+00  0.00000000000E+00  0.62996457613E+02  0.39263627247E+04  0.39258573193E+04 0.  0.
        4    1    3    3  502    0  0.55901667188E+03  0.15151159992E+04  0.11474425642E+04  0.19810861116E+04  0.12699999809E+01 0.  1.
       -4    1    3    3    0  502 -0.55901667188E+03 -0.15151159992E+04 -0.10844461066E+04  0.19452766131E+04  0.12699999809E+01 0. -1.
</event>
<event>
 5   0  0.8329875E-09  0.4039527E+04  0.7818609E-02  0.7996620E-01
        1   -1    0    0  501    0  0.00000000000E+00  0.00000000000E+00  0.31593850466E+04  0.31593850466E+04  0.50400001928E-02 0.  1.
       -1   -1    0    0    0  501  0.00000000000E+00  0.00000000000E+00 -0.12912149122E+04  0.12912149123E+04  0.50400001928E-02 0. -1.
    10030    2    1    2    0    0  0.00000000000E+00  0.00000000000E+00  0.18681701344E+04  0.44505999589E+04  0.40395272425E+04 0.  0.
        1    1    3    3  502    0  0.66837001591E+03  0.16407200302E+04 -0.13454761768E+03  0.17767340142E+04  0.50400001928E-02 0. -1.
       -1    1    3    3    0  502 -0.66837001591E+03 -0.16407200302E+04  0.20027177521E+04  0.26738659447E+04  0.50400001928E-02 0.  1.
</event>
<event>
 5   0  0.2599332E-08  0.4067295E+04  0.7818609E-02  0.7991107E-01
        2   -1    0    0  501    0  0.00000000000E+00  0.00000000000E+00  0.33297195619E+04  0.33297195619E+04  0.25500000920E-02 0.  1.
       -2   -1    0    0    0  501  0.00000000000E+00  0.00000000000E+00 -0.12420631348E+04  0.12420631348E+04  0.25500000920E-02 0. -1.
    10030    2    1    2    0    0  0.00000000000E+00  0.00000000000E+00  0.20876564271E+04  0.45717826967E+04  0.40672948834E+04 0.  0.
        2    1    3    3  502    0  0.86220209682E+02  0.10714997212E+04  0.29842712603E+04  0.31719742326E+04  0.25500000920E-02 0.  1.
       -2    1    3    3    0  502 -0.86220209682E+02 -0.10714997212E+04 -0.89661483326E+03  0.13998084641E+04  0.25500000920E-02 0. -1.
</event>
<event>
 5   0  0.2650452E-08  0.4003605E+04  0.7818609E-02  0.8003820E-01
        2   -1    0    0  501    0  0.00000000000E+00  0.00000000000E+00  0.28788200983E+04  0.28788200983E+04  0.25500000920E-02 0.  1.
       -2   -1    0    0    0  501  0.00000000000E+00  0.00000000000E+00 -0.13919634263E+04  0.13919634263E+04  0.25500000920E-02 0. -1.
    10030    2    1    2    0    0  0.00000000000E+00  0.00000000000E+00  0.14868566719E+04  0.42707835246E+04  0.40036045198E+04 0.  0.
        3    1    3    3  502    0 -0.36973239682E+03  0.11456469509E+04  0.24495379792E+04  0.27293671983E+04  0.10100000352E+00 0.  1.
       -3    1    3    3    0  502  0.36973239682E+03 -0.11456469509E+04 -0.96268130728E+03  0.15414163263E+04  0.10100000352E+00 0. -1.
</event>
<event>
 5   0  0.8329875E-09  0.4039533E+04  0.7818609E-02  0.7996619E-01
       -1   -1    0    0    0  501  0.00000000000E+00  0.00000000000E+00  0.22756054910E+04  0.22756054910E+04  0.50400001928E-02 0.  1.
        1   -1    0    0  501    0  0.00000000000E+00  0.00000000000E+00 -0.17926909371E+04  0.17926909371E+04  0.50400001928E-02 0. -1.
    10030    2    1    2    0    0  0.00000000000E+00  0.00000000000E+00  0.48291455396E+03  0.40682964281E+04  0.40395333097E+04 0.  0.
        4    1    3    3  502    0  0.15671545227E+04  0.11249097242E+04 -0.36118504499E+03  0.19626134197E+04  0.12699999809E+01 0. -1.
       -4    1    3    3    0  502 -0.15671545227E+04 -0.11249097242E+04  0.84409959896E+03  0.21056830083E+04  0.12699999809E+01 0.  1.
</event>
<event>
 5   0  0.8329875E-09  0.3998074E+04  0.7818609E-02  0.8004935E-01
        1   -1    0    0  501    0  0.00000000000E+00  0.00000000000E+00  0.21336473116E+04  0.21336473116E+04  0.50400001928E-02 0. -1.
       -1   -1    0    0    0  501  0.00000000000E+00  0.00000000000E+00 -0.18729189663E+04  0.18729189663E+04  0.50400001928E-02 0.  1.
    10030    2    1    2    0    0  0.00000000000E+00  0.00000000000E+00  0.26072834525E+03  0.40065662779E+04  0.39980737949E+04 0.  0.
        2    1    3    3  502    0 -0.49200822359E+03 -0.78687521687E+03  0.19046910689E+04  0.21187479244E+04  0.25500000920E-02 0. -1.
       -2    1    3    3    0  502  0.49200822359E+03  0.78687521687E+03 -0.16439627237E+04  0.18878183535E+04  0.25500000920E-02 0.  1.
</event>
<event>
 5   0  0.8329875E-09  0.3966730E+04  0.7818609E-02  0.8011292E-01
        1   -1    0    0  501    0  0.00000000000E+00  0.00000000000E+00  0.20610486888E+04  0.20610486888E+04  0.50400001928E-02 0. -1.
       -1   -1    0    0    0  501  0.00000000000E+00  0.00000000000E+00 -0.19086092715E+04  0.19086092716E+04  0.50400001928E-02 0.  1.
    10030    2    1    2    0    0  0.00000000000E+00  0.00000000000E+00  0.15243941729E+03  0.39696579604E+04  0.39667299563E+04 0.  0.
        1    1    3    3  502    0 -0.26425196972E+03  0.21869303963E+03 -0.18787014086E+04  0.19097577678E+04  0.50400001928E-02 0.  1.
       -1    1    3    3    0  502  0.26425196972E+03 -0.21869303963E+03  0.20311408258E+04  0.20599001926E+04  0.50400001928E-02 0. -1.
</event>
<event>
 5   0  0.2599332E-08  0.4002295E+04  0.7818609E-02  0.8004084E-01
        2   -1    0    0  501    0  0.00000000000E+00  0.00000000000E+00  0.17878484466E+04  0.17878484466E+04  0.25500000920E-02 0.  1.
       -2   -1    0    0    0  501  0.00000000000E+00  0.00000000000E+00 -0.22398946585E+04  0.22398946585E+04  0.25500000920E-02 0. -1.
    10030    2    1    2    0    0  0.00000000000E+00  0.00000000000E+00 -0.45204621189E+03  0.40277431051E+04  0.40022954342E+04 0.  0.
        2    1    3    3  502    0 -0.36824391943E+02 -0.16539553105E+04 -0.13590895547E+04  0.21410391455E+04  0.25500000920E-02 0. -1.
       -2    1    3    3    0  502  0.36824391943E+02  0.16539553105E+04  0.90704334279E+03  0.18867039595E+04  0.25500000920E-02 0.  1.
</event>
<event>
 5   0  0.8329875E-09  0.4003214E+04  0.7818609E-02  0.8003898E-01
        1   -1    0    0  501    0  0.00000000000E+00  0.00000000000E+00  0.20709422366E+04  0.20709422367E+04  0.50400001928E-02 0. -1.
       -1   -1    0    0    0  501  0.00000000000E+00  0.00000000000E+00 -0.19345935607E+04  0.19345935607E+04  0.50400001928E-02 0.  1.
    10030    2    1    2    0    0  0.00000000000E+00  0.00000000000E+00  0.13634867599E+03  0.40055357973E+04  0.40032144662E+04 0.  0.
        5    1    3    3  502    0 -0.26864417526E+02  0.30049181689E+03  0.20480567904E+04  0.20701632147E+04  0.46999998093E+01 0. -1.
       -5    1    3    3    0  502  0.26864417526E+02 -0.30049181689E+03 -0.19117081144E+04  0.19353725826E+04  0.46999998093E+01 0.  1.
</event>
<event>
 5   0  0.8329875E-09  0.4008458E+04  0.7818609E-02  0.8002842E-01
        1   -1    0    0  501    0  0.00000000000E+00  0.00000000000E+00  0.21811722495E+04  0.21811722495E+04  0.50400001928E-02 0.  1.
       -1   -1    0    0    0  501  0.00000000000E+00  0.00000000000E+00 -0.18416400849E+04  0.18416400850E+04  0.50400001928E-02 0. -1.
    10030    2    1    2    0    0  0.00000000000E+00  0.00000000000E+00  0.33953216456E+03  0.40228123345E+04  0.40084581808E+04 0.  0.
        3    1    3    3  502    0 -0.17733173804E+04 -0.93214557107E+03  0.22814948115E+03  0.20163338248E+04  0.10100000352E+00 0.  1.
       -3    1    3    3    0  502  0.17733173804E+04  0.93214557107E+03  0.11138268340E+03  0.20064785096E+04  0.10100000352E+00 0. -1.
</event>
<event>
 5   0  0.2650452E-08  0.4008759E+04  0.7818609E-02  0.8002782E-01
        2   -1    0    0  501    0  0.00000000000E+00  0.00000000000E+00  0.34491428654E+04  0.34491428654E+04  0.25500000920E-02 0. -1.
       -2   -1    0    0    0  501  0.00000000000E+00  0.00000000000E+00 -0.11647928099E+04  0.11647928099E+04  0.25500000920E-02 0.  1.
    10030    2    1    2    0    0  0.00000000000E+00  0.00000000000E+00  0.22843500556E+04  0.46139356753E+04  0.40087588153E+04 0.  0.
        3    1    3    3  502    0 -0.50741236564E+03  0.58364638257E+02  0.33729857837E+04  0.34114376510E+04  0.10100000352E+00 0. -1.
       -3    1    3    3    0  502  0.50741236564E+03 -0.58364638257E+02 -0.10886357281E+04  0.12024980243E+04  0.10100000352E+00 0.  1.
</event>
<event>
 5   0  0.2650452E-08  0.4009731E+04  0.7818609E-02  0.8002586E-01
       -2   -1    0    0    0  501  0.00000000000E+00  0.00000000000E+00  0.21767446081E+04  0.21767446081E+04  0.25500000920E-02 0.  1.
        2   -1    0    0  501    0  0.00000000000E+00  0.00000000000E+00 -0.18465579961E+04  0.18465579961E+04  0.25500000920E-02 0. -1.
    10030    2    1    2    0    0  0.00000000000E+00  0.00000000000E+00  0.33018661203E+03  0.40233026043E+04  0.40097307449E+04 0.  0.
        3    1    3    3  502    0 -0.12422188651E+04 -0.14162095426E+04 -0.52332512914E+03  0.19551537992E+04  0.10100000352E+00 0. -1.
       -3    1    3    3    0  502  0.12422188651E+04  0.14162095426E+04  0.85351174117E+03  0.20681488051E+04  0.10100000352E+00 0.  1.
</event>
<event>
 5   0  0.8329875E-09  0.3998965E+04  0.7818609E-02  0.8004755E-01
        1   -1    0    0  501    0  0.00000000000E+00  0.00000000000E+00  0.13341803195E+04  0.13341803195E+04  0.50400001928E-02 0. -1.
       -1   -1    0    0    0  501  0.00000000000E+00  0.00000000000E+00 -0.29965445004E+04  0.29965445004E+04  0.50400001928E-02 0.  1.
    10030    2    1    2    0    0  0.00000000000E+00  0.00000000000E+00 -0.16623641809E+04  0.43307248199E+04  0.39989652156E+04 0.  0.
        1    1    3    3  502    0 -0.19786708444E+04  0.21493348511E+03 -0.62401074526E+03  0.20858389496E+04  0.50400001928E-02 0.  1.
       -1    1    3    3    0  502  0.19786708444E+04 -0.21493348511E+03 -0.10383534357E+04  0.22448858703E+04  0.50400001928E-02 0. -1.
</event>
<event>
 5   0  0.2746876E-08  0.3999348E+04  0.7818609E-02  0.8004678E-01
       -2   -1    0    0    0  501  0.00000000000E+00  0.00000000000E+00  0.19144300302E+04  0.19144300302E+04  0.25500000920E-02 0. -1.
        2   -1    0    0  501    0  0.00000000000E+00  0.00000000000E+00 -0.20887131510E+04  0.20887131510E+04  0.25500000920E-02 0.  1.
    10030    2    1    2    0    0  0.00000000000E+00  0.00000000000E+00 -0.17428312085E+03  0.40031431813E+04  0.39993475372E+04 0.  0.
        1    1    3    3  502    0 -0.47838907402E+03  0.19383260144E+04  0.25798750285E+02  0.19966545570E+04  0.50400001928E-02 0. -1.
       -1    1    3    3    0  502  0.47838907402E+03 -0.19383260144E+04 -0.20008187113E+03  0.20064886243E+04  0.50400001928E-02 0.  1.
</event>
<event>
 5   0  0.8329875E-09  0.4064939E+04  0.7818609E-02  0.7991573E-01
        1   -1    0    0  501    0  0.00000000000E+00  0.00000000000E+00  0.13620690643E+04  0.13620690643E+04  0.50400001928E-02 0. -1.
       -1   -1    0    0    0  501  0.00000000000E+00  0.00000000000E+00 -0.30328362892E+04  0.30328362892E+04  0.50400001928E-02 0.  1.
    10030    2    1    2    0    0  0.00000000000E+00  0.00000000000E+00 -0.16707672249E+04  0.43949053535E+04  0.40649391074E+04 0.  0.
        2    1    3    3  502    0 -0.16246864189E+04 -0.11422227842E+04 -0.13024877477E+04  0.23750269854E+04  0.25500000920E-02 0. -1.
       -2    1    3    3    0  502  0.16246864189E+04  0.11422227842E+04 -0.36827947722E+03  0.20198783681E+04  0.25500000920E-02 0.  1.
</event>
<event>
 5   0  0.8329875E-09  0.3994045E+04  0.7818609E-02  0.8005749E-01
        1   -1    0    0  501    0  0.00000000000E+00  0.00000000000E+00  0.24009543132E+04  0.24009543132E+04  0.50400001928E-02 0.  1.
       -1   -1    0    0    0  501  0.00000000000E+00  0.00000000000E+00 -0.16610476123E+04  0.16610476123E+04  0.50400001928E-02 0. -1.
    10030    2    1    2    0    0  0.00000000000E+00  0.00000000000E+00  0.73990670086E+03  0.40620019255E+04  0.39940452823E+04 0.  0.
        1    1    3    3  502    0  0.61700425359E+03 -0.11779239081E+04 -0.11453301346E+04  0.17549872077E+04  0.50400001928E-02 0. -1.
       -1    1    3    3    0  502 -0.61700425359E+03  0.11779239081E+04  0.18852368354E+04  0.23070147177E+04  0.50400001928E-02 0.  1.
</event>
<event>
 5   0  0.2587493E-08  0.4000798E+04  0.7818609E-02  0.8004386E-01
       -2   -1    0    0    0  501  0.00000000000E+00  0.00000000000E+00  0.23233772199E+04  0.23233772199E+04  0.25500000920E-02 0.  1.
        2   -1    0    0  501    0  0.00000000000E+00  0.00000000000E+00 -0.17223188588E+04  0.17223188588E+04  0.25500000920E-02 0. -1.
    10030    2    1    2    0    0  0.00000000000E+00  0.00000000000E+00  0.60105836111E+03  0.40456960788E+04  0.40007981214E+04 0.  0.
        5    1    3    3  502    0 -0.13991670975E+04  0.81881988564E+03 -0.88456106009E+03  0.18467823182E+04  0.46999998093E+01 0. -1.
       -5    1    3    3    0  502  0.13991670975E+04 -0.81881988564E+03  0.14856194212E+04  0.21989137606E+04  0.46999998093E+01 0.  1.
</event>
<event>
 5   0  0.2746876E-08  0.4007564E+04  0.7818609E-02  0.8003022E-01
        2   -1    0    0  501    0  0.00000000000E+00  0.00000000000E+00  0.20316955331E+04  0.20316955331E+04  0.25500000920E-02 0.  1.
       -2   -1    0    0    0  501  0.00000000000E+00  0.00000000000E+00 -0.19762518505E+04  0.19762518505E+04  0.25500000920E-02 0. -1.
    10030    2    1    2    0    0  0.00000000000E+00  0.00000000000E+00  0.55443682623E+02  0.40079473836E+04  0.40075638770E+04 0.  0.
        1    1    3    3  502    0  0.10066924254E+04 -0.61736865235E+03  0.16466937197E+04  0.20263696353E+04  0.50400001928E-02 0.  1.
       -1    1    3    3    0  502 -0.10066924254E+04  0.61736865235E+03 -0.15912500371E+04  0.19815777484E+04  0.50400001928E-02 0. -1.
</event>
<event>
 5   0  0.8329875E-09  0.4043590E+04  0.7818609E-02  0.7995810E-01
       -1   -1    0    0    0  501  0.00000000000E+00  0.00000000000E+00  0.22058980506E+04  0.22058980506E+04  0.50400001928E-02 0. -1.
        1   -1    0    0  501    0  0.00000000000E+00  0.00000000000E+00 -0.18530572239E+04  0.18530572240E+04  0.50400001928E-02 0.  1.
    10030    2    1    2    0    0  0.00000000000E+00  0.00000000000E+00  0.35284082661E+03  0.40589552745E+04  0.40435901463E+04 0.  0.
        4    1    3    3  502    0  0.14392493285E+04  0.85652499628E+03  0.13132342975E+04  0.21282997044E+04  0.12699999809E+01 0.  1.
       -4    1    3    3    0  502 -0.14392493285E+04 -0.85652499628E+03 -0.96039347086E+03  0.19306555701E+04  0.12699999809E+01 0. -1.
</event>
<event>
 5   0  0.8329875E-09  0.4004931E+04  0.7818609E-02  0.8003553E-01
       -1   -1    0    0    0  501  0.00000000000E+00  0.00000000000E+00  0.21029080893E+04  0.21029080894E+04  0.50400001928E-02 0.  1.
        1   -1    0    0  501    0  0.00000000000E+00  0.00000000000E+00 -0.19068204077E+04  0.19068204077E+04  0.50400001928E-02 0. -1.
    10030    2    1    2    0    0  0.00000000000E+00  0.00000000000E+00  0.19608768165E+03  0.40097284971E+04  0.40049309908E+04 0.  0.
        2    1    3    3  502    0  0.11320992661E+04 -0.10692307761E+04  0.13585058165E+04  0.20665045982E+04  0.25500000920E-02 0.  1.
       -2    1    3    3    0  502 -0.11320992661E+04  0.10692307761E+04 -0.11624181349E+04  0.19432238989E+04  0.25500000920E-02 0. -1.
</event>
<event>
 5   0  0.2599332E-08  0.3932434E+04  0.7818609E-02  0.8018317E-01
        2   -1    0    0  501    0  0.00000000000E+00  0.00000000000E+00  0.16562490866E+04  0.16562490866E+04  0.25500000920E-02 0. -1.
       -2   -1    0    0    0  501  0.00000000000E+00  0.00000000000E+00 -0.23341950242E+04  0.23341950242E+04  0.25500000920E-02 0.  1.
    10030    2    1    2    0    0  0.00000000000E+00  0.00000000000E+00 -0.67794593760E+03  0.39904441109E+04  0.39324335351E+04 0.  0.
        2    1    3    3  502    0 -0.54882860569E+03  0.10072709404E+04  0.12815195470E+04  0.17199127697E+04  0.25500000920E-02 0. -1.
       -2    1    3    3    0  502  0.54882860569E+03 -0.10072709404E+04 -0.19594654846E+04  0.22705313412E+04  0.25500000920E-02 0.  1.
</event>
<event>
 5   0  0.8329875E-09  0.4000830E+04  0.7818609E-02  0.8004379E-01
        1   -1    0    0  501    0  0.00000000000E+00  0.00000000000E+00  0.14397973822E+04  0.14397973822E+04  0.50400001928E-02 0.  1.
       -1   -1    0    0    0  501  0.00000000000E+00  0.00000000000E+00 -0.27793223400E+04  0.27793223400E+04  0.50400001928E-02 0. -1.
    10030    2    1    2    0    0  0.00000000000E+00  0.00000000000E+00 -0.13395249577E+04  0.42191197222E+04  0.40008304286E+04 0.  0.
        3    1    3    3  502    0  0.27192212983E+03  0.65505890649E+03  0.13027507213E+04  0.14833082174E+04  0.10100000352E+00 0.  1.
       -3    1    3    3    0  502 -0.27192212983E+03 -0.65505890649E+03 -0.26422756791E+04  0.27358115048E+04  0.10100000352E+00 0. -1.
</event>
<event>
 5   0  0.2587493E-08  0.4007968E+04  0.7818609E-02  0.8002941E-01
       -2   -1    0    0    0  501  0.00000000000E+00  0.00000000000E+00  0.20103581160E+04  0.20103581160E+04  0.25500000920E-02 0. -1.
        2   -1    0    0  501    0  0.00000000000E+00  0.00000000000E+00 -0.19976298887E+04  0.19976298887E+04  0.25500000920E-02 0.  1.
    10030    2    1    2    0    0  0.00000000000E+00  0.00000000000E+00  0.12728227226E+02  0.40079880047E+04  0.40079677940E+04 0.  0.
        5    1    3    3  502    0 -0.31592490259E+03  0.91457754866E+03  0.17612714594E+04  0.20095670878E+04  0.46999998093E+01 0. -1.
       -5    1    3    3    0  502  0.31592490259E+03 -0.91457754866E+03 -0.17485432321E+04  0.19984209169E+04  0.46999998093E+01 0.  1.
</event>
<event>
 5   0  0.8329875E-09  0.3996231E+04  0.7818609E-02  0.8005307E-01
       -1   -1    0    0    0  501  0.00000000000E+00  0.00000000000E+00  0.24083914934E+04  0.24083914934E+04  0.50400001928E-02 0. -1.
        1   -1    0    0  501    0  0.00000000000E+00  0.00000000000E+00 -0.16577314358E+04  0.16577314358E+04  0.50400001928E-02 0.  1.
    10030    2    1    2    0    0  0.00000000000E+00  0.00000000000E+00  0.75066005756E+03  0.40661229292E+04  0.39962313688E+04 0.  0.
        3    1    3    3  502    0  0.13482237511E+04  0.10635730957E+04  0.14147497102E+04  0.22249520816E+04  0.10100000352E+00 0. -1.
       -3    1    3    3    0  502 -0.13482237511E+04 -0.10635730957E+04 -0.66408965261E+03  0.18411708475E+04  0.10100000352E+00 0.  1.
</event>
<event>
 5   0  0.2599332E-08  0.3991770E+04  0.7818609E-02  0.8006209E-01
       -2   -1    0    0    0  501  0.00000000000E+00  0.00000000000E+00  0.16823019774E+04  0.16823019774E+04  0.25500000920E-02 0. -1.
        2   -1    0    0  501    0  0.00000000000E+00  0.00000000000E+00 -0.23679201688E+04  0.23679201688E+04  0.25500000920E-02 0.  1.
    10030    2    1    2    0    0  0.00000000000E+00  0.00000000000E+00 -0.68561819145E+03  0.40502221462E+04  0.39917699244E+04 0.  0.
        2    1    3    3  502    0  0.76680271772E+03  0.97291419364E+03 -0.19306554452E+04  0.22939003649E+04  0.25500000920E-02 0.  1.
       -2    1    3    3    0  502 -0.76680271772E+03 -0.97291419364E+03  0.12450372538E+04  0.17563217813E+04  0.25500000920E-02 0. -1.
</event>
<event>
 5   0  0.2599332E-08  0.4001584E+04  0.7818609E-02  0.8004227E-01
        2   -1    0    0  501    0  0.00000000000E+00  0.00000000000E+00  0.20336093787E+04  0.20336093787E+04  0.25500000920E-02 0.  1.
       -2   -1    0    0    0  501  0.00000000000E+00  0.00000000000E+00 -0.19685041141E+04  0.19685041141E+04  0.25500000920E-02 0. -1.
    10030    2    1    2    0    0  0.00000000000E+00  0.00000000000E+00  0.65105264648E+02  0.40021134928E+04  0.40015839006E+04 0.  0.
        2    1    3    3  502    0 -0.19869184826E+04 -0.10130735165E+03 -0.17974932337E+03  0.19976030775E+04  0.25500000920E-02 0. -1.
       -2    1    3    3    0  502  0.19869184826E+04  0.10130735165E+03  0.24485458802E+03  0.20045104153E+04  0.25500000920E-02 0.  1.
</event>
<event>
 5   0  0.8329875E-09  0.4004235E+04  0.7818609E-02  0.8003693E-01
        1   -1    0    0  501    0  0.00000000000E+00  0.00000000000E+00  0.23119115140E+04  0.23119115140E+04  0.50400001928E-02 0.  1.
       -1   -1    0    0    0  501  0.00000000000E+00  0.00000000000E+00 -0.17338358407E+04  0.17338358407E+04  0.50400001928E-02 0. -1.
    10030    2    1    2    0    0  0.00000000000E+00  0.00000000000E+00  0.57807567336E+03  0.40457473547E+04  0.40042352795E+04 0.  0.
        1    1    3    3  502    0  0.14228463853E+04 -0.60639018740E+03  0.15735454550E+04  0.22064102508E+04  0.50400001928E-02 0.  1.
       -1    1    3    3    0  502 -0.14228463853E+04  0.60639018740E+03 -0.99546978167E+03  0.18393371039E+04  0.50400001928E-02 0. -1.
</event>
<event>
 5   0  0.2650452E-08  0.3988193E+04  0.7818609E-02  0.8006933E-01
        2   -1    0    0  501    0  0.00000000000E+00  0.00000000000E+00  0.22745018187E+04  0.22745018187E+04  0.25500000920E-02 0.  1.
       -2   -1    0    0    0  501  0.00000000000E+00  0.00000000000E+00 -0.17482601480E+04  0.17482601480E+04  0.25500000920E-02 0. -1.
    10030    2    1    2    0    0  0.00000000000E+00  0.00000000000E+00  0.52624167072E+03  0.40227619667E+04  0.39881930174E+04 0.  0.
        3    1    3    3  502    0 -0.11119160862E+04 -0.65246113749E+03  0.17976086084E+04  0.22121165516E+04  0.10100000352E+00 0.  1.
       -3    1    3    3    0  502  0.11119160862E+04  0.65246113749E+03 -0.12713669377E+04  0.18106454151E+04  0.10100000352E+00 0. -1.
</event>
<event>
 5   0  0.2599332E-08  0.4001627E+04  0.7818609E-02  0.8004218E-01
       -2   -1    0    0    0  501  0.00000000000E+00  0.00000000000E+00  0.22419664049E+04  0.22419664049E+04  0.25500000920E-02 0.  1.
        2   -1    0    0  501    0  0.00000000000E+00  0.00000000000E+00 -0.17855994010E+04  0.17855994010E+04  0.25500000920E-02 0. -1.
    10030    2    1    2    0    0  0.00000000000E+00  0.00000000000E+00  0.45636700392E+03  0.40275658060E+04  0.40016266042E+04 0.  0.
        2    1    3    3  502    0  0.72314109384E+03  0.16084036489E+04  0.11794867459E+04  0.21215759055E+04  0.25500000920E-02 0.  1.
       -2    1    3    3    0  502 -0.72314109384E+03 -0.16084036489E+04 -0.72311974195E+03  0.19059899004E+04  0.25500000920E-02 0. -1.
</event>
<event>
 5   0  0.8329875E-09  0.4001490E+04  0.7818609E-02  0.8004246E-01
       -1   -1    0    0    0  501  0.00000000000E+00  0.00000000000E+00  0.17265612917E+04  0.17265612917E+04  0.50400001928E-02 0. -1.
        1   -1    0    0  501    0  0.00000000000E+00  0.00000000000E+00 -0.23184694354E+04  0.23184694354E+04  0.50400001928E-02 0.  1.
    10030    2    1    2    0    0  0.00000000000E+00  0.00000000000E+00 -0.59190814371E+03  0.40450307270E+04  0.40014895142E+04 0.  0.
        3    1    3    3  502    0 -0.12835681863E+03  0.17566274358E+04  0.66345912682E+03  0.18821247154E+04  0.10100000352E+00 0. -1.
       -3    1    3    3    0  502  0.12835681863E+03 -0.17566274358E+04 -0.12553672705E+04  0.21629060117E+04  0.10100000352E+00 0.  1.
</event>
<event>
 5   0  0.8329875E-09  0.4001174E+04  0.7818609E-02  0.8004310E-01
        1   -1    0    0  501    0  0.00000000000E+00  0.00000000000E+00  0.20918666980E+04  0.20918666980E+04  0.50400001928E-02 0.  1.
       -1   -1    0    0    0  501  0.00000000000E+00  0.00000000000E+00 -0.19132905733E+04  0.19132905733E+04  0.50400001928E-02 0. -1.
    10030    2    1    2    0    0  0.00000000000E+00  0.00000000000E+00  0.17857612468E+03  0.40051572713E+04  0.40011742446E+04 0.  0.
        5    1    3    3  502    0 -0.16215230290E+04  0.71697283560E+03 -0.83842455610E+03  0.19612151353E+04  0.46999998093E+01 0. -1.
       -5    1    3    3    0  502  0.16215230290E+04 -0.71697283560E+03  0.10170006808E+04  0.20439421360E+04  0.46999998093E+01 0.  1.
</event>
<event>
 5   0  0.8329875E-09  0.3982962E+04  0.7818609E-02  0.8007993E-01
        1   -1    0    0  501    0  0.00000000000E+00  0.00000000000E+00  0.18872427283E+04  0.18872427283E+04  0.50400001928E-02 0.  1.
       -1   -1    0    0    0  501  0.00000000000E+00  0.00000000000E+00 -0.21014762113E+04  0.21014762113E+04  0.50400001928E-02 0. -1.
    10030    2    1    2    0    0  0.00000000000E+00  0.00000000000E+00 -0.21423348301E+03  0.39887189396E+04  0.39829615606E+04 0.  0.
        4    1    3    3  502    0 -0.19227847805E+04 -0.14097539916E+03 -0.60685581794E+03  0.20212003790E+04  0.12699999809E+01 0.  1.
       -4    1    3    3    0  502  0.19227847805E+04  0.14097539916E+03  0.39262233493E+03  0.19675185606E+04  0.12699999809E+01 0. -1.
</event>
<event>
 5   0  0.2650452E-08  0.4003846E+04  0.7818609E-02  0.8003771E-01
        2   -1    0    0  501    0  0.00000000000E+00  0.00000000000E+00  0.14218738664E+04  0.14218738664E+04  0.25500000920E-02 0.  1.
       -2   -1    0    0    0  501  0.00000000000E+00  0.00000000000E+00 -0.28186009699E+04  0.28186009699E+04  0.25500000920E-02 0. -1.
    10030    2    1    2    0    0  0.00000000000E+00  0.00000000000E+00 -0.13967271035E+04  0.42404748362E+04  0.40038456807E+04 0.  0.
        3    1    3    3  502    0 -0.19252467423E+04 -0.32025252860E+03 -0.11702975177E+04  0.22756829724E+04  0.10100000352E+00 0. -1.
       -3    1    3    3    0  502  0.19252467423E+04  0.32025252860E+03 -0.22642958576E+03  0.19647918638E+04  0.10100000352E+00 0.  1.
</event>
<event>
 5   0  0.2599332E-08  0.3947413E+04  0.7818609E-02  0.8015240E-01
       -2   -1    0    0    0  501  0.00000000000E+00  0.00000000000E+00  0.16059257669E+04  0.16059257669E+04  0.25500000920E-02 0.  1.
        2   -1    0    0  501    0  0.00000000000E+00  0.00000000000E+00 -0.24257147658E+04  0.24257147658E+04  0.25500000920E-02 0. -1.
    10030    2    1    2    0    0  0.00000000000E+00  0.00000000000E+00 -0.81978899885E+03  0.40316405327E+04  0.39474132520E+04 0.  0.
        2    1    3    3  502    0 -0.14612403143E+04 -0.60333327254E+03 -0.16167520698E+04  0.22612212517E+04  0.25500000920E-02 0. -1.
       -2    1    3    3    0  502  0.14612403143E+04  0.60333327254E+03  0.79696307092E+03  0.17704192810E+04  0.25500000920E-02 0.  1.
</event>
<event>
 5   0  0.2612363E-08  0.4028079E+04  0.7818609E-02  0.7998906E-01
        2   -1    0    0  501    0  0.00000000000E+00  0.00000000000E+00  0.15199557587E+04  0.15199557587E+04  0.25500000920E-02 0.  1.
       -2   -1    0    0    0  501  0.00000000000E+00  0.00000000000E+00 -0.26687327501E+04  0.26687327501E+04  0.25500000920E-02 0. -1.
    10030    2    1    2    0    0  0.00000000000E+00  0.00000000000E+00 -0.11487769915E+04  0.41886885088E+04  0.40280793000E+04 0.  0.
        4    1    3    3  502    0  0.70782046813E+03  0.14059364267E+04  0.73216764794E+03  0.17360121338E+04  0.12699999809E+01 0.  1.
       -4    1    3    3    0  502 -0.70782046813E+03 -0.14059364267E+04 -0.18809446394E+04  0.24526763750E+04  0.12699999809E+01 0. -1.
</event>
<event>
 5   0  0.8329875E-09  0.3997598E+04  0.7818609E-02  0.8005031E-01
       -1   -1    0    0    0  501  0.00000000000E+00  0.00000000000E+00  0.17340845547E+04  0.17340845547E+04  0.50400001928E-02 0.  1.
        1   -1    0    0  501    0  0.00000000000E+00  0.00000000000E+00 -0.23039227497E+04  0.23039227497E+04  0.50400001928E-02 0. -1.
    10030    2    1    2    0    0  0.00000000000E+00  0.00000000000E+00 -0.56983819502E+03  0.40380073044E+04  0.39975977063E+04 0.  0.
        2    1    3    3  502    0  0.96938113581E+03  0.17389130790E+04 -0.10513575751E+03  0.19936328675E+04  0.25500000920E-02 0. -1.
       -2    1    3    3    0  502 -0.96938113581E+03 -0.17389130790E+04 -0.46470243751E+03  0.20443744369E+04  0.25500000920E-02 0.  1.
</event>
<event>
 5   0  0.2746876E-08  0.3999749E+04  0.7818609E-02  0.8004597E-01
       -2   -1    0    0    0  501  0.00000000000E+00  0.00000000000E+00  0.28828759837E+04  0.28828759837E+04  0.25500000920E-02 0. -1.
        2   -1    0    0  501    0  0.00000000000E+00  0.00000000000E+00 -0.13873290554E+04  0.13873290554E+04  0.25500000920E-02 0.  1.
    10030    2    1    2    0    0  0.00000000000E+00  0.00000000000E+00  0.14955469282E+04  0.42702050391E+04  0.39997487998E+04 0.  0.
        1    1    3    3  502    0 -0.17667001441E+04 -0.72555101172E+03  0.13810465824E+04  0.23568927282E+04  0.50400001928E-02 0.  1.
       -1    1    3    3    0  502  0.17667001441E+04  0.72555101172E+03  0.11450034586E+03  0.19133123109E+04  0.50400001928E-02 0. -1.
</event>
<event>
 5   0  0.2599332E-08  0.4001023E+04  0.7818609E-02  0.8004340E-01
       -2   -1    0    0    0  501  0.00000000000E+00  0.00000000000E+00  0.22829809244E+04  0.22829809244E+04  0.25500000920E-02 0.  1.
        2   -1    0    0  501    0  0.00000000000E+00  0.00000000000E+00 -0.17529914464E+04  0.17529914464E+04  0.25500000920E-02 0. -1.
    10030    2    1    2    0    0  0.00000000000E+00  0.00000000000E+00  0.52998947798E+03  0.40359723708E+04  0.40010228856E+04 0.  0.
        2    1    3    3  502    0  0.29841041466E+03 -0.91120966137E+03 -0.15061023627E+04  0.17854120392E+04  0.25500000920E-02 0. -1.
       -2    1    3    3    0  502 -0.29841041466E+03  0.91120966137E+03  0.20360918407E+04  0.22505603317E+04  0.25500000920E-02 0.  1.
</event>
<event>
 5   0  0.8329875E-09  0.3996065E+04  0.7818609E-02  0.8005341E-01
       -1   -1    0    0    0  501  0.00000000000E+00  0.00000000000E+00  0.19947436624E+04  0.19947436624E+04  0.50400001928E-02 0.  1.
        1   -1    0    0  501    0  0.00000000000E+00  0.00000000000E+00 -0.20013265547E+04  0.20013265547E+04  0.50400001928E-02 0. -1.
    10030    2    1    2    0    0  0.00000000000E+00  0.00000000000E+00 -0.65828923600E+01  0.39960702171E+04  0.39960647950E+04 0.  0.
        1    1    3    3  502    0  0.18179747799E+04  0.82878933510E+03  0.11179197406E+02  0.19980112705E+04  0.50400001928E-02 0.  1.
       -1    1    3    3    0  502 -0.18179747799E+04 -0.82878933510E+03 -0.17762089766E+02  0.19980589467E+04  0.50400001928E-02 0. -1.
</event>
<event>
 5   0  0.8329875E-09  0.3996303E+04  0.7818609E-02  0.8005293E-01
       -1   -1    0    0    0  501  0.00000000000E+00  0.00000000000E+00  0.21495983503E+04  0.21495983503E+04  0.50400001928E-02 0.  1.
        1   -1    0    0  501    0  0.00000000000E+00  0.00000000000E+00 -0.18573750253E+04  0.18573750253E+04  0.50400001928E-02 0. -1.
    10030    2    1    2    0    0  0.00000000000E+00  0.00000000000E+00  0.29222332500E+03  0.40069733757E+04  0.39963034371E+04 0.  0.
        5    1    3    3  502    0  0.17943600939E+04  0.75487783244E+03  0.59789154692E+03  0.20364344036E+04  0.46999998093E+01 0.  1.
       -5    1    3    3    0  502 -0.17943600939E+04 -0.75487783244E+03 -0.30566822192E+03  0.19705389720E+04  0.46999998093E+01 0. -1.
</event>
<event>
 5   0  0.8329875E-09  0.3993903E+04  0.7818609E-02  0.8005778E-01
        1   -1    0    0  501    0  0.00000000000E+00  0.00000000000E+00  0.15174498898E+04  0.15174498898E+04  0.50400001928E-02 0. -1.
       -1   -1    0    0    0  501  0.00000000000E+00  0.00000000000E+00 -0.26279721152E+04  0.26279721152E+04  0.50400001928E-02 0.  1.
    10030    2    1    2    0    0  0.00000000000E+00  0.00000000000E+00 -0.11105222254E+04  0.41454220050E+04  0.39939033521E+04 0.  0.
        4    1    3    3  502    0 -0.82461326792E+03  0.75193935555E+03  0.11635879798E+04  0.16122463943E+04  0.12699999809E+01 0. -1.
       -4    1    3    3    0  502  0.82461326792E+03 -0.75193935555E+03 -0.22741102053E+04  0.25331756107E+04  0.12699999809E+01 0.  1.
</event>
<event>
 5   0  0.8329875E-09  0.3999865E+04  0.7818609E-02  0.8004574E-01
        1   -1    0    0  501    0  0.00000000000E+00  0.00000000000E+00  0.20134717675E+04  0.20134717675E+04  0.50400001928E-02 0.  1.
       -1   -1    0    0    0  501  0.00000000000E+00  0.00000000000E+00 -0.19864837812E+04  0.19864837813E+04  0.50400001928E-02 0. -1.
    10030    2    1    2    0    0  0.00000000000E+00  0.00000000000E+00  0.26987986253E+02  0.39999555488E+04  0.39998645028E+04 0.  0.
        3    1    3    3  502    0 -0.16261816574E+04 -0.15856399452E+03 -0.11398404036E+04  0.19921961447E+04  0.10100000352E+00 0. -1.
       -3    1    3    3    0  502  0.16261816574E+04  0.15856399452E+03  0.11668283898E+04  0.20077594041E+04  0.10100000352E+00 0.  1.
</event>
<event>
 5   0  0.2650452E-08  0.3982945E+04  0.7818609E-02  0.8007996E-01
        2   -1    0    0  501    0  0.00000000000E+00  0.00000000000E+00  0.21318324238E+04  0.21318324238E+04  0.25500000920E-02 0. -1.
       -2   -1    0    0    0  501  0.00000000000E+00  0.00000000000E+00 -0.18603539661E+04  0.18603539661E+04  0.25500000920E-02 0.  1.
    10030    2    1    2    0    0  0.00000000000E+00  0.00000000000E+00  0.27147845775E+03  0.39921863899E+04  0.39829450936E+04 0.  0.
        3    1    3    3  502    0  0.16678666342E+04 -0.65914597807E+03  0.10036063741E+04  0.20551102876E+04  0.10100000352E+00 0. -1.
       -3    1    3    3    0  502 -0.16678666342E+04  0.65914597807E+03 -0.73212791632E+03  0.19370761023E+04  0.10100000352E+00 0.  1.
</event>
<event>
 5   0  0.8329875E-09  0.4004252E+04  0.7818609E-02  0.8003689E-01
        1   -1    0    0  501    0  0.00000000000E+00  0.00000000000E+00  0.14497210655E+04  0.14497210656E+04  0.50400001928E-02 0. -1.
       -1   -1    0    0    0  501  0.00000000000E+00  0.00000000000E+00 -0.27650202575E+04  0.27650202575E+04  0.50400001928E-02 0.  1.
    10030    2    1    2    0    0  0.00000000000E+00  0.00000000000E+00 -0.13152991919E+04  0.42147413230E+04  0.40042517973E+04 0.  0.
        2    1    3    3  502    0 -0.51092021160E+03 -0.52841972672E+03  0.13025676027E+04  0.14956434166E+04  0.25500000920E-02 0. -1.
       -2    1    3    3    0  502  0.51092021160E+03  0.52841972672E+03 -0.26178667946E+04  0.27190979064E+04  0.25500000920E-02 0.  1.
</event>
<event>
 5   0  0.2746876E-08  0.3989947E+04  0.7818609E-02  0.8006578E-01
        2   -1    0    0  501    0  0.00000000000E+00  0.00000000000E+00  0.14140790677E+04  0.14140790677E+04  0.25500000920E-02 0.  1.
       -2   -1    0    0    0  501  0.00000000000E+00  0.00000000000E+00 -0.28144952712E+04  0.28144952712E+04  0.25500000920E-02 0. -1.
    10030    2    1    2    0    0  0.00000000000E+00  0.00000000000E+00 -0.14004162035E+04  0.42285743389E+04  0.39899467912E+04 0.  0.
        1    1    3    3  502    0  0.10576137474E+03 -0.18878700385E+04 -0.26017352358E+02  0.18910091627E+04  0.50400001928E-02 0. -1.
       -1    1    3    3    0  502 -0.10576137474E+03  0.18878700385E+04 -0.13743988511E+04  0.23375651762E+04  0.50400001928E-02 0.  1.
</event>
<event>
 5   0  0.8329875E-09  0.4014901E+04  0.7818609E-02  0.8001547E-01
        1   -1    0    0  501    0  0.00000000000E+00  0.00000000000E+00  0.13624543508E+04  0.13624543508E+04  0.50400001928E-02 0. -1.
       -1   -1    0    0    0  501  0.00000000000E+00  0.00000000000E+00 -0.29577921225E+04  0.29577921225E+04  0.50400001928E-02 0.  1.
    10030    2    1    2    0    0  0.00000000000E+00  0.00000000000E+00 -0.15953377717E+04  0.43202464733E+04  0.40149006195E+04 0.  0.
        2    1    3    3  502    0  0.26770278549E+03  0.11657038731E+03 -0.29348207903E+04  0.29493094968E+04  0.25500000920E-02 0.  1.
       -2    1    3    3    0  502 -0.26770278549E+03 -0.11657038731E+03  0.13394830186E+04  0.13709369766E+04  0.25500000920E-02 0. -1.
</event>
<event>
 5   0  0.8329875E-09  0.4000168E+04  0.7818609E-02  0.8004513E-01
       -1   -1    0    0    0  501  0.00000000000E+00  0.00000000000E+00  0.27257310228E+04  0.27257310228E+04  0.50400001928E-02 0.  1.
        1   -1    0    0  501    0  0.00000000000E+00  0.00000000000E+00 -0.14676196758E+04  0.14676196758E+04  0.50400001928E-02 0. -1.
    10030    2    1    2    0    0  0.00000000000E+00  0.00000000000E+00  0.12581113470E+04  0.41933506986E+04  0.40001682364E+04 0.  0.
        3    1    3    3  502    0  0.10633217297E+04 -0.38843864296E+03 -0.10994525968E+04  0.15780791181E+04  0.10100000352E+00 0. -1.
       -3    1    3    3    0  502 -0.10633217297E+04  0.38843864296E+03  0.23575639438E+04  0.26152715804E+04  0.10100000352E+00 0.  1.
</event>
<event>
 5   0  0.2612363E-08  0.3991793E+04  0.7818609E-02  0.8006204E-01
       -2   -1    0    0    0  501  0.00000000000E+00  0.00000000000E+00  0.24085579913E+04  0.24085579913E+04  0.25500000920E-02 0.  1.
        2   -1    0    0  501    0  0.00000000000E+00  0.00000000000E+00 -0.16539371671E+04  0.16539371671E+04  0.25500000920E-02 0. -1.
    10030    2    1    2    0    0  0.00000000000E+00  0.00000000000E+00  0.75462082414E+03  0.40624951584E+04  0.39917933719E+04 0.  0.
        4    1    3    3  502    0  0.60309699076E+03  0.16643260677E+04  0.13155362123E+04  0.22055258734E+04  0.12699999809E+01 0.  1.
       -4    1    3    3    0  502 -0.60309699076E+03 -0.16643260677E+04 -0.56091538811E+03  0.18569692850E+04  0.12699999809E+01 0. -1.
</event>
<event>
 5   0  0.8329875E-09  0.3982261E+04  0.7818609E-02  0.8008135E-01
       -1   -1    0    0    0  501  0.00000000000E+00  0.00000000000E+00  0.22569862567E+04  0.22569862567E+04  0.50400001928E-02 0.  1.
        1   -1    0    0  501    0  0.00000000000E+00  0.00000000000E+00 -0.17565907399E+04  0.17565907399E+04  0.50400001928E-02 0. -1.
    10030    2    1    2    0    0  0.00000000000E+00  0.00000000000E+00  0.50039551676E+03  0.40135769967E+04  0.39822612464E+04 0.  0.
        4    1    3    3  502    0 -0.33520219390E+03  0.13986368882E+04  0.16379987385E+04  0.21798135553E+04  0.12699999809E+01 0.  1.
       -4    1    3    3    0  502  0.33520219390E+03 -0.13986368882E+04 -0.11376032217E+04  0.18337634413E+04  0.12699999809E+01 0. -1.
</event>
<event>
 5   0  0.2599332E-08  0.4004520E+04  0.7818609E-02  0.8003635E-01
        2   -1    0    0  501    0  0.00000000000E+00  0.00000000000E+00  0.12753550539E+04  0.12753550539E+04  0.25500000920E-02 0. -1.
       -2   -1    0    0    0  501  0.00000000000E+00  0.00000000000E+00 -0.31434729679E+04  0.31434729679E+04  0.25500000920E-02 0.  1.
    10030    2    1    2    0    0  0.00000000000E+00  0.00000000000E+00 -0.18681179140E+04  0.44188280218E+04  0.40045195150E+04 0.  0.
        2    1    3    3  502    0 -0.10520310514E+04 -0.26526149133E+03 -0.27909930774E+04  0.29944574383E+04  0.25500000920E-02 0.  1.
       -2    1    3    3    0  502  0.10520310514E+04  0.26526149133E+03  0.92287516339E+03  0.14243705835E+04  0.25500000920E-02 0. -1.
</event>
<event>
 5   0  0.8329875E-09  0.4001643E+04  0.7818609E-02  0.8004215E-01
        1   -1    0    0  501    0  0.00000000000E+00  0.00000000000E+00  0.22529079760E+04  0.22529079760E+04  0.50400001928E-02 0.  1.
       -1   -1    0    0    0  501  0.00000000000E+00  0.00000000000E+00 -0.17769416368E+04  0.17769416368E+04  0.50400001928E-02 0. -1.
    10030    2    1    2    0    0  0.00000000000E+00  0.00000000000E+00  0.47596633922E+03  0.40298496129E+04  0.40016426560E+04 0.  0.
        5    1    3    3  502    0  0.12417995992E+04 -0.63177131012E+03  0.16840936211E+04  0.21857251995E+04  0.46999998093E+01 0.  1.
       -5    1    3    3    0  502 -0.12417995992E+04  0.63177131012E+03 -0.12081272819E+04  0.18441244134E+04  0.46999998093E+01 0. -1.
</event>
<event>
 5   0  0.2650452E-08  0.3998722E+04  0.7818609E-02  0.8004804E-01
       -2   -1    0    0    0  501  0.00000000000E+00  0.00000000000E+00  0.16906961686E+04  0.16906961686E+04  0.25500000920E-02 0.  1.
        2   -1    0    0  501    0  0.00000000000E+00  0.00000000000E+00 -0.23643782595E+04  0.23643782595E+04  0.25500000920E-02 0. -1.
    10030    2    1    2    0    0  0.00000000000E+00  0.00000000000E+00 -0.67368209092E+03  0.40550744282E+04  0.39987224283E+04 0.  0.
        3    1    3    3  502    0 -0.43537536946E+03 -0.71915857333E+03  0.15027530757E+04  0.17219197375E+04  0.10100000352E+00 0.  1.
       -3    1    3    3    0  502  0.43537536946E+03  0.71915857333E+03 -0.21764351666E+04  0.23331546906E+04  0.10100000352E+00 0. -1.
</event>
<event>
 5   0  0.8329875E-09  0.4001018E+04  0.7818609E-02  0.8004341E-01
        1   -1    0    0  501    0  0.00000000000E+00  0.00000000000E+00  0.19047609093E+04  0.19047609093E+04  0.50400001928E-02 0. -1.
       -1   -1    0    0    0  501  0.00000000000E+00  0.00000000000E+00 -0.21010704267E+04  0.21010704267E+04  0.50400001928E-02 0.  1.
    10030    2    1    2    0    0  0.00000000000E+00  0.00000000000E+00 -0.19630951740E+03  0.40058313359E+04  0.40010182786E+04 0.  0.
        2    1    3    3  502    0  0.12138827102E+04  0.13209314773E+04  0.78815905825E+03  0.19594810290E+04  0.25500000920E-02 0.  1.
       -2    1    3    3    0  502 -0.12138827102E+04 -0.13209314773E+04 -0.98446857565E+03  0.20463503069E+04  0.25500000920E-02 0. -1.
</event>
<event>
 5   0  0.2599332E-08  0.3998493E+04  0.7818609E-02  0.8004851E-01
       -2   -1    0    0    0  501  0.00000000000E+00  0.00000000000E+00  0.15456400693E+04  0.15456400693E+04  0.25500000920E-02 0. -1.
        2   -1    0    0  501    0  0.00000000000E+00  0.00000000000E+00 -0.25859756214E+04  0.25859756214E+04  0.25500000920E-02 0.  1.
    10030    2    1    2    0    0  0.00000000000E+00  0.00000000000E+00 -0.10403355521E+04  0.41316156907E+04  0.39984934857E+04 0.  0.
        2    1    3    3  502    0  0.10469098039E+04  0.16478739397E+04 -0.75156764398E+02  0.19537546412E+04  0.25500000920E-02 0. -1.
       -2    1    3    3    0  502 -0.10469098039E+04 -0.16478739397E+04 -0.96517878766E+03  0.21778610495E+04  0.25500000920E-02 0.  1.
</event>
<event>
 5   0  0.2746876E-08  0.4017387E+04  0.7818609E-02  0.8001048E-01
        2   -1    0    0  501    0  0.00000000000E+00  0.00000000000E+00  0.20571395142E+04  0.20571395142E+04  0.25500000920E-02 0. -1.
       -2   -1    0    0    0  501  0.00000000000E+00  0.00000000000E+00 -0.19613880820E+04  0.19613880820E+04  0.25500000920E-02 0.  1.
    10030    2    1    2    0    0  0.00000000000E+00  0.00000000000E+00  0.95751432131E+02  0.40185275962E+04  0.40173866760E+04 0.  0.
        1    1    3    3  502    0  0.71302613082E+03 -0.61076247071E+03 -0.17284134585E+04  0.19669392829E+04  0.50400001928E-02 0.  1.
       -1    1    3    3    0  502 -0.71302613082E+03  0.61076247071E+03  0.18241648907E+04  0.20515883133E+04  0.50400001928E-02 0. -1.
</event>
<event>
 5   0  0.8329875E-09  0.3994847E+04  0.7818609E-02  0.8005587E-01
        1   -1    0    0  501    0  0.00000000000E+00  0.00000000000E+00  0.15197828369E+04  0.15197828369E+04  0.50400001928E-02 0. -1.
       -1   -1    0    0    0  501  0.00000000000E+00  0.00000000000E+00 -0.26251783634E+04  0.26251783634E+04  0.50400001928E-02 0.  1.
    10030    2    1    2    0    0  0.00000000000E+00  0.00000000000E+00 -0.11053955265E+04  0.41449612003E+04  0.39948471913E+04 0.  0.
        3    1    3    3  502    0 -0.50500645849E+03  0.10304583058E+04  0.11436136104E+04  0.16201012138E+04  0.10100000352E+00 0. -1.
       -3    1    3    3    0  502  0.50500645849E+03 -0.10304583058E+04 -0.22490091369E+04  0.25248599864E+04  0.10100000352E+00 0.  1.
</event>
<event>
 5   0  0.8329875E-09  0.4020982E+04  0.7818609E-02  0.8000327E-01
       -1   -1    0    0    0  501  0.00000000000E+00  0.00000000000E+00  0.32794243849E+04  0.32794243849E+04  0.50400001928E-02 0. -1.
        1   -1    0    0  501    0  0.00000000000E+00  0.00000000000E+00 -0.12325560655E+04  0.12325560655E+04  0.50400001928E-02 0.  1.
    10030    2    1    2    0    0  0.00000000000E+00  0.00000000000E+00  0.20468683194E+04  0.45119804505E+04  0.40209821771E+04 0.  0.
        4    1    3    3  502    0 -0.19856653480E+04 -0.21576381601E+02  0.13760342993E+04  0.24159479341E+04  0.12699999809E+01 0. -1.
       -4    1    3    3    0  502  0.19856653480E+04  0.21576381601E+02  0.67083402004E+03  0.20960325164E+04  0.12699999809E+01 0.  1.
</event>
<event>
 5   0  0.2599332E-08  0.3990779E+04  0.7818609E-02  0.8006409E-01
        2   -1    0    0  501    0  0.00000000000E+00  0.00000000000E+00  0.23023849961E+04  0.23023849961E+04  0.25500000920E-02 0.  1.
       -2   -1    0    0    0  501  0.00000000000E+00  0.00000000000E+00 -0.17293280219E+04  0.17293280219E+04  0.25500000920E-02 0. -1.
    10030    2    1    2    0    0  0.00000000000E+00  0.00000000000E+00  0.57305697420E+03  0.40317130180E+04  0.39907788167E+04 0.  0.
        2    1    3    3  502    0  0.14849685225E+04  0.64455490581E+03 -0.89205522030E+03  0.18483357529E+04  0.25500000920E-02 0. -1.
       -2    1    3    3    0  502 -0.14849685225E+04 -0.64455490581E+03  0.14651121945E+04  0.21833772651E+04  0.25500000920E-02 0.  1.
</event>
<event>
 5   0  0.2612363E-08  0.3993830E+04  0.7818609E-02  0.8005792E-01
        2   -1    0    0  501    0  0.00000000000E+00  0.00000000000E+00  0.19351978418E+04  0.19351978418E+04  0.25500000920E-02 0.  1.
       -2   -1    0    0    0  501  0.00000000000E+00  0.00000000000E+00 -0.20605999333E+04  0.20605999333E+04  0.25500000920E-02 0. -1.
    10030    2    1    2    0    0  0.00000000000E+00  0.00000000000E+00 -0.12540209143E+03  0.39957977751E+04  0.39938295125E+04 0.  0.
        4    1    3    3  502    0  0.56193157978E+02  0.15182386234E+04 -0.13592798184E+04  0.20385900584E+04  0.12699999809E+01 0. -1.
       -4    1    3    3    0  502 -0.56193157978E+02 -0.15182386234E+04  0.12338777269E+04  0.19572077167E+04  0.12699999809E+01 0.  1.
</event>
<event>
 5   0  0.2650452E-08  0.4001369E+04  0.7818609E-02  0.8004271E-01
        2   -1    0    0  501    0  0.00000000000E+00  0.00000000000E+00  0.20241267514E+04  0.20241267514E+04  0.25500000920E-02 0. -1.
       -2   -1    0    0    0  501  0.00000000000E+00  0.00000000000E+00 -0.19775133432E+04  0.19775133432E+04  0.25500000920E-02 0.  1.
    10030    2    1    2    0    0  0.00000000000E+00  0.00000000000E+00  0.46613408211E+02  0.40016400945E+04  0.40013685954E+04 0.  0.
        3    1    3    3  502    0 -0.38977594589E+03  0.14659406689E+04  0.13279374058E+04  0.20160171370E+04  0.10100000352E+00 0. -1.
       -3    1    3    3    0  502  0.38977594589E+03 -0.14659406689E+04 -0.12813239976E+04  0.19856229576E+04  0.10100000352E+00 0.  1.
</event>
<event>
 5   0  0.2587493E-08  0.4000512E+04  0.7818609E-02  0.8004443E-01
        2   -1    0    0  501    0  0.00000000000E+00  0.00000000000E+00  0.13458233861E+04  0.13458233861E+04  0.25500000920E-02 0. -1.
       -2   -1    0    0    0  501  0.00000000000E+00  0.00000000000E+00 -0.29729184308E+04  0.29729184308E+04  0.25500000920E-02 0.  1.
    10030    2    1    2    0    0  0.00000000000E+00  0.00000000000E+00 -0.16270950447E+04  0.43187418169E+04  0.40005115419E+04 0.  0.
        5    1    3    3  502    0 -0.13958073833E+04 -0.42300347263E+03 -0.22913019639E+04  0.27161179962E+04  0.46999998093E+01 0.  1.
       -5    1    3    3    0  502  0.13958073833E+04  0.42300347263E+03  0.66420691923E+03  0.16026238207E+04  0.46999998093E+01 0. -1.
</event>
<event>
 5   0  0.8329875E-09  0.3988217E+04  0.7818609E-02  0.8006928E-01
       -1   -1    0    0    0  501  0.00000000000E+00  0.00000000000E+00  0.15987374937E+04  0.15987374937E+04  0.50400001928E-02 0.  1.
        1   -1    0    0  501    0  0.00000000000E+00  0.00000000000E+00 -0.24872555651E+04  0.24872555651E+04  0.50400001928E-02 0. -1.
    10030    2    1    2    0    0  0.00000000000E+00  0.00000000000E+00 -0.88851807141E+03  0.40859930588E+04  0.39882170093E+04 0.  0.
        4    1    3    3  502    0  0.13801060708E+04 -0.10872366544E+04 -0.14106178105E+04  0.22531357104E+04  0.12699999809E+01 0. -1.
       -4    1    3    3    0  502 -0.13801060708E+04  0.10872366544E+04  0.52209973907E+03  0.18328573484E+04  0.12699999809E+01 0.  1.
</event>
<event>
 5   0  0.8329875E-09  0.3990910E+04  0.7818609E-02  0.8006383E-01
       -1   -1    0    0    0  501  0.00000000000E+00  0.00000000000E+00  0.20334921317E+04  0.20334921317E+04  0.50400001928E-02 0.  1.
        1   -1    0    0  501    0  0.00000000000E+00  0.00000000000E+00 -0.19581293852E+04  0.19581293852E+04  0.50400001928E-02 0. -1.
    10030    2    1    2    0    0  0.00000000000E+00  0.00000000000E+00  0.75362746470E+02  0.39916215168E+04  0.39909100203E+04 0.  0.
        5    1    3    3  502    0 -0.65959914068E+03  0.12779537613E+01  0.19212977576E+04  0.20313738757E+04  0.46999998093E+01 0.  1.
       -5    1    3    3    0  502  0.65959914068E+03 -0.12779537613E+01 -0.18459350111E+04  0.19602476412E+04  0.46999998093E+01 0. -1.
</event>
<event>
 5   0  0.8329875E-09  0.3994897E+04  0.7818609E-02  0.8005577E-01
        1   -1    0    0  501    0  0.00000000000E+00  0.00000000000E+00  0.14516048404E+04  0.14516048404E+04  0.50400001928E-02 0. -1.
       -1   -1    0    0    0  501  0.00000000000E+00  0.00000000000E+00 -0.27485442384E+04  0.27485442384E+04  0.50400001928E-02 0.  1.
    10030    2    1    2    0    0  0.00000000000E+00  0.00000000000E+00 -0.12969393980E+04  0.42001490788E+04  0.39948968049E+04 0.  0.
        1    1    3    3  502    0  0.17435933737E+04 -0.88792147553E+03 -0.10706970176E+04  0.22304516365E+04  0.50400001928E-02 0.  1.
       -1    1    3    3    0  502 -0.17435933737E+04  0.88792147553E+03 -0.22624238046E+03  0.19696974423E+04  0.50400001928E-02 0. -1.
</event>
<event>
 5   0  0.2612363E-08  0.3968084E+04  0.7818609E-02  0.8011016E-01
        2   -1    0    0  501    0  0.00000000000E+00  0.00000000000E+00  0.25915034958E+04  0.25915034958E+04  0.25500000920E-02 0.  1.
       -2   -1    0    0    0  501  0.00000000000E+00  0.00000000000E+00 -0.15189727429E+04  0.15189727429E+04  0.25500000920E-02 0. -1.
    10030    2    1    2    0    0  0.00000000000E+00  0.00000000000E+00  0.10725307530E+04  0.41104762387E+04  0.39680842598E+04 0.  0.
        4    1    3    3  502    0 -0.16336001409E+04  0.24296034555E+03 -0.60261507008E+03  0.17580744254E+04  0.12699999809E+01 0. -1.
       -4    1    3    3    0  502  0.16336001409E+04 -0.24296034555E+03  0.16751458230E+04  0.23524018133E+04  0.12699999809E+01 0.  1.
</event>
<event>
 5   0  0.2612363E-08  0.3999084E+04  0.7818609E-02  0.8004731E-01
        2   -1    0    0  501    0  0.00000000000E+00  0.00000000000E+00  0.33163755360E+04  0.33163755360E+04  0.25500000920E-02 0.  1.
       -2   -1    0    0    0  501  0.00000000000E+00  0.00000000000E+00 -0.12055838891E+04  0.12055838891E+04  0.25500000920E-02 0. -1.
    10030    2    1    2    0    0  0.00000000000E+00  0.00000000000E+00  0.21107916469E+04  0.45219594251E+04  0.39990843534E+04 0.  0.
        4    1    3    3  502    0  0.19760467932E+03 -0.14665162112E+04 -0.46521940964E+03  0.15511763661E+04  0.12699999809E+01 0. -1.
       -4    1    3    3    0  502 -0.19760467932E+03  0.14665162112E+04  0.25760110565E+04  0.29707830589E+04  0.12699999809E+01 0.  1.
</event>
<event>
 5   0  0.2599332E-08  0.4000756E+04  0.7818609E-02  0.8004394E-01
        2   -1    0    0  501    0  0.00000000000E+00  0.00000000000E+00  0.16345944949E+04  0.16345944949E+04  0.25500000920E-02 0. -1.
       -2   -1    0    0    0  501  0.00000000000E+00  0.00000000000E+00 -0.24480157745E+04  0.24480157745E+04  0.25500000920E-02 0.  1.
    10030    2    1    2    0    0  0.00000000000E+00  0.00000000000E+00 -0.81342127962E+03  0.40826102694E+04  0.40007564827E+04 0.  0.
        2    1    3    3  502    0  0.14717955490E+03 -0.17466320970E+04 -0.13903445394E+04  0.22372848370E+04  0.25500000920E-02 0.  1.
       -2    1    3    3    0  502 -0.14717955490E+03  0.17466320970E+04  0.57692325973E+03  0.18453254324E+04  0.25500000920E-02 0. -1.
</event>
<event>
 5   0  0.8329875E-09  0.3995750E+04  0.7818609E-02  0.8005404E-01
        1   -1    0    0  501    0  0.00000000000E+00  0.00000000000E+00  0.24388549577E+04  0.24388549577E+04  0.50400001928E-02 0. -1.
       -1   -1    0    0    0  501  0.00000000000E+00  0.00000000000E+00 -0.16366308379E+04  0.16366308379E+04  0.50400001928E-02 0.  1.
    10030    2    1    2    0    0  0.00000000000E+00  0.00000000000E+00  0.80222411976E+03  0.40754857956E+04  0.39957503590E+04 0.  0.
        2    1    3    3  502    0 -0.48558009075E+03  0.16828581404E+04 -0.57916275634E+03  0.18447842811E+04  0.25500000920E-02 0.  1.
       -2    1    3    3    0  502  0.48558009075E+03 -0.16828581404E+04  0.13813868761E+04  0.22307015145E+04  0.25500000920E-02 0. -1.
</event>
<event>
 5   0  0.8329875E-09  0.3968908E+04  0.7818609E-02  0.8010848E-01
        1   -1    0    0  501    0  0.00000000000E+00  0.00000000000E+00  0.15872247661E+04  0.15872247661E+04  0.50400001928E-02 0. -1.
       -1   -1    0    0    0  501  0.00000000000E+00  0.00000000000E+00 -0.24810970131E+04  0.24810970131E+04  0.50400001928E-02 0.  1.
    10030    2    1    2    0    0  0.00000000000E+00  0.00000000000E+00 -0.89387224700E+03  0.40683217793E+04  0.39689084779E+04 0.  0.
        3    1    3    3  502    0 -0.30457583866E+03  0.10339110797E+04 -0.21549011613E+04  0.24094268172E+04  0.10100000352E+00 0.  1.
       -3    1    3    3    0  502  0.30457583866E+03 -0.10339110797E+04  0.12610289143E+04  0.16588949621E+04  0.10100000352E+00 0. -1.
</event>
<event>
 5   0  0.2587493E-08  0.4001093E+04  0.7818609E-02  0.8004326E-01
       -2   -1    0    0    0  501  0.00000000000E+00  0.00000000000E+00  0.14332510006E+04  0.14332510006E+04  0.25500000920E-02 0.  1.
        2   -1    0    0  501    0  0.00000000000E+00  0.00000000000E+00 -0.27923839885E+04  0.27923839885E+04  0.25500000920E-02 0. -1.
    10030    2    1    2    0    0  0.00000000000E+00  0.00000000000E+00 -0.13591329879E+04  0.42256349891E+04  0.40010934233E+04 0.  0.
        5    1    3    3  502    0  0.11610200550E+04 -0.13962376511E+04 -0.15661526429E+04  0.23979790110E+04  0.46999998093E+01 0. -1.
       -5    1    3    3    0  502 -0.11610200550E+04  0.13962376511E+04  0.20701965496E+03  0.18276559780E+04  0.46999998093E+01 0.  1.
</event>
<event>
 5   0  0.2746876E-08  0.3997303E+04  0.7818609E-02  0.8005091E-01
        2   -1    0    0  501    0  0.00000000000E+00  0.00000000000E+00  0.31540875026E+04  0.31540875026E+04  0.25500000920E-02 0.  1.
       -2   -1    0    0    0  501  0.00000000000E+00  0.00000000000E+00 -0.12664863137E+04  0.12664863137E+04  0.25500000920E-02 0. -1.
    10030    2    1    2    0    0  0.00000000000E+00  0.00000000000E+00  0.18876011889E+04  0.44205738162E+04  0.39973034181E+04 0.  0.
        1    1    3    3  502    0 -0.16343687281E+04  0.56020759346E+03 -0.16739221411E+03  0.17358035144E+04  0.50400001928E-02 0. -1.
       -1    1    3    3    0  502  0.16343687281E+04 -0.56020759346E+03  0.20549934030E+04  0.26847703018E+04  0.50400001928E-02 0.  1.
</event>
<event>
 5   0  0.8329875E-09  0.4008850E+04  0.7818609E-02  0.8002764E-01
       -1   -1    0    0    0  501  0.00000000000E+00  0.00000000000E+00  0.28673949608E+04  0.28673949608E+04  0.50400001928E-02 0.  1.
        1   -1    0    0  501    0  0.00000000000E+00  0.00000000000E+00 -0.14011740430E+04  0.14011740430E+04  0.50400001928E-02 0. -1.
    10030    2    1    2    0    0  0.00000000000E+00  0.00000000000E+00  0.14662209178E+04  0.42685690038E+04  0.40088499050E+04 0.  0.
        4    1    3    3  502    0 -0.19667461007E+03  0.73656495436E+03  0.27069927443E+04  0.28122980220E+04  0.12699999809E+01 0.  1.
       -4    1    3    3    0  502  0.19667461007E+03 -0.73656495436E+03 -0.12407718264E+04  0.14562709818E+04  0.12699999809E+01 0. -1.
</event>
<event>
 5   0  0.8329875E-09  0.4005369E+04  0.7818609E-02  0.8003464E-01
        1   -1    0    0  501    0  0.00000000000E+00  0.00000000000E+00  0.11830496752E+04  0.11830496753E+04  0.50400001928E-02 0. -1.
       -1   -1    0    0    0  501  0.00000000000E+00  0.00000000000E+00 -0.33901754052E+04  0.33901754052E+04  0.50400001928E-02 0.  1.
    10030    2    1    2    0    0  0.00000000000E+00  0.00000000000E+00 -0.22071257300E+04  0.45732250805E+04  0.40053693524E+04 0.  0.
        4    1    3    3  502    0  0.24822011189E+03 -0.46521413385E+03  0.11023682679E+04  0.12219880627E+04  0.12699999809E+01 0. -1.
       -4    1    3    3    0  502 -0.24822011189E+03  0.46521413385E+03 -0.33094939979E+04  0.33512370178E+04  0.12699999809E+01 0.  1.
</event>
<event>
 5   0  0.8329875E-09  0.3997624E+04  0.7818609E-02  0.8005026E-01
        1   -1    0    0  501    0  0.00000000000E+00  0.00000000000E+00  0.12329526311E+04  0.12329526311E+04  0.50400001928E-02 0. -1.
       -1   -1    0    0    0  501  0.00000000000E+00  0.00000000000E+00 -0.32403922647E+04  0.32403922647E+04  0.50400001928E-02 0.  1.
    10030    2    1    2    0    0  0.00000000000E+00  0.00000000000E+00 -0.20074396336E+04  0.44733448959E+04  0.39976243789E+04 0.  0.
        5    1    3    3  502    0 -0.17592017790E+04  0.62134449144E+03 -0.20117839816E+03  0.18765273018E+04  0.46999998093E+01 0. -1.
       -5    1    3    3    0  502  0.17592017790E+04 -0.62134449144E+03 -0.18062612354E+04  0.25968175941E+04  0.46999998093E+01 0.  1.
</event>
<event>
 5   0  0.2612363E-08  0.3995265E+04  0.7818609E-02  0.8005502E-01
        2   -1    0    0  501    0  0.00000000000E+00  0.00000000000E+00  0.19493972779E+04  0.19493972779E+04  0.25500000920E-02 0. -1.
       -2   -1    0    0    0  501  0.00000000000E+00  0.00000000000E+00 -0.20470614175E+04  0.20470614175E+04  0.25500000920E-02 0.  1.
    10030    2    1    2    0    0  0.00000000000E+00  0.00000000000E+00 -0.97664139621E+02  0.39964586954E+04  0.39952651752E+04 0.  0.
        4    1    3    3  502    0 -0.16037757265E+04 -0.11265737287E+04 -0.43530146310E+03  0.20076737593E+04  0.12699999809E+01 0. -1.
       -4    1    3    3    0  502  0.16037757265E+04  0.11265737287E+04  0.33763732348E+03  0.19887849361E+04  0.12699999809E+01 0.  1.
</event>
<event>
 5   0  0.8329875E-09  0.4001478E+04  0.7818609E-02  0.8004248E-01
       -3   -1    0    0    0  501  0.00000000000E+00  0.00000000000E+00  0.26376654405E+04  0.26376654425E+04  0.10100000352E+00 0. -1.
        3   -1    0    0  501    0  0.00000000000E+00  0.00000000000E+00 -0.15176133976E+04  0.15176134009E+04  0.10100000352E+00 0.  1.
    10030    2    1    2    0    0  0.00000000000E+00  0.00000000000E+00  0.11200520429E+04  0.41552788434E+04  0.40014779379E+04 0.  0.
        1    1    3    3  502    0 -0.11084421290E+04 -0.16499673776E+04  0.79664392179E+03  0.21414195849E+04  0.50400001928E-02 0. -1.
       -1    1    3    3    0  502  0.11084421290E+04  0.16499673776E+04  0.32340812113E+03  0.20138592585E+04  0.50400001928E-02 0.  1.
</event>
<event>
 5   0  0.2650452E-08  0.4003500E+04  0.7818609E-02  0.8003841E-01
       -2   -1    0    0    0  501  0.00000000000E+00  0.00000000000E+00  0.32433220778E+04  0.32433220778E+04  0.25500000920E-02 0.  1.
        2   -1    0    0  501    0  0.00000000000E+00  0.00000000000E+00 -0.12354626654E+04  0.12354626654E+04  0.25500000920E-02 0. -1.
    10030    2    1    2    0    0  0.00000000000E+00  0.00000000000E+00  0.20078594123E+04  0.44787847432E+04  0.40035001381E+04 0.  0.
        3    1    3    3  502    0 -0.99951102087E+03 -0.19674202285E+03 -0.92379694925E+03  0.13751838125E+04  0.10100000352E+00 0. -1.
       -3    1    3    3    0  502  0.99951102087E+03  0.19674202285E+03  0.29316563616E+04  0.31036009307E+04  0.10100000352E+00 0.  1.
</event>
<event>
 5   0  0.2650452E-08  0.3998627E+04  0.7818609E-02  0.8004823E-01
        2   -1    0    0  501    0  0.00000000000E+00  0.00000000000E+00  0.18553768041E+04  0.18553768041E+04  0.25500000920E-02 0. -1.
       -2   -1    0    0    0  501  0.00000000000E+00  0.00000000000E+00 -0.21544170302E+04  0.21544170302E+04  0.25500000920E-02 0.  1.
    10030    2    1    2    0    0  0.00000000000E+00  0.00000000000E+00 -0.29904022611E+03  0.40097938343E+04  0.39986274566E+04 0.  0.
        3    1    3    3  502    0  0.79981867756E+03  0.11646889579E+04 -0.15680534192E+04  0.21106875234E+04  0.10100000352E+00 0.  1.
       -3    1    3    3    0  502 -0.79981867756E+03 -0.11646889579E+04  0.12690131931E+04  0.18991063109E+04  0.10100000352E+00 0. -1.
</event>
<event>
 5   0  0.8329875E-09  0.3997757E+04  0.7818609E-02  0.8004999E-01
       -3   -1    0    0    0  501  0.00000000000E+00  0.00000000000E+00  0.23821934480E+04  0.23821934502E+04  0.10100000352E+00 0.  1.
        3   -1    0    0  501    0  0.00000000000E+00  0.00000000000E+00 -0.16772417733E+04  0.16772417764E+04  0.10100000352E+00 0. -1.
    10030    2    1    2    0    0  0.00000000000E+00  0.00000000000E+00  0.70495167470E+03  0.40594352265E+04  0.39977565577E+04 0.  0.
        2    1    3    3  502    0  0.14352286154E+04 -0.10921174125E+04 -0.52274606717E+03  0.18777287003E+04  0.25500000920E-02 0. -1.
       -2    1    3    3    0  502 -0.14352286154E+04  0.10921174125E+04  0.12276977419E+04  0.21817065262E+04  0.25500000920E-02 0.  1.
</event>
<event>
 5   0  0.2650452E-08  0.3997935E+04  0.7818609E-02  0.8004963E-01
       -2   -1    0    0    0  501  0.00000000000E+00  0.00000000000E+00  0.14843445969E+04  0.14843445969E+04  0.25500000920E-02 0. -1.
        2   -1    0    0  501    0  0.00000000000E+00  0.00000000000E+00 -0.26920099149E+04  0.26920099149E+04  0.25500000920E-02 0.  1.
    10030    2    1    2    0    0  0.00000000000E+00  0.00000000000E+00 -0.12076653180E+04  0.41763545118E+04  0.39979346528E+04 0.  0.
        3    1    3    3  502    0  0.26988954653E+03  0.84924280796E+03 -0.24730504022E+04  0.26286939754E+04  0.10100000352E+00 0.  1.
       -3    1    3    3    0  502 -0.26988954653E+03 -0.84924280796E+03  0.12653850843E+04  0.15476605364E+04  0.10100000352E+00 0. -1.
</event>
<event>
 5   0  0.2599332E-08  0.4002182E+04  0.7818609E-02  0.8004107E-01
       -2   -1    0    0    0  501  0.00000000000E+00  0.00000000000E+00  0.14248185842E+04  0.14248185842E+04  0.25500000920E-02 0.  1.
        2   -1    0    0  501    0  0.00000000000E+00  0.00000000000E+00 -0.28104386054E+04  0.28104386054E+04  0.25500000920E-02 0. -1.
    10030    2    1    2    0    0  0.00000000000E+00  0.00000000000E+00 -0.13856200213E+04  0.42352571896E+04  0.40021819822E+04 0.  0.
        2    1    3    3  502    0 -0.14031366108E+04  0.30018356019E+03 -0.21688373549E+04  0.26005303286E+04  0.25500000920E-02 0. -1.
       -2    1    3    3    0  502  0.14031366108E+04 -0.30018356019E+03  0.78321733362E+03  0.16347268610E+04  0.25500000920E-02 0.  1.
</event>
<event>
 5   0  0.2746876E-08  0.3972251E+04  0.7818609E-02  0.8010168E-01
       -2   -1    0    0    0  501  0.00000000000E+00  0.00000000000E+00  0.23550818213E+04  0.23550818213E+04  0.25500000920E-02 0.  1.
        2   -1    0    0  501    0  0.00000000000E+00  0.00000000000E+00 -0.16749715216E+04  0.16749715216E+04  0.25500000920E-02 0. -1.
    10030    2    1    2    0    0  0.00000000000E+00  0.00000000000E+00  0.68011029968E+03  0.40300533429E+04  0.39722512417E+04 0.  0.
        1    1    3    3  502    0 -0.16777992858E+04  0.84713822828E+03 -0.31118998417E+03  0.19051227854E+04  0.50400001928E-02 0. -1.
       -1    1    3    3    0  502  0.16777992858E+04 -0.84713822828E+03  0.99130028385E+03  0.21249305575E+04  0.50400001928E-02 0.  1.
</event>
<event>
 5   0  0.8329875E-09  0.3998803E+04  0.7818609E-02  0.8004788E-01
       -1   -1    0    0    0  501  0.00000000000E+00  0.00000000000E+00  0.14329602788E+04  0.14329602788E+04  0.50400001928E-02 0. -1.
        1   -1    0    0  501    0  0.00000000000E+00  0.00000000000E+00 -0.27897537138E+04  0.27897537139E+04  0.50400001928E-02 0.  1.
    10030    2    1    2    0    0  0.00000000000E+00  0.00000000000E+00 -0.13567934350E+04  0.42227139927E+04  0.39988029507E+04 0.  0.
        3    1    3    3  502    0 -0.32349515782E+03  0.35699302164E+02  0.14048004429E+04  0.14420082704E+04  0.10100000352E+00 0. -1.
       -3    1    3    3    0  502  0.32349515782E+03 -0.35699302164E+02 -0.27615938779E+04  0.27807057223E+04  0.10100000352E+00 0.  1.
</event>
<event>
 5   0  0.2612363E-08  0.3990235E+04  0.7818609E-02  0.8006519E-01
        2   -1    0    0  501    0  0.00000000000E+00  0.00000000000E+00  0.12783448919E+04  0.12783448919E+04  0.25500000920E-02 0. -1.
       -2   -1    0    0    0  501  0.00000000000E+00  0.00000000000E+00 -0.31137872074E+04  0.31137872074E+04  0.25500000920E-02 0.  1.
    10030    2    1    2    0    0  0.00000000000E+00  0.00000000000E+00 -0.18354423155E+04  0.43921320993E+04  0.39902350663E+04 0.  0.
        4    1    3    3  502    0  0.99556480187E+03 -0.46418664820E+02 -0.28201491133E+04  0.29910778327E+04  0.12699999809E+01 0.  1.
       -4    1    3    3    0  502 -0.99556480187E+03  0.46418664820E+02  0.98470679784E+03  0.14010542665E+04  0.12699999809E+01 0. -1.
</event>
<event>
 5   0  0.2612363E-08  0.4004351E+04  0.7818609E-02  0.8003669E-01
       -2   -1    0    0    0  501  0.00000000000E+00  0.00000000000E+00  0.21049980756E+04  0.21049980756E+04  0.25500000920E-02 0.  1.
        2   -1    0    0  501    0  0.00000000000E+00  0.00000000000E+00 -0.19043755804E+04  0.19043755804E+04  0.25500000920E-02 0. -1.
    10030    2    1    2    0    0  0.00000000000E+00  0.00000000000E+00  0.20062249516E+03  0.40093736560E+04  0.40043510994E+04 0.  0.
        4    1    3    3  502    0 -0.15023885689E+03 -0.18994626842E+04 -0.51541952322E+03  0.19738766680E+04  0.12699999809E+01 0. -1.
       -4    1    3    3    0  502  0.15023885689E+03  0.18994626842E+04  0.71604201837E+03  0.20354969879E+04  0.12699999809E+01 0.  1.
</event>
<event>
 5   0  0.2650452E-08  0.4000675E+04  0.7818609E-02  0.8004410E-01
       -2   -1    0    0    0  501  0.00000000000E+00  0.00000000000E+00  0.19558009512E+04  0.19558009512E+04  0.25500000920E-02 0. -1.
        2   -1    0    0  501    0  0.00000000000E+00  0.00000000000E+00 -0.20458880294E+04  0.20458880294E+04  0.25500000920E-02 0.  1.
    10030    2    1    2    0    0  0.00000000000E+00  0.00000000000E+00 -0.90087078293E+02  0.40016889806E+04  0.40006748200E+04 0.  0.
        3    1    3    3  502    0 -0.14727912941E+04  0.95860157094E+03 -0.10009628258E+04  0.20223643975E+04  0.10100000352E+00 0.  1.
       -3    1    3    3    0  502  0.14727912941E+04 -0.95860157094E+03  0.91087574746E+03  0.19793245831E+04  0.10100000352E+00 0. -1.
</event>
<event>
 5   0  0.8329875E-09  0.3975636E+04  0.7818609E-02  0.8009480E-01
        1   -1    0    0  501    0  0.00000000000E+00  0.00000000000E+00  0.25440931838E+04  0.25440931838E+04  0.50400001928E-02 0. -1.
       -1   -1    0    0    0  501  0.00000000000E+00  0.00000000000E+00 -0.15531746159E+04  0.15531746159E+04  0.50400001928E-02 0.  1.
    10030    2    1    2    0    0  0.00000000000E+00  0.00000000000E+00  0.99091856791E+03  0.40972677997E+04  0.39756362779E+04 0.  0.
        4    1    3    3  502    0  0.28998999607E+03  0.36628157883E+03  0.24867110733E+04  0.25302153995E+04  0.12699999809E+01 0. -1.
       -4    1    3    3    0  502 -0.28998999607E+03 -0.36628157883E+03 -0.14957925054E+04  0.15670524002E+04  0.12699999809E+01 0.  1.
</event>
<event>
 5   0  0.8329875E-09  0.3997583E+04  0.7818609E-02  0.8005034E-01
       -1   -1    0    0    0  501  0.00000000000E+00  0.00000000000E+00  0.14128674136E+04  0.14128674136E+04  0.50400001928E-02 0. -1.
        1   -1    0    0  501    0  0.00000000000E+00  0.00000000000E+00 -0.28277013942E+04  0.28277013942E+04  0.50400001928E-02 0.  1.
    10030    2    1    2    0    0  0.00000000000E+00  0.00000000000E+00 -0.14148339807E+04  0.42405688078E+04  0.39975828473E+04 0.  0.
        2    1    3    3  502    0 -0.10905152269E+04 -0.88155016763E+03 -0.22183584934E+04  0.26243987051E+04  0.25500000920E-02 0.  1.
       -2    1    3    3    0  502  0.10905152269E+04  0.88155016763E+03  0.80352451278E+03  0.16161701027E+04  0.25500000920E-02 0. -1.
</event>
<event>
 5   0  0.2650452E-08  0.3977262E+04  0.7818609E-02  0.8009149E-01
       -2   -1    0    0    0  501  0.00000000000E+00  0.00000000000E+00  0.21842569498E+04  0.21842569498E+04  0.25500000920E-02 0.  1.
        2   -1    0    0  501    0  0.00000000000E+00  0.00000000000E+00 -0.18105260287E+04  0.18105260287E+04  0.25500000920E-02 0. -1.
    10030    2    1    2    0    0  0.00000000000E+00  0.00000000000E+00  0.37373092110E+03  0.39947829784E+04  0.39772624056E+04 0.  0.
        3    1    3    3  502    0  0.98976900696E+03 -0.15185976655E+04  0.10083144769E+04  0.20742419462E+04  0.10100000352E+00 0.  1.
       -3    1    3    3    0  502 -0.98976900696E+03  0.15185976655E+04 -0.63458355584E+03  0.19205410322E+04  0.10100000352E+00 0. -1.
</event>
<event>
 5   0  0.2612363E-08  0.4002903E+04  0.7818609E-02  0.8003961E-01
       -2   -1    0    0    0  501  0.00000000000E+00  0.00000000000E+00  0.17621385949E+04  0.17621385949E+04  0.25500000920E-02 0. -1.
        2   -1    0    0  501    0  0.00000000000E+00  0.00000000000E+00 -0.22732654348E+04  0.22732654348E+04  0.25500000920E-02 0.  1.
    10030    2    1    2    0    0  0.00000000000E+00  0.00000000000E+00 -0.51112683993E+03  0.40354040298E+04  0.40029033260E+04 0.  0.
        4    1    3    3  502    0 -0.80987110640E+03  0.91478624085E+03  0.13425781845E+04  0.18152803832E+04  0.12699999809E+01 0. -1.
       -4    1    3    3    0  502  0.80987110640E+03 -0.91478624085E+03 -0.18537050244E+04  0.22201236465E+04  0.12699999809E+01 0.  1.
</event>
<event>
 5   0  0.2612363E-08  0.3998371E+04  0.7818609E-02  0.8004875E-01
        2   -1    0    0  501    0  0.00000000000E+00  0.00000000000E+00  0.23983242257E+04  0.23983242257E+04  0.25500000920E-02 0. -1.
       -2   -1    0    0    0  501  0.00000000000E+00  0.00000000000E+00 -0.16664729192E+04  0.16664729192E+04  0.25500000920E-02 0.  1.
    10030    2    1    2    0    0  0.00000000000E+00  0.00000000000E+00  0.73185130644E+03  0.40647971449E+04  0.39983708550E+04 0.  0.
        4    1    3    3  502    0 -0.16098722605E+04  0.37150036138E+03 -0.77840330664E+03  0.18263664841E+04  0.12699999809E+01 0. -1.
       -4    1    3    3    0  502  0.16098722605E+04 -0.37150036138E+03  0.15102546131E+04  0.22384306607E+04  0.12699999809E+01 0.  1.
</event>
<event>
 5   0  0.8329875E-09  0.4014797E+04  0.7818609E-02  0.8001568E-01
       -1   -1    0    0    0  501  0.00000000000E+00  0.00000000000E+00  0.19221618814E+04  0.19221618814E+04  0.50400001928E-02 0.  1.
        1   -1    0    0  501    0  0.00000000000E+00  0.00000000000E+00 -0.20964150324E+04  0.20964150324E+04  0.50400001928E-02 0. -1.
    10030    2    1    2    0    0  0.00000000000E+00  0.00000000000E+00 -0.17425315101E+03  0.40185769138E+04  0.40147971619E+04 0.  0.
        3    1    3    3  502    0  0.16862945984E+04 -0.10887082058E+04 -0.59279119973E+02  0.20080809382E+04  0.10100000352E+00 0.  1.
       -3    1    3    3    0  502 -0.16862945984E+04  0.10887082058E+04 -0.11497403104E+03  0.20104959756E+04  0.10100000352E+00 0. -1.
</event>
<event>
 5   0  0.8329875E-09  0.3998383E+04  0.7818609E-02  0.8004873E-01
       -1   -1    0    0    0  501  0.00000000000E+00  0.00000000000E+00  0.26286617857E+04  0.26286617858E+04  0.50400001928E-02 0.  1.
        1   -1    0    0  501    0  0.00000000000E+00  0.00000000000E+00 -0.15204566538E+04  0.15204566539E+04  0.50400001928E-02 0. -1.
    10030    2    1    2    0    0  0.00000000000E+00  0.00000000000E+00  0.11082051319E+04  0.41491184396E+04  0.39983828245E+04 0.  0.
        1    1    3    3  502    0  0.60102658513E+03  0.91060121324E+03 -0.11842645887E+04  0.16102515771E+04  0.50400001928E-02 0. -1.
       -1    1    3    3    0  502 -0.60102658513E+03 -0.91060121324E+03  0.22924697206E+04  0.25388668625E+04  0.50400001928E-02 0.  1.
</event>
<event>
 5   0  0.8329875E-09  0.4099322E+04  0.7818609E-02  0.7984805E-01
        1   -1    0    0  501    0  0.00000000000E+00  0.00000000000E+00  0.18340166943E+04  0.18340166943E+04  0.50400001928E-02 0. -1.
       -1   -1    0    0    0  501  0.00000000000E+00  0.00000000000E+00 -0.22906603616E+04  0.22906603616E+04  0.50400001928E-02 0.  1.
    10030    2    1    2    0    0  0.00000000000E+00  0.00000000000E+00 -0.45664366735E+03  0.41246770559E+04  0.40993215751E+04 0.  0.
        4    1    3    3  502    0 -0.11163607041E+04 -0.16232616939E+04 -0.79738876377E+03  0.21253400203E+04  0.12699999809E+01 0.  1.
       -4    1    3    3    0  502  0.11163607041E+04  0.16232616939E+04  0.34074509642E+03  0.19993370356E+04  0.12699999809E+01 0. -1.
</event>
<event>
 5   0  0.2746876E-08  0.3895259E+04  0.7818609E-02  0.8026016E-01
       -2   -1    0    0    0  501  0.00000000000E+00  0.00000000000E+00  0.26253533640E+04  0.26253533640E+04  0.25500000920E-02 0.  1.
        2   -1    0    0  501    0  0.00000000000E+00  0.00000000000E+00 -0.14448570588E+04  0.14448570588E+04  0.25500000920E-02 0. -1.
    10030    2    1    2    0    0  0.00000000000E+00  0.00000000000E+00  0.11804963053E+04  0.40702104228E+04  0.38952588308E+04 0.  0.
        1    1    3    3  502    0  0.91111500295E+03 -0.13388033772E+04  0.17208505435E+04  0.23630174829E+04  0.50400001928E-02 0.  1.
       -1    1    3    3    0  502 -0.91111500295E+03  0.13388033772E+04 -0.54035423821E+03  0.17071929399E+04  0.50400001928E-02 0. -1.
</event>
<event>
 5   0  0.2612363E-08  0.4000389E+04  0.7818609E-02  0.8004468E-01
        2   -1    0    0  501    0  0.00000000000E+00  0.00000000000E+00  0.27828698697E+04  0.27828698697E+04  0.25500000920E-02 0. -1.
       -2   -1    0    0    0  501  0.00000000000E+00  0.00000000000E+00 -0.14376446351E+04  0.14376446351E+04  0.25500000920E-02 0.  1.
    10030    2    1    2    0    0  0.00000000000E+00  0.00000000000E+00  0.13452252346E+04  0.42205145048E+04  0.40003889503E+04 0.  0.
        4    1    3    3  502    0  0.30821747147E+03  0.17014052189E+04  0.17334246922E+04  0.24483750745E+04  0.12699999809E+01 0. -1.
       -4    1    3    3    0  502 -0.30821747147E+03 -0.17014052189E+04 -0.38819945762E+03  0.17721394303E+04  0.12699999809E+01 0.  1.
</event>
<event>
 5   0  0.8329875E-09  0.4005675E+04  0.7818609E-02  0.8003403E-01
       -1   -1    0    0    0  501  0.00000000000E+00  0.00000000000E+00  0.20501969955E+04  0.20501969955E+04  0.50400001928E-02 0. -1.
        1   -1    0    0  501    0  0.00000000000E+00  0.00000000000E+00 -0.19565719262E+04  0.19565719262E+04  0.50400001928E-02 0.  1.
    10030    2    1    2    0    0  0.00000000000E+00  0.00000000000E+00  0.93625069278E+02  0.40067689218E+04  0.40056749168E+04 0.  0.
        5    1    3    3  502    0 -0.13122139578E+04 -0.11703996944E+04  0.10060295360E+04  0.20257982212E+04  0.46999998093E+01 0. -1.
       -5    1    3    3    0  502  0.13122139578E+04  0.11703996944E+04 -0.91240446669E+03  0.19809707006E+04  0.46999998093E+01 0.  1.
</event>
<event>
 5   0  0.2746876E-08  0.4004199E+04  0.7818609E-02  0.8003700E-01
       -2   -1    0    0    0  501  0.00000000000E+00  0.00000000000E+00  0.18160204600E+04  0.18160204600E+04  0.25500000920E-02 0.  1.
        2   -1    0    0  501    0  0.00000000000E+00  0.00000000000E+00 -0.22072447383E+04  0.22072447383E+04  0.25500000920E-02 0. -1.
    10030    2    1    2    0    0  0.00000000000E+00  0.00000000000E+00 -0.39122427833E+03  0.40232651982E+04  0.40041985989E+04 0.  0.
        1    1    3    3  502    0 -0.11596703558E+04 -0.26589340651E+03 -0.18135177035E+04  0.21689585286E+04  0.50400001928E-02 0. -1.
       -1    1    3    3    0  502  0.11596703558E+04  0.26589340651E+03  0.14222934252E+04  0.18543066697E+04  0.50400001928E-02 0.  1.
</event>
<event>
 5   0  0.8329875E-09  0.3996044E+04  0.7818609E-02  0.8005345E-01
        1   -1    0    0  501    0  0.00000000000E+00  0.00000000000E+00  0.30906467803E+04  0.30906467804E+04  0.50400001928E-02 0.  1.
       -1   -1    0    0    0  501  0.00000000000E+00  0.00000000000E+00 -0.12916689993E+04  0.12916689993E+04  0.50400001928E-02 0. -1.
    10030    2    1    2    0    0  0.00000000000E+00  0.00000000000E+00  0.17989777811E+04  0.43823157796E+04  0.39960443611E+04 0.  0.
        3    1    3    3  502    0  0.26909123960E+03  0.39868844928E+03  0.30262046432E+04  0.30641927367E+04  0.10100000352E+00 0.  1.
       -3    1    3    3    0  502 -0.26909123960E+03 -0.39868844928E+03 -0.12272268622E+04  0.13181230429E+04  0.10100000352E+00 0. -1.
</event>
<event>
 5   0  0.8329875E-09  0.4005407E+04  0.7818609E-02  0.8003457E-01
       -1   -1    0    0    0  501  0.00000000000E+00  0.00000000000E+00  0.13418439319E+04  0.13418439319E+04  0.50400001928E-02 0.  1.
        1   -1    0    0  501    0  0.00000000000E+00  0.00000000000E+00 -0.29890364884E+04  0.29890364884E+04  0.50400001928E-02 0. -1.
    10030    2    1    2    0    0  0.00000000000E+00  0.00000000000E+00 -0.16471925565E+04  0.43308804203E+04  0.40054065831E+04 0.  0.
        5    1    3    3  502    0  0.18632824860E+04  0.21609233311E+03 -0.64955709973E+02  0.18769013968E+04  0.46999998093E+01 0.  1.
       -5    1    3    3    0  502 -0.18632824860E+04 -0.21609233311E+03 -0.15822368466E+04  0.24539790235E+04  0.46999998093E+01 0. -1.
</event>
<event>
 5   0  0.2587493E-08  0.3994379E+04  0.7818609E-02  0.8005681E-01
        2   -1    0    0  501    0  0.00000000000E+00  0.00000000000E+00  0.26550243898E+04  0.26550243898E+04  0.25500000920E-02 0.  1.
       -2   -1    0    0    0  501  0.00000000000E+00  0.00000000000E+00 -0.15023460712E+04  0.15023460712E+04  0.25500000920E-02 0. -1.
    10030    2    1    2    0    0  0.00000000000E+00  0.00000000000E+00  0.11526783187E+04  0.41573704610E+04  0.39943787807E+04 0.  0.
        5    1    3    3  502    0 -0.12359161766E+04  0.14937588739E+04  0.77252683998E+02  0.19403078199E+04  0.46999998093E+01 0.  1.
       -5    1    3    3    0  502  0.12359161766E+04 -0.14937588739E+04  0.10754256347E+04  0.22170626411E+04  0.46999998093E+01 0. -1.
</event>
<event>
 5   0  0.2587493E-08  0.3972715E+04  0.7818609E-02  0.8010074E-01
       -2   -1    0    0    0  501  0.00000000000E+00  0.00000000000E+00  0.16935165781E+04  0.16935165781E+04  0.25500000920E-02 0.  1.
        2   -1    0    0  501    0  0.00000000000E+00  0.00000000000E+00 -0.23298359334E+04  0.23298359334E+04  0.25500000920E-02 0. -1.
    10030    2    1    2    0    0  0.00000000000E+00  0.00000000000E+00 -0.63631935528E+03  0.40233525115E+04  0.39727148287E+04 0.  0.
        5    1    3    3  502    0 -0.72119396945E+03 -0.15912274512E+04 -0.12754424219E+04  0.21630767450E+04  0.46999998093E+01 0. -1.
       -5    1    3    3    0  502  0.72119396945E+03  0.15912274512E+04  0.63912306662E+03  0.18602757665E+04  0.46999998093E+01 0.  1.
</event>
<event>
 5   0  0.2599332E-08  0.3998960E+04  0.7818609E-02  0.8004756E-01
       -2   -1    0    0    0  501  0.00000000000E+00  0.00000000000E+00  0.26579344280E+04  0.26579344280E+04  0.25500000920E-02 0.  1.
        2   -1    0    0  501    0  0.00000000000E+00  0.00000000000E+00 -0.15041456733E+04  0.15041456733E+04  0.25500000920E-02 0. -1.
    10030    2    1    2    0    0  0.00000000000E+00  0.00000000000E+00  0.11537887546E+04  0.41620801013E+04  0.39989601497E+04 0.  0.
        2    1    3    3  502    0  0.74811641150E+03 -0.14995246055E+03  0.25004591721E+04  0.26142800112E+04  0.25500000920E-02 0.  1.
       -2    1    3    3    0  502 -0.74811641150E+03  0.14995246055E+03 -0.13466704175E+04  0.15478000901E+04  0.25500000920E-02 0. -1.
</event>
<event>
 5   0  0.8329875E-09  0.4000282E+04  0.7818609E-02  0.8004490E-01
       -1   -1    0    0    0  501  0.00000000000E+00  0.00000000000E+00  0.19166858339E+04  0.19166858339E+04  0.50400001928E-02 0.  1.
        1   -1    0    0  501    0  0.00000000000E+00  0.00000000000E+00 -0.20872299747E+04  0.20872299747E+04  0.50400001928E-02 0. -1.
    10030    2    1    2    0    0  0.00000000000E+00  0.00000000000E+00 -0.17054414073E+03  0.40039158086E+04  0.40002820524E+04 0.  0.
        1    1    3    3  502    0  0.14010579401E+04  0.50959826888E+03 -0.14198663395E+04  0.20588040628E+04  0.50400001928E-02 0. -1.
       -1    1    3    3    0  502 -0.14010579401E+04 -0.50959826888E+03  0.12493221987E+04  0.19451117458E+04  0.50400001928E-02 0.  1.
</event>
<event>
 5   0  0.2587493E-08  0.4004041E+04  0.7818609E-02  0.8003732E-01
        2   -1    0    0  501    0  0.00000000000E+00  0.00000000000E+00  0.27118581180E+04  0.27118581180E+04  0.25500000920E-02 0. -1.
       -2   -1    0    0    0  501  0.00000000000E+00  0.00000000000E+00 -0.14779850971E+04  0.14779850971E+04  0.25500000920E-02 0.  1.
    10030    2    1    2    0    0  0.00000000000E+00  0.00000000000E+00  0.12338730209E+04  0.41898432151E+04  0.40040409008E+04 0.  0.
        5    1    3    3  502    0  0.55856730151E+03  0.13294530219E+04  0.20701275635E+04  0.25228739539E+04  0.46999998093E+01 0. -1.
       -5    1    3    3    0  502 -0.55856730151E+03 -0.13294530219E+04 -0.83625454268E+03  0.16669692612E+04  0.46999998093E+01 0.  1.
</event>
<event>
 5   0  0.8329875E-09  0.4006623E+04  0.7818609E-02  0.8003212E-01
       -1   -1    0    0    0  501  0.00000000000E+00  0.00000000000E+00  0.22393301540E+04  0.22393301540E+04  0.50400001928E-02 0.  1.
        1   -1    0    0  501    0  0.00000000000E+00  0.00000000000E+00 -0.17921683538E+04  0.17921683538E+04  0.50400001928E-02 0. -1.
    10030    2    1    2    0    0  0.00000000000E+00  0.00000000000E+00  0.44716180021E+03  0.40314985079E+04  0.40066228352E+04 0.  0.
        5    1    3    3  502    0  0.57276250271E+03 -0.98505226704E+03 -0.14343290440E+04  0.18318588237E+04  0.46999998093E+01 0. -1.
       -5    1    3    3    0  502 -0.57276250271E+03  0.98505226704E+03  0.18814908442E+04  0.21996396842E+04  0.46999998093E+01 0.  1.
</event>
<event>
 5   0  0.2650452E-08  0.3996396E+04  0.7818609E-02  0.8005274E-01
        2   -1    0    0  501    0  0.00000000000E+00  0.00000000000E+00  0.21722369102E+04  0.21722369102E+04  0.25500000920E-02 0. -1.
       -2   -1    0    0    0  501  0.00000000000E+00  0.00000000000E+00 -0.18381027650E+04  0.18381027650E+04  0.25500000920E-02 0.  1.
    10030    2    1    2    0    0  0.00000000000E+00  0.00000000000E+00  0.33413414527E+03  0.40103396752E+04  0.39963957116E+04 0.  0.
        3    1    3    3  502    0  0.78319964550E+03 -0.11818414226E+04 -0.12459097099E+04  0.18874432040E+04  0.10100000352E+00 0.  1.
       -3    1    3    3    0  502 -0.78319964550E+03  0.11818414226E+04  0.15800438552E+04  0.21228964712E+04  0.10100000352E+00 0. -1.
</event>
<event>
 5   0  0.2587493E-08  0.3998581E+04  0.7818609E-02  0.8004833E-01
       -2   -1    0    0    0  501  0.00000000000E+00  0.00000000000E+00  0.15418299255E+04  0.15418299255E+04  0.25500000920E-02 0.  1.
        2   -1    0    0  501    0  0.00000000000E+00  0.00000000000E+00 -0.25924801165E+04  0.25924801165E+04  0.25500000920E-02 0. -1.
    10030    2    1    2    0    0  0.00000000000E+00  0.00000000000E+00 -0.10506501910E+04  0.41343100420E+04  0.39985814610E+04 0.  0.
        5    1    3    3  502    0  0.39798982467E+03  0.30511227781E+03  0.14757380946E+04  0.15586258102E+04  0.46999998093E+01 0.  1.
       -5    1    3    3    0  502 -0.39798982467E+03 -0.30511227781E+03 -0.25263882855E+04  0.25756842318E+04  0.46999998093E+01 0. -1.
</event>
<event>
 5   0  0.8329875E-09  0.4014857E+04  0.7818609E-02  0.8001556E-01
       -1   -1    0    0    0  501  0.00000000000E+00  0.00000000000E+00  0.14556963188E+04  0.14556963188E+04  0.50400001928E-02 0.  1.
        1   -1    0    0  501    0  0.00000000000E+00  0.00000000000E+00 -0.27682760708E+04  0.27682760708E+04  0.50400001928E-02 0. -1.
    10030    2    1    2    0    0  0.00000000000E+00  0.00000000000E+00 -0.13125797520E+04  0.42239723896E+04  0.40148570514E+04 0.  0.
        4    1    3    3  502    0 -0.71123809674E+03 -0.60748563702E+03  0.12124190755E+04  0.15312935894E+04  0.12699999809E+01 0.  1.
       -4    1    3    3    0  502  0.71123809674E+03  0.60748563702E+03 -0.25249988275E+04  0.26926788002E+04  0.12699999809E+01 0. -1.
</event>
<event>
 5   0  0.2650452E-08  0.4008874E+04  0.7818609E-02  0.8002759E-01
        2   -1    0    0  501    0  0.00000000000E+00  0.00000000000E+00  0.22557459067E+04  0.22557459067E+04  0.25500000920E-02 0. -1.
       -2   -1    0    0    0  501  0.00000000000E+00  0.00000000000E+00 -0.17811258334E+04  0.17811258334E+04  0.25500000920E-02 0.  1.
    10030    2    1    2    0    0  0.00000000000E+00  0.00000000000E+00  0.47462007330E+03  0.40368717402E+04  0.40088738110E+04 0.  0.
        3    1    3    3  502    0  0.13270254481E+04 -0.47735590845E+03  0.16716533411E+04  0.21870734113E+04  0.10100000352E+00 0. -1.
       -3    1    3    3    0  502 -0.13270254481E+04  0.47735590845E+03 -0.11970332678E+04  0.18497983289E+04  0.10100000352E+00 0.  1.
</event>
<event>
 5   0  0.2599332E-08  0.3998359E+04  0.7818609E-02  0.8004878E-01
       -2   -1    0    0    0  501  0.00000000000E+00  0.00000000000E+00  0.21664182021E+04  0.21664182021E+04  0.25500000920E-02 0.  1.
        2   -1    0    0  501    0  0.00000000000E+00  0.00000000000E+00 -0.18448509994E+04  0.18448509994E+04  0.25500000920E-02 0. -1.
    10030    2    1    2    0    0  0.00000000000E+00  0.00000000000E+00  0.32156720273E+03  0.40112692015E+04  0.39983590560E+04 0.  0.
        2    1    3    3  502    0  0.17987695844E+04 -0.87214201845E+03  0.18355197361E+03  0.20074598489E+04  0.25500000920E-02 0. -1.
       -2    1    3    3    0  502 -0.17987695844E+04  0.87214201845E+03  0.13801522912E+03  0.20038093526E+04  0.25500000920E-02 0.  1.
</event>
<event>
 5   0  0.2612363E-08  0.3999499E+04  0.7818609E-02  0.8004648E-01
       -2   -1    0    0    0  501  0.00000000000E+00  0.00000000000E+00  0.24131342458E+04  0.24131342458E+04  0.25500000920E-02 0. -1.
        2   -1    0    0  501    0  0.00000000000E+00  0.00000000000E+00 -0.16571801976E+04  0.16571801976E+04  0.25500000920E-02 0.  1.
    10030    2    1    2    0    0  0.00000000000E+00  0.00000000000E+00  0.75595404822E+03  0.40703144435E+04  0.39994991118E+04 0.  0.
        4    1    3    3  502    0  0.15795121929E+04  0.47576642781E+03 -0.77242891523E+03  0.18214995206E+04  0.12699999809E+01 0.  1.
       -4    1    3    3    0  502 -0.15795121929E+04 -0.47576642781E+03  0.15283829634E+04  0.22488149229E+04  0.12699999809E+01 0. -1.
</event>
<event>
 5   0  0.2650452E-08  0.3994483E+04  0.7818609E-02  0.8005660E-01
        2   -1    0    0  501    0  0.00000000000E+00  0.00000000000E+00  0.15937539489E+04  0.15937539489E+04  0.25500000920E-02 0.  1.
       -2   -1    0    0    0  501  0.00000000000E+00  0.00000000000E+00 -0.25028793156E+04  0.25028793156E+04  0.25500000920E-02 0. -1.
    10030    2    1    2    0    0  0.00000000000E+00  0.00000000000E+00 -0.90912536672E+03  0.40966332644E+04  0.39944830918E+04 0.  0.
        3    1    3    3  502    0  0.57247922746E+03 -0.13474595212E+04 -0.18478304925E+04  0.23575107988E+04  0.10100000352E+00 0. -1.
       -3    1    3    3    0  502 -0.57247922746E+03  0.13474595212E+04  0.93870512581E+03  0.17391224656E+04  0.10100000352E+00 0.  1.
</event>
<event>
 5   0  0.2746876E-08  0.4016180E+04  0.7818609E-02  0.8001290E-01
       -2   -1    0    0    0  501  0.00000000000E+00  0.00000000000E+00  0.12921911515E+04  0.12921911515E+04  0.25500000920E-02 0.  1.
        2   -1    0    0  501    0  0.00000000000E+00  0.00000000000E+00 -0.31206106988E+04  0.31206106988E+04  0.25500000920E-02 0. -1.
    10030    2    1    2    0    0  0.00000000000E+00  0.00000000000E+00 -0.18284195473E+04  0.44128018503E+04  0.40161800420E+04 0.  0.
        1    1    3    3  502    0  0.15385638217E+04  0.72195193087E+03  0.26101353851E+03  0.17194537770E+04  0.50400001928E-02 0.  1.
       -1    1    3    3    0  502 -0.15385638217E+04 -0.72195193087E+03 -0.20894330858E+04  0.26933480733E+04  0.50400001928E-02 0. -1.
</event>
<event>
 5   0  0.2746876E-08  0.3946403E+04  0.7818609E-02  0.8015447E-01
       -2   -1    0    0    0  501  0.00000000000E+00  0.00000000000E+00  0.25550728198E+04  0.25550728198E+04  0.25500000920E-02 0.  1.
        2   -1    0    0  501    0  0.00000000000E+00  0.00000000000E+00 -0.15238405060E+04  0.15238405060E+04  0.25500000920E-02 0. -1.
    10030    2    1    2    0    0  0.00000000000E+00  0.00000000000E+00  0.10312323138E+04  0.40789133258E+04  0.39464026447E+04 0.  0.
        1    1    3    3  502    0  0.81524021140E+03 -0.49172196651E+02 -0.13409403605E+04  0.15700813857E+04  0.50400001928E-02 0. -1.
       -1    1    3    3    0  502 -0.81524021140E+03  0.49172196651E+02  0.23721726743E+04  0.25088319401E+04  0.50400001928E-02 0.  1.
</event>
<event>
 5   0  0.8329875E-09  0.4000807E+04  0.7818609E-02  0.8004384E-01
       -1   -1    0    0    0  501  0.00000000000E+00  0.00000000000E+00  0.32303809739E+04  0.32303809739E+04  0.50400001928E-02 0.  1.
        1   -1    0    0  501    0  0.00000000000E+00  0.00000000000E+00 -0.12387436796E+04  0.12387436796E+04  0.50400001928E-02 0. -1.
    10030    2    1    2    0    0  0.00000000000E+00  0.00000000000E+00  0.19916372943E+04  0.44691246535E+04  0.40008069257E+04 0.  0.
        1    1    3    3  502    0 -0.93593821718E+03  0.12160418790E+04 -0.43770645110E+03  0.15957208826E+04  0.50400001928E-02 0. -1.
       -1    1    3    3    0  502  0.93593821718E+03 -0.12160418790E+04  0.24293437454E+04  0.28734037710E+04  0.50400001928E-02 0.  1.
</event>
<event>
 5   0  0.8329875E-09  0.3999655E+04  0.7818609E-02  0.8004616E-01
       -1   -1    0    0    0  501  0.00000000000E+00  0.00000000000E+00  0.13688391721E+04  0.13688391721E+04  0.50400001928E-02 0. -1.
        1   -1    0    0  501    0  0.00000000000E+00  0.00000000000E+00 -0.29216801769E+04  0.29216801769E+04  0.50400001928E-02 0.  1.
    10030    2    1    2    0    0  0.00000000000E+00  0.00000000000E+00 -0.15528410049E+04  0.42905193490E+04  0.39996551223E+04 0.  0.
        2    1    3    3  502    0  0.41367154055E+03 -0.11092165234E+04  0.95256858379E+03  0.15194973992E+04  0.25500000920E-02 0. -1.
       -2    1    3    3    0  502 -0.41367154055E+03  0.11092165234E+04 -0.25054095887E+04  0.27710219498E+04  0.25500000920E-02 0.  1.
</event>
<event>
 5   0  0.2746876E-08  0.4006277E+04  0.7818609E-02  0.8003281E-01
       -2   -1    0    0    0  501  0.00000000000E+00  0.00000000000E+00  0.18906080273E+04  0.18906080273E+04  0.25500000920E-02 0. -1.
        2   -1    0    0  501    0  0.00000000000E+00  0.00000000000E+00 -0.21223669733E+04  0.21223669733E+04  0.25500000920E-02 0.  1.
    10030    2    1    2    0    0  0.00000000000E+00  0.00000000000E+00 -0.23175894605E+03  0.40129750006E+04  0.40062770931E+04 0.  0.
        1    1    3    3  502    0  0.12250058791E+04 -0.14123028580E+04  0.60457628537E+03  0.19648794496E+04  0.50400001928E-02 0. -1.
       -1    1    3    3    0  502 -0.12250058791E+04  0.14123028580E+04 -0.83633523143E+03  0.20480955510E+04  0.50400001928E-02 0.  1.
</event>
<event>
 5   0  0.8329875E-09  0.3968990E+04  0.7818609E-02  0.8010832E-01
       -1   -1    0    0    0  501  0.00000000000E+00  0.00000000000E+00  0.28401185763E+04  0.28401185763E+04  0.50400001928E-02 0. -1.
        1   -1    0    0  501    0  0.00000000000E+00  0.00000000000E+00 -0.13866393812E+04  0.13866393813E+04  0.50400001928E-02 0.  1.
    10030    2    1    2    0    0  0.00000000000E+00  0.00000000000E+00  0.14534791951E+04  0.42267579576E+04  0.39689899296E+04 0.  0.
        5    1    3    3  502    0  0.90450906576E+03 -0.17310696635E+04  0.35255201878E+03  0.19847049771E+04  0.46999998093E+01 0.  1.
       -5    1    3    3    0  502 -0.90450906576E+03  0.17310696635E+04  0.11009271763E+04  0.22420529805E+04  0.46999998093E+01 0. -1.
</event>
<event>
 5   0  0.2587493E-08  0.4000982E+04  0.7818609E-02  0.8004348E-01
       -2   -1    0    0    0  501  0.00000000000E+00  0.00000000000E+00  0.18636007790E+04  0.18636007790E+04  0.25500000920E-02 0. -1.
        2   -1    0    0  501    0  0.00000000000E+00  0.00000000000E+00 -0.21474369229E+04  0.21474369229E+04  0.25500000920E-02 0.  1.
    10030    2    1    2    0    0  0.00000000000E+00  0.00000000000E+00 -0.28383614393E+03  0.40110377020E+04  0.40009824406E+04 0.  0.
        5    1    3    3  502    0 -0.67807514221E+03 -0.30450095299E+03 -0.20038515628E+04  0.21372762817E+04  0.46999998093E+01 0.  1.
       -5    1    3    3    0  502  0.67807514221E+03  0.30450095299E+03  0.17200154188E+04  0.18737614202E+04  0.46999998093E+01 0. -1.
</event>
<event>
 5   0  0.8329875E-09  0.3987592E+04  0.7818609E-02  0.8007054E-01
       -1   -1    0    0    0  501  0.00000000000E+00  0.00000000000E+00  0.14935924530E+04  0.14935924530E+04  0.50400001928E-02 0. -1.
        1   -1    0    0  501    0  0.00000000000E+00  0.00000000000E+00 -0.26615170937E+04  0.26615170937E+04  0.50400001928E-02 0.  1.
    10030    2    1    2    0    0  0.00000000000E+00  0.00000000000E+00 -0.11679246407E+04  0.41551095467E+04  0.39875916765E+04 0.  0.
        3    1    3    3  502    0  0.45944277701E+03  0.18994552281E+04 -0.99579222624E+03  0.21933125625E+04  0.10100000352E+00 0. -1.
       -3    1    3    3    0  502 -0.45944277701E+03 -0.18994552281E+04 -0.17213241449E+03  0.19617969842E+04  0.10100000352E+00 0.  1.
</event>
<event>
 5   0  0.2599332E-08  0.3999321E+04  0.7818609E-02  0.8004684E-01
       -2   -1    0    0    0  501  0.00000000000E+00  0.00000000000E+00  0.21810024272E+04  0.21810024272E+04  0.25500000920E-02 0.  1.
        2   -1    0    0  501    0  0.00000000000E+00  0.00000000000E+00 -0.18333965468E+04  0.18333965468E+04  0.25500000920E-02 0. -1.
    10030    2    1    2    0    0  0.00000000000E+00  0.00000000000E+00  0.34760588045E+03  0.40143989740E+04  0.39993211017E+04 0.  0.
        2    1    3    3  502    0 -0.43536062248E+03  0.17051145823E+04  0.11269553124E+04  0.20897327309E+04  0.25500000920E-02 0.  1.
       -2    1    3    3    0  502  0.43536062248E+03 -0.17051145823E+04 -0.77934943192E+03  0.19246662431E+04  0.25500000920E-02 0. -1.
</event>
<event>
 5   0  0.8329875E-09  0.4031789E+04  0.7818609E-02  0.7998164E-01
       -1   -1    0    0    0  501  0.00000000000E+00  0.00000000000E+00  0.29059819553E+04  0.29059819553E+04  0.50400001928E-02 0.  1.
        1   -1    0    0  501    0  0.00000000000E+00  0.00000000000E+00 -0.13984359986E+04  0.13984359986E+04  0.50400001928E-02 0. -1.
    10030    2    1    2    0    0  0.00000000000E+00  0.00000000000E+00  0.15075459567E+04  0.43044179539E+04  0.40317885746E+04 0.  0.
        4    1    3    3  502    0  0.18146809882E+04 -0.75921107077E+03  0.12244464396E+04  0.23170539992E+04  0.12699999809E+01 0. -1.
       -4    1    3    3    0  502 -0.18146809882E+04  0.75921107077E+03  0.28309951711E+03  0.19873639547E+04  0.12699999809E+01 0.  1.
</event>
<event>
 5   0  0.8329875E-09  0.3999860E+04  0.7818609E-02  0.8004575E-01
        1   -1    0    0  501    0  0.00000000000E+00  0.00000000000E+00  0.18980628774E+04  0.18980628774E+04  0.50400001928E-02 0. -1.
       -1   -1    0    0    0  501  0.00000000000E+00  0.00000000000E+00 -0.21072645172E+04  0.21072645172E+04  0.50400001928E-02 0.  1.
    10030    2    1    2    0    0  0.00000000000E+00  0.00000000000E+00 -0.20920163977E+03  0.40053273946E+04  0.39998602740E+04 0.  0.
        5    1    3    3  502    0 -0.48378622477E+03 -0.54753525849E+03  0.17596243330E+04  0.19052936398E+04  0.46999998093E+01 0. -1.
       -5    1    3    3    0  502  0.48378622477E+03  0.54753525849E+03 -0.19688259727E+04  0.21000337548E+04  0.46999998093E+01 0.  1.
</event>
<event>
 5   0  0.8329875E-09  0.3993375E+04  0.7818609E-02  0.8005884E-01
        1   -1    0    0  501    0  0.00000000000E+00  0.00000000000E+00  0.28648067261E+04  0.28648067261E+04  0.50400001928E-02 0.  1.
       -1   -1    0    0    0  501  0.00000000000E+00  0.00000000000E+00 -0.13916336599E+04  0.13916336600E+04  0.50400001928E-02 0. -1.
    10030    2    1    2    0    0  0.00000000000E+00  0.00000000000E+00  0.14731730662E+04  0.42564403861E+04  0.39933752487E+04 0.  0.
        3    1    3    3  502    0  0.22996376283E+03  0.19718633074E+04  0.50889493288E+03  0.20494151112E+04  0.10100000352E+00 0. -1.
       -3    1    3    3    0  502 -0.22996376283E+03 -0.19718633074E+04  0.96427813329E+03  0.22070252748E+04  0.10100000352E+00 0.  1.
</event>
<event>
 5   0  0.8329875E-09  0.4000298E+04  0.7818609E-02  0.8004486E-01
       -1   -1    0    0    0  501  0.00000000000E+00  0.00000000000E+00  0.21515009177E+04  0.21515009177E+04  0.50400001928E-02 0. -1.
        1   -1    0    0  501    0  0.00000000000E+00  0.00000000000E+00 -0.18594445871E+04  0.18594445871E+04  0.50400001928E-02 0.  1.
    10030    2    1    2    0    0  0.00000000000E+00  0.00000000000E+00  0.29205633060E+03  0.40109455048E+04  0.40002983567E+04 0.  0.
        2    1    3    3  502    0  0.70598348398E+03  0.12870494388E+04 -0.12161486939E+04  0.19062860707E+04  0.25500000920E-02 0.  1.
       -2    1    3    3    0  502 -0.70598348398E+03 -0.12870494388E+04  0.15082050245E+04  0.21046594341E+04  0.25500000920E-02 0. -1.
</event>
<event>
 5   0  0.2650452E-08  0.3994054E+04  0.7818609E-02  0.8005747E-01
       -2   -1    0    0    0  501  0.00000000000E+00  0.00000000000E+00  0.24464862670E+04  0.24464862670E+04  0.25500000920E-02 0. -1.
        2   -1    0    0  501    0  0.00000000000E+00  0.00000000000E+00 -0.16301404986E+04  0.16301404986E+04  0.25500000920E-02 0.  1.
    10030    2    1    2    0    0  0.00000000000E+00  0.00000000000E+00  0.81634576845E+03  0.40766267656E+04  0.39940537518E+04 0.  0.
        3    1    3    3  502    0 -0.45059459130E+03  0.15323391815E+04  0.16317126021E+04  0.22833275891E+04  0.10100000352E+00 0. -1.
       -3    1    3    3    0  502  0.45059459130E+03 -0.15323391815E+04 -0.81536683364E+03  0.17932991765E+04  0.10100000352E+00 0.  1.
</event>
<event>
 5   0  0.2746876E-08  0.4001547E+04  0.7818609E-02  0.8004235E-01
        2   -1    0    0  501    0  0.00000000000E+00  0.00000000000E+00  0.26288375972E+04  0.26288375972E+04  0.25500000920E-02 0.  1.
       -2   -1    0    0    0  501  0.00000000000E+00  0.00000000000E+00 -0.15227623334E+04  0.15227623334E+04  0.25500000920E-02 0. -1.
    10030    2    1    2    0    0  0.00000000000E+00  0.00000000000E+00  0.11060752638E+04  0.41515999306E+04  0.40015471376E+04 0.  0.
        1    1    3    3  502    0  0.15536298328E+04  0.41710911439E+03 -0.68125848066E+03  0.17469570081E+04  0.50400001928E-02 0. -1.
       -1    1    3    3    0  502 -0.15536298328E+04 -0.41710911439E+03  0.17873337444E+04  0.24046429225E+04  0.50400001928E-02 0.  1.
</event>
<event>
 5   0  0.8329875E-09  0.3999573E+04  0.7818609E-02  0.8004633E-01
        1   -1    0    0  501    0  0.00000000000E+00  0.00000000000E+00  0.12947638189E+04  0.12947638189E+04  0.50400001928E-02 0. -1.
       -1   -1    0    0    0  501  0.00000000000E+00  0.00000000000E+00 -0.30887070351E+04  0.30887070351E+04  0.50400001928E-02 0.  1.
    10030    2    1    2    0    0  0.00000000000E+00  0.00000000000E+00 -0.17939432162E+04  0.43834708540E+04  0.39995730353E+04 0.  0.
        2    1    3    3  502    0  0.80863441762E+03  0.17963502832E+04 -0.51987935366E+03  0.20374097535E+04  0.25500000920E-02 0. -1.
       -2    1    3    3    0  502 -0.80863441762E+03 -0.17963502832E+04 -0.12740638626E+04  0.23460611005E+04  0.25500000920E-02 0.  1.
</event>
<event>
 5   0  0.8329875E-09  0.4005235E+04  0.7818609E-02  0.8003491E-01
       -1   -1    0    0    0  501  0.00000000000E+00  0.00000000000E+00  0.18441493260E+04  0.18441493260E+04  0.50400001928E-02 0.  1.
        1   -1    0    0  501    0  0.00000000000E+00  0.00000000000E+00 -0.21747030361E+04  0.21747030361E+04  0.50400001928E-02 0. -1.
    10030    2    1    2    0    0  0.00000000000E+00  0.00000000000E+00 -0.33055371010E+03  0.40188523621E+04  0.40052351433E+04 0.  0.
        4    1    3    3  502    0 -0.18803871031E+04 -0.66161023659E+03  0.27448448408E+02  0.19935743760E+04  0.12699999809E+01 0.  1.
       -4    1    3    3    0  502  0.18803871031E+04  0.66161023659E+03 -0.35800215851E+03  0.20252779861E+04  0.12699999809E+01 0. -1.
</event>
<event>
 5   0  0.8329875E-09  0.4002424E+04  0.7818609E-02  0.8004058E-01
       -1   -1    0    0    0  501  0.00000000000E+00  0.00000000000E+00  0.23509717158E+04  0.23509717158E+04  0.50400001928E-02 0.  1.
        1   -1    0    0  501    0  0.00000000000E+00  0.00000000000E+00 -0.17034866778E+04  0.17034866778E+04  0.50400001928E-02 0. -1.
    10030    2    1    2    0    0  0.00000000000E+00  0.00000000000E+00  0.64748503799E+03  0.40544583935E+04  0.40024237645E+04 0.  0.
        3    1    3    3  502    0  0.10069515221E+04  0.15736540143E+04 -0.40287684833E+03  0.19111902286E+04  0.10100000352E+00 0. -1.
       -3    1    3    3    0  502 -0.10069515221E+04 -0.15736540143E+04  0.10503618863E+04  0.21432681650E+04  0.10100000352E+00 0.  1.
</event>
<event>
 5   0  0.8329875E-09  0.3982304E+04  0.7818609E-02  0.8008126E-01
       -1   -1    0    0    0  501  0.00000000000E+00  0.00000000000E+00  0.23792868170E+04  0.23792868170E+04  0.50400001928E-02 0. -1.
        1   -1    0    0  501    0  0.00000000000E+00  0.00000000000E+00 -0.16663342544E+04  0.16663342544E+04  0.50400001928E-02 0.  1.
    10030    2    1    2    0    0  0.00000000000E+00  0.00000000000E+00  0.71295256257E+03  0.40456210714E+04  0.39823044204E+04 0.  0.
        4    1    3    3  502    0 -0.64170391016E+03  0.84312626710E+03 -0.13561626692E+04  0.17209952379E+04  0.12699999809E+01 0.  1.
       -4    1    3    3    0  502  0.64170391016E+03 -0.84312626710E+03  0.20691152318E+04  0.23246258335E+04  0.12699999809E+01 0. -1.
</event>
<event>
 5   0  0.2599332E-08  0.3996052E+04  0.7818609E-02  0.8005343E-01
       -2   -1    0    0    0  501  0.00000000000E+00  0.00000000000E+00  0.13607841222E+04  0.13607841222E+04  0.25500000920E-02 0.  1.
        2   -1    0    0  501    0  0.00000000000E+00  0.00000000000E+00 -0.29336820807E+04  0.29336820807E+04  0.25500000920E-02 0. -1.
    10030    2    1    2    0    0  0.00000000000E+00  0.00000000000E+00 -0.15728979585E+04  0.42944662029E+04  0.39960520492E+04 0.  0.
        2    1    3    3  502    0 -0.11824693187E+04 -0.10348744019E+04  0.53976948197E+03  0.16614902380E+04  0.25500000920E-02 0.  1.
       -2    1    3    3    0  502  0.11824693187E+04  0.10348744019E+04 -0.21126674405E+04  0.26329759649E+04  0.25500000920E-02 0. -1.
</event>
<event>
 5   0  0.2746876E-08  0.4017389E+04  0.7818609E-02  0.8001048E-01
        2   -1    0    0  501    0  0.00000000000E+00  0.00000000000E+00  0.29005284665E+04  0.29005284665E+04  0.25500000920E-02 0.  1.
       -2   -1    0    0    0  501  0.00000000000E+00  0.00000000000E+00 -0.13910755981E+04  0.13910755981E+04  0.25500000920E-02 0. -1.
    10030    2    1    2    0    0  0.00000000000E+00  0.00000000000E+00  0.15094528684E+04  0.42916040646E+04  0.40173893869E+04 0.  0.
        1    1    3    3  502    0  0.78498103108E+03 -0.13064326912E+04 -0.64297367663E+03  0.16541997294E+04  0.50400001928E-02 0. -1.
       -1    1    3    3    0  502 -0.78498103108E+03  0.13064326912E+04  0.21524265450E+04  0.26374043352E+04  0.50400001928E-02 0.  1.
</event>
<event>
 5   0  0.8329875E-09  0.4011912E+04  0.7818609E-02  0.8002148E-01
       -1   -1    0    0    0  501  0.00000000000E+00  0.00000000000E+00  0.18115931706E+04  0.18115931706E+04  0.50400001928E-02 0.  1.
        1   -1    0    0  501    0  0.00000000000E+00  0.00000000000E+00 -0.22211714880E+04  0.22211714880E+04  0.50400001928E-02 0. -1.
    10030    2    1    2    0    0  0.00000000000E+00  0.00000000000E+00 -0.40957831737E+03  0.40327646586E+04  0.40119118127E+04 0.  0.
        1    1    3    3  502    0 -0.90108150691E+03 -0.17769989815E+04  0.29199274588E+02  0.19926178409E+04  0.50400001928E-02 0. -1.
       -1    1    3    3    0  502  0.90108150691E+03  0.17769989815E+04 -0.43877759196E+03  0.20401468176E+04  0.50400001928E-02 0.  1.
</event>
<event>
 5   0  0.2599332E-08  0.4007160E+04  0.7818609E-02  0.8003104E-01
        2   -1    0    0  501    0  0.00000000000E+00  0.00000000000E+00  0.17298769627E+04  0.17298769627E+04  0.25500000920E-02 0.  1.
       -2   -1    0    0    0  501  0.00000000000E+00  0.00000000000E+00 -0.23205882852E+04  0.23205882852E+04  0.25500000920E-02 0. -1.
    10030    2    1    2    0    0  0.00000000000E+00  0.00000000000E+00 -0.59071132244E+03  0.40504652479E+04  0.40071596995E+04 0.  0.
        2    1    3    3  502    0  0.98587732752E+03 -0.13209488885E+04 -0.14467319478E+04  0.21931469171E+04  0.25500000920E-02 0. -1.
       -2    1    3    3    0  502 -0.98587732752E+03  0.13209488885E+04  0.85602062539E+03  0.18573183308E+04  0.25500000920E-02 0.  1.
</event>
<event>
 5   0  0.8329875E-09  0.3993811E+04  0.7818609E-02  0.8005796E-01
        1   -1    0    0  501    0  0.00000000000E+00  0.00000000000E+00  0.26965353996E+04  0.26965353997E+04  0.50400001928E-02 0. -1.
       -1   -1    0    0    0  501  0.00000000000E+00  0.00000000000E+00 -0.14787984136E+04  0.14787984136E+04  0.50400001928E-02 0.  1.
    10030    2    1    2    0    0  0.00000000000E+00  0.00000000000E+00  0.12177369861E+04  0.41753338132E+04  0.39938113482E+04 0.  0.
        3    1    3    3  502    0 -0.17857843803E+04  0.56429721426E+03  0.13333102187E+04  0.22989504885E+04  0.10100000352E+00 0. -1.
       -3    1    3    3    0  502  0.17857843803E+04 -0.56429721426E+03 -0.11557323263E+03  0.18763833247E+04  0.10100000352E+00 0.  1.
</event>
<event>
 5   0  0.2746876E-08  0.4005491E+04  0.7818609E-02  0.8003440E-01
        2   -1    0    0  501    0  0.00000000000E+00  0.00000000000E+00  0.29275394338E+04  0.29275394338E+04  0.25500000920E-02 0. -1.
       -2   -1    0    0    0  501  0.00000000000E+00  0.00000000000E+00 -0.13700892538E+04  0.13700892538E+04  0.25500000920E-02 0.  1.
    10030    2    1    2    0    0  0.00000000000E+00  0.00000000000E+00  0.15574501801E+04  0.42976286876E+04  0.40054913897E+04 0.  0.
        1    1    3    3  502    0  0.18652513706E+04 -0.48109759753E+03  0.13667603236E+04  0.23619168817E+04  0.50400001928E-02 0.  1.
       -1    1    3    3    0  502 -0.18652513706E+04  0.48109759753E+03  0.19068985649E+03  0.19357118059E+04  0.50400001928E-02 0. -1.
</event>
<event>
 5   0  0.8329875E-09  0.4002114E+04  0.7818609E-02  0.8004120E-01
       -1   -1    0    0    0  501  0.00000000000E+00  0.00000000000E+00  0.22767398075E+04  0.22767398075E+04  0.50400001928E-02 0.  1.
        1   -1    0    0  501    0  0.00000000000E+00  0.00000000000E+00 -0.17587555082E+04  0.17587555082E+04  0.50400001928E-02 0. -1.
    10030    2    1    2    0    0  0.00000000000E+00  0.00000000000E+00  0.51798429931E+03  0.40354953157E+04  0.40021137801E+04 0.  0.
        3    1    3    3  502    0 -0.95517541708E+01 -0.13446057948E+04  0.17533019996E+04  0.22095528714E+04  0.10100000352E+00 0.  1.
       -3    1    3    3    0  502  0.95517541708E+01  0.13446057948E+04 -0.12353177002E+04  0.18259424444E+04  0.10100000352E+00 0. -1.
</event>
<event>
 5   0  0.2587493E-08  0.3938557E+04  0.7818609E-02  0.8017057E-01
       -2   -1    0    0    0  501  0.00000000000E+00  0.00000000000E+00  0.19627344800E+04  0.19627344800E+04  0.25500000920E-02 0. -1.
        2   -1    0    0  501    0  0.00000000000E+00  0.00000000000E+00 -0.19758444999E+04  0.19758444999E+04  0.25500000920E-02 0.  1.
    10030    2    1    2    0    0  0.00000000000E+00  0.00000000000E+00 -0.13110019930E+02  0.39385789799E+04  0.39385571607E+04 0.  0.
        5    1    3    3  502    0  0.18292306561E+04 -0.59123039130E+03 -0.43363801036E+03  0.19707110856E+04  0.46999998093E+01 0.  1.
       -5    1    3    3    0  502 -0.18292306561E+04  0.59123039130E+03  0.42052799043E+03  0.19678678943E+04  0.46999998093E+01 0. -1.
</event>
<event>
 5   0  0.2746876E-08  0.3955704E+04  0.7818609E-02  0.8013543E-01
        2   -1    0    0  501    0  0.00000000000E+00  0.00000000000E+00  0.16626334284E+04  0.16626334284E+04  0.25500000920E-02 0.  1.
       -2   -1    0    0    0  501  0.00000000000E+00  0.00000000000E+00 -0.23528327572E+04  0.23528327572E+04  0.25500000920E-02 0. -1.
    10030    2    1    2    0    0  0.00000000000E+00  0.00000000000E+00 -0.69019932877E+03  0.40154661856E+04  0.39557039291E+04 0.  0.
        1    1    3    3  502    0  0.72180272321E+03  0.30531052646E+03  0.14982883497E+04  0.16908819201E+04  0.50400001928E-02 0.  1.
       -1    1    3    3    0  502 -0.72180272321E+03 -0.30531052646E+03 -0.21884876785E+04  0.23245842655E+04  0.50400001928E-02 0. -1.
</event>
<event>
 5   0  0.8329875E-09  0.3880131E+04  0.7818609E-02  0.8029174E-01
        1   -1    0    0  501    0  0.00000000000E+00  0.00000000000E+00  0.19140611917E+04  0.19140611917E+04  0.50400001928E-02 0. -1.
       -1   -1    0    0    0  501  0.00000000000E+00  0.00000000000E+00 -0.19664234136E+04  0.19664234136E+04  0.50400001928E-02 0.  1.
    10030    2    1    2    0    0  0.00000000000E+00  0.00000000000E+00 -0.52362221903E+02  0.38804846053E+04  0.38801313083E+04 0.  0.
        2    1    3    3  502    0  0.53744991243E+03 -0.10483890367E+04  0.15153491169E+04  0.19194413059E+04  0.25500000920E-02 0. -1.
       -2    1    3    3    0  502 -0.53744991243E+03  0.10483890367E+04 -0.15677113388E+04  0.19610432995E+04  0.25500000920E-02 0.  1.
</event>
<event>
 5   0  0.2599332E-08  0.3996808E+04  0.7818609E-02  0.8005191E-01
       -2   -1    0    0    0  501  0.00000000000E+00  0.00000000000E+00  0.26968328264E+04  0.26968328264E+04  0.25500000920E-02 0.  1.
        2   -1    0    0  501    0  0.00000000000E+00  0.00000000000E+00 -0.14808551954E+04  0.14808551954E+04  0.25500000920E-02 0. -1.
    10030    2    1    2    0    0  0.00000000000E+00  0.00000000000E+00  0.12159776309E+04  0.41776880218E+04  0.39968081776E+04 0.  0.
        2    1    3    3  502    0  0.15139282003E+03  0.87141580964E+02 -0.14728599365E+04  0.14831823333E+04  0.25500000920E-02 0. -1.
       -2    1    3    3    0  502 -0.15139282003E+03 -0.87141580964E+02  0.26888375675E+04  0.26945056885E+04  0.25500000920E-02 0.  1.
</event>
<event>
 5   0  0.2746876E-08  0.3973192E+04  0.7818609E-02  0.8009977E-01
        2   -1    0    0  501    0  0.00000000000E+00  0.00000000000E+00  0.19114286552E+04  0.19114286552E+04  0.25500000920E-02 0.  1.
       -2   -1    0    0    0  501  0.00000000000E+00  0.00000000000E+00 -0.20647193297E+04  0.20647193297E+04  0.25500000920E-02 0. -1.
    10030    2    1    2    0    0  0.00000000000E+00  0.00000000000E+00 -0.15329067450E+03  0.39761479850E+04  0.39731920124E+04 0.  0.
        1    1    3    3  502    0  0.40330473400E+03 -0.19185505770E+04 -0.39793351296E+03  0.20004604734E+04  0.50400001928E-02 0.  1.
       -1    1    3    3    0  502 -0.40330473400E+03  0.19185505770E+04  0.24464283846E+03  0.19756875116E+04  0.50400001928E-02 0. -1.
</event>
<event>
 5   0  0.8329875E-09  0.3997928E+04  0.7818609E-02  0.8004965E-01
        1   -1    0    0  501    0  0.00000000000E+00  0.00000000000E+00  0.14458216583E+04  0.14458216583E+04  0.50400001928E-02 0. -1.
       -1   -1    0    0    0  501  0.00000000000E+00  0.00000000000E+00 -0.27637281352E+04  0.27637281352E+04  0.50400001928E-02 0.  1.
    10030    2    1    2    0    0  0.00000000000E+00  0.00000000000E+00 -0.13179064769E+04  0.42095497936E+04  0.39979284614E+04 0.  0.
        2    1    3    3  502    0  0.17786189708E+03  0.19443979024E+04 -0.11100460675E+04  0.22460009638E+04  0.25500000920E-02 0. -1.
       -2    1    3    3    0  502 -0.17786189708E+03 -0.19443979024E+04 -0.20786040936E+03  0.19635488298E+04  0.25500000920E-02 0.  1.
</event>
<event>
 5   0  0.8329875E-09  0.3927281E+04  0.7818609E-02  0.8019379E-01
       -1   -1    0    0    0  501  0.00000000000E+00  0.00000000000E+00  0.20396120003E+04  0.20396120003E+04  0.50400001928E-02 0.  1.
        1   -1    0    0  501    0  0.00000000000E+00  0.00000000000E+00 -0.18904985676E+04  0.18904985676E+04  0.50400001928E-02 0. -1.
    10030    2    1    2    0    0  0.00000000000E+00  0.00000000000E+00  0.14911343265E+03  0.39301105679E+04  0.39272807718E+04 0.  0.
        4    1    3    3  502    0  0.88611345446E+03 -0.12759658172E+04 -0.11273899552E+04  0.19194518866E+04  0.12699999809E+01 0. -1.
       -4    1    3    3    0  502 -0.88611345446E+03  0.12759658172E+04  0.12765033878E+04  0.20106586814E+04  0.12699999809E+01 0.  1.
</event>
<event>
 5   0  0.2587493E-08  0.3995244E+04  0.7818609E-02  0.8005507E-01
        2   -1    0    0  501    0  0.00000000000E+00  0.00000000000E+00  0.18878377042E+04  0.18878377042E+04  0.25500000920E-02 0.  1.
       -2   -1    0    0    0  501  0.00000000000E+00  0.00000000000E+00 -0.21137902215E+04  0.21137902215E+04  0.25500000920E-02 0. -1.
    10030    2    1    2    0    0  0.00000000000E+00  0.00000000000E+00 -0.22595251732E+03  0.40016279257E+04  0.39952436116E+04 0.  0.
        5    1    3    3  502    0  0.10669075387E+03 -0.32429285268E+03  0.18583970696E+04  0.18895000740E+04  0.46999998093E+01 0.  1.
       -5    1    3    3    0  502 -0.10669075387E+03  0.32429285268E+03 -0.20843495870E+04  0.21121278517E+04  0.46999998093E+01 0. -1.
</event>
<event>
 5   0  0.8329875E-09  0.3998492E+04  0.7818609E-02  0.8004851E-01
       -1   -1    0    0    0  501  0.00000000000E+00  0.00000000000E+00  0.30174152901E+04  0.30174152901E+04  0.50400001928E-02 0. -1.
        1   -1    0    0  501    0  0.00000000000E+00  0.00000000000E+00 -0.13246383394E+04  0.13246383394E+04  0.50400001928E-02 0.  1.
    10030    2    1    2    0    0  0.00000000000E+00  0.00000000000E+00  0.16927769507E+04  0.43420536295E+04  0.39984917052E+04 0.  0.
        5    1    3    3  502    0  0.13112953336E+02 -0.12418399466E+04 -0.85495275361E+03  0.15077482228E+04  0.46999998093E+01 0.  1.
       -5    1    3    3    0  502 -0.13112953336E+02  0.12418399466E+04  0.25477297043E+04  0.28343054067E+04  0.46999998093E+01 0. -1.
</event>
<event>
 5   0  0.8329875E-09  0.3998522E+04  0.7818609E-02  0.8004845E-01
        1   -1    0    0  501    0  0.00000000000E+00  0.00000000000E+00  0.18514719572E+04  0.18514719572E+04  0.50400001928E-02 0.  1.
       -1   -1    0    0    0  501  0.00000000000E+00  0.00000000000E+00 -0.21588467657E+04  0.21588467657E+04  0.50400001928E-02 0. -1.
    10030    2    1    2    0    0  0.00000000000E+00  0.00000000000E+00 -0.30737480854E+03  0.40103187229E+04  0.39985218501E+04 0.  0.
        3    1    3    3  502    0 -0.24044915998E+03  0.18853859721E+04  0.46826162315E+03  0.19574894687E+04  0.10100000352E+00 0.  1.
       -3    1    3    3    0  502  0.24044915998E+03 -0.18853859721E+04 -0.77563643169E+03  0.20528292541E+04  0.10100000352E+00 0. -1.
</event>
<event>
 5   0  0.2650452E-08  0.3996632E+04  0.7818609E-02  0.8005226E-01
       -2   -1    0    0    0  501  0.00000000000E+00  0.00000000000E+00  0.20678455834E+04  0.20678455834E+04  0.25500000920E-02 0. -1.
        2   -1    0    0  501    0  0.00000000000E+00  0.00000000000E+00 -0.19311244157E+04  0.19311244157E+04  0.25500000920E-02 0.  1.
    10030    2    1    2    0    0  0.00000000000E+00  0.00000000000E+00  0.13672116776E+03  0.39989699991E+04  0.39966321292E+04 0.  0.
        3    1    3    3  502    0  0.36486558930E+02 -0.17507151814E+04  0.10316969333E+04  0.20324205982E+04  0.10100000352E+00 0. -1.
       -3    1    3    3    0  502 -0.36486558930E+02  0.17507151814E+04 -0.89497576550E+03  0.19665494010E+04  0.10100000352E+00 0.  1.
</event>
<event>
 5   0  0.2587493E-08  0.4061728E+04  0.7818609E-02  0.7992209E-01
       -2   -1    0    0    0  501  0.00000000000E+00  0.00000000000E+00  0.32612057549E+04  0.32612057549E+04  0.25500000920E-02 0.  1.
        2   -1    0    0  501    0  0.00000000000E+00  0.00000000000E+00 -0.12646882471E+04  0.12646882471E+04  0.25500000920E-02 0. -1.
    10030    2    1    2    0    0  0.00000000000E+00  0.00000000000E+00  0.19965175078E+04  0.45258940020E+04  0.40617280016E+04 0.  0.
        5    1    3    3  502    0 -0.15352010805E+04 -0.32659936131E+03 -0.43776715914E+03  0.16294697530E+04  0.46999998093E+01 0. -1.
       -5    1    3    3    0  502  0.15352010805E+04  0.32659936131E+03  0.24342846669E+04  0.28964242490E+04  0.46999998093E+01 0.  1.
</event>
<event>
 5   0  0.8329875E-09  0.3998525E+04  0.7818609E-02  0.8004844E-01
       -1   -1    0    0    0  501  0.00000000000E+00  0.00000000000E+00  0.25909577283E+04  0.25909577283E+04  0.50400001928E-02 0. -1.
        1   -1    0    0  501    0  0.00000000000E+00  0.00000000000E+00 -0.15426926157E+04  0.15426926157E+04  0.50400001928E-02 0.  1.
    10030    2    1    2    0    0  0.00000000000E+00  0.00000000000E+00  0.10482651126E+04  0.41336503440E+04  0.39985254057E+04 0.  0.
        5    1    3    3  502    0  0.67080883593E+02 -0.12506571519E+04  0.21351221981E+04  0.24753609933E+04  0.46999998093E+01 0. -1.
       -5    1    3    3    0  502 -0.67080883593E+02  0.12506571519E+04 -0.10868570855E+04  0.16582893507E+04  0.46999998093E+01 0.  1.
</event>
<event>
 5   0  0.8329875E-09  0.3964030E+04  0.7818609E-02  0.8011842E-01
       -1   -1    0    0    0  501  0.00000000000E+00  0.00000000000E+00  0.23278841739E+04  0.23278841739E+04  0.50400001928E-02 0. -1.
        1   -1    0    0  501    0  0.00000000000E+00  0.00000000000E+00 -0.16875342196E+04  0.16875342196E+04  0.50400001928E-02 0.  1.
    10030    2    1    2    0    0  0.00000000000E+00  0.00000000000E+00  0.64034995431E+03  0.40154183935E+04  0.39640303747E+04 0.  0.
        2    1    3    3  502    0 -0.16936802924E+04 -0.85531057743E+03 -0.26020549606E+03  0.19151543063E+04  0.25500000920E-02 0. -1.
       -2    1    3    3    0  502  0.16936802924E+04  0.85531057743E+03  0.90055545037E+03  0.21002640872E+04  0.25500000920E-02 0.  1.
</event>
<event>
 5   0  0.2612363E-08  0.3995316E+04  0.7818609E-02  0.8005492E-01
       -2   -1    0    0    0  501  0.00000000000E+00  0.00000000000E+00  0.25649618374E+04  0.25649618374E+04  0.25500000920E-02 0. -1.
        2   -1    0    0  501    0  0.00000000000E+00  0.00000000000E+00 -0.15558273167E+04  0.15558273167E+04  0.25500000920E-02 0.  1.
    10030    2    1    2    0    0  0.00000000000E+00  0.00000000000E+00  0.10091345207E+04  0.41207891541E+04  0.39953161041E+04 0.  0.
        4    1    3    3  502    0  0.19339096610E+03  0.37999441408E+03  0.25174831471E+04  0.25533348447E+04  0.12699999809E+01 0. -1.
       -4    1    3    3    0  502 -0.19339096610E+03 -0.37999441408E+03 -0.15083486264E+04  0.15674543094E+04  0.12699999809E+01 0.  1.
</event>
<event>
 5   0  0.2587493E-08  0.4000285E+04  0.7818609E-02  0.8004489E-01
        2   -1    0    0  501    0  0.00000000000E+00  0.00000000000E+00  0.14690654396E+04  0.14690654396E+04  0.25500000920E-02 0. -1.
       -2   -1    0    0    0  501  0.00000000000E+00  0.00000000000E+00 -0.27232080277E+04  0.27232080277E+04  0.25500000920E-02 0.  1.
    10030    2    1    2    0    0  0.00000000000E+00  0.00000000000E+00 -0.12541425881E+04  0.41922734674E+04  0.40002853891E+04 0.  0.
        5    1    3    3  502    0  0.17648075642E+04  0.82578135491E+03 -0.15362851736E+03  0.19545036189E+04  0.46999998093E+01 0. -1.
       -5    1    3    3    0  502 -0.17648075642E+04 -0.82578135491E+03 -0.11005140707E+04  0.22377698485E+04  0.46999998093E+01 0.  1.
</event>
<event>
 5   0  0.8329875E-09  0.3998575E+04  0.7818609E-02  0.8004834E-01
       -1   -1    0    0    0  501  0.00000000000E+00  0.00000000000E+00  0.16846354306E+04  0.16846354306E+04  0.50400001928E-02 0.  1.
        1   -1    0    0  501    0  0.00000000000E+00  0.00000000000E+00 -0.23727091030E+04  0.23727091030E+04  0.50400001928E-02 0. -1.
    10030    2    1    2    0    0  0.00000000000E+00  0.00000000000E+00 -0.68807367244E+03  0.40573445336E+04  0.39985746567E+04 0.  0.
        1    1    3    3  502    0 -0.19121888345E+04  0.13910043795E+03  0.23115872547E+03  0.19311264658E+04  0.50400001928E-02 0.  1.
       -1    1    3    3    0  502  0.19121888345E+04 -0.13910043795E+03 -0.91923239791E+03  0.21262180678E+04  0.50400001928E-02 0. -1.
</event>
<event>
 5   0  0.2599332E-08  0.3977859E+04  0.7818609E-02  0.8009028E-01
        2   -1    0    0  501    0  0.00000000000E+00  0.00000000000E+00  0.23782722699E+04  0.23782722699E+04  0.25500000920E-02 0.  1.
       -2   -1    0    0    0  501  0.00000000000E+00  0.00000000000E+00 -0.16633250441E+04  0.16633250441E+04  0.25500000920E-02 0. -1.
    10030    2    1    2    0    0  0.00000000000E+00  0.00000000000E+00  0.71494722575E+03  0.40415973140E+04  0.39778586341E+04 0.  0.
        2    1    3    3  502    0 -0.70187714554E+03  0.12021899711E+04 -0.10858331109E+04  0.17654817469E+04  0.25500000920E-02 0.  1.
       -2    1    3    3    0  502  0.70187714554E+03 -0.12021899711E+04  0.18007803366E+04  0.22761155671E+04  0.25500000920E-02 0. -1.
</event>
<event>
 5   0  0.8329875E-09  0.3998249E+04  0.7818609E-02  0.8004900E-01
        1   -1    0    0  501    0  0.00000000000E+00  0.00000000000E+00  0.12134881495E+04  0.12134881495E+04  0.50400001928E-02 0.  1.
       -1   -1    0    0    0  501  0.00000000000E+00  0.00000000000E+00 -0.32933977260E+04  0.32933977260E+04  0.50400001928E-02 0. -1.
    10030    2    1    2    0    0  0.00000000000E+00  0.00000000000E+00 -0.20799095765E+04  0.45068858755E+04  0.39982491728E+04 0.  0.
        2    1    3    3  502    0  0.67076346334E+03  0.83467409798E+03  0.86296773696E+03  0.13752519001E+04  0.25500000920E-02 0.  1.
       -2    1    3    3    0  502 -0.67076346334E+03 -0.83467409798E+03 -0.29428773135E+04  0.31316339754E+04  0.25500000920E-02 0. -1.
</event>
<event>
 5   0  0.2746876E-08  0.4076245E+04  0.7818609E-02  0.7989340E-01
        2   -1    0    0  501    0  0.00000000000E+00  0.00000000000E+00  0.20550139159E+04  0.20550139159E+04  0.25500000920E-02 0.  1.
       -2   -1    0    0    0  501  0.00000000000E+00  0.00000000000E+00 -0.20213701306E+04  0.20213701306E+04  0.25500000920E-02 0. -1.
    10030    2    1    2    0    0  0.00000000000E+00  0.00000000000E+00  0.33643785324E+02  0.40763840465E+04  0.40762452073E+04 0.  0.
        1    1    3    3  502    0 -0.17750650326E+04 -0.84767338041E+03 -0.51661704586E+03  0.20337893701E+04  0.50400001928E-02 0. -1.
       -1    1    3    3    0  502  0.17750650326E+04  0.84767338041E+03  0.55026083118E+03  0.20425946764E+04  0.50400001928E-02 0.  1.
</event>
<event>
 5   0  0.8329875E-09  0.3980353E+04  0.7818609E-02  0.8008522E-01
        1   -1    0    0  501    0  0.00000000000E+00  0.00000000000E+00  0.13504317329E+04  0.13504317329E+04  0.50400001928E-02 0. -1.
       -1   -1    0    0    0  501  0.00000000000E+00  0.00000000000E+00 -0.29329897904E+04  0.29329897904E+04  0.50400001928E-02 0.  1.
    10030    2    1    2    0    0  0.00000000000E+00  0.00000000000E+00 -0.15825580575E+04  0.42834215233E+04  0.39803529920E+04 0.  0.
        3    1    3    3  502    0  0.12120834006E+03 -0.18433896974E+04 -0.15879327414E+04  0.24360433986E+04  0.10100000352E+00 0.  1.
       -3    1    3    3    0  502 -0.12120834006E+03  0.18433896974E+04  0.53746838866E+01  0.18473781247E+04  0.10100000352E+00 0. -1.
</event>
<event>
 5   0  0.8329875E-09  0.3999292E+04  0.7818609E-02  0.8004689E-01
       -1   -1    0    0    0  501  0.00000000000E+00  0.00000000000E+00  0.26970100601E+04  0.26970100601E+04  0.50400001928E-02 0.  1.
        1   -1    0    0  501    0  0.00000000000E+00  0.00000000000E+00 -0.14825991633E+04  0.14825991633E+04  0.50400001928E-02 0. -1.
    10030    2    1    2    0    0  0.00000000000E+00  0.00000000000E+00  0.12144108968E+04  0.41796092235E+04  0.39992923667E+04 0.  0.
        3    1    3    3  502    0 -0.12231466012E+04  0.57132414329E+03  0.21488723499E+04  0.25377453125E+04  0.10100000352E+00 0.  1.
       -3    1    3    3    0  502  0.12231466012E+04 -0.57132414329E+03 -0.93446145311E+03  0.16418639110E+04  0.10100000352E+00 0. -1.
</event>
<event>
 5   0  0.2612363E-08  0.3998673E+04  0.7818609E-02  0.8004814E-01
        2   -1    0    0  501    0  0.00000000000E+00  0.00000000000E+00  0.25280905697E+04  0.25280905697E+04  0.25500000920E-02 0. -1.
       -2   -1    0    0    0  501  0.00000000000E+00  0.00000000000E+00 -0.15811717966E+04  0.15811717966E+04  0.25500000920E-02 0.  1.
    10030    2    1    2    0    0  0.00000000000E+00  0.00000000000E+00  0.94691877311E+03  0.41092623662E+04  0.39986725337E+04 0.  0.
        4    1    3    3  502    0 -0.37756519449E+03  0.10181518146E+04 -0.12517050323E+04  0.16570925425E+04  0.12699999809E+01 0.  1.
       -4    1    3    3    0  502  0.37756519449E+03 -0.10181518146E+04  0.21986238054E+04  0.24521698237E+04  0.12699999809E+01 0. -1.
</event>
<event>
 5   0  0.2746876E-08  0.4009165E+04  0.7818609E-02  0.8002700E-01
       -2   -1    0    0    0  501  0.00000000000E+00  0.00000000000E+00  0.17422425184E+04  0.17422425184E+04  0.25500000920E-02 0.  1.
        2   -1    0    0  501    0  0.00000000000E+00  0.00000000000E+00 -0.23064246226E+04  0.23064246226E+04  0.25500000920E-02 0. -1.
    10030    2    1    2    0    0  0.00000000000E+00  0.00000000000E+00 -0.56418210417E+03  0.40486671409E+04  0.40091650217E+04 0.  0.
        1    1    3    3  502    0  0.14014422701E+04 -0.27710111244E+03  0.11380098237E+04  0.18264423949E+04  0.50400001928E-02 0.  1.
       -1    1    3    3    0  502 -0.14014422701E+04  0.27710111244E+03 -0.17021919278E+04  0.22222247461E+04  0.50400001928E-02 0. -1.
</event>
<event>
 5   0  0.2587493E-08  0.4007416E+04  0.7818609E-02  0.8003052E-01
        2   -1    0    0  501    0  0.00000000000E+00  0.00000000000E+00  0.19698344071E+04  0.19698344071E+04  0.25500000920E-02 0.  1.
       -2   -1    0    0    0  501  0.00000000000E+00  0.00000000000E+00 -0.20381636962E+04  0.20381636962E+04  0.25500000920E-02 0. -1.
    10030    2    1    2    0    0  0.00000000000E+00  0.00000000000E+00 -0.68329289069E+02  0.40079981033E+04  0.40074156141E+04 0.  0.
        5    1    3    3  502    0  0.32188091638E+03  0.19127613302E+04  0.46846153990E+03  0.19954301629E+04  0.46999998093E+01 0.  1.
       -5    1    3    3    0  502 -0.32188091638E+03 -0.19127613302E+04 -0.53679082897E+03  0.20125679404E+04  0.46999998093E+01 0. -1.
</event>
<event>
 5   0  0.8329875E-09  0.3997798E+04  0.7818609E-02  0.8004991E-01
       -1   -1    0    0    0  501  0.00000000000E+00  0.00000000000E+00  0.31527749946E+04  0.31527749946E+04  0.50400001928E-02 0. -1.
        1   -1    0    0  501    0  0.00000000000E+00  0.00000000000E+00 -0.12673268476E+04  0.12673268476E+04  0.50400001928E-02 0.  1.
    10030    2    1    2    0    0  0.00000000000E+00  0.00000000000E+00  0.18854481470E+04  0.44201018422E+04  0.39977975912E+04 0.  0.
        4    1    3    3  502    0 -0.19431597985E+04  0.15264004252E+03  0.45270753729E+03  0.20010284137E+04  0.12699999809E+01 0.  1.
       -4    1    3    3    0  502  0.19431597985E+04 -0.15264004252E+03  0.14327406098E+04  0.24190734286E+04  0.12699999809E+01 0. -1.
</event>
<event>
 5   0  0.8329875E-09  0.3995346E+04  0.7818609E-02  0.8005486E-01
       -1   -1    0    0    0  501  0.00000000000E+00  0.00000000000E+00  0.18074211638E+04  0.18074211639E+04  0.50400001928E-02 0.  1.
        1   -1    0    0  501    0  0.00000000000E+00  0.00000000000E+00 -0.22079509890E+04  0.22079509890E+04  0.50400001928E-02 0. -1.
    10030    2    1    2    0    0  0.00000000000E+00  0.00000000000E+00 -0.40052982511E+03  0.40153721528E+04  0.39953459656E+04 0.  0.
        5    1    3    3  502    0 -0.24186534485E+03 -0.15315664616E+04  0.10656041670E+04  0.18814167540E+04  0.46999998093E+01 0.  1.
       -5    1    3    3    0  502  0.24186534485E+03  0.15315664616E+04 -0.14661339921E+04  0.21339553988E+04  0.46999998093E+01 0. -1.
</event>
<event>
 5   0  0.2599332E-08  0.3981809E+04  0.7818609E-02  0.8008226E-01
       -2   -1    0    0    0  501  0.00000000000E+00  0.00000000000E+00  0.17051095875E+04  0.17051095875E+04  0.25500000920E-02 0.  1.
        2   -1    0    0  501    0  0.00000000000E+00  0.00000000000E+00 -0.23246015729E+04  0.23246015729E+04  0.25500000920E-02 0. -1.
    10030    2    1    2    0    0  0.00000000000E+00  0.00000000000E+00 -0.61949198535E+03  0.40297111604E+04  0.39818088498E+04 0.  0.
        2    1    3    3  502    0 -0.11379525414E+04  0.16217840986E+04 -0.50852888841E+03  0.20454146962E+04  0.25500000920E-02 0. -1.
       -2    1    3    3    0  502  0.11379525414E+04 -0.16217840986E+04 -0.11096309694E+03  0.19842964642E+04  0.25500000920E-02 0.  1.
</event>
<event>
 5   0  0.8329875E-09  0.4007786E+04  0.7818609E-02  0.8002978E-01
       -1   -1    0    0    0  501  0.00000000000E+00  0.00000000000E+00  0.25414956976E+04  0.25414956976E+04  0.50400001928E-02 0. -1.
        1   -1    0    0  501    0  0.00000000000E+00  0.00000000000E+00 -0.15800090639E+04  0.15800090640E+04  0.50400001928E-02 0.  1.
    10030    2    1    2    0    0  0.00000000000E+00  0.00000000000E+00  0.96148663369E+03  0.41215047616E+04  0.40077855423E+04 0.  0.
        4    1    3    3  502    0 -0.92287838123E+03 -0.14866156038E+04 -0.52362342193E+03  0.18264483461E+04  0.12699999809E+01 0.  1.
       -4    1    3    3    0  502  0.92287838123E+03  0.14866156038E+04  0.14851100556E+04  0.22950564155E+04  0.12699999809E+01 0. -1.
</event>
<event>
 5   0  0.2587493E-08  0.4002540E+04  0.7818609E-02  0.8004034E-01
       -2   -1    0    0    0  501  0.00000000000E+00  0.00000000000E+00  0.28942108113E+04  0.28942108113E+04  0.25500000920E-02 0. -1.
        2   -1    0    0  501    0  0.00000000000E+00  0.00000000000E+00 -0.13838254047E+04  0.13838254047E+04  0.25500000920E-02 0.  1.
    10030    2    1    2    0    0  0.00000000000E+00  0.00000000000E+00  0.15103854066E+04  0.42780362160E+04  0.40025404170E+04 0.  0.
        5    1    3    3  502    0  0.10923854071E+04  0.16848510821E+03 -0.10279823801E+04  0.15094578408E+04  0.46999998093E+01 0.  1.
       -5    1    3    3    0  502 -0.10923854071E+04 -0.16848510821E+03  0.25383677867E+04  0.27685783753E+04  0.46999998093E+01 0. -1.
</event>
<event>
 5   0  0.8329875E-09  0.4004681E+04  0.7818609E-02  0.8003603E-01
       -1   -1    0    0    0  501  0.00000000000E+00  0.00000000000E+00  0.17267265894E+04  0.17267265894E+04  0.50400001928E-02 0.  1.
        1   -1    0    0  501    0  0.00000000000E+00  0.00000000000E+00 -0.23219474762E+04  0.23219474762E+04  0.50400001928E-02 0. -1.
    10030    2    1    2    0    0  0.00000000000E+00  0.00000000000E+00 -0.59522088672E+03  0.40486740656E+04  0.40046814837E+04 0.  0.
        5    1    3    3  502    0  0.81361428549E+03 -0.11076458249E+04  0.11745795431E+04  0.18079011788E+04  0.46999998093E+01 0.  1.
       -5    1    3    3    0  502 -0.81361428549E+03  0.11076458249E+04 -0.17698004298E+04  0.22407728869E+04  0.46999998093E+01 0. -1.
</event>
<event>
 5   0  0.8329875E-09  0.3998755E+04  0.7818609E-02  0.8004798E-01
        1   -1    0    0  501    0  0.00000000000E+00  0.00000000000E+00  0.21964148281E+04  0.21964148281E+04  0.50400001928E-02 0. -1.
       -1   -1    0    0    0  501  0.00000000000E+00  0.00000000000E+00 -0.18200163184E+04  0.18200163184E+04  0.50400001928E-02 0.  1.
    10030    2    1    2    0    0  0.00000000000E+00  0.00000000000E+00  0.37639850971E+03  0.40164311464E+04  0.39987552208E+04 0.  0.
        1    1    3    3  502    0  0.18426182651E+04 -0.70463174092E+03 -0.13845033334E+03  0.19776037157E+04  0.50400001928E-02 0.  1.
       -1    1    3    3    0  502 -0.18426182651E+04  0.70463174092E+03  0.51484884305E+03  0.20388274308E+04  0.50400001928E-02 0. -1.
</event>
<event>
 5   0  0.2599332E-08  0.3992817E+04  0.7818609E-02  0.8005997E-01
        2   -1    0    0  501    0  0.00000000000E+00  0.00000000000E+00  0.33325139377E+04  0.33325139377E+04  0.25500000920E-02 0. -1.
       -2   -1    0    0    0  501  0.00000000000E+00  0.00000000000E+00 -0.11959878232E+04  0.11959878232E+04  0.25500000920E-02 0.  1.
    10030    2    1    2    0    0  0.00000000000E+00  0.00000000000E+00  0.21365261146E+04  0.45285017609E+04  0.39928165949E+04 0.  0.
        2    1    3    3  502    0 -0.89233756183E+03  0.10641173291E+04  0.26949198163E+04  0.30316999902E+04  0.25500000920E-02 0. -1.
       -2    1    3    3    0  502  0.89233756183E+03 -0.10641173291E+04 -0.55839370177E+03  0.14968017706E+04  0.25500000920E-02 0.  1.
</event>
<event>
 5   0  0.8329875E-09  0.3994828E+04  0.7818609E-02  0.8005591E-01
        1   -1    0    0  501    0  0.00000000000E+00  0.00000000000E+00  0.13466948983E+04  0.13466948983E+04  0.50400001928E-02 0.  1.
       -1   -1    0    0    0  501  0.00000000000E+00  0.00000000000E+00 -0.29625592901E+04  0.29625592901E+04  0.50400001928E-02 0. -1.
    10030    2    1    2    0    0  0.00000000000E+00  0.00000000000E+00 -0.16158643918E+04  0.43092541883E+04  0.39948283977E+04 0.  0.
        5    1    3    3  502    0  0.12948137642E+04  0.29119852373E+03  0.80230932674E+03  0.15508261057E+04  0.46999998093E+01 0.  1.
       -5    1    3    3    0  502 -0.12948137642E+04 -0.29119852373E+03 -0.24181737186E+04  0.27584280827E+04  0.46999998093E+01 0. -1.
</event>
<event>
 5   0  0.2746876E-08  0.3999279E+04  0.7818609E-02  0.8004692E-01
        2   -1    0    0  501    0  0.00000000000E+00  0.00000000000E+00  0.29930891545E+04  0.29930891545E+04  0.25500000920E-02 0. -1.
       -2   -1    0    0    0  501  0.00000000000E+00  0.00000000000E+00 -0.13359301912E+04  0.13359301912E+04  0.25500000920E-02 0.  1.
    10030    2    1    2    0    0  0.00000000000E+00  0.00000000000E+00  0.16571589633E+04  0.43290193456E+04  0.39992790182E+04 0.  0.
        1    1    3    3  502    0  0.45104569994E+02  0.68403232049E+03 -0.12047627683E+04  0.13861413945E+04  0.50400001928E-02 0.  1.
       -1    1    3    3    0  502 -0.45104569994E+02 -0.68403232049E+03  0.28619217316E+04  0.29428779511E+04  0.50400001928E-02 0. -1.
</event>
<event>
 5   0  0.8329875E-09  0.4001646E+04  0.7818609E-02  0.8004215E-01
       -1   -1    0    0    0  501  0.00000000000E+00  0.00000000000E+00  0.18397349506E+04  0.18397349506E+04  0.50400001928E-02 0.  1.
        1   -1    0    0  501    0  0.00000000000E+00  0.00000000000E+00 -0.21760163039E+04  0.21760163039E+04  0.50400001928E-02 0. -1.
    10030    2    1    2    0    0  0.00000000000E+00  0.00000000000E+00 -0.33628135330E+03  0.40157512544E+04  0.40016462848E+04 0.  0.
        1    1    3    3  502    0 -0.37958229589E+03  0.26104010115E+03  0.17857889916E+04  0.18442524167E+04  0.50400001928E-02 0.  1.
       -1    1    3    3    0  502  0.37958229589E+03 -0.26104010115E+03 -0.21220703449E+04  0.21714988378E+04  0.50400001928E-02 0. -1.
</event>
<event>
 5   0  0.8329875E-09  0.3977703E+04  0.7818609E-02  0.8009060E-01
        1   -1    0    0  501    0  0.00000000000E+00  0.00000000000E+00  0.21491236459E+04  0.21491236459E+04  0.50400001928E-02 0. -1.
       -1   -1    0    0    0  501  0.00000000000E+00  0.00000000000E+00 -0.18405314340E+04  0.18405314340E+04  0.50400001928E-02 0.  1.
    10030    2    1    2    0    0  0.00000000000E+00  0.00000000000E+00  0.30859221189E+03  0.39896550798E+04  0.39777026665E+04 0.  0.
        2    1    3    3  502    0  0.11966700019E+04  0.67144848021E+03 -0.12897060785E+04  0.18831367247E+04  0.25500000920E-02 0.  1.
       -2    1    3    3    0  502 -0.11966700019E+04 -0.67144848021E+03  0.15982982904E+04  0.21065183551E+04  0.25500000920E-02 0. -1.
</event>
<event>
 5   0  0.2612363E-08  0.4008980E+04  0.7818609E-02  0.8002737E-01
       -2   -1    0    0    0  501  0.00000000000E+00  0.00000000000E+00  0.21764757854E+04  0.21764757854E+04  0.25500000920E-02 0.  1.
        2   -1    0    0  501    0  0.00000000000E+00  0.00000000000E+00 -0.18460944734E+04  0.18460944734E+04  0.25500000920E-02 0. -1.
    10030    2    1    2    0    0  0.00000000000E+00  0.00000000000E+00  0.33038131206E+03  0.40225702588E+04  0.40089798797E+04 0.  0.
        4    1    3    3  502    0  0.30583169072E+03 -0.10141435788E+04  0.18727110425E+04  0.21515270119E+04  0.12699999809E+01 0.  1.
       -4    1    3    3    0  502 -0.30583169072E+03  0.10141435788E+04 -0.15423297304E+04  0.18710432469E+04  0.12699999809E+01 0. -1.
</event>
<event>
 5   0  0.2599332E-08  0.4002512E+04  0.7818609E-02  0.8004040E-01
       -2   -1    0    0    0  501  0.00000000000E+00  0.00000000000E+00  0.20170398110E+04  0.20170398110E+04  0.25500000920E-02 0.  1.
        2   -1    0    0  501    0  0.00000000000E+00  0.00000000000E+00 -0.19855960784E+04  0.19855960784E+04  0.25500000920E-02 0. -1.
    10030    2    1    2    0    0  0.00000000000E+00  0.00000000000E+00  0.31443732557E+02  0.40026358894E+04  0.40025123803E+04 0.  0.
        2    1    3    3  502    0  0.82743840261E+03 -0.17913170712E+04 -0.31828721111E+03  0.19986940507E+04  0.25500000920E-02 0. -1.
       -2    1    3    3    0  502 -0.82743840261E+03  0.17913170712E+04  0.34973094367E+03  0.20039418386E+04  0.25500000920E-02 0.  1.
</event>
<event>
 5   0  0.2612363E-08  0.3989934E+04  0.7818609E-02  0.8006580E-01
        2   -1    0    0  501    0  0.00000000000E+00  0.00000000000E+00  0.15455736676E+04  0.15455736676E+04  0.25500000920E-02 0.  1.
       -2   -1    0    0    0  501  0.00000000000E+00  0.00000000000E+00 -0.25750259843E+04  0.25750259843E+04  0.25500000920E-02 0. -1.
    10030    2    1    2    0    0  0.00000000000E+00  0.00000000000E+00 -0.10294523167E+04  0.41205996520E+04  0.39899335107E+04 0.  0.
        4    1    3    3  502    0 -0.13192738499E+04 -0.40216639507E+03  0.97389089227E+03  0.16883975785E+04  0.12699999809E+01 0.  1.
       -4    1    3    3    0  502  0.13192738499E+04  0.40216639507E+03 -0.20033432090E+04  0.24322020734E+04  0.12699999809E+01 0. -1.
</event>
<event>
 5   0  0.8329875E-09  0.4002003E+04  0.7818609E-02  0.8004143E-01
       -1   -1    0    0    0  501  0.00000000000E+00  0.00000000000E+00  0.16659022274E+04  0.16659022274E+04  0.50400001928E-02 0. -1.
        1   -1    0    0  501    0  0.00000000000E+00  0.00000000000E+00 -0.24035071364E+04  0.24035071364E+04  0.50400001928E-02 0.  1.
    10030    2    1    2    0    0  0.00000000000E+00  0.00000000000E+00 -0.73760490895E+03  0.40694093638E+04  0.40020034444E+04 0.  0.
        2    1    3    3  502    0  0.97250063760E+03  0.13480277003E+04  0.76399525452E+03  0.18293782878E+04  0.25500000920E-02 0. -1.
       -2    1    3    3    0  502 -0.97250063760E+03 -0.13480277003E+04 -0.15016001635E+04  0.22400310761E+04  0.25500000920E-02 0.  1.
</event>
<event>
 5   0  0.2746876E-08  0.3997463E+04  0.7818609E-02  0.8005059E-01
       -2   -1    0    0    0  501  0.00000000000E+00  0.00000000000E+00  0.17162550418E+04  0.17162550418E+04  0.25500000920E-02 0.  1.
        2   -1    0    0  501    0  0.00000000000E+00  0.00000000000E+00 -0.23277004746E+04  0.23277004746E+04  0.25500000920E-02 0. -1.
    10030    2    1    2    0    0  0.00000000000E+00  0.00000000000E+00 -0.61144543275E+03  0.40439555164E+04  0.39974630331E+04 0.  0.
        1    1    3    3  502    0  0.19360072618E+04  0.26569744569E+03 -0.73037674459E+03  0.20861853799E+04  0.50400001928E-02 0. -1.
       -1    1    3    3    0  502 -0.19360072618E+04 -0.26569744569E+03  0.11893131184E+03  0.19577701365E+04  0.50400001928E-02 0.  1.
</event>
<event>
 5   0  0.8329875E-09  0.3997380E+04  0.7818609E-02  0.8005075E-01
       -1   -1    0    0    0  501  0.00000000000E+00  0.00000000000E+00  0.13631637363E+04  0.13631637364E+04  0.50400001928E-02 0.  1.
        1   -1    0    0  501    0  0.00000000000E+00  0.00000000000E+00 -0.29305082523E+04  0.29305082523E+04  0.50400001928E-02 0. -1.
    10030    2    1    2    0    0  0.00000000000E+00  0.00000000000E+00 -0.15673445159E+04  0.42936719886E+04  0.39973804315E+04 0.  0.
        4    1    3    3  502    0  0.10249840424E+04  0.76738500060E+03 -0.24321211159E+04  0.27485790441E+04  0.12699999809E+01 0. -1.
       -4    1    3    3    0  502 -0.10249840424E+04 -0.76738500060E+03  0.86477659999E+03  0.15450929445E+04  0.12699999809E+01 0.  1.
</event>
<event>
 5   0  0.8329875E-09  0.4000396E+04  0.7818609E-02  0.8004467E-01
       -1   -1    0    0    0  501  0.00000000000E+00  0.00000000000E+00  0.20774016680E+04  0.20774016680E+04  0.50400001928E-02 0. -1.
        1   -1    0    0  501    0  0.00000000000E+00  0.00000000000E+00 -0.19258635824E+04  0.19258635824E+04  0.50400001928E-02 0.  1.
    10030    2    1    2    0    0  0.00000000000E+00  0.00000000000E+00  0.15153808564E+03  0.40032652504E+04  0.40003960896E+04 0.  0.
        2    1    3    3  502    0  0.14661535948E+04  0.50500992887E+03  0.13400637980E+04  0.20494907597E+04  0.25500000920E-02 0. -1.
       -2    1    3    3    0  502 -0.14661535948E+04 -0.50500992887E+03 -0.11885257123E+04  0.19537744907E+04  0.25500000920E-02 0.  1.
</event>
<event>
 5   0  0.8329875E-09  0.4001607E+04  0.7818609E-02  0.8004222E-01
       -1   -1    0    0    0  501  0.00000000000E+00  0.00000000000E+00  0.16687380979E+04  0.16687380979E+04  0.50400001928E-02 0.  1.
        1   -1    0    0  501    0  0.00000000000E+00  0.00000000000E+00 -0.23989471519E+04  0.23989471519E+04  0.50400001928E-02 0. -1.
    10030    2    1    2    0    0  0.00000000000E+00  0.00000000000E+00 -0.73020905397E+03  0.40676852498E+04  0.40016069309E+04 0.  0.
        1    1    3    3  502    0  0.73243803053E+03 -0.12010479775E+04 -0.18113537623E+04  0.22934655360E+04  0.50400001928E-02 0. -1.
       -1    1    3    3    0  502 -0.73243803053E+03  0.12010479775E+04  0.10811447083E+04  0.17742197138E+04  0.50400001928E-02 0.  1.
</event>
<event>
 5   0  0.2612363E-08  0.4012118E+04  0.7818609E-02  0.8002107E-01
        2   -1    0    0  501    0  0.00000000000E+00  0.00000000000E+00  0.17664000612E+04  0.17664000612E+04  0.25500000920E-02 0.  1.
       -2   -1    0    0    0  501  0.00000000000E+00  0.00000000000E+00 -0.22782335133E+04  0.22782335133E+04  0.25500000920E-02 0. -1.
    10030    2    1    2    0    0  0.00000000000E+00  0.00000000000E+00 -0.51183345215E+03  0.40446335745E+04  0.40121175543E+04 0.  0.
        4    1    3    3  502    0  0.11475150458E+04  0.14441606431E+04 -0.10509011875E+04  0.21229191370E+04  0.12699999809E+01 0. -1.
       -4    1    3    3    0  502 -0.11475150458E+04 -0.14441606431E+04  0.53906773532E+03  0.19217144376E+04  0.12699999809E+01 0.  1.
</event>
<event>
 5   0  0.8329875E-09  0.3991552E+04  0.7818609E-02  0.8006253E-01
       -1   -1    0    0    0  501  0.00000000000E+00  0.00000000000E+00  0.17319778643E+04  0.17319778643E+04  0.50400001928E-02 0. -1.
        1   -1    0    0  501    0  0.00000000000E+00  0.00000000000E+00 -0.22997535858E+04  0.22997535858E+04  0.50400001928E-02 0.  1.
    10030    2    1    2    0    0  0.00000000000E+00  0.00000000000E+00 -0.56777572154E+03  0.40317314501E+04  0.39915522314E+04 0.  0.
        3    1    3    3  502    0 -0.12662106609E+04 -0.40537616604E+03  0.12195516279E+04  0.18041411965E+04  0.10100000352E+00 0. -1.
       -3    1    3    3    0  502  0.12662106609E+04  0.40537616604E+03 -0.17873273494E+04  0.22275902536E+04  0.10100000352E+00 0.  1.
</event>
<event>
 5   0  0.8329875E-09  0.4004370E+04  0.7818609E-02  0.8003666E-01
       -1   -1    0    0    0  501  0.00000000000E+00  0.00000000000E+00  0.15190988102E+04  0.15190988102E+04  0.50400001928E-02 0.  1.
        1   -1    0    0  501    0  0.00000000000E+00  0.00000000000E+00 -0.26388964237E+04  0.26388964237E+04  0.50400001928E-02 0. -1.
    10030    2    1    2    0    0  0.00000000000E+00  0.00000000000E+00 -0.11197976135E+04  0.41579952339E+04  0.40043698218E+04 0.  0.
        5    1    3    3  502    0  0.19115027369E+03  0.90896707163E+03  0.12818338817E+04  0.15829970798E+04  0.46999998093E+01 0.  1.
       -5    1    3    3    0  502 -0.19115027369E+03 -0.90896707163E+03 -0.24016314952E+04  0.25749981540E+04  0.46999998093E+01 0. -1.
</event>
<event>
 5   0  0.8329875E-09  0.3999630E+04  0.7818609E-02  0.8004621E-01
        1   -1    0    0  501    0  0.00000000000E+00  0.00000000000E+00  0.29711461147E+04  0.29711461147E+04  0.50400001928E-02 0.  1.
       -1   -1    0    0    0  501  0.00000000000E+00  0.00000000000E+00 -0.13460329813E+04  0.13460329813E+04  0.50400001928E-02 0. -1.
    10030    2    1    2    0    0  0.00000000000E+00  0.00000000000E+00  0.16251131334E+04  0.43171790960E+04  0.39996303142E+04 0.  0.
        3    1    3    3  502    0 -0.11182580685E+03  0.17386473609E+04  0.18722675052E+04  0.25574958999E+04  0.10100000352E+00 0.  1.
       -3    1    3    3    0  502  0.11182580685E+03 -0.17386473609E+04 -0.24715437182E+03  0.17596831961E+04  0.10100000352E+00 0. -1.
</event>
<event>
 5   0  0.2599332E-08  0.3994047E+04  0.7818609E-02  0.8005749E-01
        2   -1    0    0  501    0  0.00000000000E+00  0.00000000000E+00  0.15649718032E+04  0.15649718032E+04  0.25500000920E-02 0. -1.
       -2   -1    0    0    0  501  0.00000000000E+00  0.00000000000E+00 -0.25483543522E+04  0.25483543522E+04  0.25500000920E-02 0.  1.
    10030    2    1    2    0    0  0.00000000000E+00  0.00000000000E+00 -0.98338254895E+03  0.41133261554E+04  0.39940469230E+04 0.  0.
        2    1    3    3  502    0  0.25615848093E+02  0.18682341409E+04 -0.12178352093E+04  0.22302640144E+04  0.25500000920E-02 0.  1.
       -2    1    3    3    0  502 -0.25615848093E+02 -0.18682341409E+04  0.23445266038E+03  0.18830621410E+04  0.25500000920E-02 0. -1.
</event>
<event>
 5   0  0.2599332E-08  0.3988931E+04  0.7818609E-02  0.8006783E-01
        2   -1    0    0  501    0  0.00000000000E+00  0.00000000000E+00  0.24380065217E+04  0.24380065217E+04  0.25500000920E-02 0.  1.
       -2   -1    0    0    0  501  0.00000000000E+00  0.00000000000E+00 -0.16316171926E+04  0.16316171926E+04  0.25500000920E-02 0. -1.
    10030    2    1    2    0    0  0.00000000000E+00  0.00000000000E+00  0.80638932903E+03  0.40696237143E+04  0.39889313639E+04 0.  0.
        2    1    3    3  502    0  0.17511979582E+04 -0.30476983693E+03  0.13261013505E+04  0.22176843180E+04  0.25500000920E-02 0.  1.
       -2    1    3    3    0  502 -0.17511979582E+04  0.30476983693E+03 -0.51971202148E+03  0.18519393963E+04  0.25500000920E-02 0. -1.
</event>
<event>
 5   0  0.2612363E-08  0.3999617E+04  0.7818609E-02  0.8004624E-01
        2   -1    0    0  501    0  0.00000000000E+00  0.00000000000E+00  0.20816706610E+04  0.20816706610E+04  0.25500000920E-02 0.  1.
       -2   -1    0    0    0  501  0.00000000000E+00  0.00000000000E+00 -0.19211659642E+04  0.19211659642E+04  0.25500000920E-02 0. -1.
    10030    2    1    2    0    0  0.00000000000E+00  0.00000000000E+00  0.16050469689E+03  0.40028366252E+04  0.39996173930E+04 0.  0.
        4    1    3    3  502    0  0.42591022611E+03  0.94567014243E+03 -0.16309606116E+04  0.19328025425E+04  0.12699999809E+01 0. -1.
       -4    1    3    3    0  502 -0.42591022611E+03 -0.94567014243E+03  0.17914653085E+04  0.20700340827E+04  0.12699999809E+01 0.  1.
</event>
<event>
 5   0  0.8329875E-09  0.3998278E+04  0.7818609E-02  0.8004894E-01
       -1   -1    0    0    0  501  0.00000000000E+00  0.00000000000E+00  0.29165406371E+04  0.29165406371E+04  0.50400001928E-02 0. -1.
        1   -1    0    0  501    0  0.00000000000E+00  0.00000000000E+00 -0.13703074301E+04  0.13703074301E+04  0.50400001928E-02 0.  1.
    10030    2    1    2    0    0  0.00000000000E+00  0.00000000000E+00  0.15462332070E+04  0.42868480672E+04  0.39982782821E+04 0.  0.
        3    1    3    3  502    0 -0.40338391613E+03 -0.10141874702E+03  0.28696347611E+04  0.28996220475E+04  0.10100000352E+00 0. -1.
       -3    1    3    3    0  502  0.40338391613E+03  0.10141874702E+03 -0.13234015541E+04  0.13872260197E+04  0.10100000352E+00 0.  1.
</event>
<event>
 5   0  0.8329875E-09  0.4011853E+04  0.7818609E-02  0.8002160E-01
        1   -1    0    0  501    0  0.00000000000E+00  0.00000000000E+00  0.18896086632E+04  0.18896086632E+04  0.50400001928E-02 0.  1.
       -1   -1    0    0    0  501  0.00000000000E+00  0.00000000000E+00 -0.21294042102E+04  0.21294042103E+04  0.50400001928E-02 0. -1.
    10030    2    1    2    0    0  0.00000000000E+00  0.00000000000E+00 -0.23979554702E+03  0.40190128735E+04  0.40118527606E+04 0.  0.
        4    1    3    3  502    0  0.19034376623E+04  0.50835029648E+02  0.51216401279E+03  0.19717942904E+04  0.12699999809E+01 0. -1.
       -4    1    3    3    0  502 -0.19034376623E+04 -0.50835029648E+02 -0.75195955981E+03  0.20472185831E+04  0.12699999809E+01 0.  1.
</event>
<event>
 5   0  0.2587493E-08  0.3998244E+04  0.7818609E-02  0.8004901E-01
       -2   -1    0    0    0  501  0.00000000000E+00  0.00000000000E+00  0.18310619190E+04  0.18310619190E+04  0.25500000920E-02 0.  1.
        2   -1    0    0  501    0  0.00000000000E+00  0.00000000000E+00 -0.21826073893E+04  0.21826073893E+04  0.25500000920E-02 0. -1.
    10030    2    1    2    0    0  0.00000000000E+00  0.00000000000E+00 -0.35154547029E+03  0.40136693083E+04  0.39982442520E+04 0.  0.
        5    1    3    3  502    0  0.19799118633E+03  0.11934027281E+04  0.14219253447E+04  0.18668969862E+04  0.46999998093E+01 0.  1.
       -5    1    3    3    0  502 -0.19799118633E+03 -0.11934027281E+04 -0.17734708149E+04  0.21467723221E+04  0.46999998093E+01 0. -1.
</event>
<event>
 5   0  0.8329875E-09  0.3996556E+04  0.7818609E-02  0.8005242E-01
       -1   -1    0    0    0  501  0.00000000000E+00  0.00000000000E+00  0.13101517690E+04  0.13101517690E+04  0.50400001928E-02 0.  1.
        1   -1    0    0  501    0  0.00000000000E+00  0.00000000000E+00 -0.30478257537E+04  0.30478257537E+04  0.50400001928E-02 0. -1.
    10030    2    1    2    0    0  0.00000000000E+00  0.00000000000E+00 -0.17376739847E+04  0.43579775227E+04  0.39965556685E+04 0.  0.
        5    1    3    3  502    0 -0.18311804778E+04  0.66136742397E+02 -0.17381088083E+04  0.25255970246E+04  0.46999998093E+01 0. -1.
       -5    1    3    3    0  502  0.18311804778E+04 -0.66136742397E+02  0.43482362474E+00  0.18323804981E+04  0.46999998093E+01 0.  1.
</event>
<event>
 5   0  0.8329875E-09  0.4001650E+04  0.7818609E-02  0.8004214E-01
        1   -1    0    0  501    0  0.00000000000E+00  0.00000000000E+00  0.27826340005E+04  0.27826340005E+04  0.50400001928E-02 0.  1.
       -1   -1    0    0    0  501  0.00000000000E+00  0.00000000000E+00 -0.14386733294E+04  0.14386733294E+04  0.50400001928E-02 0. -1.
    10030    2    1    2    0    0  0.00000000000E+00  0.00000000000E+00  0.13439606712E+04  0.42213073299E+04  0.40016503205E+04 0.  0.
        2    1    3    3  502    0  0.26421108472E+03 -0.19544260705E+04  0.31625724709E+03  0.19974001623E+04  0.25500000920E-02 0. -1.
       -2    1    3    3    0  502 -0.26421108472E+03  0.19544260705E+04  0.10277034241E+04  0.22239071676E+04  0.25500000920E-02 0.  1.
</event>
<event>
 5   0  0.2650452E-08  0.4042943E+04  0.7818609E-02  0.7995939E-01
        2   -1    0    0  501    0  0.00000000000E+00  0.00000000000E+00  0.18881179040E+04  0.18881179040E+04  0.25500000920E-02 0.  1.
       -2   -1    0    0    0  501  0.00000000000E+00  0.00000000000E+00 -0.21642434091E+04  0.21642434091E+04  0.25500000920E-02 0. -1.
    10030    2    1    2    0    0  0.00000000000E+00  0.00000000000E+00 -0.27612550513E+03  0.40523613131E+04  0.40429428536E+04 0.  0.
        3    1    3    3  502    0 -0.11414756034E+04  0.16652922049E+04 -0.36921594684E+02  0.20192889578E+04  0.10100000352E+00 0.  1.
       -3    1    3    3    0  502  0.11414756034E+04 -0.16652922049E+04 -0.23920391044E+03  0.20330723553E+04  0.10100000352E+00 0. -1.
</event>
<event>
 5   0  0.8329875E-09  0.3963248E+04  0.7818609E-02  0.8012002E-01
        1   -1    0    0  501    0  0.00000000000E+00  0.00000000000E+00  0.21708855167E+04  0.21708855167E+04  0.50400001928E-02 0. -1.
       -1   -1    0    0    0  501  0.00000000000E+00  0.00000000000E+00 -0.18088628999E+04  0.18088628999E+04  0.50400001928E-02 0.  1.
    10030    2    1    2    0    0  0.00000000000E+00  0.00000000000E+00  0.36202261678E+03  0.39797484166E+04  0.39632482996E+04 0.  0.
        3    1    3    3  502    0  0.35090575070E+03  0.18464477681E+04  0.81158271851E+03  0.20472348975E+04  0.10100000352E+00 0. -1.
       -3    1    3    3    0  502 -0.35090575070E+03 -0.18464477681E+04 -0.44956010173E+03  0.19325135191E+04  0.10100000352E+00 0.  1.
</event>
<event>
 5   0  0.8329875E-09  0.3978211E+04  0.7818609E-02  0.8008957E-01
        1   -1    0    0  501    0  0.00000000000E+00  0.00000000000E+00  0.26163887142E+04  0.26163887142E+04  0.50400001928E-02 0. -1.
       -1   -1    0    0    0  501  0.00000000000E+00  0.00000000000E+00 -0.15122144158E+04  0.15122144158E+04  0.50400001928E-02 0.  1.
    10030    2    1    2    0    0  0.00000000000E+00  0.00000000000E+00  0.11041742984E+04  0.41286031300E+04  0.39782110205E+04 0.  0.
        3    1    3    3  502    0 -0.81925857917E+03 -0.60604613012E+03 -0.12207250918E+04  0.15901717804E+04  0.10100000352E+00 0.  1.
       -3    1    3    3    0  502  0.81925857917E+03  0.60604613012E+03  0.23248993902E+04  0.25384313495E+04  0.10100000352E+00 0. -1.
</event>
<event>
 5   0  0.8329875E-09  0.3999048E+04  0.7818609E-02  0.8004739E-01
       -1   -1    0    0    0  501  0.00000000000E+00  0.00000000000E+00  0.14769057805E+04  0.14769057805E+04  0.50400001928E-02 0. -1.
        1   -1    0    0  501    0  0.00000000000E+00  0.00000000000E+00 -0.27070756298E+04  0.27070756298E+04  0.50400001928E-02 0.  1.
    10030    2    1    2    0    0  0.00000000000E+00  0.00000000000E+00 -0.12301698493E+04  0.41839814104E+04  0.39990477096E+04 0.  0.
        3    1    3    3  502    0  0.16131795554E+04 -0.10405281258E+04 -0.12004664718E+04  0.22641039770E+04  0.10100000352E+00 0.  1.
       -3    1    3    3    0  502 -0.16131795554E+04  0.10405281258E+04 -0.29703377504E+02  0.19198774334E+04  0.10100000352E+00 0. -1.
</event>
<event>
 5   0  0.2587493E-08  0.3989894E+04  0.7818609E-02  0.8006588E-01
        2   -1    0    0  501    0  0.00000000000E+00  0.00000000000E+00  0.17487872750E+04  0.17487872750E+04  0.25500000920E-02 0.  1.
       -2   -1    0    0    0  501  0.00000000000E+00  0.00000000000E+00 -0.22757560950E+04  0.22757560950E+04  0.25500000920E-02 0. -1.
    10030    2    1    2    0    0  0.00000000000E+00  0.00000000000E+00 -0.52696881994E+03  0.40245433700E+04  0.39898938833E+04 0.  0.
        5    1    3    3  502    0  0.92580214925E+02 -0.13713264831E+04  0.11949921132E+04  0.18213005408E+04  0.46999998093E+01 0.  1.
       -5    1    3    3    0  502 -0.92580214925E+02  0.13713264831E+04 -0.17219609331E+04  0.22032428292E+04  0.46999998093E+01 0. -1.
</event>
<event>
 5   0  0.8329875E-09  0.4021400E+04  0.7818609E-02  0.8000243E-01
        1   -1    0    0  501    0  0.00000000000E+00  0.00000000000E+00  0.25454271827E+04  0.25454271827E+04  0.50400001928E-02 0. -1.
       -1   -1    0    0    0  501  0.00000000000E+00  0.00000000000E+00 -0.15883045660E+04  0.15883045660E+04  0.50400001928E-02 0.  1.
    10030    2    1    2    0    0  0.00000000000E+00  0.00000000000E+00  0.95712261671E+03  0.41337317488E+04  0.40213995657E+04 0.  0.
        4    1    3    3  502    0 -0.10694286919E+04 -0.14594638478E+04 -0.42297780964E+03  0.18581238630E+04  0.12699999809E+01 0.  1.
       -4    1    3    3    0  502  0.10694286919E+04  0.14594638478E+04  0.13801004264E+04  0.22756078857E+04  0.12699999809E+01 0. -1.
</event>
<event>
 5   0  0.8329875E-09  0.3995677E+04  0.7818609E-02  0.8005419E-01
       -1   -1    0    0    0  501  0.00000000000E+00  0.00000000000E+00  0.25587348533E+04  0.25587348533E+04  0.50400001928E-02 0.  1.
        1   -1    0    0  501    0  0.00000000000E+00  0.00000000000E+00 -0.15598955069E+04  0.15598955069E+04  0.50400001928E-02 0. -1.
    10030    2    1    2    0    0  0.00000000000E+00  0.00000000000E+00  0.99883934645E+03  0.41186303602E+04  0.39956771647E+04 0.  0.
        4    1    3    3  502    0  0.14713574917E+04 -0.13511143246E+04  0.46757230856E+03  0.20515916414E+04  0.12699999809E+01 0.  1.
       -4    1    3    3    0  502 -0.14713574917E+04  0.13511143246E+04  0.53126703789E+03  0.20670387188E+04  0.12699999809E+01 0. -1.
</event>
<event>
 5   0  0.2650452E-08  0.4042747E+04  0.7818609E-02  0.7995978E-01
        2   -1    0    0  501    0  0.00000000000E+00  0.00000000000E+00  0.32269183180E+04  0.32269183180E+04  0.25500000920E-02 0.  1.
       -2   -1    0    0    0  501  0.00000000000E+00  0.00000000000E+00 -0.12662085087E+04  0.12662085087E+04  0.25500000920E-02 0. -1.
    10030    2    1    2    0    0  0.00000000000E+00  0.00000000000E+00  0.19607098093E+04  0.44931268266E+04  0.40427472990E+04 0.  0.
        3    1    3    3  502    0 -0.63028855088E+03 -0.17934167409E+04  0.17441930722E+04  0.25798869641E+04  0.10100000352E+00 0.  1.
       -3    1    3    3    0  502  0.63028855088E+03  0.17934167409E+04  0.21651673712E+03  0.19132398626E+04  0.10100000352E+00 0. -1.
</event>
<event>
 5   0  0.2612363E-08  0.3991623E+04  0.7818609E-02  0.8006239E-01
       -2   -1    0    0    0  501  0.00000000000E+00  0.00000000000E+00  0.22069100171E+04  0.22069100171E+04  0.25500000920E-02 0. -1.
        2   -1    0    0  501    0  0.00000000000E+00  0.00000000000E+00 -0.18049053371E+04  0.18049053371E+04  0.25500000920E-02 0.  1.
    10030    2    1    2    0    0  0.00000000000E+00  0.00000000000E+00  0.40200467994E+03  0.40118153542E+04  0.39916230626E+04 0.  0.
        4    1    3    3  502    0  0.91367871267E+03  0.14094585101E+04  0.12843604683E+04  0.21144657734E+04  0.12699999809E+01 0. -1.
       -4    1    3    3    0  502 -0.91367871267E+03 -0.14094585101E+04 -0.88235578834E+03  0.18973495808E+04  0.12699999809E+01 0.  1.
</event>
<event>
 5   0  0.2612363E-08  0.3982002E+04  0.7818609E-02  0.8008187E-01
       -2   -1    0    0    0  501  0.00000000000E+00  0.00000000000E+00  0.17948450386E+04  0.17948450387E+04  0.25500000920E-02 0. -1.
        2   -1    0    0  501    0  0.00000000000E+00  0.00000000000E+00 -0.22085945970E+04  0.22085945970E+04  0.25500000920E-02 0.  1.
    10030    2    1    2    0    0  0.00000000000E+00  0.00000000000E+00 -0.41374955832E+03  0.40034396356E+04  0.39820020365E+04 0.  0.
        4    1    3    3  502    0 -0.15866337636E+04 -0.11668852543E+04 -0.50008771304E+03  0.20320229404E+04  0.12699999809E+01 0.  1.
       -4    1    3    3    0  502  0.15866337636E+04  0.11668852543E+04  0.86338154728E+02  0.19714166953E+04  0.12699999809E+01 0. -1.
</event>
<event>
 5   0  0.8329875E-09  0.3937794E+04  0.7818609E-02  0.8017214E-01
       -1   -1    0    0    0  501  0.00000000000E+00  0.00000000000E+00  0.15400059105E+04  0.15400059106E+04  0.50400001928E-02 0. -1.
        1   -1    0    0  501    0  0.00000000000E+00  0.00000000000E+00 -0.25172340951E+04  0.25172340951E+04  0.50400001928E-02 0.  1.
    10030    2    1    2    0    0  0.00000000000E+00  0.00000000000E+00 -0.97722818451E+03  0.40572400056E+04  0.39377939939E+04 0.  0.
        5    1    3    3  502    0  0.78882818971E+03 -0.15970718313E+04 -0.13528941527E+04  0.22367907872E+04  0.46999998093E+01 0.  1.
       -5    1    3    3    0  502 -0.78882818971E+03  0.15970718313E+04  0.37566596816E+03  0.18204492184E+04  0.46999998093E+01 0. -1.
</event>
<event>
 5   0  0.8329875E-09  0.4000389E+04  0.7818609E-02  0.8004468E-01
        1   -1    0    0  501    0  0.00000000000E+00  0.00000000000E+00  0.16979616970E+04  0.16979616970E+04  0.50400001928E-02 0.  1.
       -1   -1    0    0    0  501  0.00000000000E+00  0.00000000000E+00 -0.23562238246E+04  0.23562238246E+04  0.50400001928E-02 0. -1.
    10030    2    1    2    0    0  0.00000000000E+00  0.00000000000E+00 -0.65826212760E+03  0.40541855216E+04  0.40003888829E+04 0.  0.
        3    1    3    3  502    0  0.63901026395E+03  0.65437811962E+03 -0.21318815906E+04  0.23197982601E+04  0.10100000352E+00 0. -1.
       -3    1    3    3    0  502 -0.63901026395E+03 -0.65437811962E+03  0.14736194630E+04  0.17343872615E+04  0.10100000352E+00 0.  1.
</event>
<event>
 5   0  0.2612363E-08  0.4001417E+04  0.7818609E-02  0.8004261E-01
       -2   -1    0    0    0  501  0.00000000000E+00  0.00000000000E+00  0.15935795358E+04  0.15935795358E+04  0.25500000920E-02 0. -1.
        2   -1    0    0  501    0  0.00000000000E+00  0.00000000000E+00 -0.25118510683E+04  0.25118510683E+04  0.25500000920E-02 0.  1.
    10030    2    1    2    0    0  0.00000000000E+00  0.00000000000E+00 -0.91827153247E+03  0.41054306042E+04  0.40014169788E+04 0.  0.
        4    1    3    3  502    0 -0.12884750652E+04 -0.10358102744E+04  0.69699259618E+03  0.17941212920E+04  0.12699999809E+01 0. -1.
       -4    1    3    3    0  502  0.12884750652E+04  0.10358102744E+04 -0.16152641287E+04  0.23113093122E+04  0.12699999809E+01 0.  1.
</event>
<event>
 5   0  0.2587493E-08  0.3999376E+04  0.7818609E-02  0.8004672E-01
       -2   -1    0    0    0  501  0.00000000000E+00  0.00000000000E+00  0.26584203883E+04  0.26584203883E+04  0.25500000920E-02 0. -1.
        2   -1    0    0  501    0  0.00000000000E+00  0.00000000000E+00 -0.15041835757E+04  0.15041835757E+04  0.25500000920E-02 0.  1.
    10030    2    1    2    0    0  0.00000000000E+00  0.00000000000E+00  0.11542368127E+04  0.41626039640E+04  0.39993760940E+04 0.  0.
        5    1    3    3  502    0  0.96371396191E+03 -0.15175364439E+04  0.14886883316E+04  0.23340686574E+04  0.46999998093E+01 0.  1.
       -5    1    3    3    0  502 -0.96371396191E+03  0.15175364439E+04 -0.33445151890E+03  0.18285353066E+04  0.46999998093E+01 0. -1.
</event>
<event>
 5   0  0.8329875E-09  0.3999294E+04  0.7818609E-02  0.8004689E-01
        1   -1    0    0  501    0  0.00000000000E+00  0.00000000000E+00  0.24738189720E+04  0.24738189720E+04  0.50400001928E-02 0. -1.
       -1   -1    0    0    0  501  0.00000000000E+00  0.00000000000E+00 -0.16163622829E+04  0.16163622829E+04  0.50400001928E-02 0.  1.
    10030    2    1    2    0    0  0.00000000000E+00  0.00000000000E+00  0.85745668909E+03  0.40901812550E+04  0.39992937782E+04 0.  0.
        5    1    3    3  502    0 -0.13416614258E+04  0.14470853676E+03 -0.10804663642E+04  0.17287063360E+04  0.46999998093E+01 0.  1.
       -5    1    3    3    0  502  0.13416614258E+04 -0.14470853676E+03  0.19379230533E+04  0.23614749189E+04  0.46999998093E+01 0. -1.
</event>
<event>
 5   0  0.8329875E-09  0.4006557E+04  0.7818609E-02  0.8003225E-01
       -1   -1    0    0    0  501  0.00000000000E+00  0.00000000000E+00  0.30899467442E+04  0.30899467442E+04  0.50400001928E-02 0. -1.
        1   -1    0    0  501    0  0.00000000000E+00  0.00000000000E+00 -0.12987684297E+04  0.12987684297E+04  0.50400001928E-02 0.  1.
    10030    2    1    2    0    0  0.00000000000E+00  0.00000000000E+00  0.17911783146E+04  0.43887151739E+04  0.40065572657E+04 0.  0.
        3    1    3    3  502    0  0.11093944543E+04 -0.49793588534E+03 -0.84824874300E+03  0.14826402603E+04  0.10100000352E+00 0.  1.
       -3    1    3    3    0  502 -0.11093944543E+04  0.49793588534E+03  0.26394270576E+04  0.29060749136E+04  0.10100000352E+00 0. -1.
</event>
<event>
 5   0  0.2599332E-08  0.3998179E+04  0.7818609E-02  0.8004914E-01
        2   -1    0    0  501    0  0.00000000000E+00  0.00000000000E+00  0.28236723491E+04  0.28236723491E+04  0.25500000920E-02 0. -1.
       -2   -1    0    0    0  501  0.00000000000E+00  0.00000000000E+00 -0.14153057896E+04  0.14153057896E+04  0.25500000920E-02 0.  1.
    10030    2    1    2    0    0  0.00000000000E+00  0.00000000000E+00  0.14083665595E+04  0.42389781387E+04  0.39981794976E+04 0.  0.
        2    1    3    3  502    0  0.12563476908E+03 -0.27597131434E+03 -0.13907823708E+04  0.14234534992E+04  0.25500000920E-02 0.  1.
       -2    1    3    3    0  502 -0.12563476908E+03  0.27597131434E+03  0.27991489303E+04  0.28155246395E+04  0.25500000920E-02 0. -1.
</event>
<event>
 5   0  0.2587493E-08  0.3971931E+04  0.7818609E-02  0.8010233E-01
       -2   -1    0    0    0  501  0.00000000000E+00  0.00000000000E+00  0.17493604948E+04  0.17493604948E+04  0.25500000920E-02 0. -1.
        2   -1    0    0  501    0  0.00000000000E+00  0.00000000000E+00 -0.22545721744E+04  0.22545721744E+04  0.25500000920E-02 0.  1.
    10030    2    1    2    0    0  0.00000000000E+00  0.00000000000E+00 -0.50521167958E+03  0.40039326693E+04  0.39719312656E+04 0.  0.
        5    1    3    3  502    0 -0.14446954135E+04  0.21791762011E+02  0.11208759000E+04  0.18286619677E+04  0.46999998093E+01 0. -1.
       -5    1    3    3    0  502  0.14446954135E+04 -0.21791762011E+02 -0.16260875796E+04  0.21752707016E+04  0.46999998093E+01 0.  1.
</event>
<event>
 5   0  0.2746876E-08  0.4004383E+04  0.7818609E-02  0.8003663E-01
       -2   -1    0    0    0  501  0.00000000000E+00  0.00000000000E+00  0.17906626699E+04  0.17906626699E+04  0.25500000920E-02 0. -1.
        2   -1    0    0  501    0  0.00000000000E+00  0.00000000000E+00 -0.22387078654E+04  0.22387078654E+04  0.25500000920E-02 0.  1.
    10030    2    1    2    0    0  0.00000000000E+00  0.00000000000E+00 -0.44804519551E+03  0.40293705352E+04  0.40043829004E+04 0.  0.
        1    1    3    3  502    0 -0.17660459588E+04  0.88541795308E+03 -0.55145646111E+03  0.20510942223E+04  0.50400001928E-02 0.  1.
       -1    1    3    3    0  502  0.17660459588E+04 -0.88541795308E+03  0.10341126560E+03  0.19782763129E+04  0.50400001928E-02 0. -1.
</event>
<event>
 5   0  0.2612363E-08  0.3997642E+04  0.7818609E-02  0.8005022E-01
       -2   -1    0    0    0  501  0.00000000000E+00  0.00000000000E+00  0.16381394294E+04  0.16381394294E+04  0.25500000920E-02 0.  1.
        2   -1    0    0  501    0  0.00000000000E+00  0.00000000000E+00 -0.24389165114E+04  0.24389165114E+04  0.25500000920E-02 0. -1.
    10030    2    1    2    0    0  0.00000000000E+00  0.00000000000E+00 -0.80077708197E+03  0.40770559407E+04  0.39976419561E+04 0.  0.
        4    1    3    3  502    0 -0.19914330344E+04  0.66025372027E+01 -0.22541531861E+03  0.20041613714E+04  0.12699999809E+01 0. -1.
       -4    1    3    3    0  502  0.19914330344E+04 -0.66025372027E+01 -0.57536176336E+03  0.20728945693E+04  0.12699999809E+01 0.  1.
</event>
<event>
 5   0  0.2587493E-08  0.4000838E+04  0.7818609E-02  0.8004378E-01
        2   -1    0    0  501    0  0.00000000000E+00  0.00000000000E+00  0.23977918344E+04  0.23977918344E+04  0.25500000920E-02 0. -1.
       -2   -1    0    0    0  501  0.00000000000E+00  0.00000000000E+00 -0.16689003771E+04  0.16689003771E+04  0.25500000920E-02 0.  1.
    10030    2    1    2    0    0  0.00000000000E+00  0.00000000000E+00  0.72889145726E+03  0.40666922115E+04  0.40008377606E+04 0.  0.
        5    1    3    3  502    0  0.62073214343E+03 -0.10382689679E+04  0.19838880947E+04  0.23236060135E+04  0.46999998093E+01 0. -1.
       -5    1    3    3    0  502 -0.62073214343E+03  0.10382689679E+04 -0.12549966375E+04  0.17430861980E+04  0.46999998093E+01 0.  1.
</event>
<event>
 5   0  0.2650452E-08  0.3982770E+04  0.7818609E-02  0.8008031E-01
       -2   -1    0    0    0  501  0.00000000000E+00  0.00000000000E+00  0.15109105592E+04  0.15109105592E+04  0.25500000920E-02 0.  1.
        2   -1    0    0  501    0  0.00000000000E+00  0.00000000000E+00 -0.26246519080E+04  0.26246519080E+04  0.25500000920E-02 0. -1.
    10030    2    1    2    0    0  0.00000000000E+00  0.00000000000E+00 -0.11137413488E+04  0.41355624672E+04  0.39827700320E+04 0.  0.
        3    1    3    3  502    0 -0.10038044345E+04  0.14852503085E+03 -0.23360605350E+04  0.25469318524E+04  0.10100000352E+00 0. -1.
       -3    1    3    3    0  502  0.10038044345E+04 -0.14852503085E+03  0.12223191861E+04  0.15886306148E+04  0.10100000352E+00 0.  1.
</event>
<event>
 5   0  0.8329875E-09  0.4005070E+04  0.7818609E-02  0.8003525E-01
        1   -1    0    0  501    0  0.00000000000E+00  0.00000000000E+00  0.28098187924E+04  0.28098187924E+04  0.50400001928E-02 0.  1.
       -1   -1    0    0    0  501  0.00000000000E+00  0.00000000000E+00 -0.14271903412E+04  0.14271903412E+04  0.50400001928E-02 0. -1.
    10030    2    1    2    0    0  0.00000000000E+00  0.00000000000E+00  0.13826284512E+04  0.42370091336E+04  0.40050699076E+04 0.  0.
        4    1    3    3  502    0  0.15981606548E+04 -0.24065252543E+03  0.19422082435E+04  0.25266985556E+04  0.12699999809E+01 0.  1.
       -4    1    3    3    0  502 -0.15981606548E+04  0.24065252543E+03 -0.55957979230E+03  0.17103105781E+04  0.12699999809E+01 0. -1.
</event>
<event>
 5   0  0.2587493E-08  0.3995391E+04  0.7818609E-02  0.8005477E-01
       -2   -1    0    0    0  501  0.00000000000E+00  0.00000000000E+00  0.12352481072E+04  0.12352481072E+04  0.25500000920E-02 0.  1.
        2   -1    0    0  501    0  0.00000000000E+00  0.00000000000E+00 -0.32307574720E+04  0.32307574720E+04  0.25500000920E-02 0. -1.
    10030    2    1    2    0    0  0.00000000000E+00  0.00000000000E+00 -0.19955093649E+04  0.44660055792E+04  0.39953908705E+04 0.  0.
        5    1    3    3  502    0 -0.12489943620E+04 -0.10406116473E+04 -0.22955006923E+04  0.28128642049E+04  0.46999998093E+01 0. -1.
       -5    1    3    3    0  502  0.12489943620E+04  0.10406116473E+04  0.29999132746E+03  0.16531413743E+04  0.46999998093E+01 0.  1.
</event>
<event>
 5   0  0.8329875E-09  0.3988164E+04  0.7818609E-02  0.8006939E-01
        1   -1    0    0  501    0  0.00000000000E+00  0.00000000000E+00  0.24137684300E+04  0.24137684300E+04  0.50400001928E-02 0.  1.
       -1   -1    0    0    0  501  0.00000000000E+00  0.00000000000E+00 -0.16473668419E+04  0.16473668420E+04  0.50400001928E-02 0. -1.
    10030    2    1    2    0    0  0.00000000000E+00  0.00000000000E+00  0.76640158809E+03  0.40611352720E+04  0.39881635251E+04 0.  0.
        5    1    3    3  502    0  0.12346570904E+04 -0.78173370333E+02 -0.12093360071E+04  0.17300303104E+04  0.46999998093E+01 0. -1.
       -5    1    3    3    0  502 -0.12346570904E+04  0.78173370333E+02  0.19757375952E+04  0.23311049616E+04  0.46999998093E+01 0.  1.
</event>
<event>
 5   0  0.8329875E-09  0.4003916E+04  0.7818609E-02  0.8003757E-01
        1   -1    0    0  501    0  0.00000000000E+00  0.00000000000E+00  0.17344348867E+04  0.17344348867E+04  0.50400001928E-02 0. -1.
       -1   -1    0    0    0  501  0.00000000000E+00  0.00000000000E+00 -0.23107439578E+04  0.23107439578E+04  0.50400001928E-02 0.  1.
    10030    2    1    2    0    0  0.00000000000E+00  0.00000000000E+00 -0.57630907105E+03  0.40451788445E+04  0.40039155509E+04 0.  0.
        5    1    3    3  502    0  0.15661094094E+04  0.86073663929E+03 -0.11998101172E+04  0.21524712894E+04  0.46999998093E+01 0.  1.
       -5    1    3    3    0  502 -0.15661094094E+04 -0.86073663929E+03  0.62350104618E+03  0.18927075551E+04  0.46999998093E+01 0. -1.
</event>
<event>
 5   0  0.8329875E-09  0.3980646E+04  0.7818609E-02  0.8008462E-01
       -1   -1    0    0    0  501  0.00000000000E+00  0.00000000000E+00  0.30438101460E+04  0.30438101460E+04  0.50400001928E-02 0. -1.
        1   -1    0    0  501    0  0.00000000000E+00  0.00000000000E+00 -0.13014562733E+04  0.13014562733E+04  0.50400001928E-02 0.  1.
    10030    2    1    2    0    0  0.00000000000E+00  0.00000000000E+00  0.17423538727E+04  0.43452664193E+04  0.39806460828E+04 0.  0.
        5    1    3    3  502    0 -0.13600908155E+04 -0.91981628877E+03 -0.35678849865E+03  0.16802467539E+04  0.46999998093E+01 0.  1.
       -5    1    3    3    0  502  0.13600908155E+04  0.91981628877E+03  0.20991423713E+04  0.26650196653E+04  0.46999998093E+01 0. -1.
</event>
<event>
 5   0  0.8329875E-09  0.3997376E+04  0.7818609E-02  0.8005076E-01
        1   -1    0    0  501    0  0.00000000000E+00  0.00000000000E+00  0.27744626941E+04  0.27744626941E+04  0.50400001928E-02 0. -1.
       -1   -1    0    0    0  501  0.00000000000E+00  0.00000000000E+00 -0.14398295535E+04  0.14398295535E+04  0.50400001928E-02 0.  1.
    10030    2    1    2    0    0  0.00000000000E+00  0.00000000000E+00  0.13346331407E+04  0.42142922476E+04  0.39973758302E+04 0.  0.
        1    1    3    3  502    0  0.44435668202E+03 -0.41540884114E+03 -0.13398705361E+04  0.14714857864E+04  0.50400001928E-02 0.  1.
       -1    1    3    3    0  502 -0.44435668202E+03  0.41540884114E+03  0.26745036768E+04  0.27428064611E+04  0.50400001928E-02 0. -1.
</event>
<event>
 5   0  0.2650452E-08  0.4055066E+04  0.7818609E-02  0.7993529E-01
       -2   -1    0    0    0  501  0.00000000000E+00  0.00000000000E+00  0.22078779316E+04  0.22078779316E+04  0.25500000920E-02 0. -1.
        2   -1    0    0  501    0  0.00000000000E+00  0.00000000000E+00 -0.18619188195E+04  0.18619188195E+04  0.25500000920E-02 0.  1.
    10030    2    1    2    0    0  0.00000000000E+00  0.00000000000E+00  0.34595911202E+03  0.40697967511E+04  0.40550657070E+04 0.  0.
        3    1    3    3  502    0 -0.62301122252E+03 -0.14169727449E+04  0.14872920045E+04  0.21466234556E+04  0.10100000352E+00 0. -1.
       -3    1    3    3    0  502  0.62301122252E+03  0.14169727449E+04 -0.11413328924E+04  0.19231732956E+04  0.10100000352E+00 0.  1.
</event>
<event>
 5   0  0.2587493E-08  0.3995018E+04  0.7818609E-02  0.8005552E-01
       -2   -1    0    0    0  501  0.00000000000E+00  0.00000000000E+00  0.27955298743E+04  0.27955298743E+04  0.25500000920E-02 0.  1.
        2   -1    0    0  501    0  0.00000000000E+00  0.00000000000E+00 -0.14272939020E+04  0.14272939020E+04  0.25500000920E-02 0. -1.
    10030    2    1    2    0    0  0.00000000000E+00  0.00000000000E+00  0.13682359724E+04  0.42228237763E+04  0.39950182690E+04 0.  0.
        5    1    3    3  502    0  0.19879428065E+03 -0.15358996605E+04 -0.64937084284E+03  0.16793485388E+04  0.46999998093E+01 0. -1.
       -5    1    3    3    0  502 -0.19879428065E+03  0.15358996605E+04  0.20176068152E+04  0.25434752375E+04  0.46999998093E+01 0.  1.
</event>
<event>
 5   0  0.8329875E-09  0.3983426E+04  0.7818609E-02  0.8007898E-01
        1   -1    0    0  501    0  0.00000000000E+00  0.00000000000E+00  0.20798578464E+04  0.20798578465E+04  0.50400001928E-02 0.  1.
       -1   -1    0    0    0  501  0.00000000000E+00  0.00000000000E+00 -0.19073034250E+04  0.19073034250E+04  0.50400001928E-02 0. -1.
    10030    2    1    2    0    0  0.00000000000E+00  0.00000000000E+00  0.17255442145E+03  0.39871612715E+04  0.39834256584E+04 0.  0.
        4    1    3    3  502    0  0.97761059924E+03  0.12916670253E+04  0.12461530169E+04  0.20437771753E+04  0.12699999809E+01 0.  1.
       -4    1    3    3    0  502 -0.97761059924E+03 -0.12916670253E+04 -0.10735985954E+04  0.19433840961E+04  0.12699999809E+01 0. -1.
</event>
<event>
 5   0  0.2599332E-08  0.3992268E+04  0.7818609E-02  0.8006108E-01
        2   -1    0    0  501    0  0.00000000000E+00  0.00000000000E+00  0.14510758199E+04  0.14510758199E+04  0.25500000920E-02 0. -1.
       -2   -1    0    0    0  501  0.00000000000E+00  0.00000000000E+00 -0.27459289099E+04  0.27459289099E+04  0.25500000920E-02 0.  1.
    10030    2    1    2    0    0  0.00000000000E+00  0.00000000000E+00 -0.12948530900E+04  0.41970047298E+04  0.39922680493E+04 0.  0.
        2    1    3    3  502    0 -0.75728171138E+03  0.12359661094E+04  0.79534755906E+03  0.16533800391E+04  0.25500000920E-02 0. -1.
       -2    1    3    3    0  502  0.75728171138E+03 -0.12359661094E+04 -0.20902006491E+04  0.25436246907E+04  0.25500000920E-02 0.  1.
</event>
<event>
 5   0  0.2599332E-08  0.4015006E+04  0.7818609E-02  0.8001526E-01
       -2   -1    0    0    0  501  0.00000000000E+00  0.00000000000E+00  0.19232203375E+04  0.19232203375E+04  0.25500000920E-02 0.  1.
        2   -1    0    0  501    0  0.00000000000E+00  0.00000000000E+00 -0.20954790846E+04  0.20954790846E+04  0.25500000920E-02 0. -1.
    10030    2    1    2    0    0  0.00000000000E+00  0.00000000000E+00 -0.17225874711E+03  0.40186994221E+04  0.40150058492E+04 0.  0.
        2    1    3    3  502    0  0.61363752034E+03 -0.17770423224E+04  0.61853359941E+03  0.19791448243E+04  0.25500000920E-02 0.  1.
       -2    1    3    3    0  502 -0.61363752034E+03  0.17770423224E+04 -0.79079234652E+03  0.20395545978E+04  0.25500000920E-02 0. -1.
</event>
<event>
 5   0  0.8329875E-09  0.3935261E+04  0.7818609E-02  0.8017735E-01
       -1   -1    0    0    0  501  0.00000000000E+00  0.00000000000E+00  0.29882576822E+04  0.29882576822E+04  0.50400001928E-02 0.  1.
        1   -1    0    0  501    0  0.00000000000E+00  0.00000000000E+00 -0.12955943104E+04  0.12955943104E+04  0.50400001928E-02 0. -1.
    10030    2    1    2    0    0  0.00000000000E+00  0.00000000000E+00  0.16926633718E+04  0.42838519926E+04  0.39352609322E+04 0.  0.
        1    1    3    3  502    0  0.62228535344E+03  0.13639285148E+04 -0.54092840728E+03  0.15937827946E+04  0.50400001928E-02 0.  1.
       -1    1    3    3    0  502 -0.62228535344E+03 -0.13639285148E+04  0.22335917791E+04  0.26900691980E+04  0.50400001928E-02 0. -1.
</event>
<event>
 5   0  0.2587493E-08  0.3996219E+04  0.7818609E-02  0.8005310E-01
        2   -1    0    0  501    0  0.00000000000E+00  0.00000000000E+00  0.11944852549E+04  0.11944852549E+04  0.25500000920E-02 0.  1.
       -2   -1    0    0    0  501  0.00000000000E+00  0.00000000000E+00 -0.33423944528E+04  0.33423944528E+04  0.25500000920E-02 0. -1.
    10030    2    1    2    0    0  0.00000000000E+00  0.00000000000E+00 -0.21479091979E+04  0.45368797077E+04  0.39962186576E+04 0.  0.
        5    1    3    3  502    0  0.17242262569E+03  0.18023486684E+04 -0.20334140254E+04  0.27226797411E+04  0.46999998093E+01 0. -1.
       -5    1    3    3    0  502 -0.17242262569E+03 -0.18023486684E+04 -0.11449517251E+03  0.18141999666E+04  0.46999998093E+01 0.  1.
</event>
<event>
 5   0  0.8329875E-09  0.3994201E+04  0.7818609E-02  0.8005717E-01
       -1   -1    0    0    0  501  0.00000000000E+00  0.00000000000E+00  0.30495153337E+04  0.30495153337E+04  0.50400001928E-02 0.  1.
        1   -1    0    0  501    0  0.00000000000E+00  0.00000000000E+00 -0.13078835496E+04  0.13078835496E+04  0.50400001928E-02 0. -1.
    10030    2    1    2    0    0  0.00000000000E+00  0.00000000000E+00  0.17416317841E+04  0.43573988833E+04  0.39942012664E+04 0.  0.
        3    1    3    3  502    0  0.85464912413E+03  0.76558672943E+03  0.26540339214E+04  0.28914432783E+04  0.10100000352E+00 0.  1.
       -3    1    3    3    0  502 -0.85464912413E+03 -0.76558672943E+03 -0.91240213723E+03  0.14659556050E+04  0.10100000352E+00 0. -1.
</event>
<event>
 5   0  0.2612363E-08  0.4001932E+04  0.7818609E-02  0.8004157E-01
        2   -1    0    0  501    0  0.00000000000E+00  0.00000000000E+00  0.22891002874E+04  0.22891002874E+04  0.25500000920E-02 0. -1.
       -2   -1    0    0    0  501  0.00000000000E+00  0.00000000000E+00 -0.17491001562E+04  0.17491001562E+04  0.25500000920E-02 0.  1.
    10030    2    1    2    0    0  0.00000000000E+00  0.00000000000E+00  0.54000013125E+03  0.40382004436E+04  0.40019323684E+04 0.  0.
        4    1    3    3  502    0 -0.18256052150E+02  0.15400328104E+04  0.15590078679E+04  0.21914701654E+04  0.12699999809E+01 0. -1.
       -4    1    3    3    0  502  0.18256052150E+02 -0.15400328104E+04 -0.10190077367E+04  0.18467302783E+04  0.12699999809E+01 0.  1.
</event>
<event>
 5   0  0.2587493E-08  0.4002066E+04  0.7818609E-02  0.8004130E-01
        2   -1    0    0  501    0  0.00000000000E+00  0.00000000000E+00  0.14210973691E+04  0.14210973691E+04  0.25500000920E-02 0.  1.
       -2   -1    0    0    0  501  0.00000000000E+00  0.00000000000E+00 -0.28176342330E+04  0.28176342330E+04  0.25500000920E-02 0. -1.
    10030    2    1    2    0    0  0.00000000000E+00  0.00000000000E+00 -0.13965368639E+04  0.42387316021E+04  0.40020657644E+04 0.  0.
        5    1    3    3  502    0 -0.10290232324E+04  0.92725277529E+03  0.83122944590E+03  0.16154414270E+04  0.46999998093E+01 0.  1.
       -5    1    3    3    0  502  0.10290232324E+04 -0.92725277529E+03 -0.22277663098E+04  0.26232901752E+04  0.46999998093E+01 0. -1.
</event>
<event>
 5   0  0.8329875E-09  0.3989118E+04  0.7818609E-02  0.8006745E-01
       -1   -1    0    0    0  501  0.00000000000E+00  0.00000000000E+00  0.17520673522E+04  0.17520673522E+04  0.50400001928E-02 0. -1.
        1   -1    0    0  501    0  0.00000000000E+00  0.00000000000E+00 -0.22706117673E+04  0.22706117673E+04  0.50400001928E-02 0.  1.
    10030    2    1    2    0    0  0.00000000000E+00  0.00000000000E+00 -0.51854441514E+03  0.40226791195E+04  0.39891175701E+04 0.  0.
        3    1    3    3  502    0  0.20918595722E+02 -0.89028099286E+03 -0.20590079530E+04  0.22433349270E+04  0.10100000352E+00 0.  1.
       -3    1    3    3    0  502 -0.20918595722E+02  0.89028099286E+03  0.15404635378E+04  0.17793441925E+04  0.10100000352E+00 0. -1.
</event>
<event>
 5   0  0.8329875E-09  0.3998771E+04  0.7818609E-02  0.8004795E-01
       -1   -1    0    0    0  501  0.00000000000E+00  0.00000000000E+00  0.15719971397E+04  0.15719971397E+04  0.50400001928E-02 0. -1.
        1   -1    0    0  501    0  0.00000000000E+00  0.00000000000E+00 -0.25429701522E+04  0.25429701522E+04  0.50400001928E-02 0.  1.
    10030    2    1    2    0    0  0.00000000000E+00  0.00000000000E+00 -0.97097301253E+03  0.41149672919E+04  0.39987707139E+04 0.  0.
        1    1    3    3  502    0  0.52474936785E+03  0.19025946143E+04 -0.81464620235E+03  0.21351525942E+04  0.50400001928E-02 0. -1.
       -1    1    3    3    0  502 -0.52474936785E+03 -0.19025946143E+04 -0.15632681018E+03  0.19798146977E+04  0.50400001928E-02 0.  1.
</event>
<event>
 5   0  0.8329875E-09  0.3999535E+04  0.7818609E-02  0.8004640E-01
        1   -1    0    0  501    0  0.00000000000E+00  0.00000000000E+00  0.26231974466E+04  0.26231974466E+04  0.50400001928E-02 0.  1.
       -1   -1    0    0    0  501  0.00000000000E+00  0.00000000000E+00 -0.15245021850E+04  0.15245021850E+04  0.50400001928E-02 0. -1.
    10030    2    1    2    0    0  0.00000000000E+00  0.00000000000E+00  0.10986952616E+04  0.41476996316E+04  0.39995350925E+04 0.  0.
        3    1    3    3  502    0 -0.16197878077E+04 -0.11434905272E+04  0.27934293529E+03  0.20023275490E+04  0.10100000352E+00 0.  1.
       -3    1    3    3    0  502  0.16197878077E+04  0.11434905272E+04  0.81935232634E+03  0.21453720826E+04  0.10100000352E+00 0. -1.
</event>
<event>
 5   0  0.2612363E-08  0.4008021E+04  0.7818609E-02  0.8002930E-01
       -2   -1    0    0    0  501  0.00000000000E+00  0.00000000000E+00  0.17025377771E+04  0.17025377771E+04  0.25500000920E-02 0.  1.
        2   -1    0    0  501    0  0.00000000000E+00  0.00000000000E+00 -0.23588658623E+04  0.23588658623E+04  0.25500000920E-02 0. -1.
    10030    2    1    2    0    0  0.00000000000E+00  0.00000000000E+00 -0.65632808523E+03  0.40614036393E+04  0.40080210786E+04 0.  0.
        4    1    3    3  502    0  0.53851348318E+03  0.12388334109E+04  0.11718737226E+04  0.17882937751E+04  0.12699999809E+01 0.  1.
       -4    1    3    3    0  502 -0.53851348318E+03 -0.12388334109E+04 -0.18282018078E+04  0.22731098642E+04  0.12699999809E+01 0. -1.
</event>
<event>
 5   0  0.2746876E-08  0.3996114E+04  0.7818609E-02  0.8005331E-01
        2   -1    0    0  501    0  0.00000000000E+00  0.00000000000E+00  0.19629206431E+04  0.19629206431E+04  0.25500000920E-02 0. -1.
       -2   -1    0    0    0  501  0.00000000000E+00  0.00000000000E+00 -0.20338219037E+04  0.20338219037E+04  0.25500000920E-02 0.  1.
    10030    2    1    2    0    0  0.00000000000E+00  0.00000000000E+00 -0.70901260614E+02  0.39967425468E+04  0.39961136116E+04 0.  0.
        1    1    3    3  502    0 -0.11220117440E+04  0.15030407881E+04 -0.72417285932E+03  0.20105890417E+04  0.50400001928E-02 0.  1.
       -1    1    3    3    0  502  0.11220117440E+04 -0.15030407881E+04  0.65327159871E+03  0.19861535051E+04  0.50400001928E-02 0. -1.
</event>
<event>
 5   0  0.2587493E-08  0.4003293E+04  0.7818609E-02  0.8003883E-01
        2   -1    0    0  501    0  0.00000000000E+00  0.00000000000E+00  0.27820891615E+04  0.27820891615E+04  0.25500000920E-02 0. -1.
       -2   -1    0    0    0  501  0.00000000000E+00  0.00000000000E+00 -0.14401367776E+04  0.14401367776E+04  0.25500000920E-02 0.  1.
    10030    2    1    2    0    0  0.00000000000E+00  0.00000000000E+00  0.13419523839E+04  0.42222259391E+04  0.40032931044E+04 0.  0.
        5    1    3    3  502    0 -0.32816370408E+03  0.19330175458E+04  0.10958971964E+04  0.22461658452E+04  0.46999998093E+01 0. -1.
       -5    1    3    3    0  502  0.32816370408E+03 -0.19330175458E+04  0.24605518747E+03  0.19760600938E+04  0.46999998093E+01 0.  1.
</event>
<event>
 5   0  0.8329875E-09  0.3993643E+04  0.7818609E-02  0.8005830E-01
        1   -1    0    0  501    0  0.00000000000E+00  0.00000000000E+00  0.23754304844E+04  0.23754304844E+04  0.50400001928E-02 0. -1.
       -1   -1    0    0    0  501  0.00000000000E+00  0.00000000000E+00 -0.16785571013E+04  0.16785571013E+04  0.50400001928E-02 0.  1.
    10030    2    1    2    0    0  0.00000000000E+00  0.00000000000E+00  0.69687338309E+03  0.40539875857E+04  0.39936428024E+04 0.  0.
        2    1    3    3  502    0  0.10927839117E+04  0.13007419569E+04 -0.71679531174E+03  0.18438822726E+04  0.25500000920E-02 0.  1.
       -2    1    3    3    0  502 -0.10927839117E+04 -0.13007419569E+04  0.14136686948E+04  0.22101053131E+04  0.25500000920E-02 0. -1.
</event>
<event>
 5   0  0.2612363E-08  0.4001447E+04  0.7818609E-02  0.8004255E-01
       -2   -1    0    0    0  501  0.00000000000E+00  0.00000000000E+00  0.24654752527E+04  0.24654752527E+04  0.25500000920E-02 0.  1.
        2   -1    0    0  501    0  0.00000000000E+00  0.00000000000E+00 -0.16235790501E+04  0.16235790501E+04  0.25500000920E-02 0. -1.
    10030    2    1    2    0    0  0.00000000000E+00  0.00000000000E+00  0.84189620264E+03  0.40890543028E+04  0.40014467228E+04 0.  0.
        4    1    3    3  502    0 -0.11367067659E+04 -0.10567666505E+03 -0.12580776651E+04  0.16988322029E+04  0.12699999809E+01 0. -1.
       -4    1    3    3    0  502  0.11367067659E+04  0.10567666505E+03  0.20999738677E+04  0.23902221000E+04  0.12699999809E+01 0.  1.
</event>
<event>
 5   0  0.8329875E-09  0.4017460E+04  0.7818609E-02  0.8001033E-01
       -1   -1    0    0    0  501  0.00000000000E+00  0.00000000000E+00  0.18539320729E+04  0.18539320729E+04  0.50400001928E-02 0. -1.
        1   -1    0    0  501    0  0.00000000000E+00  0.00000000000E+00 -0.21764536280E+04  0.21764536280E+04  0.50400001928E-02 0.  1.
    10030    2    1    2    0    0  0.00000000000E+00  0.00000000000E+00 -0.32252155507E+03  0.40303857009E+04  0.40174604845E+04 0.  0.
        3    1    3    3  502    0 -0.11669919349E+04  0.12164205995E+04 -0.12572258970E+04  0.21028947234E+04  0.10100000352E+00 0.  1.
       -3    1    3    3    0  502  0.11669919349E+04 -0.12164205995E+04  0.93470434198E+03  0.19274909775E+04  0.10100000352E+00 0. -1.
</event>
<event>
 5   0  0.2612363E-08  0.4002999E+04  0.7818609E-02  0.8003942E-01
        2   -1    0    0  501    0  0.00000000000E+00  0.00000000000E+00  0.20156524183E+04  0.20156524183E+04  0.25500000920E-02 0.  1.
       -2   -1    0    0    0  501  0.00000000000E+00  0.00000000000E+00 -0.19874463745E+04  0.19874463745E+04  0.25500000920E-02 0. -1.
    10030    2    1    2    0    0  0.00000000000E+00  0.00000000000E+00  0.28206043785E+02  0.40030987928E+04  0.40029994209E+04 0.  0.
        4    1    3    3  502    0 -0.50646183868E+03 -0.11428452673E+04 -0.15490738370E+04  0.19905351704E+04  0.12699999809E+01 0. -1.
       -4    1    3    3    0  502  0.50646183868E+03  0.11428452673E+04  0.15772798808E+04  0.20125636224E+04  0.12699999809E+01 0.  1.
</event>
<event>
 5   0  0.8329875E-09  0.4005468E+04  0.7818609E-02  0.8003444E-01
        1   -1    0    0  501    0  0.00000000000E+00  0.00000000000E+00  0.25729244324E+04  0.25729244324E+04  0.50400001928E-02 0.  1.
       -1   -1    0    0    0  501  0.00000000000E+00  0.00000000000E+00 -0.15589047788E+04  0.15589047788E+04  0.50400001928E-02 0. -1.
    10030    2    1    2    0    0  0.00000000000E+00  0.00000000000E+00  0.10140196536E+04  0.41318292112E+04  0.40054683588E+04 0.  0.
        3    1    3    3  502    0  0.16322308930E+04 -0.11541995710E+04  0.38241087242E+03  0.20353359485E+04  0.10100000352E+00 0.  1.
       -3    1    3    3    0  502 -0.16322308930E+04  0.11541995710E+04  0.63160878121E+03  0.20964932627E+04  0.10100000352E+00 0. -1.
</event>
<event>
 5   0  0.8329875E-09  0.4000314E+04  0.7818609E-02  0.8004483E-01
        1   -1    0    0  501    0  0.00000000000E+00  0.00000000000E+00  0.22533109756E+04  0.22533109756E+04  0.50400001928E-02 0.  1.
       -1   -1    0    0    0  501  0.00000000000E+00  0.00000000000E+00 -0.17754442374E+04  0.17754442374E+04  0.50400001928E-02 0. -1.
    10030    2    1    2    0    0  0.00000000000E+00  0.00000000000E+00  0.47786673822E+03  0.40287552130E+04  0.40003139810E+04 0.  0.
        3    1    3    3  502    0 -0.29274505807E+03  0.12551268446E+04  0.17793784026E+04  0.21970959412E+04  0.10100000352E+00 0.  1.
       -3    1    3    3    0  502  0.29274505807E+03 -0.12551268446E+04 -0.13015116644E+04  0.18316592718E+04  0.10100000352E+00 0. -1.
</event>
<event>
 5   0  0.2612363E-08  0.4002267E+04  0.7818609E-02  0.8004089E-01
       -2   -1    0    0    0  501  0.00000000000E+00  0.00000000000E+00  0.25876987663E+04  0.25876987663E+04  0.25500000920E-02 0. -1.
        2   -1    0    0  501    0  0.00000000000E+00  0.00000000000E+00 -0.15475273268E+04  0.15475273268E+04  0.25500000920E-02 0.  1.
    10030    2    1    2    0    0  0.00000000000E+00  0.00000000000E+00  0.10401714395E+04  0.41352260931E+04  0.40022666349E+04 0.  0.
        4    1    3    3  502    0  0.17493621044E+04 -0.86228923172E+02  0.15201400074E+04  0.23191658962E+04  0.12699999809E+01 0. -1.
       -4    1    3    3    0  502 -0.17493621044E+04  0.86228923172E+02 -0.47996856785E+03  0.18160601968E+04  0.12699999809E+01 0.  1.
</event>
<event>
 5   0  0.2746876E-08  0.4004214E+04  0.7818609E-02  0.8003697E-01
       -2   -1    0    0    0  501  0.00000000000E+00  0.00000000000E+00  0.18257905203E+04  0.18257905203E+04  0.25500000920E-02 0.  1.
        2   -1    0    0  501    0  0.00000000000E+00  0.00000000000E+00 -0.21954500861E+04  0.21954500861E+04  0.25500000920E-02 0. -1.
    10030    2    1    2    0    0  0.00000000000E+00  0.00000000000E+00 -0.36965956579E+03  0.40212406063E+04  0.40042137580E+04 0.  0.
        1    1    3    3  502    0  0.12853064745E+03 -0.18867259675E+04 -0.84502687404E+03  0.20713100738E+04  0.50400001928E-02 0. -1.
       -1    1    3    3    0  502 -0.12853064745E+03  0.18867259675E+04  0.47536730825E+03  0.19499305325E+04  0.50400001928E-02 0.  1.
</event>
<event>
 5   0  0.2599332E-08  0.3997357E+04  0.7818609E-02  0.8005080E-01
        2   -1    0    0  501    0  0.00000000000E+00  0.00000000000E+00  0.19855061913E+04  0.19855061913E+04  0.25500000920E-02 0.  1.
       -2   -1    0    0    0  501  0.00000000000E+00  0.00000000000E+00 -0.20119383246E+04  0.20119383246E+04  0.25500000920E-02 0. -1.
    10030    2    1    2    0    0  0.00000000000E+00  0.00000000000E+00 -0.26432133282E+02  0.39974445160E+04  0.39973571270E+04 0.  0.
        2    1    3    3  502    0  0.13617167881E+04  0.13639893450E+04  0.51592351562E+03  0.19952234507E+04  0.25500000920E-02 0.  1.
       -2    1    3    3    0  502 -0.13617167881E+04 -0.13639893450E+04 -0.54235564890E+03  0.20022210653E+04  0.25500000920E-02 0. -1.
</event>
<event>
 5   0  0.2612363E-08  0.3941078E+04  0.7818609E-02  0.8016540E-01
        2   -1    0    0  501    0  0.00000000000E+00  0.00000000000E+00  0.26254802020E+04  0.26254802020E+04  0.25500000920E-02 0.  1.
       -2   -1    0    0    0  501  0.00000000000E+00  0.00000000000E+00 -0.14789763146E+04  0.14789763146E+04  0.25500000920E-02 0. -1.
    10030    2    1    2    0    0  0.00000000000E+00  0.00000000000E+00  0.11465038874E+04  0.41044565166E+04  0.39410775345E+04 0.  0.
        4    1    3    3  502    0  0.39029633472E+03  0.14261708005E+04  0.19298358809E+04  0.24311648486E+04  0.12699999809E+01 0.  1.
       -4    1    3    3    0  502 -0.39029633472E+03 -0.14261708005E+04 -0.78333199356E+03  0.16732916680E+04  0.12699999809E+01 0. -1.
</event>
<event>
 5   0  0.8329875E-09  0.3998593E+04  0.7818609E-02  0.8004830E-01
        1   -1    0    0  501    0  0.00000000000E+00  0.00000000000E+00  0.27385217609E+04  0.27385217609E+04  0.50400001928E-02 0. -1.
       -1   -1    0    0    0  501  0.00000000000E+00  0.00000000000E+00 -0.14596145841E+04  0.14596145842E+04  0.50400001928E-02 0.  1.
    10030    2    1    2    0    0  0.00000000000E+00  0.00000000000E+00  0.12789071767E+04  0.41981363450E+04  0.39985929031E+04 0.  0.
        1    1    3    3  502    0 -0.17845280493E+04 -0.58645255129E+03  0.13582498150E+04  0.23180400156E+04  0.50400001928E-02 0. -1.
       -1    1    3    3    0  502  0.17845280493E+04  0.58645255129E+03 -0.79342638278E+02  0.18800963295E+04  0.50400001928E-02 0.  1.
</event>
<event>
 5   0  0.8329875E-09  0.3997603E+04  0.7818609E-02  0.8005030E-01
       -1   -1    0    0    0  501  0.00000000000E+00  0.00000000000E+00  0.14864684409E+04  0.14864684409E+04  0.50400001928E-02 0. -1.
        1   -1    0    0  501    0  0.00000000000E+00  0.00000000000E+00 -0.26877177012E+04  0.26877177012E+04  0.50400001928E-02 0.  1.
    10030    2    1    2    0    0  0.00000000000E+00  0.00000000000E+00 -0.12012492603E+04  0.41741861421E+04  0.39976030522E+04 0.  0.
        3    1    3    3  502    0  0.42785380945E+03  0.46952318759E+03  0.13782667974E+04  0.15176067610E+04  0.10100000352E+00 0. -1.
       -3    1    3    3    0  502 -0.42785380945E+03 -0.46952318759E+03 -0.25795160577E+04  0.26565793811E+04  0.10100000352E+00 0.  1.
</event>
<event>
 5   0  0.2599332E-08  0.3999677E+04  0.7818609E-02  0.8004612E-01
       -2   -1    0    0    0  501  0.00000000000E+00  0.00000000000E+00  0.21080971035E+04  0.21080971035E+04  0.25500000920E-02 0. -1.
        2   -1    0    0  501    0  0.00000000000E+00  0.00000000000E+00 -0.18971397962E+04  0.18971397962E+04  0.25500000920E-02 0.  1.
    10030    2    1    2    0    0  0.00000000000E+00  0.00000000000E+00  0.21095730728E+03  0.40052368997E+04  0.39996774417E+04 0.  0.
        2    1    3    3  502    0  0.39500620852E+03  0.27318125619E+03  0.20494902504E+04  0.21050102589E+04  0.25500000920E-02 0. -1.
       -2    1    3    3    0  502 -0.39500620852E+03 -0.27318125619E+03 -0.18385329431E+04  0.19002266408E+04  0.25500000920E-02 0.  1.
</event>
<event>
 5   0  0.8329875E-09  0.4005163E+04  0.7818609E-02  0.8003506E-01
       -1   -1    0    0    0  501  0.00000000000E+00  0.00000000000E+00  0.16893745624E+04  0.16893745624E+04  0.50400001928E-02 0. -1.
        1   -1    0    0  501    0  0.00000000000E+00  0.00000000000E+00 -0.23738559607E+04  0.23738559607E+04  0.50400001928E-02 0.  1.
    10030    2    1    2    0    0  0.00000000000E+00  0.00000000000E+00 -0.68448139829E+03  0.40632305232E+04  0.40051626059E+04 0.  0.
        2    1    3    3  502    0 -0.18906756820E+03 -0.70182402014E+02 -0.23635275557E+04  0.23721160641E+04  0.25500000920E-02 0.  1.
       -2    1    3    3    0  502  0.18906756820E+03  0.70182402014E+02  0.16790461574E+04  0.16911144591E+04  0.25500000920E-02 0. -1.
</event>
<event>
 5   0  0.8329875E-09  0.4001052E+04  0.7818609E-02  0.8004334E-01
       -1   -1    0    0    0  501  0.00000000000E+00  0.00000000000E+00  0.19194132048E+04  0.19194132048E+04  0.50400001928E-02 0.  1.
        1   -1    0    0  501    0  0.00000000000E+00  0.00000000000E+00 -0.20850664963E+04  0.20850664963E+04  0.50400001928E-02 0. -1.
    10030    2    1    2    0    0  0.00000000000E+00  0.00000000000E+00 -0.16565329145E+03  0.40044797011E+04  0.40010519446E+04 0.  0.
        4    1    3    3  502    0  0.51335403133E+03 -0.48589505286E+03  0.17902670517E+04  0.19247555931E+04  0.12699999809E+01 0.  1.
       -4    1    3    3    0  502 -0.51335403133E+03  0.48589505286E+03 -0.19559203431E+04  0.20797241080E+04  0.12699999809E+01 0. -1.
</event>
<event>
 5   0  0.8329875E-09  0.3999304E+04  0.7818609E-02  0.8004687E-01
       -1   -1    0    0    0  501  0.00000000000E+00  0.00000000000E+00  0.18325031273E+04  0.18325031273E+04  0.50400001928E-02 0. -1.
        1   -1    0    0  501    0  0.00000000000E+00  0.00000000000E+00 -0.21820474499E+04  0.21820474499E+04  0.50400001928E-02 0.  1.
    10030    2    1    2    0    0  0.00000000000E+00  0.00000000000E+00 -0.34954432259E+03  0.40145505772E+04  0.39993043275E+04 0.  0.
        4    1    3    3  502    0 -0.14458490736E+04  0.41645859503E+03 -0.14968694066E+04  0.21223894408E+04  0.12699999809E+01 0.  1.
       -4    1    3    3    0  502  0.14458490736E+04 -0.41645859503E+03  0.11473250840E+04  0.18921611364E+04  0.12699999809E+01 0. -1.
</event>
<event>
 5   0  0.2599332E-08  0.4006702E+04  0.7818609E-02  0.8003196E-01
        2   -1    0    0  501    0  0.00000000000E+00  0.00000000000E+00  0.14778557786E+04  0.14778557786E+04  0.25500000920E-02 0.  1.
       -2   -1    0    0    0  501  0.00000000000E+00  0.00000000000E+00 -0.27157016312E+04  0.27157016312E+04  0.25500000920E-02 0. -1.
    10030    2    1    2    0    0  0.00000000000E+00  0.00000000000E+00 -0.12378458527E+04  0.41935574098E+04  0.40067020596E+04 0.  0.
        2    1    3    3  502    0 -0.38665625038E+03  0.18175503910E+04 -0.14024490268E+04  0.23280583654E+04  0.25500000920E-02 0. -1.
       -2    1    3    3    0  502  0.38665625038E+03 -0.18175503910E+04  0.16460317415E+03  0.18654990444E+04  0.25500000920E-02 0.  1.
</event>
<event>
 5   0  0.8329875E-09  0.4034768E+04  0.7818609E-02  0.7997569E-01
        1   -1    0    0  501    0  0.00000000000E+00  0.00000000000E+00  0.28071974082E+04  0.28071974082E+04  0.50400001928E-02 0.  1.
       -1   -1    0    0    0  501  0.00000000000E+00  0.00000000000E+00 -0.14497869710E+04  0.14497869710E+04  0.50400001928E-02 0. -1.
    10030    2    1    2    0    0  0.00000000000E+00  0.00000000000E+00  0.13574104372E+04  0.42569843792E+04  0.40347680119E+04 0.  0.
        1    1    3    3  502    0 -0.11749688271E+04 -0.43652964419E+03 -0.98909109617E+03  0.15966875309E+04  0.50400001928E-02 0. -1.
       -1    1    3    3    0  502  0.11749688271E+04  0.43652964419E+03  0.23465015334E+04  0.26602968483E+04  0.50400001928E-02 0.  1.
</event>
<event>
 5   0  0.2599332E-08  0.4032744E+04  0.7818609E-02  0.7997973E-01
        2   -1    0    0  501    0  0.00000000000E+00  0.00000000000E+00  0.29440229005E+04  0.29440229005E+04  0.25500000920E-02 0.  1.
       -2   -1    0    0    0  501  0.00000000000E+00  0.00000000000E+00 -0.13810204023E+04  0.13810204023E+04  0.25500000920E-02 0. -1.
    10030    2    1    2    0    0  0.00000000000E+00  0.00000000000E+00  0.15630024982E+04  0.43250433029E+04  0.40327438255E+04 0.  0.
        2    1    3    3  502    0  0.64120961150E+03  0.18336067196E+04  0.13615267138E+04  0.23721337147E+04  0.25500000920E-02 0. -1.
       -2    1    3    3    0  502 -0.64120961150E+03 -0.18336067196E+04  0.20147578437E+03  0.19529095882E+04  0.25500000920E-02 0.  1.
</event>
<event>
 5   0  0.2599332E-08  0.4009608E+04  0.7818609E-02  0.8002611E-01
        2   -1    0    0  501    0  0.00000000000E+00  0.00000000000E+00  0.31204907370E+04  0.31204907370E+04  0.25500000920E-02 0. -1.
       -2   -1    0    0    0  501  0.00000000000E+00  0.00000000000E+00 -0.12880149406E+04  0.12880149406E+04  0.25500000920E-02 0.  1.
    10030    2    1    2    0    0  0.00000000000E+00  0.00000000000E+00  0.18324757963E+04  0.44085056776E+04  0.40096078069E+04 0.  0.
        2    1    3    3  502    0 -0.12912260493E+03 -0.12614265295E+04 -0.79110738940E+03  0.14945636279E+04  0.25500000920E-02 0.  1.
       -2    1    3    3    0  502  0.12912260493E+03  0.12614265295E+04  0.26235831857E+04  0.29139420497E+04  0.25500000920E-02 0. -1.
</event>
<event>
 5   0  0.2599332E-08  0.4002420E+04  0.7818609E-02  0.8004059E-01
       -2   -1    0    0    0  501  0.00000000000E+00  0.00000000000E+00  0.24782232766E+04  0.24782232766E+04  0.25500000920E-02 0.  1.
        2   -1    0    0  501    0  0.00000000000E+00  0.00000000000E+00 -0.16160129931E+04  0.16160129931E+04  0.25500000920E-02 0. -1.
    10030    2    1    2    0    0  0.00000000000E+00  0.00000000000E+00  0.86221028348E+03  0.40942362696E+04  0.40024197754E+04 0.  0.
        2    1    3    3  502    0  0.51598225415E+03 -0.50522133912E+02  0.24083326976E+04  0.24635049330E+04  0.25500000920E-02 0.  1.
       -2    1    3    3    0  502 -0.51598225415E+03  0.50522133912E+02 -0.15461224141E+04  0.16307313366E+04  0.25500000920E-02 0. -1.
</event>
<event>
 5   0  0.2746876E-08  0.4007530E+04  0.7818609E-02  0.8003029E-01
        2   -1    0    0  501    0  0.00000000000E+00  0.00000000000E+00  0.20457864560E+04  0.20457864560E+04  0.25500000920E-02 0. -1.
       -2   -1    0    0    0  501  0.00000000000E+00  0.00000000000E+00 -0.19626063189E+04  0.19626063189E+04  0.25500000920E-02 0.  1.
    10030    2    1    2    0    0  0.00000000000E+00  0.00000000000E+00  0.83180137065E+02  0.40083927749E+04  0.40075296259E+04 0.  0.
        1    1    3    3  502    0 -0.18775883001E+04 -0.28849349195E+03  0.67930648925E+03  0.20174299557E+04  0.50400001928E-02 0. -1.
       -1    1    3    3    0  502  0.18775883001E+04  0.28849349195E+03 -0.59612635219E+03  0.19909628192E+04  0.50400001928E-02 0.  1.
</event>
<event>
 5   0  0.8329875E-09  0.4000386E+04  0.7818609E-02  0.8004469E-01
        1   -1    0    0  501    0  0.00000000000E+00  0.00000000000E+00  0.23407836106E+04  0.23407836106E+04  0.50400001928E-02 0.  1.
       -1   -1    0    0    0  501  0.00000000000E+00  0.00000000000E+00 -0.17091595321E+04  0.17091595321E+04  0.50400001928E-02 0. -1.
    10030    2    1    2    0    0  0.00000000000E+00  0.00000000000E+00  0.63162407849E+03  0.40499431428E+04  0.40003862917E+04 0.  0.
        2    1    3    3  502    0 -0.14276849182E+04  0.50402899944E+03  0.16390783728E+04  0.22313465374E+04  0.25500000920E-02 0.  1.
       -2    1    3    3    0  502  0.14276849182E+04 -0.50402899944E+03 -0.10074542943E+04  0.18185966053E+04  0.25500000920E-02 0. -1.
</event>
<event>
 5   0  0.2612363E-08  0.3988205E+04  0.7818609E-02  0.8006930E-01
        2   -1    0    0  501    0  0.00000000000E+00  0.00000000000E+00  0.12564954390E+04  0.12564954390E+04  0.25500000920E-02 0. -1.
       -2   -1    0    0    0  501  0.00000000000E+00  0.00000000000E+00 -0.31647113152E+04  0.31647113152E+04  0.25500000920E-02 0.  1.
    10030    2    1    2    0    0  0.00000000000E+00  0.00000000000E+00 -0.19082158762E+04  0.44212067542E+04  0.39882052772E+04 0.  0.
        4    1    3    3  502    0  0.92648979047E+03 -0.12741898582E+04  0.40111694462E+03  0.16256812550E+04  0.12699999809E+01 0. -1.
       -4    1    3    3    0  502 -0.92648979047E+03  0.12741898582E+04 -0.23093328209E+04  0.27955254992E+04  0.12699999809E+01 0.  1.
</event>
<event>
 5   0  0.2587493E-08  0.3975587E+04  0.7818609E-02  0.8009490E-01
        2   -1    0    0  501    0  0.00000000000E+00  0.00000000000E+00  0.24634491320E+04  0.24634491320E+04  0.25500000920E-02 0.  1.
       -2   -1    0    0    0  501  0.00000000000E+00  0.00000000000E+00 -0.16039800926E+04  0.16039800926E+04  0.25500000920E-02 0. -1.
    10030    2    1    2    0    0  0.00000000000E+00  0.00000000000E+00  0.85946903943E+03  0.40674292246E+04  0.39755871852E+04 0.  0.
        5    1    3    3  502    0 -0.10601377245E+04 -0.92726831025E+00 -0.12906003664E+04  0.16701988655E+04  0.46999998093E+01 0. -1.
       -5    1    3    3    0  502  0.10601377245E+04  0.92726831025E+00  0.21500694058E+04  0.23972303591E+04  0.46999998093E+01 0.  1.
</event>
<event>
 5   0  0.8329875E-09  0.3920842E+04  0.7818609E-02  0.8020708E-01
        1   -1    0    0  501    0  0.00000000000E+00  0.00000000000E+00  0.11440961305E+04  0.11440961305E+04  0.50400001928E-02 0. -1.
       -1   -1    0    0    0  501  0.00000000000E+00  0.00000000000E+00 -0.33592022234E+04  0.33592022234E+04  0.50400001928E-02 0.  1.
    10030    2    1    2    0    0  0.00000000000E+00  0.00000000000E+00 -0.22151060929E+04  0.45032983538E+04  0.39208418817E+04 0.  0.
        5    1    3    3  502    0 -0.22710673292E+03  0.15942325372E+04  0.17660694827E+03  0.16199898008E+04  0.46999998093E+01 0. -1.
       -5    1    3    3    0  502  0.22710673292E+03 -0.15942325372E+04 -0.23917130411E+04  0.28833085530E+04  0.46999998093E+01 0.  1.
</event>
<event>
 5   0  0.2587493E-08  0.4003965E+04  0.7818609E-02  0.8003747E-01
        2   -1    0    0  501    0  0.00000000000E+00  0.00000000000E+00  0.28852421950E+04  0.28852421950E+04  0.25500000920E-02 0.  1.
       -2   -1    0    0    0  501  0.00000000000E+00  0.00000000000E+00 -0.13891151817E+04  0.13891151817E+04  0.25500000920E-02 0. -1.
    10030    2    1    2    0    0  0.00000000000E+00  0.00000000000E+00  0.14961270132E+04  0.42743573767E+04  0.40039649030E+04 0.  0.
        5    1    3    3  502    0  0.13183857135E+04 -0.14685543343E+04  0.11071079427E+04  0.22628528032E+04  0.46999998093E+01 0.  1.
       -5    1    3    3    0  502 -0.13183857135E+04  0.14685543343E+04  0.38901907052E+03  0.20115045735E+04  0.46999998093E+01 0. -1.
</event>
<event>
 5   0  0.8329875E-09  0.4007619E+04  0.7818609E-02  0.8003011E-01
       -1   -1    0    0    0  501  0.00000000000E+00  0.00000000000E+00  0.27845313988E+04  0.27845313988E+04  0.50400001928E-02 0. -1.
        1   -1    0    0  501    0  0.00000000000E+00  0.00000000000E+00 -0.14419849152E+04  0.14419849152E+04  0.50400001928E-02 0.  1.
    10030    2    1    2    0    0  0.00000000000E+00  0.00000000000E+00  0.13425464836E+04  0.42265163140E+04  0.40076188805E+04 0.  0.
        5    1    3    3  502    0  0.33469943047E+03 -0.18463914125E+04  0.14125484735E+04  0.23487231077E+04  0.46999998093E+01 0. -1.
       -5    1    3    3    0  502 -0.33469943047E+03  0.18463914125E+04 -0.70001989809E+02  0.18777932063E+04  0.46999998093E+01 0.  1.
</event>
<event>
 5   0  0.2587493E-08  0.4025141E+04  0.7818609E-02  0.7999494E-01
       -2   -1    0    0    0  501  0.00000000000E+00  0.00000000000E+00  0.16380311686E+04  0.16380311686E+04  0.25500000920E-02 0. -1.
        2   -1    0    0  501    0  0.00000000000E+00  0.00000000000E+00 -0.24727487860E+04  0.24727487860E+04  0.25500000920E-02 0.  1.
    10030    2    1    2    0    0  0.00000000000E+00  0.00000000000E+00 -0.83471761738E+03  0.41107799546E+04  0.40251407844E+04 0.  0.
        5    1    3    3  502    0  0.13138067259E+04  0.10301200729E+04 -0.15651849783E+04  0.22884627119E+04  0.46999998093E+01 0.  1.
       -5    1    3    3    0  502 -0.13138067259E+04 -0.10301200729E+04  0.73046736091E+03  0.18223172427E+04  0.46999998093E+01 0. -1.
</event>
<event>
 5   0  0.2599332E-08  0.4002573E+04  0.7818609E-02  0.8004028E-01
        2   -1    0    0  501    0  0.00000000000E+00  0.00000000000E+00  0.15872185007E+04  0.15872185007E+04  0.25500000920E-02 0.  1.
       -2   -1    0    0    0  501  0.00000000000E+00  0.00000000000E+00 -0.25233747115E+04  0.25233747115E+04  0.25500000920E-02 0. -1.
    10030    2    1    2    0    0  0.00000000000E+00  0.00000000000E+00 -0.93615621080E+03  0.41105932123E+04  0.40025726859E+04 0.  0.
        2    1    3    3  502    0 -0.16100075912E+03  0.15749075286E+04  0.78925529545E+03  0.17689485266E+04  0.25500000920E-02 0.  1.
       -2    1    3    3    0  502  0.16100075912E+03 -0.15749075286E+04 -0.17254115063E+04  0.23416446857E+04  0.25500000920E-02 0. -1.
</event>
<event>
 5   0  0.8329875E-09  0.4014393E+04  0.7818609E-02  0.8001649E-01
       -1   -1    0    0    0  501  0.00000000000E+00  0.00000000000E+00  0.13479339421E+04  0.13479339421E+04  0.50400001928E-02 0. -1.
        1   -1    0    0  501    0  0.00000000000E+00  0.00000000000E+00 -0.29888991203E+04  0.29888991203E+04  0.50400001928E-02 0.  1.
    10030    2    1    2    0    0  0.00000000000E+00  0.00000000000E+00 -0.16409651782E+04  0.43368330624E+04  0.40143933906E+04 0.  0.
        1    1    3    3  502    0  0.13697236198E+04 -0.14344418834E+04 -0.11535864680E+04  0.22944559379E+04  0.50400001928E-02 0.  1.
       -1    1    3    3    0  502 -0.13697236198E+04  0.14344418834E+04 -0.48737871019E+03  0.20423771245E+04  0.50400001928E-02 0. -1.
</event>
<event>
 5   0  0.8329875E-09  0.4000676E+04  0.7818609E-02  0.8004410E-01
        1   -1    0    0  501    0  0.00000000000E+00  0.00000000000E+00  0.19412101999E+04  0.19412101999E+04  0.50400001928E-02 0.  1.
       -1   -1    0    0    0  501  0.00000000000E+00  0.00000000000E+00 -0.20612664593E+04  0.20612664593E+04  0.50400001928E-02 0. -1.
    10030    2    1    2    0    0  0.00000000000E+00  0.00000000000E+00 -0.12005625942E+03  0.40024766592E+04  0.40006756807E+04 0.  0.
        3    1    3    3  502    0  0.21665286650E+03 -0.56079003751E+03 -0.19687463997E+04  0.20584912745E+04  0.10100000352E+00 0.  1.
       -3    1    3    3    0  502 -0.21665286650E+03  0.56079003751E+03  0.18486901403E+04  0.19439853847E+04  0.10100000352E+00 0. -1.
</event>
<event>
 5   0  0.2612363E-08  0.4008163E+04  0.7818609E-02  0.8002902E-01
        2   -1    0    0  501    0  0.00000000000E+00  0.00000000000E+00  0.13532930655E+04  0.13532930655E+04  0.25500000920E-02 0.  1.
       -2   -1    0    0    0  501  0.00000000000E+00  0.00000000000E+00 -0.29678296102E+04  0.29678296102E+04  0.25500000920E-02 0. -1.
    10030    2    1    2    0    0  0.00000000000E+00  0.00000000000E+00 -0.16145365447E+04  0.43211226757E+04  0.40081632856E+04 0.  0.
        4    1    3    3  502    0  0.15469819386E+04 -0.89261969716E+03  0.17278848106E+03  0.17943746861E+04  0.12699999809E+01 0.  1.
       -4    1    3    3    0  502 -0.15469819386E+04  0.89261969716E+03 -0.17873250258E+04  0.25267479895E+04  0.12699999809E+01 0. -1.
</event>
<event>
 5   0  0.2612363E-08  0.3996504E+04  0.7818609E-02  0.8005252E-01
       -2   -1    0    0    0  501  0.00000000000E+00  0.00000000000E+00  0.18729648716E+04  0.18729648716E+04  0.25500000920E-02 0. -1.
        2   -1    0    0  501    0  0.00000000000E+00  0.00000000000E+00 -0.21319200004E+04  0.21319200004E+04  0.25500000920E-02 0.  1.
    10030    2    1    2    0    0  0.00000000000E+00  0.00000000000E+00 -0.25895512874E+03  0.40048848720E+04  0.39965041072E+04 0.  0.
        4    1    3    3  502    0 -0.56049843604E+03  0.14674754775E+04 -0.13671249505E+04  0.20824684913E+04  0.12699999809E+01 0.  1.
       -4    1    3    3    0  502  0.56049843604E+03 -0.14674754775E+04  0.11081698218E+04  0.19224163807E+04  0.12699999809E+01 0. -1.
</event>
<event>
 5   0  0.2746876E-08  0.4002424E+04  0.7818609E-02  0.8004058E-01
       -2   -1    0    0    0  501  0.00000000000E+00  0.00000000000E+00  0.21461349849E+04  0.21461349849E+04  0.25500000920E-02 0.  1.
        2   -1    0    0  501    0  0.00000000000E+00  0.00000000000E+00 -0.18660752342E+04  0.18660752342E+04  0.25500000920E-02 0. -1.
    10030    2    1    2    0    0  0.00000000000E+00  0.00000000000E+00  0.28005975073E+03  0.40122102191E+04  0.40024239378E+04 0.  0.
        1    1    3    3  502    0 -0.12716729333E+04  0.49460092724E+03  0.16075311560E+04  0.21085394339E+04  0.50400001928E-02 0.  1.
       -1    1    3    3    0  502  0.12716729333E+04 -0.49460092724E+03 -0.13274714053E+04  0.19036707852E+04  0.50400001928E-02 0. -1.
</event>
<event>
 5   0  0.2587493E-08  0.4001631E+04  0.7818609E-02  0.8004218E-01
       -2   -1    0    0    0  501  0.00000000000E+00  0.00000000000E+00  0.19579518233E+04  0.19579518233E+04  0.25500000920E-02 0. -1.
        2   -1    0    0  501    0  0.00000000000E+00  0.00000000000E+00 -0.20446177436E+04  0.20446177436E+04  0.25500000920E-02 0.  1.
    10030    2    1    2    0    0  0.00000000000E+00  0.00000000000E+00 -0.86665920297E+02  0.40025695669E+04  0.40016311869E+04 0.  0.
        5    1    3    3  502    0 -0.14174433121E+04 -0.12588181641E+04  0.59671727233E+03  0.19874260506E+04  0.46999998093E+01 0. -1.
       -5    1    3    3    0  502  0.14174433121E+04  0.12588181641E+04 -0.68338319262E+03  0.20151435163E+04  0.46999998093E+01 0.  1.
</event>
<event>
 5   0  0.8329875E-09  0.3991267E+04  0.7818609E-02  0.8006311E-01
        1   -1    0    0  501    0  0.00000000000E+00  0.00000000000E+00  0.21968211437E+04  0.21968211437E+04  0.50400001928E-02 0.  1.
       -1   -1    0    0    0  501  0.00000000000E+00  0.00000000000E+00 -0.18128709175E+04  0.18128709175E+04  0.50400001928E-02 0. -1.
    10030    2    1    2    0    0  0.00000000000E+00  0.00000000000E+00  0.38395022625E+03  0.40096920612E+04  0.39912670482E+04 0.  0.
        3    1    3    3  502    0  0.69898222675E+03  0.18498302939E+04 -0.77788003767E+02  0.19790147178E+04  0.10100000352E+00 0. -1.
       -3    1    3    3    0  502 -0.69898222675E+03 -0.18498302939E+04  0.46173823001E+03  0.20306773434E+04  0.10100000352E+00 0.  1.
</event>
<event>
 5   0  0.8329875E-09  0.4002434E+04  0.7818609E-02  0.8004056E-01
       -1   -1    0    0    0  501  0.00000000000E+00  0.00000000000E+00  0.20215450091E+04  0.20215450091E+04  0.50400001928E-02 0.  1.
        1   -1    0    0  501    0  0.00000000000E+00  0.00000000000E+00 -0.19810936964E+04  0.19810936964E+04  0.50400001928E-02 0. -1.
    10030    2    1    2    0    0  0.00000000000E+00  0.00000000000E+00  0.40451312713E+02  0.40026387055E+04  0.40024342966E+04 0.  0.
        1    1    3    3  502    0  0.19451096485E+04 -0.39864731502E+03  0.27023612016E+03  0.20038459989E+04  0.50400001928E-02 0.  1.
       -1    1    3    3    0  502 -0.19451096485E+04  0.39864731502E+03 -0.22978480745E+03  0.19987927067E+04  0.50400001928E-02 0. -1.
</event>
<event>
 5   0  0.2599332E-08  0.3994293E+04  0.7818609E-02  0.8005699E-01
       -2   -1    0    0    0  501  0.00000000000E+00  0.00000000000E+00  0.16647393919E+04  0.16647393919E+04  0.25500000920E-02 0.  1.
        2   -1    0    0  501    0  0.00000000000E+00  0.00000000000E+00 -0.23959266235E+04  0.23959266235E+04  0.25500000920E-02 0. -1.
    10030    2    1    2    0    0  0.00000000000E+00  0.00000000000E+00 -0.73118723154E+03  0.40606660154E+04  0.39942926434E+04 0.  0.
        2    1    3    3  502    0  0.18722670440E+04 -0.45569250877E+03 -0.89924870871E+03  0.21264260596E+04  0.25500000920E-02 0. -1.
       -2    1    3    3    0  502 -0.18722670440E+04  0.45569250877E+03  0.16806147717E+03  0.19342399558E+04  0.25500000920E-02 0.  1.
</event>
<event>
 5   0  0.8329875E-09  0.4000281E+04  0.7818609E-02  0.8004490E-01
        1   -1    0    0  501    0  0.00000000000E+00  0.00000000000E+00  0.11238038521E+04  0.11238038521E+04  0.50400001928E-02 0. -1.
       -1   -1    0    0    0  501  0.00000000000E+00  0.00000000000E+00 -0.35598395994E+04  0.35598395994E+04  0.50400001928E-02 0.  1.
    10030    2    1    2    0    0  0.00000000000E+00  0.00000000000E+00 -0.24360357474E+04  0.46836434515E+04  0.40002807175E+04 0.  0.
        5    1    3    3  502    0 -0.78264651408E+03  0.62410819276E+03  0.80940741884E+03  0.12873263230E+04  0.46999998093E+01 0. -1.
       -5    1    3    3    0  502  0.78264651408E+03 -0.62410819276E+03 -0.32454431662E+04  0.33963171285E+04  0.46999998093E+01 0.  1.
</event>
<event>
 5   0  0.8329875E-09  0.4001397E+04  0.7818609E-02  0.8004265E-01
        1   -1    0    0  501    0  0.00000000000E+00  0.00000000000E+00  0.19191796256E+04  0.19191796256E+04  0.50400001928E-02 0.  1.
       -1   -1    0    0    0  501  0.00000000000E+00  0.00000000000E+00 -0.20856799333E+04  0.20856799333E+04  0.50400001928E-02 0. -1.
    10030    2    1    2    0    0  0.00000000000E+00  0.00000000000E+00 -0.16650030778E+03  0.40048595589E+04  0.40013969728E+04 0.  0.
        3    1    3    3  502    0 -0.19273969821E+04  0.35745193591E+03  0.31730037130E+03  0.19857770642E+04  0.10100000352E+00 0.  1.
       -3    1    3    3    0  502  0.19273969821E+04 -0.35745193591E+03 -0.48380067908E+03  0.20190824947E+04  0.10100000352E+00 0. -1.
</event>
<event>
 5   0  0.8329875E-09  0.3995103E+04  0.7818609E-02  0.8005535E-01
        1   -1    0    0  501    0  0.00000000000E+00  0.00000000000E+00  0.12433494192E+04  0.12433494193E+04  0.50400001928E-02 0.  1.
       -1   -1    0    0    0  501  0.00000000000E+00  0.00000000000E+00 -0.32092447677E+04  0.32092447677E+04  0.50400001928E-02 0. -1.
    10030    2    1    2    0    0  0.00000000000E+00  0.00000000000E+00 -0.19658953485E+04  0.44525941870E+04  0.39951033119E+04 0.  0.
        2    1    3    3  502    0 -0.18042911464E+04  0.85580744685E+03 -0.92903828999E+03  0.22024951921E+04  0.25500000920E-02 0.  1.
       -2    1    3    3    0  502  0.18042911464E+04 -0.85580744685E+03 -0.10368570585E+04  0.22500989949E+04  0.25500000920E-02 0. -1.
</event>
<event>
 5   0  0.2599332E-08  0.4001551E+04  0.7818609E-02  0.8004234E-01
        2   -1    0    0  501    0  0.00000000000E+00  0.00000000000E+00  0.15394204518E+04  0.15394204518E+04  0.25500000920E-02 0.  1.
       -2   -1    0    0    0  501  0.00000000000E+00  0.00000000000E+00 -0.26003961657E+04  0.26003961657E+04  0.25500000920E-02 0. -1.
    10030    2    1    2    0    0  0.00000000000E+00  0.00000000000E+00 -0.10609757139E+04  0.41398166176E+04  0.40015512194E+04 0.  0.
        2    1    3    3  502    0 -0.17927072647E+04  0.45627602050E+03  0.25816176829E+03  0.18677887039E+04  0.25500000920E-02 0. -1.
       -2    1    3    3    0  502  0.17927072647E+04 -0.45627602050E+03 -0.13191374822E+04  0.22720279137E+04  0.25500000920E-02 0.  1.
</event>
<event>
 5   0  0.2650452E-08  0.3991662E+04  0.7818609E-02  0.8006231E-01
       -2   -1    0    0    0  501  0.00000000000E+00  0.00000000000E+00  0.14566526106E+04  0.14566526106E+04  0.25500000920E-02 0. -1.
        2   -1    0    0  501    0  0.00000000000E+00  0.00000000000E+00 -0.27345862335E+04  0.27345862335E+04  0.25500000920E-02 0.  1.
    10030    2    1    2    0    0  0.00000000000E+00  0.00000000000E+00 -0.12779336229E+04  0.41912388442E+04  0.39916623986E+04 0.  0.
        3    1    3    3  502    0 -0.12843301228E+04  0.88092636386E+03 -0.19494922004E+04  0.24952063988E+04  0.10100000352E+00 0.  1.
       -3    1    3    3    0  502  0.12843301228E+04 -0.88092636386E+03  0.67155857748E+03  0.16960324454E+04  0.10100000352E+00 0. -1.
</event>
<event>
 5   0  0.8329875E-09  0.3997083E+04  0.7818609E-02  0.8005135E-01
       -1   -1    0    0    0  501  0.00000000000E+00  0.00000000000E+00  0.23687793949E+04  0.23687793949E+04  0.50400001928E-02 0. -1.
        1   -1    0    0  501    0  0.00000000000E+00  0.00000000000E+00 -0.16861712403E+04  0.16861712403E+04  0.50400001928E-02 0.  1.
    10030    2    1    2    0    0  0.00000000000E+00  0.00000000000E+00  0.68260815460E+03  0.40549506353E+04  0.39970827815E+04 0.  0.
        5    1    3    3  502    0  0.12179338586E+03 -0.74084299639E+03 -0.15376615615E+04  0.17111712778E+04  0.46999998093E+01 0.  1.
       -5    1    3    3    0  502 -0.12179338586E+03  0.74084299639E+03  0.22202697161E+04  0.23437793575E+04  0.46999998093E+01 0. -1.
</event>
<event>
 5   0  0.8329875E-09  0.3998456E+04  0.7818609E-02  0.8004858E-01
        1   -1    0    0  501    0  0.00000000000E+00  0.00000000000E+00  0.22793128103E+04  0.22793128103E+04  0.50400001928E-02 0.  1.
       -1   -1    0    0    0  501  0.00000000000E+00  0.00000000000E+00 -0.17535601649E+04  0.17535601649E+04  0.50400001928E-02 0. -1.
    10030    2    1    2    0    0  0.00000000000E+00  0.00000000000E+00  0.52575264541E+03  0.40328729753E+04  0.39984557757E+04 0.  0.
        1    1    3    3  502    0 -0.40608900003E+03  0.11515713889E+04 -0.13337489735E+04  0.18082895962E+04  0.50400001928E-02 0. -1.
       -1    1    3    3    0  502  0.40608900003E+03 -0.11515713889E+04  0.18595016189E+04  0.22245833790E+04  0.50400001928E-02 0.  1.
</event>
<event>
 5   0  0.8329875E-09  0.4005336E+04  0.7818609E-02  0.8003471E-01
       -1   -1    0    0    0  501  0.00000000000E+00  0.00000000000E+00  0.16345806488E+04  0.16345806489E+04  0.50400001928E-02 0.  1.
        1   -1    0    0  501    0  0.00000000000E+00  0.00000000000E+00 -0.24536434829E+04  0.24536434829E+04  0.50400001928E-02 0. -1.
    10030    2    1    2    0    0  0.00000000000E+00  0.00000000000E+00 -0.81906283405E+03  0.40882241318E+04  0.40053355197E+04 0.  0.
        5    1    3    3  502    0  0.15129768802E+04  0.87604230186E+03 -0.14065294843E+04  0.22438574899E+04  0.46999998093E+01 0. -1.
       -5    1    3    3    0  502 -0.15129768802E+04 -0.87604230186E+03  0.58746665027E+03  0.18443666419E+04  0.46999998093E+01 0.  1.
</event>
<event>
 5   0  0.2587493E-08  0.4004225E+04  0.7818609E-02  0.8003695E-01
       -2   -1    0    0    0  501  0.00000000000E+00  0.00000000000E+00  0.20093392791E+04  0.20093392791E+04  0.25500000920E-02 0.  1.
        2   -1    0    0  501    0  0.00000000000E+00  0.00000000000E+00 -0.19949114401E+04  0.19949114401E+04  0.25500000920E-02 0. -1.
    10030    2    1    2    0    0  0.00000000000E+00  0.00000000000E+00  0.14427838963E+02  0.40042507192E+04  0.40042247264E+04 0.  0.
        5    1    3    3  502    0 -0.19068188077E+04  0.59416368879E+03  0.14665431066E+03  0.20026277815E+04  0.46999998093E+01 0. -1.
       -5    1    3    3    0  502  0.19068188077E+04 -0.59416368879E+03 -0.13222647170E+03  0.20016229376E+04  0.46999998093E+01 0.  1.
</event>
<event>
 5   0  0.2599332E-08  0.4003215E+04  0.7818609E-02  0.8003898E-01
       -2   -1    0    0    0  501  0.00000000000E+00  0.00000000000E+00  0.23988248398E+04  0.23988248398E+04  0.25500000920E-02 0.  1.
        2   -1    0    0  501    0  0.00000000000E+00  0.00000000000E+00 -0.16701644815E+04  0.16701644815E+04  0.25500000920E-02 0. -1.
    10030    2    1    2    0    0  0.00000000000E+00  0.00000000000E+00  0.72866035833E+03  0.40689893214E+04  0.40032147306E+04 0.  0.
        2    1    3    3  502    0  0.35766581558E+03 -0.16564251208E+04  0.14470853160E+04  0.22283906589E+04  0.25500000920E-02 0. -1.
       -2    1    3    3    0  502 -0.35766581558E+03  0.16564251208E+04 -0.71842495770E+03  0.18405986625E+04  0.25500000920E-02 0.  1.
</event>
<event>
 5   0  0.2599332E-08  0.4012957E+04  0.7818609E-02  0.8001938E-01
       -2   -1    0    0    0  501  0.00000000000E+00  0.00000000000E+00  0.19738660104E+04  0.19738660104E+04  0.25500000920E-02 0.  1.
        2   -1    0    0  501    0  0.00000000000E+00  0.00000000000E+00 -0.20396296251E+04  0.20396296251E+04  0.25500000920E-02 0. -1.
    10030    2    1    2    0    0  0.00000000000E+00  0.00000000000E+00 -0.65763614660E+02  0.40134956355E+04  0.40129568106E+04 0.  0.
        2    1    3    3  502    0 -0.11508742895E+04  0.13084001981E+04  0.96200443323E+03  0.19904459898E+04  0.25500000920E-02 0.  1.
       -2    1    3    3    0  502  0.11508742895E+04 -0.13084001981E+04 -0.10277680479E+04  0.20230496457E+04  0.25500000920E-02 0. -1.
</event>
<event>
 5   0  0.2587493E-08  0.3997834E+04  0.7818609E-02  0.8004984E-01
        2   -1    0    0  501    0  0.00000000000E+00  0.00000000000E+00  0.23317903813E+04  0.23317903813E+04  0.25500000920E-02 0. -1.
       -2   -1    0    0    0  501  0.00000000000E+00  0.00000000000E+00 -0.17135623801E+04  0.17135623801E+04  0.25500000920E-02 0.  1.
    10030    2    1    2    0    0  0.00000000000E+00  0.00000000000E+00  0.61822800123E+03  0.40453527614E+04  0.39978335511E+04 0.  0.
        5    1    3    3  502    0 -0.15831818741E+04  0.10521340348E+04 -0.31645377374E+03  0.19270744548E+04  0.46999998093E+01 0.  1.
       -5    1    3    3    0  502  0.15831818741E+04 -0.10521340348E+04  0.93468177497E+03  0.21182783066E+04  0.46999998093E+01 0. -1.
</event>
<event>
 5   0  0.2746876E-08  0.3989071E+04  0.7818609E-02  0.8006755E-01
        2   -1    0    0  501    0  0.00000000000E+00  0.00000000000E+00  0.25350008322E+04  0.25350008322E+04  0.25500000920E-02 0.  1.
       -2   -1    0    0    0  501  0.00000000000E+00  0.00000000000E+00 -0.15692977207E+04  0.15692977207E+04  0.25500000920E-02 0. -1.
    10030    2    1    2    0    0  0.00000000000E+00  0.00000000000E+00  0.96570311152E+03  0.41042985529E+04  0.39890705825E+04 0.  0.
        1    1    3    3  502    0 -0.31622665717E+03  0.15881126905E+04  0.16809934326E+04  0.23340608683E+04  0.50400001928E-02 0.  1.
       -1    1    3    3    0  502  0.31622665717E+03 -0.15881126905E+04 -0.71529032109E+03  0.17702376846E+04  0.50400001928E-02 0. -1.
</event>
<event>
 5   0  0.2599332E-08  0.3997869E+04  0.7818609E-02  0.8004977E-01
       -2   -1    0    0    0  501  0.00000000000E+00  0.00000000000E+00  0.15969447114E+04  0.15969447114E+04  0.25500000920E-02 0.  1.
        2   -1    0    0  501    0  0.00000000000E+00  0.00000000000E+00 -0.25021143133E+04  0.25021143133E+04  0.25500000920E-02 0. -1.
    10030    2    1    2    0    0  0.00000000000E+00  0.00000000000E+00 -0.90516960196E+03  0.40990590247E+04  0.39978685420E+04 0.  0.
        2    1    3    3  502    0 -0.19004540036E+03 -0.12611528669E+03  0.15835591254E+04  0.15999005667E+04  0.25500000920E-02 0.  1.
       -2    1    3    3    0  502  0.19004540036E+03  0.12611528669E+03 -0.24887287273E+04  0.24991584580E+04  0.25500000920E-02 0. -1.
</event>
<event>
 5   0  0.2746876E-08  0.3982293E+04  0.7818609E-02  0.8008128E-01
       -2   -1    0    0    0  501  0.00000000000E+00  0.00000000000E+00  0.13643865019E+04  0.13643865019E+04  0.25500000920E-02 0.  1.
        2   -1    0    0  501    0  0.00000000000E+00  0.00000000000E+00 -0.29058213907E+04  0.29058213907E+04  0.25500000920E-02 0. -1.
    10030    2    1    2    0    0  0.00000000000E+00  0.00000000000E+00 -0.15414348888E+04  0.42702078926E+04  0.39822925470E+04 0.  0.
        1    1    3    3  502    0  0.10364082828E+03 -0.18830979215E+04 -0.85901767740E+02  0.18879031535E+04  0.50400001928E-02 0.  1.
       -1    1    3    3    0  502 -0.10364082828E+03  0.18830979215E+04 -0.14555331210E+04  0.23823047391E+04  0.50400001928E-02 0. -1.
</event>
<event>
 5   0  0.8329875E-09  0.4017311E+04  0.7818609E-02  0.8001063E-01
        1   -1    0    0  501    0  0.00000000000E+00  0.00000000000E+00  0.13926103522E+04  0.13926103522E+04  0.50400001928E-02 0.  1.
       -1   -1    0    0    0  501  0.00000000000E+00  0.00000000000E+00 -0.28972193541E+04  0.28972193541E+04  0.50400001928E-02 0. -1.
    10030    2    1    2    0    0  0.00000000000E+00  0.00000000000E+00 -0.15046090019E+04  0.42898297063E+04  0.40173113721E+04 0.  0.
        4    1    3    3  502    0 -0.17368959679E+04 -0.58308065238E+03 -0.16315073879E+04  0.24532852708E+04  0.12699999809E+01 0. -1.
       -4    1    3    3    0  502  0.17368959679E+04  0.58308065238E+03  0.12689838597E+03  0.18365444355E+04  0.12699999809E+01 0.  1.
</event>
<event>
 5   0  0.8329875E-09  0.3993681E+04  0.7818609E-02  0.8005823E-01
        1   -1    0    0  501    0  0.00000000000E+00  0.00000000000E+00  0.20809485541E+04  0.20809485541E+04  0.50400001928E-02 0. -1.
       -1   -1    0    0    0  501  0.00000000000E+00  0.00000000000E+00 -0.19161317686E+04  0.19161317686E+04  0.50400001928E-02 0.  1.
    10030    2    1    2    0    0  0.00000000000E+00  0.00000000000E+00  0.16481678552E+03  0.39970803227E+04  0.39936808251E+04 0.  0.
        1    1    3    3  502    0 -0.15376161790E+04 -0.12212810518E+04  0.44545772148E+03  0.20135102441E+04  0.50400001928E-02 0. -1.
       -1    1    3    3    0  502  0.15376161790E+04  0.12212810518E+04 -0.28064093597E+03  0.19835700785E+04  0.50400001928E-02 0.  1.
</event>
<event>
 5   0  0.8329875E-09  0.4006695E+04  0.7818609E-02  0.8003197E-01
        1   -1    0    0  501    0  0.00000000000E+00  0.00000000000E+00  0.20769648974E+04  0.20769648974E+04  0.50400001928E-02 0. -1.
       -1   -1    0    0    0  501  0.00000000000E+00  0.00000000000E+00 -0.19323391138E+04  0.19323391139E+04  0.50400001928E-02 0.  1.
    10030    2    1    2    0    0  0.00000000000E+00  0.00000000000E+00  0.14462578353E+03  0.40093040112E+04  0.40066946524E+04 0.  0.
        4    1    3    3  502    0 -0.33463618172E+03 -0.39073053452E+03  0.20097419880E+04  0.20745399962E+04  0.12699999809E+01 0. -1.
       -4    1    3    3    0  502  0.33463618172E+03  0.39073053452E+03 -0.18651162045E+04  0.19347640150E+04  0.12699999809E+01 0.  1.
</event>
<event>
 5   0  0.2612363E-08  0.3966522E+04  0.7818609E-02  0.8011334E-01
        2   -1    0    0  501    0  0.00000000000E+00  0.00000000000E+00  0.23884324101E+04  0.23884324101E+04  0.25500000920E-02 0. -1.
       -2   -1    0    0    0  501  0.00000000000E+00  0.00000000000E+00 -0.16468220741E+04  0.16468220741E+04  0.25500000920E-02 0.  1.
    10030    2    1    2    0    0  0.00000000000E+00  0.00000000000E+00  0.74161033604E+03  0.40352544842E+04  0.39665215065E+04 0.  0.
        4    1    3    3  502    0  0.16925370367E+04  0.31971765327E+03  0.13709069606E+04  0.22014287420E+04  0.12699999809E+01 0.  1.
       -4    1    3    3    0  502 -0.16925370367E+04 -0.31971765327E+03 -0.62929662461E+03  0.18338257423E+04  0.12699999809E+01 0. -1.
</event>
<event>
 5   0  0.8329875E-09  0.3996784E+04  0.7818609E-02  0.8005196E-01
        1   -1    0    0  501    0  0.00000000000E+00  0.00000000000E+00  0.19790481003E+04  0.19790481003E+04  0.50400001928E-02 0.  1.
       -1   -1    0    0    0  501  0.00000000000E+00  0.00000000000E+00 -0.20179252226E+04  0.20179252226E+04  0.50400001928E-02 0. -1.
    10030    2    1    2    0    0  0.00000000000E+00  0.00000000000E+00 -0.38877122275E+02  0.39969733229E+04  0.39967842465E+04 0.  0.
        5    1    3    3  502    0 -0.64004313390E+03 -0.94751786442E+02 -0.19102728003E+04  0.20168781262E+04  0.46999998093E+01 0. -1.
       -5    1    3    3    0  502  0.64004313390E+03  0.94751786442E+02  0.18713956780E+04  0.19800951967E+04  0.46999998093E+01 0.  1.
</event>
<event>
 5   0  0.8329875E-09  0.4026314E+04  0.7818609E-02  0.7999259E-01
        1   -1    0    0  501    0  0.00000000000E+00  0.00000000000E+00  0.24908819530E+04  0.24908819530E+04  0.50400001928E-02 0.  1.
       -1   -1    0    0    0  501  0.00000000000E+00  0.00000000000E+00 -0.16270543699E+04  0.16270543699E+04  0.50400001928E-02 0. -1.
    10030    2    1    2    0    0  0.00000000000E+00  0.00000000000E+00  0.86382758304E+03  0.41179363229E+04  0.40263136324E+04 0.  0.
        2    1    3    3  502    0  0.13045174612E+04 -0.15137891538E+04  0.18248510551E+03  0.20066450165E+04  0.25500000920E-02 0. -1.
       -2    1    3    3    0  502 -0.13045174612E+04  0.15137891538E+04  0.68134247753E+03  0.21112913064E+04  0.25500000920E-02 0.  1.
</event>
<event>
 5   0  0.8329875E-09  0.4003504E+04  0.7818609E-02  0.8003840E-01
        1   -1    0    0  501    0  0.00000000000E+00  0.00000000000E+00  0.11893217977E+04  0.11893217977E+04  0.50400001928E-02 0. -1.
       -1   -1    0    0    0  501  0.00000000000E+00  0.00000000000E+00 -0.33691556153E+04  0.33691556153E+04  0.50400001928E-02 0.  1.
    10030    2    1    2    0    0  0.00000000000E+00  0.00000000000E+00 -0.21798338176E+04  0.45584774130E+04  0.40035035722E+04 0.  0.
        4    1    3    3  502    0 -0.14246694339E+04  0.13968551066E+04 -0.12739423807E+04  0.23672384728E+04  0.12699999809E+01 0.  1.
       -4    1    3    3    0  502  0.14246694339E+04 -0.13968551066E+04 -0.90589143688E+03  0.21912389402E+04  0.12699999809E+01 0. -1.
</event>
<event>
 5   0  0.8329875E-09  0.4005549E+04  0.7818609E-02  0.8003428E-01
        1   -1    0    0  501    0  0.00000000000E+00  0.00000000000E+00  0.22548335226E+04  0.22548335226E+04  0.50400001928E-02 0.  1.
       -1   -1    0    0    0  501  0.00000000000E+00  0.00000000000E+00 -0.17788924979E+04  0.17788924979E+04  0.50400001928E-02 0. -1.
    10030    2    1    2    0    0  0.00000000000E+00  0.00000000000E+00  0.47594102466E+03  0.40337260205E+04  0.40055493693E+04 0.  0.
        4    1    3    3  502    0 -0.65126174125E+03 -0.10247625922E+04  0.18419157185E+04  0.22061131777E+04  0.12699999809E+01 0.  1.
       -4    1    3    3    0  502  0.65126174125E+03  0.10247625922E+04 -0.13659746939E+04  0.18276128428E+04  0.12699999809E+01 0. -1.
</event>
<event>
 5   0  0.2650452E-08  0.3994033E+04  0.7818609E-02  0.8005751E-01
       -2   -1    0    0    0  501  0.00000000000E+00  0.00000000000E+00  0.30865557106E+04  0.30865557106E+04  0.25500000920E-02 0.  1.
        2   -1    0    0  501    0  0.00000000000E+00  0.00000000000E+00 -0.12920791296E+04  0.12920791296E+04  0.25500000920E-02 0. -1.
    10030    2    1    2    0    0  0.00000000000E+00  0.00000000000E+00  0.17944765810E+04  0.43786348402E+04  0.39940326568E+04 0.  0.
        3    1    3    3  502    0 -0.17211508013E+04  0.53214337846E+03  0.18419217842E+04  0.25764728847E+04  0.10100000352E+00 0.  1.
       -3    1    3    3    0  502  0.17211508013E+04 -0.53214337846E+03 -0.47445203279E+02  0.18021619555E+04  0.10100000352E+00 0. -1.
</event>
<event>
 5   0  0.8329875E-09  0.4001785E+04  0.7818609E-02  0.8004187E-01
        1   -1    0    0  501    0  0.00000000000E+00  0.00000000000E+00  0.23453149229E+04  0.23453149229E+04  0.50400001928E-02 0.  1.
       -1   -1    0    0    0  501  0.00000000000E+00  0.00000000000E+00 -0.17070504842E+04  0.17070504842E+04  0.50400001928E-02 0. -1.
    10030    2    1    2    0    0  0.00000000000E+00  0.00000000000E+00  0.63826443862E+03  0.40523654071E+04  0.40017850891E+04 0.  0.
        2    1    3    3  502    0  0.45050883631E+03  0.17421610258E+04 -0.56684785078E+03  0.18866371505E+04  0.25500000920E-02 0. -1.
       -2    1    3    3    0  502 -0.45050883631E+03 -0.17421610258E+04  0.12051122894E+04  0.21657282566E+04  0.25500000920E-02 0.  1.
</event>
<event>
 5   0  0.2650452E-08  0.4029522E+04  0.7818609E-02  0.7998617E-01
        2   -1    0    0  501    0  0.00000000000E+00  0.00000000000E+00  0.29979553273E+04  0.29979553273E+04  0.25500000920E-02 0. -1.
       -2   -1    0    0    0  501  0.00000000000E+00  0.00000000000E+00 -0.13540102499E+04  0.13540102499E+04  0.25500000920E-02 0.  1.
    10030    2    1    2    0    0  0.00000000000E+00  0.00000000000E+00  0.16439450774E+04  0.43519655772E+04  0.40295221761E+04 0.  0.
        3    1    3    3  502    0 -0.18482476456E+04  0.43390857132E+03  0.93486086530E+02  0.19007986917E+04  0.10100000352E+00 0. -1.
       -3    1    3    3    0  502  0.18482476456E+04 -0.43390857132E+03  0.15504589909E+04  0.24511668855E+04  0.10100000352E+00 0.  1.
</event>
<event>
 5   0  0.8329875E-09  0.3998652E+04  0.7818609E-02  0.8004819E-01
        3   -1    0    0  501    0  0.00000000000E+00  0.00000000000E+00  0.19883708435E+04  0.19883708460E+04  0.10100000352E+00 0.  1.
       -3   -1    0    0    0  501  0.00000000000E+00  0.00000000000E+00 -0.20103413311E+04  0.20103413336E+04  0.10100000352E+00 0. -1.
    10030    2    1    2    0    0  0.00000000000E+00  0.00000000000E+00 -0.21970487626E+02  0.39987121796E+04  0.39986518220E+04 0.  0.
        3    1    3    3  502    0  0.71662564176E+03 -0.16366746886E+04 -0.90824331445E+03  0.20042859764E+04  0.10100000352E+00 0. -1.
       -3    1    3    3    0  502 -0.71662564176E+03  0.16366746886E+04  0.88627282682E+03  0.19944262033E+04  0.10100000352E+00 0.  1.
</event>
<event>
 5   0  0.2650452E-08  0.4000240E+04  0.7818609E-02  0.8004498E-01
       -2   -1    0    0    0  501  0.00000000000E+00  0.00000000000E+00  0.20573665275E+04  0.20573665275E+04  0.25500000920E-02 0. -1.
        2   -1    0    0  501    0  0.00000000000E+00  0.00000000000E+00 -0.19444660374E+04  0.19444660374E+04  0.25500000920E-02 0.  1.
    10030    2    1    2    0    0  0.00000000000E+00  0.00000000000E+00  0.11290049013E+03  0.40018325649E+04  0.40002396624E+04 0.  0.
        3    1    3    3  502    0  0.93714525462E+03 -0.17556102336E+04 -0.14380640869E+03  0.19952666022E+04  0.10100000352E+00 0.  1.
       -3    1    3    3    0  502 -0.93714525462E+03  0.17556102336E+04  0.25670689882E+03  0.20065659627E+04  0.10100000352E+00 0. -1.
</event>
<event>
 5   0  0.8329875E-09  0.3995830E+04  0.7818609E-02  0.8005388E-01
        1   -1    0    0  501    0  0.00000000000E+00  0.00000000000E+00  0.13735350306E+04  0.13735350306E+04  0.50400001928E-02 0.  1.
       -1   -1    0    0    0  501  0.00000000000E+00  0.00000000000E+00 -0.29061253875E+04  0.29061253875E+04  0.50400001928E-02 0. -1.
    10030    2    1    2    0    0  0.00000000000E+00  0.00000000000E+00 -0.15325903568E+04  0.42796604181E+04  0.39958303383E+04 0.  0.
        3    1    3    3  502    0  0.24992558648E+03  0.18532608744E+04 -0.15195482172E+04  0.24095778597E+04  0.10100000352E+00 0. -1.
       -3    1    3    3    0  502 -0.24992558648E+03 -0.18532608744E+04 -0.13042139643E+02  0.18700825584E+04  0.10100000352E+00 0.  1.
</event>
<event>
 5   0  0.8329875E-09  0.3997425E+04  0.7818609E-02  0.8005066E-01
        1   -1    0    0  501    0  0.00000000000E+00  0.00000000000E+00  0.15993388006E+04  0.15993388006E+04  0.50400001928E-02 0. -1.
       -1   -1    0    0    0  501  0.00000000000E+00  0.00000000000E+00 -0.24978141789E+04  0.24978141789E+04  0.50400001928E-02 0.  1.
    10030    2    1    2    0    0  0.00000000000E+00  0.00000000000E+00 -0.89847537834E+03  0.40971529795E+04  0.39974247375E+04 0.  0.
        5    1    3    3  502    0  0.80513275862E+03  0.96003641625E+03  0.11468274962E+04  0.16985711865E+04  0.46999998093E+01 0. -1.
       -5    1    3    3    0  502 -0.80513275862E+03 -0.96003641625E+03 -0.20453028745E+04  0.23985817931E+04  0.46999998093E+01 0.  1.
</event>
<event>
 5   0  0.2587493E-08  0.4007785E+04  0.7818609E-02  0.8002978E-01
        2   -1    0    0  501    0  0.00000000000E+00  0.00000000000E+00  0.20512059809E+04  0.20512059809E+04  0.25500000920E-02 0.  1.
       -2   -1    0    0    0  501  0.00000000000E+00  0.00000000000E+00 -0.19576700085E+04  0.19576700085E+04  0.25500000920E-02 0. -1.
    10030    2    1    2    0    0  0.00000000000E+00  0.00000000000E+00  0.93535972367E+02  0.40088759893E+04  0.40077846399E+04 0.  0.
        5    1    3    3  502    0  0.35889603238E+03  0.17881569692E+04  0.87720525576E+03  0.20238139389E+04  0.46999998093E+01 0.  1.
       -5    1    3    3    0  502 -0.35889603238E+03 -0.17881569692E+04 -0.78366928339E+03  0.19850620505E+04  0.46999998093E+01 0. -1.
</event>
<event>
 5   0  0.8329875E-09  0.4046327E+04  0.7818609E-02  0.7995266E-01
        1   -1    0    0  501    0  0.00000000000E+00  0.00000000000E+00  0.11990403190E+04  0.11990403190E+04  0.50400001928E-02 0.  1.
       -1   -1    0    0    0  501  0.00000000000E+00  0.00000000000E+00 -0.34137216162E+04  0.34137216162E+04  0.50400001928E-02 0. -1.
    10030    2    1    2    0    0  0.00000000000E+00  0.00000000000E+00 -0.22146812972E+04  0.46127619352E+04  0.40463266580E+04 0.  0.
        3    1    3    3  502    0 -0.57309948419E+02  0.17951144309E+04 -0.21691027801E+04  0.28161546710E+04  0.10100000352E+00 0. -1.
       -3    1    3    3    0  502  0.57309948419E+02 -0.17951144309E+04 -0.45578517101E+02  0.17966072642E+04  0.10100000352E+00 0.  1.
</event>
<event>
 5   0  0.8329875E-09  0.3992127E+04  0.7818609E-02  0.8006137E-01
       -1   -1    0    0    0  501  0.00000000000E+00  0.00000000000E+00  0.19584051561E+04  0.19584051561E+04  0.50400001928E-02 0. -1.
        1   -1    0    0  501    0  0.00000000000E+00  0.00000000000E+00 -0.20344459678E+04  0.20344459678E+04  0.50400001928E-02 0.  1.
    10030    2    1    2    0    0  0.00000000000E+00  0.00000000000E+00 -0.76040811710E+02  0.39928511240E+04  0.39921269886E+04 0.  0.
        2    1    3    3  502    0 -0.12103458560E+03  0.14619647767E+04  0.13158421690E+04  0.19706422793E+04  0.25500000920E-02 0. -1.
       -2    1    3    3    0  502  0.12103458560E+03 -0.14619647767E+04 -0.13918829807E+04  0.20222088446E+04  0.25500000920E-02 0.  1.
</event>
<event>
 5   0  0.2599332E-08  0.3997169E+04  0.7818609E-02  0.8005118E-01
       -2   -1    0    0    0  501  0.00000000000E+00  0.00000000000E+00  0.13357402989E+04  0.13357402989E+04  0.25500000920E-02 0.  1.
        2   -1    0    0  501    0  0.00000000000E+00  0.00000000000E+00 -0.29903570933E+04  0.29903570933E+04  0.25500000920E-02 0. -1.
    10030    2    1    2    0    0  0.00000000000E+00  0.00000000000E+00 -0.16546167944E+04  0.43260973922E+04  0.39971692372E+04 0.  0.
        2    1    3    3  502    0  0.18924549098E+04  0.90781206919E+02 -0.13878660600E+03  0.18997074868E+04  0.25500000920E-02 0.  1.
       -2    1    3    3    0  502 -0.18924549098E+04 -0.90781206919E+02 -0.15158301884E+04  0.24263899055E+04  0.25500000920E-02 0. -1.
</event>
<event>
 5   0  0.2599332E-08  0.4021824E+04  0.7818609E-02  0.8000158E-01
       -2   -1    0    0    0  501  0.00000000000E+00  0.00000000000E+00  0.19769372194E+04  0.19769372194E+04  0.25500000920E-02 0.  1.
        2   -1    0    0  501    0  0.00000000000E+00  0.00000000000E+00 -0.20454710778E+04  0.20454710778E+04  0.25500000920E-02 0. -1.
    10030    2    1    2    0    0  0.00000000000E+00  0.00000000000E+00 -0.68533858414E+02  0.40224082972E+04  0.40218244143E+04 0.  0.
        2    1    3    3  502    0 -0.22947155171E+03  0.67059716067E+03 -0.19164036162E+04  0.20432720243E+04  0.25500000920E-02 0. -1.
       -2    1    3    3    0  502  0.22947155171E+03 -0.67059716067E+03  0.18478697578E+04  0.19791362729E+04  0.25500000920E-02 0.  1.
</event>
<event>
 5   0  0.2612363E-08  0.3915416E+04  0.7818609E-02  0.8021831E-01
       -2   -1    0    0    0  501  0.00000000000E+00  0.00000000000E+00  0.15576596468E+04  0.15576596468E+04  0.25500000920E-02 0. -1.
        2   -1    0    0  501    0  0.00000000000E+00  0.00000000000E+00 -0.24604990007E+04  0.24604990007E+04  0.25500000920E-02 0.  1.
    10030    2    1    2    0    0  0.00000000000E+00  0.00000000000E+00 -0.90283935381E+03  0.40181586475E+04  0.39154156890E+04 0.  0.
        4    1    3    3  502    0 -0.46239703712E+03  0.13447778320E+04  0.92939078607E+03  0.16988252657E+04  0.12699999809E+01 0. -1.
       -4    1    3    3    0  502  0.46239703712E+03 -0.13447778320E+04 -0.18322301399E+04  0.23193333818E+04  0.12699999809E+01 0.  1.
</event>
<event>
 5   0  0.2746876E-08  0.3975803E+04  0.7818609E-02  0.8009446E-01
       -2   -1    0    0    0  501  0.00000000000E+00  0.00000000000E+00  0.16545062737E+04  0.16545062737E+04  0.25500000920E-02 0.  1.
        2   -1    0    0  501    0  0.00000000000E+00  0.00000000000E+00 -0.23884780864E+04  0.23884780864E+04  0.25500000920E-02 0. -1.
    10030    2    1    2    0    0  0.00000000000E+00  0.00000000000E+00 -0.73397181268E+03  0.40429843601E+04  0.39758028013E+04 0.  0.
        1    1    3    3  502    0 -0.15226499412E+03  0.12420151488E+04  0.12037722584E+04  0.17363334669E+04  0.50400001928E-02 0.  1.
       -1    1    3    3    0  502  0.15226499412E+03 -0.12420151488E+04 -0.19377440711E+04  0.23066508932E+04  0.50400001928E-02 0. -1.
</event>
<event>
 5   0  0.2587493E-08  0.4004778E+04  0.7818609E-02  0.8003583E-01
       -2   -1    0    0    0  501  0.00000000000E+00  0.00000000000E+00  0.34258278464E+04  0.34258278464E+04  0.25500000920E-02 0. -1.
        2   -1    0    0  501    0  0.00000000000E+00  0.00000000000E+00 -0.11703918261E+04  0.11703918261E+04  0.25500000920E-02 0.  1.
    10030    2    1    2    0    0  0.00000000000E+00  0.00000000000E+00  0.22554360203E+04  0.45962196726E+04  0.40047776014E+04 0.  0.
        5    1    3    3  502    0 -0.15465266755E+04  0.12616502467E+04  0.13128929090E+04  0.23889780207E+04  0.46999998093E+01 0.  1.
       -5    1    3    3    0  502  0.15465266755E+04 -0.12616502467E+04  0.94254311127E+03  0.22072416518E+04  0.46999998093E+01 0. -1.
</event>
<event>
 5   0  0.2599332E-08  0.3997242E+04  0.7818609E-02  0.8005103E-01
       -2   -1    0    0    0  501  0.00000000000E+00  0.00000000000E+00  0.28847992911E+04  0.28847992911E+04  0.25500000920E-02 0. -1.
        2   -1    0    0  501    0  0.00000000000E+00  0.00000000000E+00 -0.13846666423E+04  0.13846666423E+04  0.25500000920E-02 0.  1.
    10030    2    1    2    0    0  0.00000000000E+00  0.00000000000E+00  0.15001326488E+04  0.42694659334E+04  0.39972417230E+04 0.  0.
        2    1    3    3  502    0 -0.11873098940E+04 -0.27429393313E+03  0.24421058204E+04  0.27292531551E+04  0.25500000920E-02 0. -1.
       -2    1    3    3    0  502  0.11873098940E+04  0.27429393313E+03 -0.94197317168E+03  0.15402127783E+04  0.25500000920E-02 0.  1.
</event>
<event>
 5   0  0.2746876E-08  0.4001042E+04  0.7818609E-02  0.8004336E-01
       -2   -1    0    0    0  501  0.00000000000E+00  0.00000000000E+00  0.15044192054E+04  0.15044192054E+04  0.25500000920E-02 0.  1.
        2   -1    0    0  501    0  0.00000000000E+00  0.00000000000E+00 -0.26602187490E+04  0.26602187490E+04  0.25500000920E-02 0. -1.
    10030    2    1    2    0    0  0.00000000000E+00  0.00000000000E+00 -0.11557995436E+04  0.41646379544E+04  0.40010419526E+04 0.  0.
        1    1    3    3  502    0  0.10133458627E+04  0.10731459606E+04  0.82771274385E+03  0.16922235303E+04  0.50400001928E-02 0.  1.
       -1    1    3    3    0  502 -0.10133458627E+04 -0.10731459606E+04 -0.19835122874E+04  0.24724144241E+04  0.50400001928E-02 0. -1.
</event>
<event>
 5   0  0.8329875E-09  0.4000005E+04  0.7818609E-02  0.8004546E-01
       -1   -1    0    0    0  501  0.00000000000E+00  0.00000000000E+00  0.13580169287E+04  0.13580169288E+04  0.50400001928E-02 0. -1.
        1   -1    0    0  501    0  0.00000000000E+00  0.00000000000E+00 -0.29454788282E+04  0.29454788282E+04  0.50400001928E-02 0.  1.
    10030    2    1    2    0    0  0.00000000000E+00  0.00000000000E+00 -0.15874618994E+04  0.43034957569E+04  0.40000050560E+04 0.  0.
        3    1    3    3  502    0 -0.78628839750E+03  0.26157452486E+03 -0.27520966899E+04  0.28741445470E+04  0.10100000352E+00 0.  1.
       -3    1    3    3    0  502  0.78628839750E+03 -0.26157452486E+03  0.11646347905E+04  0.14293512100E+04  0.10100000352E+00 0. -1.
</event>
<event>
 5   0  0.2587493E-08  0.4005609E+04  0.7818609E-02  0.8003416E-01
       -2   -1    0    0    0  501  0.00000000000E+00  0.00000000000E+00  0.19671181301E+04  0.19671181301E+04  0.25500000920E-02 0.  1.
        2   -1    0    0  501    0  0.00000000000E+00  0.00000000000E+00 -0.20391387237E+04  0.20391387237E+04  0.25500000920E-02 0. -1.
    10030    2    1    2    0    0  0.00000000000E+00  0.00000000000E+00 -0.72020593597E+02  0.40062568538E+04  0.40056094434E+04 0.  0.
        5    1    3    3  502    0 -0.86638011280E+03 -0.48439476704E+02 -0.18413626444E+04  0.20355832975E+04  0.46999998093E+01 0. -1.
       -5    1    3    3    0  502  0.86638011280E+03  0.48439476704E+02  0.17693420508E+04  0.19706735563E+04  0.46999998093E+01 0.  1.
</event>
<event>
 5   0  0.8329875E-09  0.4006531E+04  0.7818609E-02  0.8003230E-01
        1   -1    0    0  501    0  0.00000000000E+00  0.00000000000E+00  0.21412614130E+04  0.21412614130E+04  0.50400001928E-02 0.  1.
       -1   -1    0    0    0  501  0.00000000000E+00  0.00000000000E+00 -0.18741625916E+04  0.18741625916E+04  0.50400001928E-02 0. -1.
    10030    2    1    2    0    0  0.00000000000E+00  0.00000000000E+00  0.26709882142E+03  0.40154240047E+04  0.40065306884E+04 0.  0.
        4    1    3    3  502    0 -0.81107135440E+03 -0.32615918638E+03 -0.16729092441E+04  0.18875496043E+04  0.12699999809E+01 0. -1.
       -4    1    3    3    0  502  0.81107135440E+03  0.32615918638E+03  0.19400080655E+04  0.21278744004E+04  0.12699999809E+01 0.  1.
</event>
<event>
 5   0  0.2746876E-08  0.4000547E+04  0.7818609E-02  0.8004436E-01
        2   -1    0    0  501    0  0.00000000000E+00  0.00000000000E+00  0.16440680644E+04  0.16440680644E+04  0.25500000920E-02 0. -1.
       -2   -1    0    0    0  501  0.00000000000E+00  0.00000000000E+00 -0.24336541602E+04  0.24336541602E+04  0.25500000920E-02 0.  1.
    10030    2    1    2    0    0  0.00000000000E+00  0.00000000000E+00 -0.78958609577E+03  0.40777222246E+04  0.40005465049E+04 0.  0.
        1    1    3    3  502    0 -0.40383479259E+03  0.43441236865E+03  0.15523725439E+04  0.16618234445E+04  0.50400001928E-02 0. -1.
       -1    1    3    3    0  502  0.40383479259E+03 -0.43441236865E+03 -0.23419586396E+04  0.24158987801E+04  0.50400001928E-02 0.  1.
</event>
<event>
 5   0  0.2599332E-08  0.3948230E+04  0.7818609E-02  0.8015072E-01
       -2   -1    0    0    0  501  0.00000000000E+00  0.00000000000E+00  0.17361316297E+04  0.17361316297E+04  0.25500000920E-02 0.  1.
        2   -1    0    0  501    0  0.00000000000E+00  0.00000000000E+00 -0.22447207336E+04  0.22447207336E+04  0.25500000920E-02 0. -1.
    10030    2    1    2    0    0  0.00000000000E+00  0.00000000000E+00 -0.50858910394E+03  0.39808523633E+04  0.39482303202E+04 0.  0.
        2    1    3    3  502    0 -0.12483875229E+04 -0.41915895133E+03  0.12285592709E+04  0.18009784885E+04  0.25500000920E-02 0.  1.
       -2    1    3    3    0  502  0.12483875229E+04  0.41915895133E+03 -0.17371483748E+04  0.21798738748E+04  0.25500000920E-02 0. -1.
</event>
<event>
 5   0  0.8329875E-09  0.4000767E+04  0.7818609E-02  0.8004392E-01
       -3   -1    0    0    0  501  0.00000000000E+00  0.00000000000E+00  0.20546431851E+04  0.20546431876E+04  0.10100000352E+00 0. -1.
        3   -1    0    0  501    0  0.00000000000E+00  0.00000000000E+00 -0.19475570959E+04  0.19475570985E+04  0.10100000352E+00 0.  1.
    10030    2    1    2    0    0  0.00000000000E+00  0.00000000000E+00  0.10708608918E+03  0.40022002861E+04  0.40007673889E+04 0.  0.
        4    1    3    3  502    0 -0.95158434472E+03 -0.82342968147E+03  0.16090868228E+04  0.20427215233E+04  0.12699999809E+01 0. -1.
       -4    1    3    3    0  502  0.95158434472E+03  0.82342968147E+03 -0.15020007336E+04  0.19594787629E+04  0.12699999809E+01 0.  1.
</event>
<event>
 5   0  0.2612363E-08  0.3997611E+04  0.7818609E-02  0.8005029E-01
        2   -1    0    0  501    0  0.00000000000E+00  0.00000000000E+00  0.22850761497E+04  0.22850761497E+04  0.25500000920E-02 0. -1.
       -2   -1    0    0    0  501  0.00000000000E+00  0.00000000000E+00 -0.17483987092E+04  0.17483987092E+04  0.25500000920E-02 0.  1.
    10030    2    1    2    0    0  0.00000000000E+00  0.00000000000E+00  0.53667744049E+03  0.40334748589E+04  0.39976113821E+04 0.  0.
        4    1    3    3  502    0  0.14781577280E+03  0.11203393377E+04  0.19318299341E+04  0.22380746729E+04  0.12699999809E+01 0. -1.
       -4    1    3    3    0  502 -0.14781577280E+03 -0.11203393377E+04 -0.13951524936E+04  0.17954001859E+04  0.12699999809E+01 0.  1.
</event>
<event>
 5   0  0.2587493E-08  0.4027299E+04  0.7818609E-02  0.7999062E-01
        2   -1    0    0  501    0  0.00000000000E+00  0.00000000000E+00  0.13658439070E+04  0.13658439070E+04  0.25500000920E-02 0.  1.
       -2   -1    0    0    0  501  0.00000000000E+00  0.00000000000E+00 -0.29687030835E+04  0.29687030835E+04  0.25500000920E-02 0. -1.
    10030    2    1    2    0    0  0.00000000000E+00  0.00000000000E+00 -0.16028591766E+04  0.43345469905E+04  0.40272993523E+04 0.  0.
        5    1    3    3  502    0 -0.75270691086E+02  0.11779182908E+03 -0.29634686576E+04  0.29667674608E+04  0.46999998093E+01 0. -1.
       -5    1    3    3    0  502  0.75270691086E+02 -0.11779182908E+03  0.13606094810E+04  0.13677795297E+04  0.46999998093E+01 0.  1.
</event>
<event>
 5   0  0.8329875E-09  0.3996756E+04  0.7818609E-02  0.8005201E-01
        1   -1    0    0  501    0  0.00000000000E+00  0.00000000000E+00  0.14271668460E+04  0.14271668460E+04  0.50400001928E-02 0.  1.
       -1   -1    0    0    0  501  0.00000000000E+00  0.00000000000E+00 -0.27982114480E+04  0.27982114480E+04  0.50400001928E-02 0. -1.
    10030    2    1    2    0    0  0.00000000000E+00  0.00000000000E+00 -0.13710446020E+04  0.42253782940E+04  0.39967559879E+04 0.  0.
        4    1    3    3  502    0 -0.11998257323E+04  0.34648537487E+03  0.96380733466E+03  0.15775170662E+04  0.12699999809E+01 0.  1.
       -4    1    3    3    0  502  0.11998257323E+04 -0.34648537487E+03 -0.23348519367E+04  0.26478612279E+04  0.12699999809E+01 0. -1.
</event>
<event>
 5   0  0.2746876E-08  0.3990035E+04  0.7818609E-02  0.8006560E-01
        2   -1    0    0  501    0  0.00000000000E+00  0.00000000000E+00  0.22486497503E+04  0.22486497503E+04  0.25500000920E-02 0. -1.
       -2   -1    0    0    0  501  0.00000000000E+00  0.00000000000E+00 -0.17699931021E+04  0.17699931021E+04  0.25500000920E-02 0.  1.
    10030    2    1    2    0    0  0.00000000000E+00  0.00000000000E+00  0.47865664825E+03  0.40186428524E+04  0.39900348605E+04 0.  0.
        1    1    3    3  502    0  0.12056209406E+04 -0.44601137126E+03 -0.12972731235E+04  0.18262983197E+04  0.50400001928E-02 0.  1.
       -1    1    3    3    0  502 -0.12056209406E+04  0.44601137126E+03  0.17759297718E+04  0.21923445327E+04  0.50400001928E-02 0. -1.
</event>
<event>
 5   0  0.8329875E-09  0.3998956E+04  0.7818609E-02  0.8004757E-01
        1   -1    0    0  501    0  0.00000000000E+00  0.00000000000E+00  0.24405673078E+04  0.24405673078E+04  0.50400001928E-02 0. -1.
       -1   -1    0    0    0  501  0.00000000000E+00  0.00000000000E+00 -0.16381073674E+04  0.16381073674E+04  0.50400001928E-02 0.  1.
    10030    2    1    2    0    0  0.00000000000E+00  0.00000000000E+00  0.80245994046E+03  0.40786746752E+04  0.39989555074E+04 0.  0.
        3    1    3    3  502    0 -0.28054949590E+03  0.17336705279E+04  0.13761031116E+04  0.22311390147E+04  0.10100000352E+00 0.  1.
       -3    1    3    3    0  502  0.28054949590E+03 -0.17336705279E+04 -0.57364317114E+03  0.18475356605E+04  0.10100000352E+00 0. -1.
</event>
<event>
 5   0  0.8329875E-09  0.4009039E+04  0.7818609E-02  0.8002726E-01
        1   -1    0    0  501    0  0.00000000000E+00  0.00000000000E+00  0.18965203815E+04  0.18965203815E+04  0.50400001928E-02 0. -1.
       -1   -1    0    0    0  501  0.00000000000E+00  0.00000000000E+00 -0.21186685883E+04  0.21186685883E+04  0.50400001928E-02 0.  1.
    10030    2    1    2    0    0  0.00000000000E+00  0.00000000000E+00 -0.22214820689E+03  0.40151889698E+04  0.40090388670E+04 0.  0.
        3    1    3    3  502    0 -0.50266940371E+03  0.41668709619E+03  0.17870360050E+04  0.19025778194E+04  0.10100000352E+00 0. -1.
       -3    1    3    3    0  502  0.50266940371E+03 -0.41668709619E+03 -0.20091842119E+04  0.21126111504E+04  0.10100000352E+00 0.  1.
</event>
<event>
 5   0  0.8329875E-09  0.3985448E+04  0.7818609E-02  0.8007489E-01
        1   -1    0    0  501    0  0.00000000000E+00  0.00000000000E+00  0.29421868057E+04  0.29421868057E+04  0.50400001928E-02 0. -1.
       -1   -1    0    0    0  501  0.00000000000E+00  0.00000000000E+00 -0.13496588172E+04  0.13496588172E+04  0.50400001928E-02 0.  1.
    10030    2    1    2    0    0  0.00000000000E+00  0.00000000000E+00  0.15925279885E+04  0.42918456229E+04  0.39854477109E+04 0.  0.
        1    1    3    3  502    0  0.18294998457E+04 -0.77362741177E+03  0.62470762315E+03  0.20822652742E+04  0.50400001928E-02 0.  1.
       -1    1    3    3    0  502 -0.18294998457E+04  0.77362741177E+03  0.96782036538E+03  0.22095803487E+04  0.50400001928E-02 0. -1.
</event>
<event>
 5   0  0.2650452E-08  0.3995768E+04  0.7818609E-02  0.8005401E-01
       -2   -1    0    0    0  501  0.00000000000E+00  0.00000000000E+00  0.18506816069E+04  0.18506816069E+04  0.25500000920E-02 0. -1.
        2   -1    0    0  501    0  0.00000000000E+00  0.00000000000E+00 -0.21567946555E+04  0.21567946555E+04  0.25500000920E-02 0.  1.
    10030    2    1    2    0    0  0.00000000000E+00  0.00000000000E+00 -0.30611304859E+03  0.40074762624E+04  0.39957678605E+04 0.  0.
        3    1    3    3  502    0  0.12790645724E+04  0.14535182043E+04 -0.64726694383E+03  0.20414886376E+04  0.10100000352E+00 0. -1.
       -3    1    3    3    0  502 -0.12790645724E+04 -0.14535182043E+04  0.34115389524E+03  0.19659876248E+04  0.10100000352E+00 0.  1.
</event>
<event>
 5   0  0.2650452E-08  0.3966855E+04  0.7818609E-02  0.8011267E-01
       -2   -1    0    0    0  501  0.00000000000E+00  0.00000000000E+00  0.18360781561E+04  0.18360781561E+04  0.25500000920E-02 0.  1.
        2   -1    0    0  501    0  0.00000000000E+00  0.00000000000E+00 -0.21426014978E+04  0.21426014978E+04  0.25500000920E-02 0. -1.
    10030    2    1    2    0    0  0.00000000000E+00  0.00000000000E+00 -0.30652334174E+03  0.39786796539E+04  0.39668545763E+04 0.  0.
        3    1    3    3  502    0  0.69579437733E+03 -0.12779186143E+04  0.11986353908E+04  0.18851876858E+04  0.10100000352E+00 0.  1.
       -3    1    3    3    0  502 -0.69579437733E+03  0.12779186143E+04 -0.15051587326E+04  0.20934919682E+04  0.10100000352E+00 0. -1.
</event>
<event>
 5   0  0.2587493E-08  0.3995780E+04  0.7818609E-02  0.8005398E-01
       -2   -1    0    0    0  501  0.00000000000E+00  0.00000000000E+00  0.18251723819E+04  0.18251723819E+04  0.25500000920E-02 0.  1.
        2   -1    0    0  501    0  0.00000000000E+00  0.00000000000E+00 -0.21869523151E+04  0.21869523151E+04  0.25500000920E-02 0. -1.
    10030    2    1    2    0    0  0.00000000000E+00  0.00000000000E+00 -0.36177993320E+03  0.40121246970E+04  0.39957802572E+04 0.  0.
        5    1    3    3  502    0  0.50506620215E+02  0.31310719430E+03  0.17997291969E+04  0.18274666360E+04  0.46999998093E+01 0.  1.
       -5    1    3    3    0  502 -0.50506620215E+02 -0.31310719430E+03 -0.21615091301E+04  0.21846580609E+04  0.46999998093E+01 0. -1.
</event>
<event>
 5   0  0.8329875E-09  0.3999806E+04  0.7818609E-02  0.8004586E-01
       -1   -1    0    0    0  501  0.00000000000E+00  0.00000000000E+00  0.19431930852E+04  0.19431930852E+04  0.50400001928E-02 0. -1.
        1   -1    0    0  501    0  0.00000000000E+00  0.00000000000E+00 -0.20582680089E+04  0.20582680089E+04  0.50400001928E-02 0.  1.
    10030    2    1    2    0    0  0.00000000000E+00  0.00000000000E+00 -0.11507492363E+03  0.40014610941E+04  0.39998060765E+04 0.  0.
        2    1    3    3  502    0  0.95395821153E+03  0.28930196690E+03 -0.17920023051E+04  0.20506106795E+04  0.25500000920E-02 0.  1.
       -2    1    3    3    0  502 -0.95395821153E+03 -0.28930196690E+03  0.16769273815E+04  0.19508504146E+04  0.25500000920E-02 0. -1.
</event>
<event>
 5   0  0.8329875E-09  0.3995994E+04  0.7818609E-02  0.8005355E-01
        1   -1    0    0  501    0  0.00000000000E+00  0.00000000000E+00  0.30191909830E+04  0.30191909830E+04  0.50400001928E-02 0. -1.
       -1   -1    0    0    0  501  0.00000000000E+00  0.00000000000E+00 -0.13222058709E+04  0.13222058709E+04  0.50400001928E-02 0.  1.
    10030    2    1    2    0    0  0.00000000000E+00  0.00000000000E+00  0.16969851121E+04  0.43413968540E+04  0.39959940156E+04 0.  0.
        4    1    3    3  502    0  0.78197880874E+03  0.15942259714E+04  0.18436021601E+04  0.25596714326E+04  0.12699999809E+01 0. -1.
       -4    1    3    3    0  502 -0.78197880874E+03 -0.15942259714E+04 -0.14661704804E+03  0.17817254213E+04  0.12699999809E+01 0.  1.
</event>
<event>
 5   0  0.2599332E-08  0.3995630E+04  0.7818609E-02  0.8005429E-01
       -2   -1    0    0    0  501  0.00000000000E+00  0.00000000000E+00  0.18703835141E+04  0.18703835141E+04  0.25500000920E-02 0.  1.
        2   -1    0    0  501    0  0.00000000000E+00  0.00000000000E+00 -0.21339288357E+04  0.21339288357E+04  0.25500000920E-02 0. -1.
    10030    2    1    2    0    0  0.00000000000E+00  0.00000000000E+00 -0.26354532163E+03  0.40043123498E+04  0.39956302704E+04 0.  0.
        2    1    3    3  502    0  0.15417441779E+04  0.60250764737E+03 -0.12528071923E+04  0.20759374837E+04  0.25500000920E-02 0. -1.
       -2    1    3    3    0  502 -0.15417441779E+04 -0.60250764737E+03  0.98926187067E+03  0.19283748660E+04  0.25500000920E-02 0.  1.
</event>
<event>
 5   0  0.2650452E-08  0.3999231E+04  0.7818609E-02  0.8004702E-01
        2   -1    0    0  501    0  0.00000000000E+00  0.00000000000E+00  0.22208578223E+04  0.22208578223E+04  0.25500000920E-02 0. -1.
       -2   -1    0    0    0  501  0.00000000000E+00  0.00000000000E+00 -0.18004129869E+04  0.18004129869E+04  0.25500000920E-02 0.  1.
    10030    2    1    2    0    0  0.00000000000E+00  0.00000000000E+00  0.42044483548E+03  0.40212708092E+04  0.39992305587E+04 0.  0.
        3    1    3    3  502    0  0.12849936229E+02 -0.19813150937E+04 -0.60867994018E+02  0.19822914882E+04  0.10100000352E+00 0.  1.
       -3    1    3    3    0  502 -0.12849936229E+02  0.19813150937E+04  0.48131282949E+03  0.20389793210E+04  0.10100000352E+00 0. -1.
</event>
<event>
 5   0  0.8329875E-09  0.3986146E+04  0.7818609E-02  0.8007347E-01
        1   -1    0    0  501    0  0.00000000000E+00  0.00000000000E+00  0.21431470096E+04  0.21431470096E+04  0.50400001928E-02 0.  1.
       -1   -1    0    0    0  501  0.00000000000E+00  0.00000000000E+00 -0.18535083970E+04  0.18535083970E+04  0.50400001928E-02 0. -1.
    10030    2    1    2    0    0  0.00000000000E+00  0.00000000000E+00  0.28963861263E+03  0.39966554067E+04  0.39861464993E+04 0.  0.
        1    1    3    3  502    0  0.50920964375E+03 -0.22419158844E+03  0.20637051618E+04  0.21373898391E+04  0.50400001928E-02 0.  1.
       -1    1    3    3    0  502 -0.50920964375E+03  0.22419158844E+03 -0.17740665492E+04  0.18592655675E+04  0.50400001928E-02 0. -1.
</event>
<event>
 5   0  0.2587493E-08  0.4043049E+04  0.7818609E-02  0.7995918E-01
       -2   -1    0    0    0  501  0.00000000000E+00  0.00000000000E+00  0.29697573149E+04  0.29697573149E+04  0.25500000920E-02 0. -1.
        2   -1    0    0  501    0  0.00000000000E+00  0.00000000000E+00 -0.13760586820E+04  0.13760586820E+04  0.25500000920E-02 0.  1.
    10030    2    1    2    0    0  0.00000000000E+00  0.00000000000E+00  0.15936986329E+04  0.43458159969E+04  0.40430485214E+04 0.  0.
        5    1    3    3  502    0  0.68631232029E+03 -0.79698520356E+03 -0.10587936897E+04  0.14924061723E+04  0.46999998093E+01 0.  1.
       -5    1    3    3    0  502 -0.68631232029E+03  0.79698520356E+03  0.26524923226E+04  0.28534098246E+04  0.46999998093E+01 0. -1.
</event>
<event>
 5   0  0.8329875E-09  0.4000655E+04  0.7818609E-02  0.8004414E-01
        1   -1    0    0  501    0  0.00000000000E+00  0.00000000000E+00  0.15279175882E+04  0.15279175882E+04  0.50400001928E-02 0.  1.
       -1   -1    0    0    0  501  0.00000000000E+00  0.00000000000E+00 -0.26188000390E+04  0.26188000390E+04  0.50400001928E-02 0. -1.
    10030    2    1    2    0    0  0.00000000000E+00  0.00000000000E+00 -0.10908824507E+04  0.41467176272E+04  0.40006552661E+04 0.  0.
        4    1    3    3  502    0  0.53240118527E+03 -0.72018548847E+03  0.13084891000E+04  0.15856429288E+04  0.12699999809E+01 0.  1.
       -4    1    3    3    0  502 -0.53240118527E+03  0.72018548847E+03 -0.23993715507E+04  0.25610746985E+04  0.12699999809E+01 0. -1.
</event>
<event>
 5   0  0.8329875E-09  0.4008872E+04  0.7818609E-02  0.8002759E-01
       -1   -1    0    0    0  501  0.00000000000E+00  0.00000000000E+00  0.16759485703E+04  0.16759485703E+04  0.50400001928E-02 0.  1.
        1   -1    0    0  501    0  0.00000000000E+00  0.00000000000E+00 -0.23973071594E+04  0.23973071594E+04  0.50400001928E-02 0. -1.
    10030    2    1    2    0    0  0.00000000000E+00  0.00000000000E+00 -0.72135858912E+03  0.40732557296E+04  0.40088719143E+04 0.  0.
        5    1    3    3  502    0  0.14153962997E+04 -0.14166866984E+04 -0.27331270064E+03  0.20211555628E+04  0.46999998093E+01 0. -1.
       -5    1    3    3    0  502 -0.14153962997E+04  0.14166866984E+04 -0.44804588848E+03  0.20521001669E+04  0.46999998093E+01 0.  1.
</event>
<event>
 5   0  0.2599332E-08  0.4008673E+04  0.7818609E-02  0.8002799E-01
       -2   -1    0    0    0  501  0.00000000000E+00  0.00000000000E+00  0.20003196621E+04  0.20003196621E+04  0.25500000920E-02 0. -1.
        2   -1    0    0  501    0  0.00000000000E+00  0.00000000000E+00 -0.20083612346E+04  0.20083612346E+04  0.25500000920E-02 0.  1.
    10030    2    1    2    0    0  0.00000000000E+00  0.00000000000E+00 -0.80415725365E+01  0.40086808967E+04  0.40086728308E+04 0.  0.
        2    1    3    3  502    0  0.86494431592E+03  0.13142424444E+04 -0.12457972553E+04  0.20068315011E+04  0.25500000920E-02 0.  1.
       -2    1    3    3    0  502 -0.86494431592E+03 -0.13142424444E+04  0.12377556828E+04  0.20018493956E+04  0.25500000920E-02 0. -1.
</event>
<event>
 5   0  0.8329875E-09  0.4003982E+04  0.7818609E-02  0.8003744E-01
        1   -1    0    0  501    0  0.00000000000E+00  0.00000000000E+00  0.25584550515E+04  0.25584550515E+04  0.50400001928E-02 0. -1.
       -1   -1    0    0    0  501  0.00000000000E+00  0.00000000000E+00 -0.15665575623E+04  0.15665575623E+04  0.50400001928E-02 0.  1.
    10030    2    1    2    0    0  0.00000000000E+00  0.00000000000E+00  0.99189748920E+03  0.41250126138E+04  0.40039815728E+04 0.  0.
        1    1    3    3  502    0 -0.17783598606E+03 -0.19812576239E+04  0.72851496583E+03  0.21184290088E+04  0.50400001928E-02 0.  1.
       -1    1    3    3    0  502  0.17783598606E+03  0.19812576239E+04  0.26338252337E+03  0.20065836050E+04  0.50400001928E-02 0. -1.
</event>
<event>
 5   0  0.8329875E-09  0.3999806E+04  0.7818609E-02  0.8004586E-01
        1   -1    0    0  501    0  0.00000000000E+00  0.00000000000E+00  0.15379447042E+04  0.15379447042E+04  0.50400001928E-02 0. -1.
       -1   -1    0    0    0  501  0.00000000000E+00  0.00000000000E+00 -0.26006220934E+04  0.26006220934E+04  0.50400001928E-02 0.  1.
    10030    2    1    2    0    0  0.00000000000E+00  0.00000000000E+00 -0.10626773893E+04  0.41385667976E+04  0.39998064834E+04 0.  0.
        2    1    3    3  502    0 -0.18054104915E+04  0.54694149975E+03  0.15574721872E+03  0.18928574281E+04  0.25500000920E-02 0.  1.
       -2    1    3    3    0  502  0.18054104915E+04 -0.54694149975E+03 -0.12184246080E+04  0.22457093695E+04  0.25500000920E-02 0. -1.
</event>
<event>
 5   0  0.2587493E-08  0.4002361E+04  0.7818609E-02  0.8004070E-01
        2   -1    0    0  501    0  0.00000000000E+00  0.00000000000E+00  0.28467281253E+04  0.28467281253E+04  0.25500000920E-02 0. -1.
       -2   -1    0    0    0  501  0.00000000000E+00  0.00000000000E+00 -0.14067811264E+04  0.14067811264E+04  0.25500000920E-02 0.  1.
    10030    2    1    2    0    0  0.00000000000E+00  0.00000000000E+00  0.14399469990E+04  0.42535092517E+04  0.40023610025E+04 0.  0.
        5    1    3    3  502    0  0.15469213690E+04  0.76220537653E+03 -0.35900753210E+03  0.17614855253E+04  0.46999998093E+01 0.  1.
       -5    1    3    3    0  502 -0.15469213690E+04 -0.76220537653E+03  0.17989545310E+04  0.24920237263E+04  0.46999998093E+01 0. -1.
</event>
<event>
 5   0  0.2612363E-08  0.3980732E+04  0.7818609E-02  0.8008445E-01
        2   -1    0    0  501    0  0.00000000000E+00  0.00000000000E+00  0.22254705733E+04  0.22254705733E+04  0.25500000920E-02 0. -1.
       -2   -1    0    0    0  501  0.00000000000E+00  0.00000000000E+00 -0.17800987951E+04  0.17800987951E+04  0.25500000920E-02 0.  1.
    10030    2    1    2    0    0  0.00000000000E+00  0.00000000000E+00  0.44537177825E+03  0.40055693684E+04  0.39807323376E+04 0.  0.
        4    1    3    3  502    0 -0.55199439717E+03  0.73003777149E+03 -0.15557984461E+04  0.18050383320E+04  0.12699999809E+01 0.  1.
       -4    1    3    3    0  502  0.55199439717E+03 -0.73003777149E+03  0.20011702243E+04  0.22005310364E+04  0.12699999809E+01 0. -1.
</event>
<event>
 5   0  0.8329875E-09  0.3989601E+04  0.7818609E-02  0.8006648E-01
        1   -1    0    0  501    0  0.00000000000E+00  0.00000000000E+00  0.21109014045E+04  0.21109014045E+04  0.50400001928E-02 0. -1.
       -1   -1    0    0    0  501  0.00000000000E+00  0.00000000000E+00 -0.18850848966E+04  0.18850848966E+04  0.50400001928E-02 0.  1.
    10030    2    1    2    0    0  0.00000000000E+00  0.00000000000E+00  0.22581650794E+03  0.39959863011E+04  0.39896006596E+04 0.  0.
        2    1    3    3  502    0  0.16493926773E+03  0.17446770051E+04 -0.84157323253E+03  0.19440546082E+04  0.25500000920E-02 0. -1.
       -2    1    3    3    0  502 -0.16493926773E+03 -0.17446770051E+04  0.10673897405E+04  0.20519316928E+04  0.25500000920E-02 0.  1.
</event>
<event>
 5   0  0.8329875E-09  0.4003101E+04  0.7818609E-02  0.8003921E-01
       -1   -1    0    0    0  501  0.00000000000E+00  0.00000000000E+00  0.17928541115E+04  0.17928541116E+04  0.50400001928E-02 0.  1.
        1   -1    0    0  501    0  0.00000000000E+00  0.00000000000E+00 -0.22345406130E+04  0.22345406130E+04  0.50400001928E-02 0. -1.
    10030    2    1    2    0    0  0.00000000000E+00  0.00000000000E+00 -0.44168650143E+03  0.40273947245E+04  0.40031014603E+04 0.  0.
        5    1    3    3  502    0  0.12009784091E+04  0.79622982450E+03  0.11767783999E+04  0.18604194595E+04  0.46999998093E+01 0.  1.
       -5    1    3    3    0  502 -0.12009784091E+04 -0.79622982450E+03 -0.16184649014E+04  0.21669752651E+04  0.46999998093E+01 0. -1.
</event>
<event>
 5   0  0.8329875E-09  0.4000082E+04  0.7818609E-02  0.8004530E-01
       -1   -1    0    0    0  501  0.00000000000E+00  0.00000000000E+00  0.20566246336E+04  0.20566246336E+04  0.50400001928E-02 0. -1.
        1   -1    0    0  501    0  0.00000000000E+00  0.00000000000E+00 -0.19450142970E+04  0.19450142970E+04  0.50400001928E-02 0.  1.
    10030    2    1    2    0    0  0.00000000000E+00  0.00000000000E+00  0.11161033659E+03  0.40016389306E+04  0.40000821572E+04 0.  0.
        2    1    3    3  502    0 -0.17163721560E+04 -0.10266667216E+04  0.42147717054E+02  0.20004385432E+04  0.25500000920E-02 0.  1.
       -2    1    3    3    0  502  0.17163721560E+04  0.10266667216E+04  0.69462619540E+02  0.20012003874E+04  0.25500000920E-02 0. -1.
</event>
<event>
 5   0  0.2650452E-08  0.4002073E+04  0.7818609E-02  0.8004128E-01
        2   -1    0    0  501    0  0.00000000000E+00  0.00000000000E+00  0.16179548302E+04  0.16179548302E+04  0.25500000920E-02 0.  1.
       -2   -1    0    0    0  501  0.00000000000E+00  0.00000000000E+00 -0.24748201097E+04  0.24748201097E+04  0.25500000920E-02 0. -1.
    10030    2    1    2    0    0  0.00000000000E+00  0.00000000000E+00 -0.85686527951E+03  0.40927749399E+04  0.40020730380E+04 0.  0.
        3    1    3    3  502    0 -0.27186511769E+03  0.27679604096E+03  0.15791217596E+04  0.16260849401E+04  0.10100000352E+00 0.  1.
       -3    1    3    3    0  502  0.27186511769E+03 -0.27679604096E+03 -0.24359870391E+04  0.24666899999E+04  0.10100000352E+00 0. -1.
</event>
<event>
 5   0  0.8329875E-09  0.3983990E+04  0.7818609E-02  0.8007784E-01
        1   -1    0    0  501    0  0.00000000000E+00  0.00000000000E+00  0.25870099773E+04  0.25870099773E+04  0.50400001928E-02 0.  1.
       -1   -1    0    0    0  501  0.00000000000E+00  0.00000000000E+00 -0.15338338660E+04  0.15338338660E+04  0.50400001928E-02 0. -1.
    10030    2    1    2    0    0  0.00000000000E+00  0.00000000000E+00  0.10531761113E+04  0.41208438433E+04  0.39839897163E+04 0.  0.
        4    1    3    3  502    0 -0.15677457480E+04 -0.74741143209E+03  0.15355927468E+04  0.23182962011E+04  0.12699999809E+01 0.  1.
       -4    1    3    3    0  502  0.15677457480E+04  0.74741143209E+03 -0.48241663558E+03  0.18025476422E+04  0.12699999809E+01 0. -1.
</event>
<event>
 5   0  0.8329875E-09  0.4011261E+04  0.7818609E-02  0.8002279E-01
        1   -1    0    0  501    0  0.00000000000E+00  0.00000000000E+00  0.15746683209E+04  0.15746683209E+04  0.50400001928E-02 0.  1.
       -1   -1    0    0    0  501  0.00000000000E+00  0.00000000000E+00 -0.25545405521E+04  0.25545405521E+04  0.50400001928E-02 0. -1.
    10030    2    1    2    0    0  0.00000000000E+00  0.00000000000E+00 -0.97987223125E+03  0.41292088730E+04  0.40112611892E+04 0.  0.
        3    1    3    3  502    0  0.14801980243E+04  0.90578664502E+03  0.54517488607E+03  0.18189698469E+04  0.10100000352E+00 0.  1.
       -3    1    3    3    0  502 -0.14801980243E+04 -0.90578664502E+03 -0.15250471173E+04  0.23102390261E+04  0.10100000352E+00 0. -1.
</event>
<event>
 5   0  0.2746876E-08  0.3986772E+04  0.7818609E-02  0.8007220E-01
        2   -1    0    0  501    0  0.00000000000E+00  0.00000000000E+00  0.18914791737E+04  0.18914791737E+04  0.25500000920E-02 0. -1.
       -2   -1    0    0    0  501  0.00000000000E+00  0.00000000000E+00 -0.21007831249E+04  0.21007831250E+04  0.25500000920E-02 0.  1.
    10030    2    1    2    0    0  0.00000000000E+00  0.00000000000E+00 -0.20930395126E+03  0.39922622986E+04  0.39867718918E+04 0.  0.
        1    1    3    3  502    0  0.16458435962E+04  0.35499103070E+03  0.96394824686E+03  0.19401072130E+04  0.50400001928E-02 0. -1.
       -1    1    3    3    0  502 -0.16458435962E+04 -0.35499103070E+03 -0.11732521981E+04  0.20521550857E+04  0.50400001928E-02 0.  1.
</event>
<event>
 5   0  0.8329875E-09  0.4031617E+04  0.7818609E-02  0.7998199E-01
        1   -1    0    0  501    0  0.00000000000E+00  0.00000000000E+00  0.27175458705E+04  0.27175458705E+04  0.50400001928E-02 0. -1.
       -1   -1    0    0    0  501  0.00000000000E+00  0.00000000000E+00 -0.14952771979E+04  0.14952771979E+04  0.50400001928E-02 0.  1.
    10030    2    1    2    0    0  0.00000000000E+00  0.00000000000E+00  0.12222686727E+04  0.42128230684E+04  0.40316172310E+04 0.  0.
        1    1    3    3  502    0 -0.86106819974E+03 -0.65770315116E+03  0.23873807314E+04  0.26217548772E+04  0.50400001928E-02 0. -1.
       -1    1    3    3    0  502  0.86106819974E+03  0.65770315116E+03 -0.11651120587E+04  0.15910681912E+04  0.50400001928E-02 0.  1.
</event>
<event>
 5   0  0.2650452E-08  0.3989842E+04  0.7818609E-02  0.8006599E-01
       -2   -1    0    0    0  501  0.00000000000E+00  0.00000000000E+00  0.27822339712E+04  0.27822339712E+04  0.25500000920E-02 0.  1.
        2   -1    0    0  501    0  0.00000000000E+00  0.00000000000E+00 -0.14304009085E+04  0.14304009085E+04  0.25500000920E-02 0. -1.
    10030    2    1    2    0    0  0.00000000000E+00  0.00000000000E+00  0.13518330627E+04  0.42126348797E+04  0.39898421022E+04 0.  0.
        3    1    3    3  502    0 -0.90863879471E+03  0.17716572497E+04  0.80658550919E+03  0.21482490692E+04  0.10100000352E+00 0.  1.
       -3    1    3    3    0  502  0.90863879471E+03 -0.17716572497E+04  0.54524755355E+03  0.20643858105E+04  0.10100000352E+00 0. -1.
</event>
<event>
 5   0  0.2650452E-08  0.4003872E+04  0.7818609E-02  0.8003766E-01
       -2   -1    0    0    0  501  0.00000000000E+00  0.00000000000E+00  0.15843308357E+04  0.15843308357E+04  0.25500000920E-02 0. -1.
        2   -1    0    0  501    0  0.00000000000E+00  0.00000000000E+00 -0.25296151199E+04  0.25296151199E+04  0.25500000920E-02 0.  1.
    10030    2    1    2    0    0  0.00000000000E+00  0.00000000000E+00 -0.94528428419E+03  0.41139459555E+04  0.40038717446E+04 0.  0.
        3    1    3    3  502    0  0.31942363839E+03  0.59678718182E+03 -0.24084655459E+04  0.25017779072E+04  0.10100000352E+00 0.  1.
       -3    1    3    3    0  502 -0.31942363839E+03 -0.59678718182E+03  0.14631812617E+04  0.16121680483E+04  0.10100000352E+00 0. -1.
</event>
<event>
 5   0  0.2612363E-08  0.4004293E+04  0.7818609E-02  0.8003681E-01
       -2   -1    0    0    0  501  0.00000000000E+00  0.00000000000E+00  0.13929049357E+04  0.13929049357E+04  0.25500000920E-02 0. -1.
        2   -1    0    0  501    0  0.00000000000E+00  0.00000000000E+00 -0.28778634964E+04  0.28778634964E+04  0.25500000920E-02 0.  1.
    10030    2    1    2    0    0  0.00000000000E+00  0.00000000000E+00 -0.14849585608E+04  0.42707684321E+04  0.40042928307E+04 0.  0.
        4    1    3    3  502    0  0.70908967313E+03 -0.11773965209E+04  0.81026072014E+03  0.15954920180E+04  0.12699999809E+01 0. -1.
       -4    1    3    3    0  502 -0.70908967313E+03  0.11773965209E+04 -0.22952192809E+04  0.26752764142E+04  0.12699999809E+01 0.  1.
</event>
<event>
 5   0  0.8329875E-09  0.4003064E+04  0.7818609E-02  0.8003929E-01
        1   -1    0    0  501    0  0.00000000000E+00  0.00000000000E+00  0.16093087110E+04  0.16093087110E+04  0.50400001928E-02 0.  1.
       -1   -1    0    0    0  501  0.00000000000E+00  0.00000000000E+00 -0.24893481424E+04  0.24893481424E+04  0.50400001928E-02 0. -1.
    10030    2    1    2    0    0  0.00000000000E+00  0.00000000000E+00 -0.88003943139E+03  0.40986568534E+04  0.40030636519E+04 0.  0.
        5    1    3    3  502    0  0.13472243261E+04  0.61036711201E+03  0.94071813103E+03  0.17528645379E+04  0.46999998093E+01 0.  1.
       -5    1    3    3    0  502 -0.13472243261E+04 -0.61036711201E+03 -0.18207575624E+04  0.23457923155E+04  0.46999998093E+01 0. -1.
</event>
<event>
 5   0  0.2612363E-08  0.4007317E+04  0.7818609E-02  0.8003072E-01
       -2   -1    0    0    0  501  0.00000000000E+00  0.00000000000E+00  0.27517381242E+04  0.27517381242E+04  0.25500000920E-02 0. -1.
        2   -1    0    0  501    0  0.00000000000E+00  0.00000000000E+00 -0.14589497462E+04  0.14589497462E+04  0.25500000920E-02 0.  1.
    10030    2    1    2    0    0  0.00000000000E+00  0.00000000000E+00  0.12927883780E+04  0.42106878704E+04  0.40073171264E+04 0.  0.
        4    1    3    3  502    0  0.12997916857E+04 -0.15248364500E+04  0.63816073787E+03  0.21028160561E+04  0.12699999809E+01 0. -1.
       -4    1    3    3    0  502 -0.12997916857E+04  0.15248364500E+04  0.65462764011E+03  0.21078718143E+04  0.12699999809E+01 0.  1.
</event>
<event>
 5   0  0.8329875E-09  0.3975646E+04  0.7818609E-02  0.8009478E-01
        1   -1    0    0  501    0  0.00000000000E+00  0.00000000000E+00  0.14930576224E+04  0.14930576224E+04  0.50400001928E-02 0.  1.
       -1   -1    0    0    0  501  0.00000000000E+00  0.00000000000E+00 -0.26465422603E+04  0.26465422603E+04  0.50400001928E-02 0. -1.
    10030    2    1    2    0    0  0.00000000000E+00  0.00000000000E+00 -0.11534846379E+04  0.41395998826E+04  0.39756459071E+04 0.  0.
        5    1    3    3  502    0 -0.83425772475E+03 -0.17538293827E+04 -0.13557788189E+03  0.19468710556E+04  0.46999998093E+01 0.  1.
       -5    1    3    3    0  502  0.83425772475E+03  0.17538293827E+04 -0.10179067560E+04  0.21927288271E+04  0.46999998093E+01 0. -1.
</event>
<event>
 5   0  0.2746876E-08  0.3998912E+04  0.7818609E-02  0.8004766E-01
       -2   -1    0    0    0  501  0.00000000000E+00  0.00000000000E+00  0.17327634525E+04  0.17327634525E+04  0.25500000920E-02 0. -1.
        2   -1    0    0  501    0  0.00000000000E+00  0.00000000000E+00 -0.23071960896E+04  0.23071960896E+04  0.25500000920E-02 0.  1.
    10030    2    1    2    0    0  0.00000000000E+00  0.00000000000E+00 -0.57443263709E+03  0.40399595421E+04  0.39989123831E+04 0.  0.
        1    1    3    3  502    0  0.15916909039E+04  0.19066869241E+03 -0.14944679421E+04  0.21916361271E+04  0.50400001928E-02 0.  1.
       -1    1    3    3    0  502 -0.15916909039E+04 -0.19066869241E+03  0.92003530504E+03  0.18483234150E+04  0.50400001928E-02 0. -1.
</event>
<event>
 5   0  0.8329875E-09  0.4003383E+04  0.7818609E-02  0.8003864E-01
        1   -1    0    0  501    0  0.00000000000E+00  0.00000000000E+00  0.14625789651E+04  0.14625789651E+04  0.50400001928E-02 0.  1.
       -1   -1    0    0    0  501  0.00000000000E+00  0.00000000000E+00 -0.27395232088E+04  0.27395232089E+04  0.50400001928E-02 0. -1.
    10030    2    1    2    0    0  0.00000000000E+00  0.00000000000E+00 -0.12769442437E+04  0.42021021740E+04  0.40033830792E+04 0.  0.
        2    1    3    3  502    0  0.15125462044E+04 -0.98167680587E+03 -0.15506814311E+04  0.23782553001E+04  0.25500000920E-02 0. -1.
       -2    1    3    3    0  502 -0.15125462044E+04  0.98167680587E+03  0.27373718741E+03  0.18238468739E+04  0.25500000920E-02 0.  1.
</event>
<event>
 5   0  0.2587493E-08  0.3992950E+04  0.7818609E-02  0.8005970E-01
       -2   -1    0    0    0  501  0.00000000000E+00  0.00000000000E+00  0.34100323597E+04  0.34100323597E+04  0.25500000920E-02 0.  1.
        2   -1    0    0  501    0  0.00000000000E+00  0.00000000000E+00 -0.11688784105E+04  0.11688784105E+04  0.25500000920E-02 0. -1.
    10030    2    1    2    0    0  0.00000000000E+00  0.00000000000E+00  0.22411539492E+04  0.45789107702E+04  0.39929503901E+04 0.  0.
        5    1    3    3  502    0 -0.48220042452E+03  0.16112241810E+04 -0.11308723670E+03  0.16856368007E+04  0.46999998093E+01 0. -1.
       -5    1    3    3    0  502  0.48220042452E+03 -0.16112241810E+04  0.23542411859E+04  0.28932739695E+04  0.46999998093E+01 0.  1.
</event>
<event>
 5   0  0.8329875E-09  0.4007741E+04  0.7818609E-02  0.8002987E-01
        1   -1    0    0  501    0  0.00000000000E+00  0.00000000000E+00  0.14387608163E+04  0.14387608163E+04  0.50400001928E-02 0. -1.
       -1   -1    0    0    0  501  0.00000000000E+00  0.00000000000E+00 -0.27909414126E+04  0.27909414126E+04  0.50400001928E-02 0.  1.
    10030    2    1    2    0    0  0.00000000000E+00  0.00000000000E+00 -0.13521805963E+04  0.42297022289E+04  0.40077410820E+04 0.  0.
        3    1    3    3  502    0  0.98131307503E+03 -0.68112927673E+03  0.10219239379E+04  0.15720181258E+04  0.10100000352E+00 0. -1.
       -3    1    3    3    0  502 -0.98131307503E+03  0.68112927673E+03 -0.23741045341E+04  0.26576841031E+04  0.10100000352E+00 0.  1.
</event>
<event>
 5   0  0.8329875E-09  0.3968649E+04  0.7818609E-02  0.8010901E-01
        1   -1    0    0  501    0  0.00000000000E+00  0.00000000000E+00  0.13628120672E+04  0.13628120672E+04  0.50400001928E-02 0.  1.
       -1   -1    0    0    0  501  0.00000000000E+00  0.00000000000E+00 -0.28892792423E+04  0.28892792423E+04  0.50400001928E-02 0. -1.
    10030    2    1    2    0    0  0.00000000000E+00  0.00000000000E+00 -0.15264671751E+04  0.42520913095E+04  0.39686494514E+04 0.  0.
        3    1    3    3  502    0 -0.15421065039E+01 -0.72266875557E+03 -0.27432726998E+04  0.28368640475E+04  0.10100000352E+00 0. -1.
       -3    1    3    3    0  502  0.15421065039E+01  0.72266875557E+03  0.12168055246E+04  0.14152272621E+04  0.10100000352E+00 0.  1.
</event>
<event>
 5   0  0.8329875E-09  0.3986723E+04  0.7818609E-02  0.8007230E-01
        1   -1    0    0  501    0  0.00000000000E+00  0.00000000000E+00  0.22655163802E+04  0.22655163802E+04  0.50400001928E-02 0.  1.
       -1   -1    0    0    0  501  0.00000000000E+00  0.00000000000E+00 -0.17539000185E+04  0.17539000185E+04  0.50400001928E-02 0. -1.
    10030    2    1    2    0    0  0.00000000000E+00  0.00000000000E+00  0.51161636168E+03  0.40194163987E+04  0.39867225744E+04 0.  0.
        3    1    3    3  502    0 -0.14732682013E+04  0.12215016232E+04 -0.30635189814E+03  0.19381529621E+04  0.10100000352E+00 0.  1.
       -3    1    3    3    0  502  0.14732682013E+04 -0.12215016232E+04  0.81796825982E+03  0.20812634367E+04  0.10100000352E+00 0. -1.
</event>
<event>
 5   0  0.8329875E-09  0.3999753E+04  0.7818609E-02  0.8004596E-01
        1   -1    0    0  501    0  0.00000000000E+00  0.00000000000E+00  0.14372421089E+04  0.14372421089E+04  0.50400001928E-02 0. -1.
       -1   -1    0    0    0  501  0.00000000000E+00  0.00000000000E+00 -0.27827643067E+04  0.27827643067E+04  0.50400001928E-02 0.  1.
    10030    2    1    2    0    0  0.00000000000E+00  0.00000000000E+00 -0.13455221978E+04  0.42200064156E+04  0.39997530127E+04 0.  0.
        2    1    3    3  502    0  0.55642926713E+03  0.14034007220E+04  0.71109033929E+03  0.16687709808E+04  0.25500000920E-02 0. -1.
       -2    1    3    3    0  502 -0.55642926713E+03 -0.14034007220E+04 -0.20566125371E+04  0.25512354347E+04  0.25500000920E-02 0.  1.
</event>
<event>
 5   0  0.8329875E-09  0.4009201E+04  0.7818609E-02  0.8002693E-01
        1   -1    0    0  501    0  0.00000000000E+00  0.00000000000E+00  0.17250068715E+04  0.17250068715E+04  0.50400001928E-02 0.  1.
       -1   -1    0    0    0  501  0.00000000000E+00  0.00000000000E+00 -0.23295114087E+04  0.23295114087E+04  0.50400001928E-02 0. -1.
    10030    2    1    2    0    0  0.00000000000E+00  0.00000000000E+00 -0.60450453721E+03  0.40545182803E+04  0.40092010114E+04 0.  0.
        5    1    3    3  502    0 -0.39073098512E+01 -0.15396440911E+04 -0.16004608446E+04  0.22208143100E+04  0.46999998093E+01 0. -1.
       -5    1    3    3    0  502  0.39073098512E+01  0.15396440911E+04  0.99595630743E+03  0.18337039703E+04  0.46999998093E+01 0.  1.
</event>
<event>
 5   0  0.2587493E-08  0.4003085E+04  0.7818609E-02  0.8003925E-01
       -2   -1    0    0    0  501  0.00000000000E+00  0.00000000000E+00  0.18527153929E+04  0.18527153929E+04  0.25500000920E-02 0. -1.
        2   -1    0    0  501    0  0.00000000000E+00  0.00000000000E+00 -0.21623243846E+04  0.21623243846E+04  0.25500000920E-02 0.  1.
    10030    2    1    2    0    0  0.00000000000E+00  0.00000000000E+00 -0.30960899176E+03  0.40150397775E+04  0.40030846465E+04 0.  0.
        5    1    3    3  502    0  0.81339219966E+03 -0.17513244435E+04  0.37346135620E+03  0.19667840887E+04  0.46999998093E+01 0. -1.
       -5    1    3    3    0  502 -0.81339219966E+03  0.17513244435E+04 -0.68307034795E+03  0.20482556889E+04  0.46999998093E+01 0.  1.
</event>
<event>
 5   0  0.2746876E-08  0.3999505E+04  0.7818609E-02  0.8004646E-01
        2   -1    0    0  501    0  0.00000000000E+00  0.00000000000E+00  0.23725031454E+04  0.23725031454E+04  0.25500000920E-02 0. -1.
       -2   -1    0    0    0  501  0.00000000000E+00  0.00000000000E+00 -0.16855657094E+04  0.16855657094E+04  0.25500000920E-02 0.  1.
    10030    2    1    2    0    0  0.00000000000E+00  0.00000000000E+00  0.68693743604E+03  0.40580688548E+04  0.39995049430E+04 0.  0.
        1    1    3    3  502    0 -0.11191750684E+04  0.98319336849E+02  0.20220174115E+04  0.23131739965E+04  0.50400001928E-02 0. -1.
       -1    1    3    3    0  502  0.11191750684E+04 -0.98319336849E+02 -0.13350799755E+04  0.17448948583E+04  0.50400001928E-02 0.  1.
</event>
<event>
 5   0  0.8329875E-09  0.3998294E+04  0.7818609E-02  0.8004891E-01
        1   -1    0    0  501    0  0.00000000000E+00  0.00000000000E+00  0.17842838467E+04  0.17842838467E+04  0.50400001928E-02 0. -1.
       -1   -1    0    0    0  501  0.00000000000E+00  0.00000000000E+00 -0.22398834057E+04  0.22398834057E+04  0.50400001928E-02 0.  1.
    10030    2    1    2    0    0  0.00000000000E+00  0.00000000000E+00 -0.45559955902E+03  0.40241672524E+04  0.39982935257E+04 0.  0.
        1    1    3    3  502    0 -0.18873559840E+04  0.49900218484E+03 -0.66125128246E+03  0.20611572112E+04  0.50400001928E-02 0.  1.
       -1    1    3    3    0  502  0.18873559840E+04 -0.49900218484E+03  0.20565172344E+03  0.19630100412E+04  0.50400001928E-02 0. -1.
</event>
<event>
 5   0  0.2612363E-08  0.4001877E+04  0.7818609E-02  0.8004168E-01
       -2   -1    0    0    0  501  0.00000000000E+00  0.00000000000E+00  0.29400169998E+04  0.29400169998E+04  0.25500000920E-02 0. -1.
        2   -1    0    0  501    0  0.00000000000E+00  0.00000000000E+00 -0.13618133918E+04  0.13618133918E+04  0.25500000920E-02 0.  1.
    10030    2    1    2    0    0  0.00000000000E+00  0.00000000000E+00  0.15782036080E+04  0.43018303916E+04  0.40018768209E+04 0.  0.
        4    1    3    3  502    0 -0.19084491012E+04 -0.55181979505E+03  0.53230303464E+03  0.20567039630E+04  0.12699999809E+01 0.  1.
       -4    1    3    3    0  502  0.19084491012E+04  0.55181979505E+03  0.10459005734E+04  0.22451264286E+04  0.12699999809E+01 0. -1.
</event>
<event>
 5   0  0.2650452E-08  0.3996545E+04  0.7818609E-02  0.8005244E-01
       -2   -1    0    0    0  501  0.00000000000E+00  0.00000000000E+00  0.32641449570E+04  0.32641449570E+04  0.25500000920E-02 0.  1.
        2   -1    0    0  501    0  0.00000000000E+00  0.00000000000E+00 -0.12233197462E+04  0.12233197462E+04  0.25500000920E-02 0. -1.
    10030    2    1    2    0    0  0.00000000000E+00  0.00000000000E+00  0.20408252108E+04  0.44874647031E+04  0.39965449980E+04 0.  0.
        3    1    3    3  502    0 -0.13748752495E+04 -0.75478406653E+03  0.24106958358E+04  0.28760103202E+04  0.10100000352E+00 0.  1.
       -3    1    3    3    0  502  0.13748752495E+04  0.75478406653E+03 -0.36987062502E+03  0.16114543829E+04  0.10100000352E+00 0. -1.
</event>
<event>
 5   0  0.8329875E-09  0.3997794E+04  0.7818609E-02  0.8004992E-01
       -1   -1    0    0    0  501  0.00000000000E+00  0.00000000000E+00  0.18191365826E+04  0.18191365826E+04  0.50400001928E-02 0. -1.
        1   -1    0    0  501    0  0.00000000000E+00  0.00000000000E+00 -0.21964209652E+04  0.21964209652E+04  0.50400001928E-02 0.  1.
    10030    2    1    2    0    0  0.00000000000E+00  0.00000000000E+00 -0.37728438264E+03  0.40155575478E+04  0.39977942561E+04 0.  0.
        3    1    3    3  502    0 -0.16967376747E+04 -0.31200777354E+03  0.82545864589E+03  0.19124982546E+04  0.10100000352E+00 0. -1.
       -3    1    3    3    0  502  0.16967376747E+04  0.31200777354E+03 -0.12027430285E+04  0.21030592932E+04  0.10100000352E+00 0.  1.
</event>
<event>
 5   0  0.8329875E-09  0.3965925E+04  0.7818609E-02  0.8011456E-01
        1   -1    0    0  501    0  0.00000000000E+00  0.00000000000E+00  0.22048312197E+04  0.22048312197E+04  0.50400001928E-02 0.  1.
       -1   -1    0    0    0  501  0.00000000000E+00  0.00000000000E+00 -0.17834203960E+04  0.17834203960E+04  0.50400001928E-02 0. -1.
    10030    2    1    2    0    0  0.00000000000E+00  0.00000000000E+00  0.42141082369E+03  0.39882516157E+04  0.39659253482E+04 0.  0.
        5    1    3    3  502    0  0.26596249516E+03  0.43239699422E+03 -0.17169622279E+04  0.17904425686E+04  0.46999998093E+01 0. -1.
       -5    1    3    3    0  502 -0.26596249516E+03 -0.43239699422E+03  0.21383730516E+04  0.21978090470E+04  0.46999998093E+01 0.  1.
</event>
<event>
 5   0  0.8329875E-09  0.4002695E+04  0.7818609E-02  0.8004003E-01
        1   -1    0    0  501    0  0.00000000000E+00  0.00000000000E+00  0.16638773495E+04  0.16638773495E+04  0.50400001928E-02 0.  1.
       -1   -1    0    0    0  501  0.00000000000E+00  0.00000000000E+00 -0.24072640684E+04  0.24072640684E+04  0.50400001928E-02 0. -1.
    10030    2    1    2    0    0  0.00000000000E+00  0.00000000000E+00 -0.74338671890E+03  0.40711414180E+04  0.40026951709E+04 0.  0.
        4    1    3    3  502    0  0.52951471993E+03 -0.16987805933E+04  0.56002202009E+03  0.18654403284E+04  0.12699999809E+01 0.  1.
       -4    1    3    3    0  502 -0.52951471993E+03  0.16987805933E+04 -0.13034087390E+04  0.22057010896E+04  0.12699999809E+01 0. -1.
</event>
<event>
 5   0  0.2650452E-08  0.3999970E+04  0.7818609E-02  0.8004553E-01
        2   -1    0    0  501    0  0.00000000000E+00  0.00000000000E+00  0.22996145129E+04  0.22996145129E+04  0.25500000920E-02 0.  1.
       -2   -1    0    0    0  501  0.00000000000E+00  0.00000000000E+00 -0.17393958777E+04  0.17393958777E+04  0.25500000920E-02 0. -1.
    10030    2    1    2    0    0  0.00000000000E+00  0.00000000000E+00  0.56021863519E+03  0.40390103906E+04  0.39999700019E+04 0.  0.
        3    1    3    3  502    0  0.13881088919E+04 -0.57399102478E+03  0.16134623518E+04  0.22044438671E+04  0.10100000352E+00 0.  1.
       -3    1    3    3    0  502 -0.13881088919E+04  0.57399102478E+03 -0.10532437166E+04  0.18345665235E+04  0.10100000352E+00 0. -1.
</event>
<event>
 5   0  0.2599332E-08  0.3988783E+04  0.7818609E-02  0.8006813E-01
        2   -1    0    0  501    0  0.00000000000E+00  0.00000000000E+00  0.12467394687E+04  0.12467394687E+04  0.25500000920E-02 0.  1.
       -2   -1    0    0    0  501  0.00000000000E+00  0.00000000000E+00 -0.31903994919E+04  0.31903994919E+04  0.25500000920E-02 0. -1.
    10030    2    1    2    0    0  0.00000000000E+00  0.00000000000E+00 -0.19436600232E+04  0.44371389607E+04  0.39887827555E+04 0.  0.
        2    1    3    3  502    0  0.33652231900E+03  0.19556166245E+04 -0.74959036236E+03  0.21212188394E+04  0.25500000920E-02 0.  1.
       -2    1    3    3    0  502 -0.33652231900E+03 -0.19556166245E+04 -0.11940696609E+04  0.23159201213E+04  0.25500000920E-02 0. -1.
</event>
<event>
 5   0  0.2650452E-08  0.4002323E+04  0.7818609E-02  0.8004078E-01
        2   -1    0    0  501    0  0.00000000000E+00  0.00000000000E+00  0.22136727729E+04  0.22136727729E+04  0.25500000920E-02 0.  1.
       -2   -1    0    0    0  501  0.00000000000E+00  0.00000000000E+00 -0.18090516207E+04  0.18090516207E+04  0.25500000920E-02 0. -1.
    10030    2    1    2    0    0  0.00000000000E+00  0.00000000000E+00  0.40462115225E+03  0.40227243936E+04  0.40023234839E+04 0.  0.
        3    1    3    3  502    0 -0.37399795654E+03  0.13973834855E+03  0.21732361038E+04  0.22096054966E+04  0.10100000352E+00 0.  1.
       -3    1    3    3    0  502  0.37399795654E+03 -0.13973834855E+03 -0.17686149516E+04  0.18131188970E+04  0.10100000352E+00 0. -1.
</event>
<event>
 5   0  0.2599332E-08  0.4001085E+04  0.7818609E-02  0.8004328E-01
       -2   -1    0    0    0  501  0.00000000000E+00  0.00000000000E+00  0.15219774346E+04  0.15219774346E+04  0.25500000920E-02 0. -1.
        2   -1    0    0  501    0  0.00000000000E+00  0.00000000000E+00 -0.26295855989E+04  0.26295855989E+04  0.25500000920E-02 0.  1.
    10030    2    1    2    0    0  0.00000000000E+00  0.00000000000E+00 -0.11076081643E+04  0.41515630335E+04  0.40010848249E+04 0.  0.
        2    1    3    3  502    0  0.14366865828E+04  0.83590055510E+03  0.60133610902E+03  0.17675981419E+04  0.25500000920E-02 0. -1.
       -2    1    3    3    0  502 -0.14366865828E+04 -0.83590055510E+03 -0.17089442733E+04  0.23839648916E+04  0.25500000920E-02 0.  1.
</event>
<event>
 5   0  0.2650452E-08  0.4005639E+04  0.7818609E-02  0.8003410E-01
       -2   -1    0    0    0  501  0.00000000000E+00  0.00000000000E+00  0.19937006960E+04  0.19937006960E+04  0.25500000920E-02 0. -1.
        2   -1    0    0  501    0  0.00000000000E+00  0.00000000000E+00 -0.20119797215E+04  0.20119797215E+04  0.25500000920E-02 0.  1.
    10030    2    1    2    0    0  0.00000000000E+00  0.00000000000E+00 -0.18279025429E+02  0.40056804175E+04  0.40056387111E+04 0.  0.
        3    1    3    3  502    0  0.17498889750E+04  0.58278524567E+03  0.77159602909E+03  0.19992774970E+04  0.10100000352E+00 0. -1.
       -3    1    3    3    0  502 -0.17498889750E+04 -0.58278524567E+03 -0.78987505452E+03  0.20064029205E+04  0.10100000352E+00 0.  1.
</event>
<event>
 5   0  0.2587493E-08  0.4001100E+04  0.7818609E-02  0.8004325E-01
        2   -1    0    0  501    0  0.00000000000E+00  0.00000000000E+00  0.15128919476E+04  0.15128919476E+04  0.25500000920E-02 0. -1.
       -2   -1    0    0    0  501  0.00000000000E+00  0.00000000000E+00 -0.26453976099E+04  0.26453976099E+04  0.25500000920E-02 0.  1.
    10030    2    1    2    0    0  0.00000000000E+00  0.00000000000E+00 -0.11325056623E+04  0.41582895575E+04  0.40011002198E+04 0.  0.
        5    1    3    3  502    0  0.14496789816E+02  0.97157573189E+02 -0.26428838278E+04  0.26447129840E+04  0.46999998093E+01 0.  1.
       -5    1    3    3    0  502 -0.14496789816E+02 -0.97157573189E+02  0.15103781655E+04  0.15135765735E+04  0.46999998093E+01 0. -1.
</event>
<event>
 5   0  0.2612363E-08  0.4001442E+04  0.7818609E-02  0.8004256E-01
        2   -1    0    0  501    0  0.00000000000E+00  0.00000000000E+00  0.34022057349E+04  0.34022057349E+04  0.25500000920E-02 0. -1.
       -2   -1    0    0    0  501  0.00000000000E+00  0.00000000000E+00 -0.11765554541E+04  0.11765554541E+04  0.25500000920E-02 0.  1.
    10030    2    1    2    0    0  0.00000000000E+00  0.00000000000E+00  0.22256502808E+04  0.45787611889E+04  0.40014415968E+04 0.  0.
        4    1    3    3  502    0  0.43510261253E+02  0.16575677993E+04 -0.16828478147E+03  0.16666569931E+04  0.12699999809E+01 0.  1.
       -4    1    3    3    0  502 -0.43510261253E+02 -0.16575677993E+04  0.23939350623E+04  0.29121041958E+04  0.12699999809E+01 0. -1.
</event>
<event>
 5   0  0.2612363E-08  0.3947567E+04  0.7818609E-02  0.8015208E-01
       -2   -1    0    0    0  501  0.00000000000E+00  0.00000000000E+00  0.15949246537E+04  0.15949246537E+04  0.25500000920E-02 0. -1.
        2   -1    0    0  501    0  0.00000000000E+00  0.00000000000E+00 -0.24426359719E+04  0.24426359719E+04  0.25500000920E-02 0.  1.
    10030    2    1    2    0    0  0.00000000000E+00  0.00000000000E+00 -0.84771131819E+03  0.40375606256E+04  0.39475665069E+04 0.  0.
        4    1    3    3  502    0  0.64252570518E+03 -0.13565906634E+04 -0.17347296836E+04  0.22940065819E+04  0.12699999809E+01 0.  1.
       -4    1    3    3    0  502 -0.64252570518E+03  0.13565906634E+04  0.88701836544E+03  0.17435540437E+04  0.12699999809E+01 0. -1.
</event>
<event>
 5   0  0.8329875E-09  0.4030228E+04  0.7818609E-02  0.7998476E-01
        1   -1    0    0  501    0  0.00000000000E+00  0.00000000000E+00  0.13927837933E+04  0.13927837933E+04  0.50400001928E-02 0. -1.
       -1   -1    0    0    0  501  0.00000000000E+00  0.00000000000E+00 -0.29155165374E+04  0.29155165374E+04  0.50400001928E-02 0.  1.
    10030    2    1    2    0    0  0.00000000000E+00  0.00000000000E+00 -0.15227327440E+04  0.43083003307E+04  0.40302278757E+04 0.  0.
        1    1    3    3  502    0 -0.12175365653E+04 -0.38654731340E+03  0.90464710113E+03  0.15653116275E+04  0.50400001928E-02 0. -1.
       -1    1    3    3    0  502  0.12175365653E+04  0.38654731340E+03 -0.24273798452E+04  0.27429887032E+04  0.50400001928E-02 0.  1.
</event>
<event>
 5   0  0.2599332E-08  0.4003092E+04  0.7818609E-02  0.8003923E-01
       -2   -1    0    0    0  501  0.00000000000E+00  0.00000000000E+00  0.14494414965E+04  0.14494414965E+04  0.25500000920E-02 0. -1.
        2   -1    0    0  501    0  0.00000000000E+00  0.00000000000E+00 -0.27639514928E+04  0.27639514928E+04  0.25500000920E-02 0.  1.
    10030    2    1    2    0    0  0.00000000000E+00  0.00000000000E+00 -0.13145099963E+04  0.42133929894E+04  0.40030917992E+04 0.  0.
        2    1    3    3  502    0 -0.45347669788E+03  0.14145087227E+04 -0.20692646885E+04  0.25472205230E+04  0.25500000920E-02 0.  1.
       -2    1    3    3    0  502  0.45347669788E+03 -0.14145087227E+04  0.75475469219E+03  0.16661724663E+04  0.25500000920E-02 0. -1.
</event>
<event>
 5   0  0.8329875E-09  0.3982633E+04  0.7818609E-02  0.8008059E-01
        1   -1    0    0  501    0  0.00000000000E+00  0.00000000000E+00  0.17543889863E+04  0.17543889863E+04  0.50400001928E-02 0.  1.
       -1   -1    0    0    0  501  0.00000000000E+00  0.00000000000E+00 -0.22602404701E+04  0.22602404701E+04  0.50400001928E-02 0. -1.
    10030    2    1    2    0    0  0.00000000000E+00  0.00000000000E+00 -0.50585148381E+03  0.40146294564E+04  0.39826327910E+04 0.  0.
        5    1    3    3  502    0  0.12202080112E+04  0.13179128904E+04  0.61393484798E+03  0.18980885293E+04  0.46999998093E+01 0.  1.
       -5    1    3    3    0  502 -0.12202080112E+04 -0.13179128904E+04 -0.11197863318E+04  0.21165409271E+04  0.46999998093E+01 0. -1.
</event>
<event>
 5   0  0.8329875E-09  0.3994278E+04  0.7818609E-02  0.8005702E-01
        1   -1    0    0  501    0  0.00000000000E+00  0.00000000000E+00  0.24567673789E+04  0.24567673789E+04  0.50400001928E-02 0. -1.
       -1   -1    0    0    0  501  0.00000000000E+00  0.00000000000E+00 -0.16235011105E+04  0.16235011105E+04  0.50400001928E-02 0.  1.
    10030    2    1    2    0    0  0.00000000000E+00  0.00000000000E+00  0.83326626842E+03  0.40802684895E+04  0.39942781916E+04 0.  0.
        1    1    3    3  502    0  0.12386661612E+04 -0.49439608217E+03  0.19351903655E+04  0.23502517090E+04  0.50400001928E-02 0. -1.
       -1    1    3    3    0  502 -0.12386661612E+04  0.49439608217E+03 -0.11019240970E+04  0.17300167805E+04  0.50400001928E-02 0.  1.
</event>
<event>
 5   0  0.8329875E-09  0.3994501E+04  0.7818609E-02  0.8005657E-01
        1   -1    0    0  501    0  0.00000000000E+00  0.00000000000E+00  0.17540196288E+04  0.17540196288E+04  0.50400001928E-02 0.  1.
       -1   -1    0    0    0  501  0.00000000000E+00  0.00000000000E+00 -0.22742103148E+04  0.22742103148E+04  0.50400001928E-02 0. -1.
    10030    2    1    2    0    0  0.00000000000E+00  0.00000000000E+00 -0.52019068598E+03  0.40282299436E+04  0.39945009862E+04 0.  0.
        5    1    3    3  502    0 -0.12164420962E+04  0.40094757648E+03 -0.18055160809E+04  0.22136848784E+04  0.46999998093E+01 0.  1.
       -5    1    3    3    0  502  0.12164420962E+04 -0.40094757648E+03  0.12853253949E+04  0.18145450651E+04  0.46999998093E+01 0. -1.
</event>
<event>
 5   0  0.2746876E-08  0.4002789E+04  0.7818609E-02  0.8003984E-01
       -2   -1    0    0    0  501  0.00000000000E+00  0.00000000000E+00  0.27799927215E+04  0.27799927215E+04  0.25500000920E-02 0. -1.
        2   -1    0    0  501    0  0.00000000000E+00  0.00000000000E+00 -0.14408598986E+04  0.14408598986E+04  0.25500000920E-02 0.  1.
    10030    2    1    2    0    0  0.00000000000E+00  0.00000000000E+00  0.13391328228E+04  0.42208526201E+04  0.40027890431E+04 0.  0.
        1    1    3    3  502    0 -0.10663601750E+04  0.68001752766E+03 -0.96607538852E+03  0.15914928580E+04  0.50400001928E-02 0.  1.
       -1    1    3    3    0  502  0.10663601750E+04 -0.68001752766E+03  0.23052082114E+04  0.26293597621E+04  0.50400001928E-02 0. -1.
</event>
<event>
 5   0  0.2650452E-08  0.3998507E+04  0.7818609E-02  0.8004848E-01
       -2   -1    0    0    0  501  0.00000000000E+00  0.00000000000E+00  0.19068620837E+04  0.19068620837E+04  0.25500000920E-02 0.  1.
        2   -1    0    0  501    0  0.00000000000E+00  0.00000000000E+00 -0.20961210381E+04  0.20961210381E+04  0.25500000920E-02 0. -1.
    10030    2    1    2    0    0  0.00000000000E+00  0.00000000000E+00 -0.18925895443E+03  0.40029831218E+04  0.39985065864E+04 0.  0.
        3    1    3    3  502    0 -0.16535890924E+03  0.12202435798E+04 -0.16714089028E+04  0.20760408699E+04  0.10100000352E+00 0. -1.
       -3    1    3    3    0  502  0.16535890924E+03 -0.12202435798E+04  0.14821499483E+04  0.19269422520E+04  0.10100000352E+00 0.  1.
</event>
<event>
 5   0  0.2587493E-08  0.4059797E+04  0.7818609E-02  0.7992591E-01
       -2   -1    0    0    0  501  0.00000000000E+00  0.00000000000E+00  0.28417899829E+04  0.28417899829E+04  0.25500000920E-02 0.  1.
        2   -1    0    0  501    0  0.00000000000E+00  0.00000000000E+00 -0.14499623111E+04  0.14499623111E+04  0.25500000920E-02 0. -1.
    10030    2    1    2    0    0  0.00000000000E+00  0.00000000000E+00  0.13918276718E+04  0.42917522940E+04  0.40597972222E+04 0.  0.
        5    1    3    3  502    0 -0.16444702240E+04  0.10366389588E+04  0.78087925589E+02  0.19455134188E+04  0.46999998093E+01 0. -1.
       -5    1    3    3    0  502  0.16444702240E+04 -0.10366389588E+04  0.13137397462E+04  0.23462388752E+04  0.46999998093E+01 0.  1.
</event>
<event>
 5   0  0.8329875E-09  0.3988990E+04  0.7818609E-02  0.8006771E-01
        1   -1    0    0  501    0  0.00000000000E+00  0.00000000000E+00  0.28707645177E+04  0.28707645177E+04  0.50400001928E-02 0. -1.
       -1   -1    0    0    0  501  0.00000000000E+00  0.00000000000E+00 -0.13856973326E+04  0.13856973326E+04  0.50400001928E-02 0.  1.
    10030    2    1    2    0    0  0.00000000000E+00  0.00000000000E+00  0.14850671852E+04  0.42564618503E+04  0.39889902154E+04 0.  0.
        5    1    3    3  502    0  0.15412127827E+04 -0.53938958226E+03  0.19646281270E+04  0.25546161611E+04  0.46999998093E+01 0. -1.
       -5    1    3    3    0  502 -0.15412127827E+04  0.53938958226E+03 -0.47956094178E+03  0.17018456892E+04  0.46999998093E+01 0.  1.
</event>
<event>
 5   0  0.2650452E-08  0.3998669E+04  0.7818609E-02  0.8004815E-01
        2   -1    0    0  501    0  0.00000000000E+00  0.00000000000E+00  0.18715396664E+04  0.18715396664E+04  0.25500000920E-02 0.  1.
       -2   -1    0    0    0  501  0.00000000000E+00  0.00000000000E+00 -0.21358553944E+04  0.21358553944E+04  0.25500000920E-02 0. -1.
    10030    2    1    2    0    0  0.00000000000E+00  0.00000000000E+00 -0.26431572801E+03  0.40073950608E+04  0.39986688246E+04 0.  0.
        3    1    3    3  502    0 -0.18927902717E+04  0.42676416443E+03  0.35113452113E+03  0.19718210179E+04  0.10100000352E+00 0.  1.
       -3    1    3    3    0  502  0.18927902717E+04 -0.42676416443E+03 -0.61545024914E+03  0.20355740429E+04  0.10100000352E+00 0. -1.
</event>
<event>
 5   0  0.2612363E-08  0.3932790E+04  0.7818609E-02  0.8018244E-01
       -2   -1    0    0    0  501  0.00000000000E+00  0.00000000000E+00  0.17887969897E+04  0.17887969897E+04  0.25500000920E-02 0. -1.
        2   -1    0    0  501    0  0.00000000000E+00  0.00000000000E+00 -0.21616258350E+04  0.21616258350E+04  0.25500000920E-02 0.  1.
    10030    2    1    2    0    0  0.00000000000E+00  0.00000000000E+00 -0.37282884534E+03  0.39504228248E+04  0.39327902495E+04 0.  0.
        4    1    3    3  502    0 -0.95709251971E+02  0.84941022426E+03  0.15924149795E+04  0.18073309243E+04  0.12699999809E+01 0. -1.
       -4    1    3    3    0  502  0.95709251971E+02 -0.84941022426E+03 -0.19652438248E+04  0.21430919005E+04  0.12699999809E+01 0.  1.
</event>
<event>
 5   0  0.2587493E-08  0.3998248E+04  0.7818609E-02  0.8004900E-01
       -2   -1    0    0    0  501  0.00000000000E+00  0.00000000000E+00  0.31656280772E+04  0.31656280772E+04  0.25500000920E-02 0. -1.
        2   -1    0    0  501    0  0.00000000000E+00  0.00000000000E+00 -0.12624656686E+04  0.12624656686E+04  0.25500000920E-02 0.  1.
    10030    2    1    2    0    0  0.00000000000E+00  0.00000000000E+00  0.19031624086E+04  0.44280937457E+04  0.39982479998E+04 0.  0.
        5    1    3    3  502    0 -0.10646081009E+04  0.12933979071E+04 -0.25667259079E+03  0.16947482006E+04  0.46999998093E+01 0.  1.
       -5    1    3    3    0  502  0.10646081009E+04 -0.12933979071E+04  0.21598349994E+04  0.27333455451E+04  0.46999998093E+01 0. -1.
</event>
<event>
 5   0  0.8329875E-09  0.4005592E+04  0.7818609E-02  0.8003419E-01
        1   -1    0    0  501    0  0.00000000000E+00  0.00000000000E+00  0.24067599931E+04  0.24067599931E+04  0.50400001928E-02 0.  1.
       -1   -1    0    0    0  501  0.00000000000E+00  0.00000000000E+00 -0.16666354260E+04  0.16666354260E+04  0.50400001928E-02 0. -1.
    10030    2    1    2    0    0  0.00000000000E+00  0.00000000000E+00  0.74012456704E+03  0.40733954191E+04  0.40055918247E+04 0.  0.
        5    1    3    3  502    0 -0.10268531986E+04  0.16767804889E+04 -0.17371081134E+02  0.19663021496E+04  0.46999998093E+01 0. -1.
       -5    1    3    3    0  502  0.10268531986E+04 -0.16767804889E+04  0.75749564818E+03  0.21070932695E+04  0.46999998093E+01 0.  1.
</event>
<event>
 5   0  0.2650452E-08  0.4010283E+04  0.7818609E-02  0.8002475E-01
       -2   -1    0    0    0  501  0.00000000000E+00  0.00000000000E+00  0.21829959128E+04  0.21829959128E+04  0.25500000920E-02 0. -1.
        2   -1    0    0  501    0  0.00000000000E+00  0.00000000000E+00 -0.18417777172E+04  0.18417777172E+04  0.25500000920E-02 0.  1.
    10030    2    1    2    0    0  0.00000000000E+00  0.00000000000E+00  0.34121819556E+03  0.40247736300E+04  0.40102833959E+04 0.  0.
        3    1    3    3  502    0 -0.31836319206E+03  0.19450969834E+04  0.54049991696E+03  0.20437459645E+04  0.10100000352E+00 0. -1.
       -3    1    3    3    0  502  0.31836319206E+03 -0.19450969834E+04 -0.19928172140E+03  0.19810276655E+04  0.10100000352E+00 0.  1.
</event>
<event>
 5   0  0.2746876E-08  0.3975816E+04  0.7818609E-02  0.8009443E-01
       -2   -1    0    0    0  501  0.00000000000E+00  0.00000000000E+00  0.19585903579E+04  0.19585903579E+04  0.25500000920E-02 0.  1.
        2   -1    0    0  501    0  0.00000000000E+00  0.00000000000E+00 -0.20176642501E+04  0.20176642501E+04  0.25500000920E-02 0. -1.
    10030    2    1    2    0    0  0.00000000000E+00  0.00000000000E+00 -0.59073892212E+02  0.39762546079E+04  0.39758157631E+04 0.  0.
        1    1    3    3  502    0  0.12041809864E+04  0.15225522696E+04  0.39894993615E+03  0.19817614169E+04  0.50400001928E-02 0.  1.
       -1    1    3    3    0  502 -0.12041809864E+04 -0.15225522696E+04 -0.45802382836E+03  0.19944931911E+04  0.50400001928E-02 0. -1.
</event>
<event>
 5   0  0.2612363E-08  0.3996398E+04  0.7818609E-02  0.8005274E-01
        2   -1    0    0  501    0  0.00000000000E+00  0.00000000000E+00  0.26813401432E+04  0.26813401432E+04  0.25500000920E-02 0.  1.
       -2   -1    0    0    0  501  0.00000000000E+00  0.00000000000E+00 -0.14891059710E+04  0.14891059710E+04  0.25500000920E-02 0. -1.
    10030    2    1    2    0    0  0.00000000000E+00  0.00000000000E+00  0.11922341721E+04  0.41704461142E+04  0.39963981872E+04 0.  0.
        4    1    3    3  502    0 -0.23536538932E+03 -0.17444180674E+04  0.15830355941E+04  0.23673602526E+04  0.12699999809E+01 0.  1.
       -4    1    3    3    0  502  0.23536538932E+03  0.17444180674E+04 -0.39080142193E+03  0.18030858617E+04  0.12699999809E+01 0. -1.
</event>
<event>
 5   0  0.2746876E-08  0.4002242E+04  0.7818609E-02  0.8004094E-01
       -2   -1    0    0    0  501  0.00000000000E+00  0.00000000000E+00  0.14874546655E+04  0.14874546655E+04  0.25500000920E-02 0.  1.
        2   -1    0    0  501    0  0.00000000000E+00  0.00000000000E+00 -0.26921727266E+04  0.26921727266E+04  0.25500000920E-02 0. -1.
    10030    2    1    2    0    0  0.00000000000E+00  0.00000000000E+00 -0.12047180612E+04  0.41796273921E+04  0.40022418130E+04 0.  0.
        1    1    3    3  502    0  0.76956442846E+03 -0.14801649367E+04  0.55177799595E+03  0.17571501377E+04  0.50400001928E-02 0.  1.
       -1    1    3    3    0  502 -0.76956442846E+03  0.14801649367E+04 -0.17564960571E+04  0.24224772544E+04  0.50400001928E-02 0. -1.
</event>
<event>
 5   0  0.2650452E-08  0.4015160E+04  0.7818609E-02  0.8001495E-01
       -2   -1    0    0    0  501  0.00000000000E+00  0.00000000000E+00  0.28408344129E+04  0.28408344129E+04  0.25500000920E-02 0. -1.
        2   -1    0    0  501    0  0.00000000000E+00  0.00000000000E+00 -0.14187303850E+04  0.14187303850E+04  0.25500000920E-02 0.  1.
    10030    2    1    2    0    0  0.00000000000E+00  0.00000000000E+00  0.14221040279E+04  0.42595647979E+04  0.40151603208E+04 0.  0.
        3    1    3    3  502    0  0.16103917907E+03  0.67931541624E+03 -0.12858023176E+04  0.14631099282E+04  0.10100000352E+00 0.  1.
       -3    1    3    3    0  502 -0.16103917907E+03 -0.67931541624E+03  0.27079063455E+04  0.27964548697E+04  0.10100000352E+00 0. -1.
</event>
<event>
 5   0  0.2599332E-08  0.3994116E+04  0.7818609E-02  0.8005735E-01
        2   -1    0    0  501    0  0.00000000000E+00  0.00000000000E+00  0.23844826786E+04  0.23844826786E+04  0.25500000920E-02 0. -1.
       -2   -1    0    0    0  501  0.00000000000E+00  0.00000000000E+00 -0.16725813973E+04  0.16725813973E+04  0.25500000920E-02 0.  1.
    10030    2    1    2    0    0  0.00000000000E+00  0.00000000000E+00  0.71190128127E+03  0.40570640759E+04  0.39941163580E+04 0.  0.
        2    1    3    3  502    0 -0.15003447536E+04  0.12338480101E+04 -0.11484740841E+03  0.19459201471E+04  0.25500000920E-02 0.  1.
       -2    1    3    3    0  502  0.15003447536E+04 -0.12338480101E+04  0.82674868967E+03  0.21111439287E+04  0.25500000920E-02 0. -1.
</event>
<event>
 5   0  0.2746876E-08  0.3996439E+04  0.7818609E-02  0.8005265E-01
       -2   -1    0    0    0  501  0.00000000000E+00  0.00000000000E+00  0.16054681603E+04  0.16054681603E+04  0.25500000920E-02 0.  1.
        2   -1    0    0  501    0  0.00000000000E+00  0.00000000000E+00 -0.24870509845E+04  0.24870509845E+04  0.25500000920E-02 0. -1.
    10030    2    1    2    0    0  0.00000000000E+00  0.00000000000E+00 -0.88158282424E+03  0.40925191449E+04  0.39964389993E+04 0.  0.
        1    1    3    3  502    0  0.14751309454E+04  0.61907029265E+03 -0.16669166587E+04  0.23103831891E+04  0.50400001928E-02 0. -1.
       -1    1    3    3    0  502 -0.14751309454E+04 -0.61907029265E+03  0.78533383451E+03  0.17821359558E+04  0.50400001928E-02 0.  1.
</event>
<event>
 5   0  0.2599332E-08  0.3992417E+04  0.7818609E-02  0.8006078E-01
       -2   -1    0    0    0  501  0.00000000000E+00  0.00000000000E+00  0.15947322861E+04  0.15947322861E+04  0.25500000920E-02 0.  1.
        2   -1    0    0  501    0  0.00000000000E+00  0.00000000000E+00 -0.24987571713E+04  0.24987571713E+04  0.25500000920E-02 0. -1.
    10030    2    1    2    0    0  0.00000000000E+00  0.00000000000E+00 -0.90402488522E+03  0.40934894575E+04  0.39924171808E+04 0.  0.
        2    1    3    3  502    0 -0.11269856807E+04  0.16657213870E+03 -0.21327196289E+04  0.24179197707E+04  0.25500000920E-02 0. -1.
       -2    1    3    3    0  502  0.11269856807E+04 -0.16657213870E+03  0.12286947437E+04  0.16755696868E+04  0.25500000920E-02 0.  1.
</event>
<event>
 5   0  0.8329875E-09  0.4001153E+04  0.7818609E-02  0.8004314E-01
       -1   -1    0    0    0  501  0.00000000000E+00  0.00000000000E+00  0.28096487669E+04  0.28096487669E+04  0.50400001928E-02 0. -1.
        1   -1    0    0  501    0  0.00000000000E+00  0.00000000000E+00 -0.14244863383E+04  0.14244863383E+04  0.50400001928E-02 0.  1.
    10030    2    1    2    0    0  0.00000000000E+00  0.00000000000E+00  0.13851624286E+04  0.42341351052E+04  0.40011529757E+04 0.  0.
        1    1    3    3  502    0  0.69029481307E+03  0.11629941458E+03  0.26758142025E+04  0.27658658914E+04  0.50400001928E-02 0. -1.
       -1    1    3    3    0  502 -0.69029481307E+03 -0.11629941458E+03 -0.12906517739E+04  0.14682692138E+04  0.50400001928E-02 0.  1.
</event>
<event>
 5   0  0.8329875E-09  0.3989726E+04  0.7818609E-02  0.8006622E-01
        1   -1    0    0  501    0  0.00000000000E+00  0.00000000000E+00  0.21270246466E+04  0.21270246466E+04  0.50400001928E-02 0. -1.
       -1   -1    0    0    0  501  0.00000000000E+00  0.00000000000E+00 -0.18709132396E+04  0.18709132396E+04  0.50400001928E-02 0.  1.
    10030    2    1    2    0    0  0.00000000000E+00  0.00000000000E+00  0.25611140705E+03  0.39979378862E+04  0.39897260920E+04 0.  0.
        2    1    3    3  502    0 -0.70833678355E+03  0.18597596863E+04  0.26629428622E+03  0.20078246279E+04  0.25500000920E-02 0.  1.
       -2    1    3    3    0  502  0.70833678355E+03 -0.18597596863E+04 -0.10182879168E+02  0.19901132583E+04  0.25500000920E-02 0. -1.
</event>
<event>
 5   0  0.8329875E-09  0.4022315E+04  0.7818609E-02  0.8000060E-01
        1   -1    0    0  501    0  0.00000000000E+00  0.00000000000E+00  0.23964423485E+04  0.23964423485E+04  0.50400001928E-02 0.  1.
       -1   -1    0    0    0  501  0.00000000000E+00  0.00000000000E+00 -0.16878166533E+04  0.16878166533E+04  0.50400001928E-02 0. -1.
    10030    2    1    2    0    0  0.00000000000E+00  0.00000000000E+00  0.70862569516E+03  0.40842590018E+04  0.40223154051E+04 0.  0.
        4    1    3    3  502    0  0.97217585641E+03  0.34455523576E+03  0.21074324553E+04  0.23462986538E+04  0.12699999809E+01 0.  1.
       -4    1    3    3    0  502 -0.97217585641E+03 -0.34455523576E+03 -0.13988067601E+04  0.17379603480E+04  0.12699999809E+01 0. -1.
</event>
<event>
 5   0  0.8329875E-09  0.3972039E+04  0.7818609E-02  0.8010211E-01
       -3   -1    0    0    0  501  0.00000000000E+00  0.00000000000E+00  0.26252648112E+04  0.26252648132E+04  0.10100000352E+00 0.  1.
        3   -1    0    0  501    0  0.00000000000E+00  0.00000000000E+00 -0.15024284557E+04  0.15024284591E+04  0.10100000352E+00 0. -1.
    10030    2    1    2    0    0  0.00000000000E+00  0.00000000000E+00  0.11228363555E+04  0.41276932723E+04  0.39720385533E+04 0.  0.
        5    1    3    3  502    0 -0.19671627468E+04  0.13625459640E+03  0.80723797989E+03  0.21307158031E+04  0.46999998093E+01 0. -1.
       -5    1    3    3    0  502  0.19671627468E+04 -0.13625459640E+03  0.31559837561E+03  0.19969774691E+04  0.46999998093E+01 0.  1.
</event>
<event>
 5   0  0.2650452E-08  0.3999689E+04  0.7818609E-02  0.8004609E-01
        2   -1    0    0  501    0  0.00000000000E+00  0.00000000000E+00  0.26262193207E+04  0.26262193207E+04  0.25500000920E-02 0.  1.
       -2   -1    0    0    0  501  0.00000000000E+00  0.00000000000E+00 -0.15228649234E+04  0.15228649234E+04  0.25500000920E-02 0. -1.
    10030    2    1    2    0    0  0.00000000000E+00  0.00000000000E+00  0.11033543973E+04  0.41490842441E+04  0.39996886302E+04 0.  0.
        3    1    3    3  502    0  0.12645004565E+03  0.14313743490E+04 -0.89115765623E+03  0.16908530745E+04  0.10100000352E+00 0. -1.
       -3    1    3    3    0  502 -0.12645004565E+03 -0.14313743490E+04  0.19945120535E+04  0.24582311696E+04  0.10100000352E+00 0.  1.
</event>
<event>
 5   0  0.2650452E-08  0.4001638E+04  0.7818609E-02  0.8004216E-01
        2   -1    0    0  501    0  0.00000000000E+00  0.00000000000E+00  0.16971069647E+04  0.16971069647E+04  0.25500000920E-02 0.  1.
       -2   -1    0    0    0  501  0.00000000000E+00  0.00000000000E+00 -0.23588826917E+04  0.23588826917E+04  0.25500000920E-02 0. -1.
    10030    2    1    2    0    0  0.00000000000E+00  0.00000000000E+00 -0.66177572705E+03  0.40559896564E+04  0.40016377872E+04 0.  0.
        3    1    3    3  502    0 -0.18085245606E+04  0.41661151200E+03  0.42689633022E+03  0.19043546742E+04  0.10100000352E+00 0.  1.
       -3    1    3    3    0  502  0.18085245606E+04 -0.41661151200E+03 -0.10886720573E+04  0.21516349822E+04  0.10100000352E+00 0. -1.
</event>
<event>
 5   0  0.8329875E-09  0.3997708E+04  0.7818609E-02  0.8005009E-01
       -1   -1    0    0    0  501  0.00000000000E+00  0.00000000000E+00  0.17813424275E+04  0.17813424275E+04  0.50400001928E-02 0. -1.
        1   -1    0    0  501    0  0.00000000000E+00  0.00000000000E+00 -0.22429249821E+04  0.22429249822E+04  0.50400001928E-02 0.  1.
    10030    2    1    2    0    0  0.00000000000E+00  0.00000000000E+00 -0.46158255468E+03  0.40242674096E+04  0.39977080596E+04 0.  0.
        3    1    3    3  502    0  0.14234302971E+04  0.61670417624E+02  0.11804715478E+04  0.18502621804E+04  0.10100000352E+00 0. -1.
       -3    1    3    3    0  502 -0.14234302971E+04 -0.61670417624E+02 -0.16420541024E+04  0.21740052292E+04  0.10100000352E+00 0.  1.
</event>
<event>
 5   0  0.8329875E-09  0.4002387E+04  0.7818609E-02  0.8004065E-01
        1   -1    0    0  501    0  0.00000000000E+00  0.00000000000E+00  0.14605307088E+04  0.14605307088E+04  0.50400001928E-02 0.  1.
       -1   -1    0    0    0  501  0.00000000000E+00  0.00000000000E+00 -0.27420006214E+04  0.27420006214E+04  0.50400001928E-02 0. -1.
    10030    2    1    2    0    0  0.00000000000E+00  0.00000000000E+00 -0.12814699126E+04  0.42025313302E+04  0.40023873431E+04 0.  0.
        4    1    3    3  502    0 -0.10051852405E+03  0.18257438414E+04  0.21315310022E+03  0.18408911986E+04  0.12699999809E+01 0.  1.
       -4    1    3    3    0  502  0.10051852405E+03 -0.18257438414E+04 -0.14946230129E+04  0.23616401316E+04  0.12699999809E+01 0. -1.
</event>
<event>
 5   0  0.8329875E-09  0.4002668E+04  0.7818609E-02  0.8004009E-01
        3   -1    0    0  501    0  0.00000000000E+00  0.00000000000E+00  0.15274125191E+04  0.15274125224E+04  0.10100000352E+00 0.  1.
       -3   -1    0    0    0  501  0.00000000000E+00  0.00000000000E+00 -0.26223025412E+04  0.26223025432E+04  0.10100000352E+00 0. -1.
    10030    2    1    2    0    0  0.00000000000E+00  0.00000000000E+00 -0.10948900221E+04  0.41497150656E+04  0.40026679809E+04 0.  0.
        3    1    3    3  502    0 -0.11499517174E+04 -0.30293336777E+03  0.11214058022E+04  0.16345361915E+04  0.10100000352E+00 0.  1.
       -3    1    3    3    0  502  0.11499517174E+04  0.30293336777E+03 -0.22162958243E+04  0.25151788741E+04  0.10100000352E+00 0. -1.
</event>
<event>
 5   0  0.2612363E-08  0.4023423E+04  0.7818609E-02  0.7999838E-01
       -2   -1    0    0    0  501  0.00000000000E+00  0.00000000000E+00  0.19106760522E+04  0.19106760522E+04  0.25500000920E-02 0. -1.
        2   -1    0    0  501    0  0.00000000000E+00  0.00000000000E+00 -0.21180900682E+04  0.21180900682E+04  0.25500000920E-02 0.  1.
    10030    2    1    2    0    0  0.00000000000E+00  0.00000000000E+00 -0.20741401607E+03  0.40287661204E+04  0.40234234029E+04 0.  0.
        4    1    3    3  502    0  0.13973305123E+03 -0.18391468067E+03 -0.21047681714E+04  0.21174042136E+04  0.12699999809E+01 0.  1.
       -4    1    3    3    0  502 -0.13973305123E+03  0.18391468067E+03  0.18973541553E+04  0.19113619069E+04  0.12699999809E+01 0. -1.
</event>
<event>
 5   0  0.2612363E-08  0.3999470E+04  0.7818609E-02  0.8004654E-01
        2   -1    0    0  501    0  0.00000000000E+00  0.00000000000E+00  0.16215413270E+04  0.16215413270E+04  0.25500000920E-02 0. -1.
       -2   -1    0    0    0  501  0.00000000000E+00  0.00000000000E+00 -0.24661346541E+04  0.24661346541E+04  0.25500000920E-02 0.  1.
    10030    2    1    2    0    0  0.00000000000E+00  0.00000000000E+00 -0.84459332718E+03  0.40876759811E+04  0.39994695946E+04 0.  0.
        4    1    3    3  502    0 -0.16649115365E+03  0.13859194596E+04  0.10412217427E+04  0.17414466352E+04  0.12699999809E+01 0. -1.
       -4    1    3    3    0  502  0.16649115365E+03 -0.13859194596E+04 -0.18858150699E+04  0.23462293459E+04  0.12699999809E+01 0.  1.
</event>
<event>
 5   0  0.2650452E-08  0.3989747E+04  0.7818609E-02  0.8006618E-01
       -2   -1    0    0    0  501  0.00000000000E+00  0.00000000000E+00  0.18831476394E+04  0.18831476394E+04  0.25500000920E-02 0.  1.
        2   -1    0    0  501    0  0.00000000000E+00  0.00000000000E+00 -0.21132277434E+04  0.21132277434E+04  0.25500000920E-02 0. -1.
    10030    2    1    2    0    0  0.00000000000E+00  0.00000000000E+00 -0.23008010401E+03  0.39963753828E+04  0.39897467772E+04 0.  0.
        3    1    3    3  502    0  0.12684178129E+03  0.15100299493E+04  0.11845130608E+04  0.19233695658E+04  0.10100000352E+00 0.  1.
       -3    1    3    3    0  502 -0.12684178129E+03 -0.15100299493E+04 -0.14145931648E+04  0.20730058170E+04  0.10100000352E+00 0. -1.
</event>
<event>
 5   0  0.8329875E-09  0.4002942E+04  0.7818609E-02  0.8003953E-01
       -1   -1    0    0    0  501  0.00000000000E+00  0.00000000000E+00  0.21939340960E+04  0.21939340960E+04  0.50400001928E-02 0.  1.
        1   -1    0    0  501    0  0.00000000000E+00  0.00000000000E+00 -0.18258918533E+04  0.18258918533E+04  0.50400001928E-02 0. -1.
    10030    2    1    2    0    0  0.00000000000E+00  0.00000000000E+00  0.36804224264E+03  0.40198259493E+04  0.40029421143E+04 0.  0.
        1    1    3    3  502    0 -0.77573319581E+02 -0.13154756231E+04 -0.13287832202E+04  0.18714055095E+04  0.50400001928E-02 0. -1.
       -1    1    3    3    0  502  0.77573319581E+02  0.13154756231E+04  0.16968254628E+04  0.21484204398E+04  0.50400001928E-02 0.  1.
</event>
<event>
 5   0  0.2612363E-08  0.3995777E+04  0.7818609E-02  0.8005399E-01
        2   -1    0    0  501    0  0.00000000000E+00  0.00000000000E+00  0.14566125283E+04  0.14566125283E+04  0.25500000920E-02 0.  1.
       -2   -1    0    0    0  501  0.00000000000E+00  0.00000000000E+00 -0.27403026861E+04  0.27403026861E+04  0.25500000920E-02 0. -1.
    10030    2    1    2    0    0  0.00000000000E+00  0.00000000000E+00 -0.12836901578E+04  0.41969152143E+04  0.39957773831E+04 0.  0.
        4    1    3    3  502    0 -0.10653571991E+04  0.26558086587E+03  0.11113185996E+04  0.15622259122E+04  0.12699999809E+01 0.  1.
       -4    1    3    3    0  502  0.10653571991E+04 -0.26558086587E+03 -0.23950087574E+04  0.26346893022E+04  0.12699999809E+01 0. -1.
</event>
<event>
 5   0  0.8329875E-09  0.4005167E+04  0.7818609E-02  0.8003505E-01
        1   -1    0    0  501    0  0.00000000000E+00  0.00000000000E+00  0.20552520010E+04  0.20552520010E+04  0.50400001928E-02 0. -1.
       -1   -1    0    0    0  501  0.00000000000E+00  0.00000000000E+00 -0.19512646809E+04  0.19512646809E+04  0.50400001928E-02 0.  1.
    10030    2    1    2    0    0  0.00000000000E+00  0.00000000000E+00  0.10398732015E+03  0.40065166819E+04  0.40051669827E+04 0.  0.
        4    1    3    3  502    0  0.11772479053E+04  0.11520346923E+04  0.11913430032E+04  0.20328296355E+04  0.12699999809E+01 0. -1.
       -4    1    3    3    0  502 -0.11772479053E+04 -0.11520346923E+04 -0.10873556830E+04  0.19736870464E+04  0.12699999809E+01 0.  1.
</event>
<event>
 5   0  0.2746876E-08  0.3989295E+04  0.7818609E-02  0.8006710E-01
       -2   -1    0    0    0  501  0.00000000000E+00  0.00000000000E+00  0.16277965145E+04  0.16277965145E+04  0.25500000920E-02 0. -1.
        2   -1    0    0  501    0  0.00000000000E+00  0.00000000000E+00 -0.24441743456E+04  0.24441743456E+04  0.25500000920E-02 0.  1.
    10030    2    1    2    0    0  0.00000000000E+00  0.00000000000E+00 -0.81637783115E+03  0.40719708601E+04  0.39892949155E+04 0.  0.
        1    1    3    3  502    0  0.13470868608E+04  0.63366153177E+03 -0.17632745455E+04  0.23076626855E+04  0.50400001928E-02 0.  1.
       -1    1    3    3    0  502 -0.13470868608E+04 -0.63366153177E+03  0.94689671434E+03  0.17643081746E+04  0.50400001928E-02 0. -1.
</event>
<event>
 5   0  0.2587493E-08  0.3935310E+04  0.7818609E-02  0.8017725E-01
       -2   -1    0    0    0  501  0.00000000000E+00  0.00000000000E+00  0.18976865971E+04  0.18976865971E+04  0.25500000920E-02 0. -1.
        2   -1    0    0  501    0  0.00000000000E+00  0.00000000000E+00 -0.20402035134E+04  0.20402035134E+04  0.25500000920E-02 0.  1.
    10030    2    1    2    0    0  0.00000000000E+00  0.00000000000E+00 -0.14251691629E+03  0.39378901105E+04  0.39353103373E+04 0.  0.
        5    1    3    3  502    0 -0.19350143199E+04 -0.35478974573E+03 -0.10986600935E+03  0.19703423083E+04  0.46999998093E+01 0.  1.
       -5    1    3    3    0  502  0.19350143199E+04  0.35478974573E+03 -0.32650906934E+02  0.19675478021E+04  0.46999998093E+01 0. -1.
</event>
<event>
 5   0  0.8329875E-09  0.4001541E+04  0.7818609E-02  0.8004236E-01
        1   -1    0    0  501    0  0.00000000000E+00  0.00000000000E+00  0.18753637627E+04  0.18753637627E+04  0.50400001928E-02 0. -1.
       -1   -1    0    0    0  501  0.00000000000E+00  0.00000000000E+00 -0.21345635366E+04  0.21345635366E+04  0.50400001928E-02 0.  1.
    10030    2    1    2    0    0  0.00000000000E+00  0.00000000000E+00 -0.25919977390E+03  0.40099272993E+04  0.40015412559E+04 0.  0.
        1    1    3    3  502    0 -0.41098804348E+03  0.40135431631E+03  0.17909464360E+04  0.18808204581E+04  0.50400001928E-02 0. -1.
       -1    1    3    3    0  502  0.41098804348E+03 -0.40135431631E+03 -0.20501462099E+04  0.21291068412E+04  0.50400001928E-02 0.  1.
</event>
<event>
 5   0  0.8329875E-09  0.3995369E+04  0.7818609E-02  0.8005481E-01
       -1   -1    0    0    0  501  0.00000000000E+00  0.00000000000E+00  0.19270046168E+04  0.19270046168E+04  0.50400001928E-02 0. -1.
        1   -1    0    0  501    0  0.00000000000E+00  0.00000000000E+00 -0.20709564224E+04  0.20709564224E+04  0.50400001928E-02 0.  1.
    10030    2    1    2    0    0  0.00000000000E+00  0.00000000000E+00 -0.14395180553E+03  0.39979610392E+04  0.39953686124E+04 0.  0.
        1    1    3    3  502    0 -0.80132819276E+03  0.16469656644E+04  0.72611280503E+03  0.19702442940E+04  0.50400001928E-02 0.  1.
       -1    1    3    3    0  502  0.80132819276E+03 -0.16469656644E+04 -0.87006461056E+03  0.20277167452E+04  0.50400001928E-02 0. -1.
</event>
<event>
 5   0  0.8329875E-09  0.4005860E+04  0.7818609E-02  0.8003365E-01
        1   -1    0    0  501    0  0.00000000000E+00  0.00000000000E+00  0.22257009964E+04  0.22257009964E+04  0.50400001928E-02 0. -1.
       -1   -1    0    0    0  501  0.00000000000E+00  0.00000000000E+00 -0.18024565926E+04  0.18024565926E+04  0.50400001928E-02 0.  1.
    10030    2    1    2    0    0  0.00000000000E+00  0.00000000000E+00  0.42324440381E+03  0.40281575890E+04  0.40058604240E+04 0.  0.
        4    1    3    3  502    0  0.29152008086E+03  0.11207912944E+04  0.18549064131E+04  0.21867410677E+04  0.12699999809E+01 0. -1.
       -4    1    3    3    0  502 -0.29152008086E+03 -0.11207912944E+04 -0.14316620092E+04  0.18414165213E+04  0.12699999809E+01 0.  1.
</event>
<event>
 5   0  0.2612363E-08  0.4012511E+04  0.7818609E-02  0.8002027E-01
       -2   -1    0    0    0  501  0.00000000000E+00  0.00000000000E+00  0.15822729579E+04  0.15822729579E+04  0.25500000920E-02 0. -1.
        2   -1    0    0  501    0  0.00000000000E+00  0.00000000000E+00 -0.25438478625E+04  0.25438478625E+04  0.25500000920E-02 0.  1.
    10030    2    1    2    0    0  0.00000000000E+00  0.00000000000E+00 -0.96157490459E+03  0.41261208205E+04  0.40125112745E+04 0.  0.
        4    1    3    3  502    0  0.15031372137E+04  0.97206561488E+03 -0.14123779338E+04  0.22801636089E+04  0.12699999809E+01 0.  1.
       -4    1    3    3    0  502 -0.15031372137E+04 -0.97206561488E+03  0.45080302921E+03  0.18459572115E+04  0.12699999809E+01 0. -1.
</event>
<event>
 5   0  0.8329875E-09  0.3996612E+04  0.7818609E-02  0.8005230E-01
        1   -1    0    0  501    0  0.00000000000E+00  0.00000000000E+00  0.13515848517E+04  0.13515848517E+04  0.50400001928E-02 0.  1.
       -1   -1    0    0    0  501  0.00000000000E+00  0.00000000000E+00 -0.29544768586E+04  0.29544768586E+04  0.50400001928E-02 0. -1.
    10030    2    1    2    0    0  0.00000000000E+00  0.00000000000E+00 -0.16028920069E+04  0.43060617103E+04  0.39966116483E+04 0.  0.
        1    1    3    3  502    0 -0.73791146638E+03  0.18067545565E+04 -0.12640515347E+04  0.23252315244E+04  0.50400001928E-02 0. -1.
       -1    1    3    3    0  502  0.73791146638E+03 -0.18067545565E+04 -0.33884047222E+03  0.19808301859E+04  0.50400001928E-02 0.  1.
</event>
<event>
 5   0  0.2746876E-08  0.4007581E+04  0.7818609E-02  0.8003019E-01
        2   -1    0    0  501    0  0.00000000000E+00  0.00000000000E+00  0.15132795434E+04  0.15132795434E+04  0.25500000920E-02 0. -1.
       -2   -1    0    0    0  501  0.00000000000E+00  0.00000000000E+00 -0.26532949382E+04  0.26532949382E+04  0.25500000920E-02 0.  1.
    10030    2    1    2    0    0  0.00000000000E+00  0.00000000000E+00 -0.11400153948E+04  0.41665744816E+04  0.40075812918E+04 0.  0.
        1    1    3    3  502    0 -0.61274777379E+03  0.17812002530E+04  0.14051039176E+03  0.18888825654E+04  0.50400001928E-02 0. -1.
       -1    1    3    3    0  502  0.61274777379E+03 -0.17812002530E+04 -0.12805257865E+04  0.22776919163E+04  0.50400001928E-02 0.  1.
</event>
<event>
 5   0  0.8329875E-09  0.4001306E+04  0.7818609E-02  0.8004283E-01
        3   -1    0    0  501    0  0.00000000000E+00  0.00000000000E+00  0.17087306860E+04  0.17087306890E+04  0.10100000352E+00 0. -1.
       -3   -1    0    0    0  501  0.00000000000E+00  0.00000000000E+00 -0.23424477007E+04  0.23424477029E+04  0.10100000352E+00 0.  1.
    10030    2    1    2    0    0  0.00000000000E+00  0.00000000000E+00 -0.63371701468E+03  0.40511783919E+04  0.40013059254E+04 0.  0.
        5    1    3    3  502    0  0.44592820016E+03  0.55264109310E+03  0.15768352710E+04  0.17293628016E+04  0.46999998093E+01 0. -1.
       -5    1    3    3    0  502 -0.44592820016E+03 -0.55264109310E+03 -0.22105522857E+04  0.23218155903E+04  0.46999998093E+01 0.  1.
</event>
<event>
 5   0  0.2650452E-08  0.3977939E+04  0.7818609E-02  0.8009012E-01
       -2   -1    0    0    0  501  0.00000000000E+00  0.00000000000E+00  0.17841794480E+04  0.17841794480E+04  0.25500000920E-02 0. -1.
        2   -1    0    0  501    0  0.00000000000E+00  0.00000000000E+00 -0.22172651003E+04  0.22172651003E+04  0.25500000920E-02 0.  1.
    10030    2    1    2    0    0  0.00000000000E+00  0.00000000000E+00 -0.43308565222E+03  0.40014445483E+04  0.39779385730E+04 0.  0.
        3    1    3    3  502    0  0.66255752449E+03  0.32318009597E+03  0.16416876394E+04  0.17996016680E+04  0.10100000352E+00 0. -1.
       -3    1    3    3    0  502 -0.66255752449E+03 -0.32318009597E+03 -0.20747732916E+04  0.22018428803E+04  0.10100000352E+00 0.  1.
</event>
<event>
 5   0  0.8329875E-09  0.3982906E+04  0.7818609E-02  0.8008004E-01
       -1   -1    0    0    0  501  0.00000000000E+00  0.00000000000E+00  0.18455684487E+04  0.18455684487E+04  0.50400001928E-02 0. -1.
        1   -1    0    0  501    0  0.00000000000E+00  0.00000000000E+00 -0.21488686207E+04  0.21488686207E+04  0.50400001928E-02 0.  1.
    10030    2    1    2    0    0  0.00000000000E+00  0.00000000000E+00 -0.30330017203E+03  0.39944370694E+04  0.39829055358E+04 0.  0.
        1    1    3    3  502    0  0.11479719569E+04  0.94498573070E+03 -0.14802673421E+04  0.20981012962E+04  0.50400001928E-02 0.  1.
       -1    1    3    3    0  502 -0.11479719569E+04 -0.94498573070E+03  0.11769671701E+04  0.18963357732E+04  0.50400001928E-02 0. -1.
</event>
<event>
 5   0  0.2587493E-08  0.4004808E+04  0.7818609E-02  0.8003577E-01
        2   -1    0    0  501    0  0.00000000000E+00  0.00000000000E+00  0.22499496651E+04  0.22499496651E+04  0.25500000920E-02 0. -1.
       -2   -1    0    0    0  501  0.00000000000E+00  0.00000000000E+00 -0.17820936063E+04  0.17820936063E+04  0.25500000920E-02 0.  1.
    10030    2    1    2    0    0  0.00000000000E+00  0.00000000000E+00  0.46785605873E+03  0.40320432714E+04  0.40048075673E+04 0.  0.
        5    1    3    3  502    0  0.13685611529E+04 -0.60831924789E+03  0.15720972380E+04  0.21712954088E+04  0.46999998093E+01 0. -1.
       -5    1    3    3    0  502 -0.13685611529E+04  0.60831924789E+03 -0.11042411792E+04  0.18607478627E+04  0.46999998093E+01 0.  1.
</event>
<event>
 5   0  0.8329875E-09  0.4000012E+04  0.7818609E-02  0.8004544E-01
        1   -1    0    0  501    0  0.00000000000E+00  0.00000000000E+00  0.19095827340E+04  0.19095827340E+04  0.50400001928E-02 0.  1.
       -1   -1    0    0    0  501  0.00000000000E+00  0.00000000000E+00 -0.20947114411E+04  0.20947114411E+04  0.50400001928E-02 0. -1.
    10030    2    1    2    0    0  0.00000000000E+00  0.00000000000E+00 -0.18512870703E+03  0.40042941751E+04  0.40000124003E+04 0.  0.
        1    1    3    3  502    0  0.86239306777E+03  0.90196868931E+03 -0.16571690729E+04  0.20744827442E+04  0.50400001928E-02 0. -1.
       -1    1    3    3    0  502 -0.86239306777E+03 -0.90196868931E+03  0.14720403659E+04  0.19298114309E+04  0.50400001928E-02 0.  1.
</event>
<event>
 5   0  0.8329875E-09  0.3924512E+04  0.7818609E-02  0.8019950E-01
       -3   -1    0    0    0  501  0.00000000000E+00  0.00000000000E+00  0.18791784952E+04  0.18791784979E+04  0.10100000352E+00 0. -1.
        3   -1    0    0  501    0  0.00000000000E+00  0.00000000000E+00 -0.20490065261E+04  0.20490065285E+04  0.10100000352E+00 0.  1.
    10030    2    1    2    0    0  0.00000000000E+00  0.00000000000E+00 -0.16982803083E+03  0.39281850265E+04  0.39245122044E+04 0.  0.
        4    1    3    3  502    0 -0.17192405529E+03 -0.67906777635E+03 -0.19195932752E+04  0.20434115789E+04  0.12699999809E+01 0.  1.
       -4    1    3    3    0  502  0.17192405529E+03  0.67906777635E+03  0.17497652443E+04  0.18847734476E+04  0.12699999809E+01 0. -1.
</event>
<event>
 5   0  0.8329875E-09  0.3999978E+04  0.7818609E-02  0.8004551E-01
       -1   -1    0    0    0  501  0.00000000000E+00  0.00000000000E+00  0.14621374859E+04  0.14621374859E+04  0.50400001928E-02 0.  1.
        1   -1    0    0  501    0  0.00000000000E+00  0.00000000000E+00 -0.27356901382E+04  0.27356901382E+04  0.50400001928E-02 0. -1.
    10030    2    1    2    0    0  0.00000000000E+00  0.00000000000E+00 -0.12735526523E+04  0.41978276241E+04  0.39999775504E+04 0.  0.
        3    1    3    3  502    0 -0.22803186004E+03  0.19868601609E+04 -0.65622008138E+03  0.21048127313E+04  0.10100000352E+00 0.  1.
       -3    1    3    3    0  502  0.22803186004E+03 -0.19868601609E+04 -0.61733257095E+03  0.20930148929E+04  0.10100000352E+00 0. -1.
</event>
<event>
 5   0  0.2612363E-08  0.3972655E+04  0.7818609E-02  0.8010086E-01
        2   -1    0    0  501    0  0.00000000000E+00  0.00000000000E+00  0.24944699764E+04  0.24944699764E+04  0.25500000920E-02 0.  1.
       -2   -1    0    0    0  501  0.00000000000E+00  0.00000000000E+00 -0.15816971521E+04  0.15816971521E+04  0.25500000920E-02 0. -1.
    10030    2    1    2    0    0  0.00000000000E+00  0.00000000000E+00  0.91277282427E+03  0.40761671286E+04  0.39726545572E+04 0.  0.
        4    1    3    3  502    0 -0.18720618911E+04  0.42827586552E+02 -0.22348293285E+03  0.18858409691E+04  0.12699999809E+01 0. -1.
       -4    1    3    3    0  502  0.18720618911E+04 -0.42827586552E+02  0.11362557571E+04  0.21903261595E+04  0.12699999809E+01 0.  1.
</event>
<event>
 5   0  0.8329875E-09  0.3999054E+04  0.7818609E-02  0.8004737E-01
       -1   -1    0    0    0  501  0.00000000000E+00  0.00000000000E+00  0.17613839243E+04  0.17613839243E+04  0.50400001928E-02 0. -1.
        1   -1    0    0  501    0  0.00000000000E+00  0.00000000000E+00 -0.22698676834E+04  0.22698676834E+04  0.50400001928E-02 0.  1.
    10030    2    1    2    0    0  0.00000000000E+00  0.00000000000E+00 -0.50848375909E+03  0.40312516076E+04  0.39990541120E+04 0.  0.
        2    1    3    3  502    0  0.54201218451E+03  0.15102447141E+04 -0.14569497741E+04  0.21673299123E+04  0.25500000920E-02 0.  1.
       -2    1    3    3    0  502 -0.54201218451E+03 -0.15102447141E+04  0.94846601497E+03  0.18639216953E+04  0.25500000920E-02 0. -1.
</event>
<event>
 5   0  0.2746876E-08  0.4012807E+04  0.7818609E-02  0.8001968E-01
        2   -1    0    0  501    0  0.00000000000E+00  0.00000000000E+00  0.22136772355E+04  0.22136772355E+04  0.25500000920E-02 0. -1.
       -2   -1    0    0    0  501  0.00000000000E+00  0.00000000000E+00 -0.18185378976E+04  0.18185378976E+04  0.25500000920E-02 0.  1.
    10030    2    1    2    0    0  0.00000000000E+00  0.00000000000E+00  0.39513933796E+03  0.40322151331E+04  0.40128074690E+04 0.  0.
        1    1    3    3  502    0  0.13737832081E+04  0.53750478257E+03  0.15640970646E+04  0.21500212375E+04  0.50400001928E-02 0. -1.
       -1    1    3    3    0  502 -0.13737832081E+04 -0.53750478257E+03 -0.11689577266E+04  0.18821938956E+04  0.50400001928E-02 0.  1.
</event>
<event>
 5   0  0.2612363E-08  0.3999500E+04  0.7818609E-02  0.8004647E-01
       -2   -1    0    0    0  501  0.00000000000E+00  0.00000000000E+00  0.18099456800E+04  0.18099456800E+04  0.25500000920E-02 0. -1.
        2   -1    0    0  501    0  0.00000000000E+00  0.00000000000E+00 -0.22094582400E+04  0.22094582400E+04  0.25500000920E-02 0.  1.
    10030    2    1    2    0    0  0.00000000000E+00  0.00000000000E+00 -0.39951256005E+03  0.40194039200E+04  0.39994996670E+04 0.  0.
        4    1    3    3  502    0  0.73392499325E+03  0.31583406711E+03  0.16425610843E+04  0.18265830346E+04  0.12699999809E+01 0. -1.
       -4    1    3    3    0  502 -0.73392499325E+03 -0.31583406711E+03 -0.20420736443E+04  0.21928208854E+04  0.12699999809E+01 0.  1.
</event>
<event>
 5   0  0.2612363E-08  0.4003018E+04  0.7818609E-02  0.8003938E-01
       -2   -1    0    0    0  501  0.00000000000E+00  0.00000000000E+00  0.18119337958E+04  0.18119337958E+04  0.25500000920E-02 0.  1.
        2   -1    0    0  501    0  0.00000000000E+00  0.00000000000E+00 -0.22109182635E+04  0.22109182635E+04  0.25500000920E-02 0. -1.
    10030    2    1    2    0    0  0.00000000000E+00  0.00000000000E+00 -0.39898446777E+03  0.40228520593E+04  0.40030176224E+04 0.  0.
        4    1    3    3  502    0 -0.48263633193E+03  0.17710592719E+04 -0.10012214822E+04  0.20909411380E+04  0.12699999809E+01 0. -1.
       -4    1    3    3    0  502  0.48263633193E+03 -0.17710592719E+04  0.60223701441E+03  0.19319109213E+04  0.12699999809E+01 0.  1.
</event>
<event>
 5   0  0.2599332E-08  0.3987970E+04  0.7818609E-02  0.8006978E-01
        2   -1    0    0  501    0  0.00000000000E+00  0.00000000000E+00  0.13792336069E+04  0.13792336069E+04  0.25500000920E-02 0.  1.
       -2   -1    0    0    0  501  0.00000000000E+00  0.00000000000E+00 -0.28827432839E+04  0.28827432839E+04  0.25500000920E-02 0. -1.
    10030    2    1    2    0    0  0.00000000000E+00  0.00000000000E+00 -0.15035096770E+04  0.42619768908E+04  0.39879701189E+04 0.  0.
        2    1    3    3  502    0  0.10866435497E+04 -0.16682665319E+04 -0.63434764852E+03  0.20895703780E+04  0.25500000920E-02 0.  1.
       -2    1    3    3    0  502 -0.10866435497E+04  0.16682665319E+04 -0.86916202846E+03  0.21724065128E+04  0.25500000920E-02 0. -1.
</event>
<event>
 5   0  0.2650452E-08  0.3995218E+04  0.7818609E-02  0.8005512E-01
       -2   -1    0    0    0  501  0.00000000000E+00  0.00000000000E+00  0.21063211090E+04  0.21063211090E+04  0.25500000920E-02 0.  1.
        2   -1    0    0  501    0  0.00000000000E+00  0.00000000000E+00 -0.18945074103E+04  0.18945074103E+04  0.25500000920E-02 0. -1.
    10030    2    1    2    0    0  0.00000000000E+00  0.00000000000E+00  0.21181369869E+03  0.40008285193E+04  0.39952176159E+04 0.  0.
        3    1    3    3  502    0  0.10610184482E+04  0.10174346719E+04 -0.12485856119E+04  0.19287040985E+04  0.10100000352E+00 0. -1.
       -3    1    3    3    0  502 -0.10610184482E+04 -0.10174346719E+04  0.14603993106E+04  0.20721244209E+04  0.10100000352E+00 0.  1.
</event>
<event>
 5   0  0.8329875E-09  0.3990551E+04  0.7818609E-02  0.8006455E-01
        1   -1    0    0  501    0  0.00000000000E+00  0.00000000000E+00  0.27011694453E+04  0.27011694453E+04  0.50400001928E-02 0.  1.
       -1   -1    0    0    0  501  0.00000000000E+00  0.00000000000E+00 -0.14738522339E+04  0.14738522339E+04  0.50400001928E-02 0. -1.
    10030    2    1    2    0    0  0.00000000000E+00  0.00000000000E+00  0.12273172114E+04  0.41750216792E+04  0.39905511504E+04 0.  0.
        3    1    3    3  502    0 -0.19730878912E+04  0.19938598870E+03  0.84357635312E+03  0.21550989937E+04  0.10100000352E+00 0. -1.
       -3    1    3    3    0  502  0.19730878912E+04 -0.19938598870E+03  0.38374085832E+03  0.20199226855E+04  0.10100000352E+00 0.  1.
</event>
<event>
 5   0  0.8329875E-09  0.4002204E+04  0.7818609E-02  0.8004102E-01
       -1   -1    0    0    0  501  0.00000000000E+00  0.00000000000E+00  0.15819525875E+04  0.15819525875E+04  0.50400001928E-02 0. -1.
        1   -1    0    0  501    0  0.00000000000E+00  0.00000000000E+00 -0.25313074774E+04  0.25313074774E+04  0.50400001928E-02 0.  1.
    10030    2    1    2    0    0  0.00000000000E+00  0.00000000000E+00 -0.94935488986E+03  0.41132600649E+04  0.40022035998E+04 0.  0.
        4    1    3    3  502    0  0.92607040400E+03  0.52144264039E+03 -0.22172794512E+04  0.24588287044E+04  0.12699999809E+01 0.  1.
       -4    1    3    3    0  502 -0.92607040400E+03 -0.52144264039E+03  0.12679245613E+04  0.16544313604E+04  0.12699999809E+01 0. -1.
</event>
<event>
 5   0  0.2650452E-08  0.3998562E+04  0.7818609E-02  0.8004837E-01
        2   -1    0    0  501    0  0.00000000000E+00  0.00000000000E+00  0.10756296210E+04  0.10756296210E+04  0.25500000920E-02 0.  1.
       -2   -1    0    0    0  501  0.00000000000E+00  0.00000000000E+00 -0.37160796941E+04  0.37160796941E+04  0.25500000920E-02 0. -1.
    10030    2    1    2    0    0  0.00000000000E+00  0.00000000000E+00 -0.26404500731E+04  0.47917093151E+04  0.39985624381E+04 0.  0.
        3    1    3    3  502    0  0.80722419444E+02  0.11505365863E+04 -0.32772118484E+04  0.34742435227E+04  0.10100000352E+00 0. -1.
       -3    1    3    3    0  502 -0.80722419444E+02 -0.11505365863E+04  0.63676177533E+03  0.13174657924E+04  0.10100000352E+00 0.  1.
</event>
<event>
 5   0  0.2599332E-08  0.4002785E+04  0.7818609E-02  0.8003985E-01
        2   -1    0    0  501    0  0.00000000000E+00  0.00000000000E+00  0.24570634107E+04  0.24570634107E+04  0.25500000920E-02 0.  1.
       -2   -1    0    0    0  501  0.00000000000E+00  0.00000000000E+00 -0.16302271019E+04  0.16302271019E+04  0.25500000920E-02 0. -1.
    10030    2    1    2    0    0  0.00000000000E+00  0.00000000000E+00  0.82683630887E+03  0.40872905126E+04  0.40027847122E+04 0.  0.
        2    1    3    3  502    0  0.11574041471E+04  0.84438857377E+03 -0.10135813877E+04  0.17549711259E+04  0.25500000920E-02 0. -1.
       -2    1    3    3    0  502 -0.11574041471E+04 -0.84438857377E+03  0.18404176966E+04  0.23323193866E+04  0.25500000920E-02 0.  1.
</event>
<event>
 5   0  0.8329875E-09  0.3997816E+04  0.7818609E-02  0.8004987E-01
       -1   -1    0    0    0  501  0.00000000000E+00  0.00000000000E+00  0.19682905899E+04  0.19682905900E+04  0.50400001928E-02 0. -1.
        1   -1    0    0  501    0  0.00000000000E+00  0.00000000000E+00 -0.20300012600E+04  0.20300012600E+04  0.50400001928E-02 0.  1.
    10030    2    1    2    0    0  0.00000000000E+00  0.00000000000E+00 -0.61710670042E+02  0.39982918499E+04  0.39978155924E+04 0.  0.
        1    1    3    3  502    0  0.17975521761E+04  0.72952980458E+03 -0.51280984412E+03  0.20065845355E+04  0.50400001928E-02 0. -1.
       -1    1    3    3    0  502 -0.17975521761E+04 -0.72952980458E+03  0.45109917408E+03  0.19917073145E+04  0.50400001928E-02 0.  1.
</event>
<event>
 5   0  0.2746876E-08  0.4000146E+04  0.7818609E-02  0.8004517E-01
        2   -1    0    0  501    0  0.00000000000E+00  0.00000000000E+00  0.18572913066E+04  0.18572913066E+04  0.25500000920E-02 0. -1.
       -2   -1    0    0    0  501  0.00000000000E+00  0.00000000000E+00 -0.21538313591E+04  0.21538313591E+04  0.25500000920E-02 0.  1.
    10030    2    1    2    0    0  0.00000000000E+00  0.00000000000E+00 -0.29654005250E+03  0.40111226657E+04  0.40001461269E+04 0.  0.
        1    1    3    3  502    0  0.11983662011E+04  0.95283900654E+03  0.11422379907E+04  0.19101547978E+04  0.50400001928E-02 0. -1.
       -1    1    3    3    0  502 -0.11983662011E+04 -0.95283900654E+03 -0.14387780432E+04  0.21009678679E+04  0.50400001928E-02 0.  1.
</event>
<event>
 5   0  0.8329875E-09  0.3995203E+04  0.7818609E-02  0.8005515E-01
        1   -1    0    0  501    0  0.00000000000E+00  0.00000000000E+00  0.12771818700E+04  0.12771818701E+04  0.50400001928E-02 0. -1.
       -1   -1    0    0    0  501  0.00000000000E+00  0.00000000000E+00 -0.31243878768E+04  0.31243878768E+04  0.50400001928E-02 0.  1.
    10030    2    1    2    0    0  0.00000000000E+00  0.00000000000E+00 -0.18472060067E+04  0.44015697468E+04  0.39952028991E+04 0.  0.
        2    1    3    3  502    0 -0.59146012814E+03 -0.86410434528E+03  0.95057686813E+03  0.14142481342E+04  0.25500000920E-02 0. -1.
       -2    1    3    3    0  502  0.59146012814E+03  0.86410434528E+03 -0.27977828749E+04  0.29873216127E+04  0.25500000920E-02 0.  1.
</event>
<event>
 5   0  0.2587493E-08  0.4001224E+04  0.7818609E-02  0.8004300E-01
       -2   -1    0    0    0  501  0.00000000000E+00  0.00000000000E+00  0.19883310061E+04  0.19883310061E+04  0.25500000920E-02 0. -1.
        2   -1    0    0  501    0  0.00000000000E+00  0.00000000000E+00 -0.20129693216E+04  0.20129693216E+04  0.25500000920E-02 0.  1.
    10030    2    1    2    0    0  0.00000000000E+00  0.00000000000E+00 -0.24638315447E+02  0.40013003277E+04  0.40012244708E+04 0.  0.
        5    1    3    3  502    0  0.81744028736E+03  0.17580738490E+03 -0.18298547471E+04  0.20118417794E+04  0.46999998093E+01 0.  1.
       -5    1    3    3    0  502 -0.81744028736E+03 -0.17580738490E+03  0.18052164317E+04  0.19894585482E+04  0.46999998093E+01 0. -1.
</event>
<event>
 5   0  0.8329875E-09  0.3993398E+04  0.7818609E-02  0.8005880E-01
        1   -1    0    0  501    0  0.00000000000E+00  0.00000000000E+00  0.28278705335E+04  0.28278705335E+04  0.50400001928E-02 0.  1.
       -1   -1    0    0    0  501  0.00000000000E+00  0.00000000000E+00 -0.14098264578E+04  0.14098264578E+04  0.50400001928E-02 0. -1.
    10030    2    1    2    0    0  0.00000000000E+00  0.00000000000E+00  0.14180440757E+04  0.42376969913E+04  0.39933979002E+04 0.  0.
        2    1    3    3  502    0  0.10864725558E+04  0.11147987943E+04 -0.61791775888E+03  0.16748197882E+04  0.25500000920E-02 0. -1.
       -2    1    3    3    0  502 -0.10864725558E+04 -0.11147987943E+04  0.20359618345E+04  0.25628772031E+04  0.25500000920E-02 0.  1.
</event>
<event>
 5   0  0.8329875E-09  0.3996340E+04  0.7818609E-02  0.8005285E-01
        1   -1    0    0  501    0  0.00000000000E+00  0.00000000000E+00  0.27408847054E+04  0.27408847054E+04  0.50400001928E-02 0.  1.
       -1   -1    0    0    0  501  0.00000000000E+00  0.00000000000E+00 -0.14567136417E+04  0.14567136417E+04  0.50400001928E-02 0. -1.
    10030    2    1    2    0    0  0.00000000000E+00  0.00000000000E+00  0.12841710637E+04  0.41975983471E+04  0.39963403963E+04 0.  0.
        3    1    3    3  502    0 -0.39833674524E+03  0.19275837837E+04  0.28061386043E+03  0.19882141622E+04  0.10100000352E+00 0. -1.
       -3    1    3    3    0  502  0.39833674524E+03 -0.19275837837E+04  0.10035572033E+04  0.22093841849E+04  0.10100000352E+00 0.  1.
</event>
<event>
 5   0  0.8329875E-09  0.3991841E+04  0.7818609E-02  0.8006195E-01
        3   -1    0    0  501    0  0.00000000000E+00  0.00000000000E+00  0.21646060668E+04  0.21646060692E+04  0.10100000352E+00 0.  1.
       -3   -1    0    0    0  501  0.00000000000E+00  0.00000000000E+00 -0.18403802251E+04  0.18403802279E+04  0.10100000352E+00 0. -1.
    10030    2    1    2    0    0  0.00000000000E+00  0.00000000000E+00  0.32422584170E+03  0.40049862970E+04  0.39918407838E+04 0.  0.
        1    1    3    3  502    0 -0.13933925112E+04 -0.13673250854E+04 -0.25467975185E+03  0.19687514712E+04  0.50400001928E-02 0. -1.
       -1    1    3    3    0  502  0.13933925112E+04  0.13673250854E+04  0.57890559355E+03  0.20362348258E+04  0.50400001928E-02 0.  1.
</event>
<event>
 5   0  0.2746876E-08  0.4018862E+04  0.7818609E-02  0.8000752E-01
        2   -1    0    0  501    0  0.00000000000E+00  0.00000000000E+00  0.23693746949E+04  0.23693746949E+04  0.25500000920E-02 0. -1.
       -2   -1    0    0    0  501  0.00000000000E+00  0.00000000000E+00 -0.17041680863E+04  0.17041680863E+04  0.25500000920E-02 0.  1.
    10030    2    1    2    0    0  0.00000000000E+00  0.00000000000E+00  0.66520660864E+03  0.40735427812E+04  0.40188618983E+04 0.  0.
        1    1    3    3  502    0 -0.58867555313E+03 -0.12576434302E+04 -0.11396073658E+04  0.17963604462E+04  0.50400001928E-02 0.  1.
       -1    1    3    3    0  502  0.58867555313E+03  0.12576434302E+04  0.18048139745E+04  0.22771823350E+04  0.50400001928E-02 0. -1.
</event>
<event>
 5   0  0.8329875E-09  0.3998691E+04  0.7818609E-02  0.8004811E-01
        1   -1    0    0  501    0  0.00000000000E+00  0.00000000000E+00  0.22815969197E+04  0.22815969197E+04  0.50400001928E-02 0. -1.
       -1   -1    0    0    0  501  0.00000000000E+00  0.00000000000E+00 -0.17520109986E+04  0.17520109986E+04  0.50400001928E-02 0.  1.
    10030    2    1    2    0    0  0.00000000000E+00  0.00000000000E+00  0.52958592109E+03  0.40336079183E+04  0.39986912348E+04 0.  0.
        3    1    3    3  502    0 -0.11399922782E+03  0.10235373383E+04  0.19934542970E+04  0.22437657077E+04  0.10100000352E+00 0. -1.
       -3    1    3    3    0  502  0.11399922782E+03 -0.10235373383E+04 -0.14638683759E+04  0.17898422106E+04  0.10100000352E+00 0.  1.
</event>
<event>
 5   0  0.2599332E-08  0.3996011E+04  0.7818609E-02  0.8005352E-01
        2   -1    0    0  501    0  0.00000000000E+00  0.00000000000E+00  0.13390433852E+04  0.13390433852E+04  0.25500000920E-02 0.  1.
       -2   -1    0    0    0  501  0.00000000000E+00  0.00000000000E+00 -0.29812527712E+04  0.29812527712E+04  0.25500000920E-02 0. -1.
    10030    2    1    2    0    0  0.00000000000E+00  0.00000000000E+00 -0.16422093860E+04  0.43202961564E+04  0.39960114128E+04 0.  0.
        2    1    3    3  502    0 -0.16777116255E+01  0.59968804727E+03  0.12394470598E+04  0.13769014427E+04  0.25500000920E-02 0.  1.
       -2    1    3    3    0  502  0.16777116255E+01 -0.59968804727E+03 -0.28816564458E+04  0.29433947137E+04  0.25500000920E-02 0. -1.
</event>
<event>
 5   0  0.8329875E-09  0.4000275E+04  0.7818609E-02  0.8004491E-01
        1   -1    0    0  501    0  0.00000000000E+00  0.00000000000E+00  0.15833202706E+04  0.15833202706E+04  0.50400001928E-02 0.  1.
       -1   -1    0    0    0  501  0.00000000000E+00  0.00000000000E+00 -0.25266836823E+04  0.25266836823E+04  0.50400001928E-02 0. -1.
    10030    2    1    2    0    0  0.00000000000E+00  0.00000000000E+00 -0.94336341177E+03  0.41100039529E+04  0.40002747363E+04 0.  0.
        4    1    3    3  502    0 -0.18516095074E+04  0.58781528548E+03 -0.96072488034E+03  0.21672513667E+04  0.12699999809E+01 0. -1.
       -4    1    3    3    0  502  0.18516095074E+04 -0.58781528548E+03  0.17361468572E+02  0.19427525862E+04  0.12699999809E+01 0.  1.
</event>
<event>
 5   0  0.8329875E-09  0.4002384E+04  0.7818609E-02  0.8004066E-01
        1   -1    0    0  501    0  0.00000000000E+00  0.00000000000E+00  0.12327355737E+04  0.12327355737E+04  0.50400001928E-02 0. -1.
       -1   -1    0    0    0  501  0.00000000000E+00  0.00000000000E+00 -0.32486847622E+04  0.32486847622E+04  0.50400001928E-02 0.  1.
    10030    2    1    2    0    0  0.00000000000E+00  0.00000000000E+00 -0.20159491885E+04  0.44814203359E+04  0.40023839267E+04 0.  0.
        5    1    3    3  502    0  0.16314635458E+04 -0.21721383372E+03  0.26664721401E+03  0.16673265959E+04  0.46999998093E+01 0. -1.
       -5    1    3    3    0  502 -0.16314635458E+04  0.21721383372E+03 -0.22825964025E+04  0.28140937400E+04  0.46999998093E+01 0.  1.
</event>
<event>
 5   0  0.2587493E-08  0.4001777E+04  0.7818609E-02  0.8004188E-01
       -2   -1    0    0    0  501  0.00000000000E+00  0.00000000000E+00  0.25751680431E+04  0.25751680431E+04  0.25500000920E-02 0. -1.
        2   -1    0    0  501    0  0.00000000000E+00  0.00000000000E+00 -0.15546768583E+04  0.15546768583E+04  0.25500000920E-02 0.  1.
    10030    2    1    2    0    0  0.00000000000E+00  0.00000000000E+00  0.10204911848E+04  0.41298449014E+04  0.40017766868E+04 0.  0.
        5    1    3    3  502    0  0.49715545555E+03 -0.19335646489E+04  0.37296099614E+03  0.20309992105E+04  0.46999998093E+01 0.  1.
       -5    1    3    3    0  502 -0.49715545555E+03  0.19335646489E+04  0.64753018867E+03  0.20988456908E+04  0.46999998093E+01 0. -1.
</event>
<event>
 5   0  0.8329875E-09  0.4023785E+04  0.7818609E-02  0.7999765E-01
       -3   -1    0    0    0  501  0.00000000000E+00  0.00000000000E+00  0.20263314211E+04  0.20263314236E+04  0.10100000352E+00 0. -1.
        3   -1    0    0  501    0  0.00000000000E+00  0.00000000000E+00 -0.19975566062E+04  0.19975566088E+04  0.10100000352E+00 0.  1.
    10030    2    1    2    0    0  0.00000000000E+00  0.00000000000E+00  0.28774814865E+02  0.40238880324E+04  0.40237851467E+04 0.  0.
        4    1    3    3  502    0  0.15976791223E+04 -0.68069761335E+03  0.10301802307E+04  0.20192079485E+04  0.12699999809E+01 0. -1.
       -4    1    3    3    0  502 -0.15976791223E+04  0.68069761335E+03 -0.10014054158E+04  0.20046800838E+04  0.12699999809E+01 0.  1.
</event>
<event>
 5   0  0.8329875E-09  0.3994451E+04  0.7818609E-02  0.8005667E-01
       -1   -1    0    0    0  501  0.00000000000E+00  0.00000000000E+00  0.26141366372E+04  0.26141366372E+04  0.50400001928E-02 0.  1.
        1   -1    0    0  501    0  0.00000000000E+00  0.00000000000E+00 -0.15258997831E+04  0.15258997831E+04  0.50400001928E-02 0. -1.
    10030    2    1    2    0    0  0.00000000000E+00  0.00000000000E+00  0.10882368541E+04  0.41400364203E+04  0.39944514155E+04 0.  0.
        2    1    3    3  502    0  0.73739468295E+03  0.13616881272E+04  0.18514246804E+04  0.24136525892E+04  0.25500000920E-02 0.  1.
       -2    1    3    3    0  502 -0.73739468295E+03 -0.13616881272E+04 -0.76318782632E+03  0.17263838311E+04  0.25500000920E-02 0. -1.
</event>
<event>
 5   0  0.2746876E-08  0.4014099E+04  0.7818609E-02  0.8001708E-01
       -2   -1    0    0    0  501  0.00000000000E+00  0.00000000000E+00  0.22813484901E+04  0.22813484901E+04  0.25500000920E-02 0.  1.
        2   -1    0    0  501    0  0.00000000000E+00  0.00000000000E+00 -0.17657313243E+04  0.17657313243E+04  0.25500000920E-02 0. -1.
    10030    2    1    2    0    0  0.00000000000E+00  0.00000000000E+00  0.51561716577E+03  0.40470798144E+04  0.40140993962E+04 0.  0.
        1    1    3    3  502    0  0.13633670462E+04 -0.70116272598E+03 -0.10481522858E+04  0.18571542977E+04  0.50400001928E-02 0. -1.
       -1    1    3    3    0  502 -0.13633670462E+04  0.70116272598E+03  0.15637694516E+04  0.21899255167E+04  0.50400001928E-02 0.  1.
</event>
<event>
 5   0  0.8329875E-09  0.4003197E+04  0.7818609E-02  0.8003902E-01
       -1   -1    0    0    0  501  0.00000000000E+00  0.00000000000E+00  0.16524930029E+04  0.16524930029E+04  0.50400001928E-02 0.  1.
        1   -1    0    0  501    0  0.00000000000E+00  0.00000000000E+00 -0.24244565822E+04  0.24244565822E+04  0.50400001928E-02 0. -1.
    10030    2    1    2    0    0  0.00000000000E+00  0.00000000000E+00 -0.77196357930E+03  0.40769495851E+04  0.40031974910E+04 0.  0.
        4    1    3    3  502    0  0.40614967515E+02 -0.18776484798E+04 -0.10909650680E+04  0.21719621962E+04  0.12699999809E+01 0. -1.
       -4    1    3    3    0  502 -0.40614967515E+02  0.18776484798E+04  0.31900148870E+03  0.19049873889E+04  0.12699999809E+01 0.  1.
</event>
<event>
 5   0  0.2746876E-08  0.4000184E+04  0.7818609E-02  0.8004509E-01
       -2   -1    0    0    0  501  0.00000000000E+00  0.00000000000E+00  0.18965778557E+04  0.18965778557E+04  0.25500000920E-02 0. -1.
        2   -1    0    0  501    0  0.00000000000E+00  0.00000000000E+00 -0.21092562444E+04  0.21092562444E+04  0.25500000920E-02 0.  1.
    10030    2    1    2    0    0  0.00000000000E+00  0.00000000000E+00 -0.21267838870E+03  0.40058341001E+04  0.40001843383E+04 0.  0.
        1    1    3    3  502    0 -0.70859619006E+03 -0.11182760316E+04 -0.16076961043E+04  0.20826273327E+04  0.50400001928E-02 0.  1.
       -1    1    3    3    0  502  0.70859619006E+03  0.11182760316E+04  0.13950177156E+04  0.19232067674E+04  0.50400001928E-02 0. -1.
</event>
<event>
 5   0  0.2746876E-08  0.3996643E+04  0.7818609E-02  0.8005224E-01
        2   -1    0    0  501    0  0.00000000000E+00  0.00000000000E+00  0.24472758160E+04  0.24472758160E+04  0.25500000920E-02 0. -1.
       -2   -1    0    0    0  501  0.00000000000E+00  0.00000000000E+00 -0.16317278223E+04  0.16317278223E+04  0.25500000920E-02 0.  1.
    10030    2    1    2    0    0  0.00000000000E+00  0.00000000000E+00  0.81554799369E+03  0.40790036382E+04  0.39966426098E+04 0.  0.
        1    1    3    3  502    0  0.22126696476E+03 -0.34677816499E+03  0.24035965000E+04  0.24385426591E+04  0.50400001928E-02 0. -1.
       -1    1    3    3    0  502 -0.22126696476E+03  0.34677816499E+03 -0.15880485064E+04  0.16404609791E+04  0.50400001928E-02 0.  1.
</event>
<event>
 5   0  0.8329875E-09  0.3999386E+04  0.7818609E-02  0.8004671E-01
        1   -1    0    0  501    0  0.00000000000E+00  0.00000000000E+00  0.14263527023E+04  0.14263527023E+04  0.50400001928E-02 0.  1.
       -1   -1    0    0    0  501  0.00000000000E+00  0.00000000000E+00 -0.28034939015E+04  0.28034939015E+04  0.50400001928E-02 0. -1.
    10030    2    1    2    0    0  0.00000000000E+00  0.00000000000E+00 -0.13771411992E+04  0.42298466038E+04  0.39993855039E+04 0.  0.
        4    1    3    3  502    0  0.11016135571E+04 -0.10399657219E+04  0.69189766618E+03  0.16654744445E+04  0.12699999809E+01 0.  1.
       -4    1    3    3    0  502 -0.11016135571E+04  0.10399657219E+04 -0.20690388654E+04  0.25643721593E+04  0.12699999809E+01 0. -1.
</event>
<event>
 5   0  0.8329875E-09  0.4003856E+04  0.7818609E-02  0.8003769E-01
        1   -1    0    0  501    0  0.00000000000E+00  0.00000000000E+00  0.19287054418E+04  0.19287054418E+04  0.50400001928E-02 0. -1.
       -1   -1    0    0    0  501  0.00000000000E+00  0.00000000000E+00 -0.20779301563E+04  0.20779301563E+04  0.50400001928E-02 0.  1.
    10030    2    1    2    0    0  0.00000000000E+00  0.00000000000E+00 -0.14922471454E+03  0.40066355981E+04  0.40038557417E+04 0.  0.
        5    1    3    3  502    0 -0.16886484445E+04 -0.23501960789E+03  0.97536601829E+03  0.19642119908E+04  0.46999998093E+01 0. -1.
       -5    1    3    3    0  502  0.16886484445E+04  0.23501960789E+03 -0.11245907328E+04  0.20424236073E+04  0.46999998093E+01 0.  1.
</event>
<event>
 5   0  0.2612363E-08  0.3999329E+04  0.7818609E-02  0.8004682E-01
        2   -1    0    0  501    0  0.00000000000E+00  0.00000000000E+00  0.22544042120E+04  0.22544042120E+04  0.25500000920E-02 0.  1.
       -2   -1    0    0    0  501  0.00000000000E+00  0.00000000000E+00 -0.17737090619E+04  0.17737090619E+04  0.25500000920E-02 0. -1.
    10030    2    1    2    0    0  0.00000000000E+00  0.00000000000E+00  0.48069515011E+03  0.40281132739E+04  0.39993285336E+04 0.  0.
        4    1    3    3  502    0 -0.19107575260E+04 -0.50233239299E+03 -0.70619479375E+02  0.19769473640E+04  0.12699999809E+01 0.  1.
       -4    1    3    3    0  502  0.19107575260E+04  0.50233239299E+03  0.55131462948E+03  0.20511659099E+04  0.12699999809E+01 0. -1.
</event>
<event>
 5   0  0.8329875E-09  0.4004190E+04  0.7818609E-02  0.8003702E-01
        1   -1    0    0  501    0  0.00000000000E+00  0.00000000000E+00  0.24150986811E+04  0.24150986811E+04  0.50400001928E-02 0. -1.
       -1   -1    0    0    0  501  0.00000000000E+00  0.00000000000E+00 -0.16597189904E+04  0.16597189904E+04  0.50400001928E-02 0.  1.
    10030    2    1    2    0    0  0.00000000000E+00  0.00000000000E+00  0.75537969075E+03  0.40748176715E+04  0.40041903774E+04 0.  0.
        4    1    3    3  502    0  0.34412067598E+03  0.53903545342E+03  0.23083633539E+04  0.23953123483E+04  0.12699999809E+01 0. -1.
       -4    1    3    3    0  502 -0.34412067598E+03 -0.53903545342E+03 -0.15529836631E+04  0.16795053232E+04  0.12699999809E+01 0.  1.
</event>
<event>
 5   0  0.8329875E-09  0.4005305E+04  0.7818609E-02  0.8003477E-01
       -1   -1    0    0    0  501  0.00000000000E+00  0.00000000000E+00  0.29117074133E+04  0.29117074133E+04  0.50400001928E-02 0.  1.
        1   -1    0    0  501    0  0.00000000000E+00  0.00000000000E+00 -0.13774110016E+04  0.13774110016E+04  0.50400001928E-02 0. -1.
    10030    2    1    2    0    0  0.00000000000E+00  0.00000000000E+00  0.15342964117E+04  0.42891184149E+04  0.40053053939E+04 0.  0.
        1    1    3    3  502    0 -0.14923958676E+04 -0.10553817420E+04  0.16433845073E+04  0.24580050215E+04  0.50400001928E-02 0.  1.
       -1    1    3    3    0  502  0.14923958676E+04  0.10553817420E+04 -0.10908809565E+03  0.18311133934E+04  0.50400001928E-02 0. -1.
</event>
<event>
 5   0  0.8329875E-09  0.3990706E+04  0.7818609E-02  0.8006424E-01
       -3   -1    0    0    0  501  0.00000000000E+00  0.00000000000E+00  0.14340671081E+04  0.14340671116E+04  0.10100000352E+00 0. -1.
        3   -1    0    0  501    0  0.00000000000E+00  0.00000000000E+00 -0.27763227311E+04  0.27763227329E+04  0.10100000352E+00 0.  1.
    10030    2    1    2    0    0  0.00000000000E+00  0.00000000000E+00 -0.13422556231E+04  0.42103898446E+04  0.39907057628E+04 0.  0.
        4    1    3    3  502    0 -0.14319087702E+04  0.13624262314E+04 -0.95980189737E+03  0.21972230786E+04  0.12699999809E+01 0. -1.
       -4    1    3    3    0  502  0.14319087702E+04 -0.13624262314E+04 -0.38245372569E+03  0.20131667659E+04  0.12699999809E+01 0.  1.
</event>
<event>
 5   0  0.2612363E-08  0.3995581E+04  0.7818609E-02  0.8005439E-01
       -2   -1    0    0    0  501  0.00000000000E+00  0.00000000000E+00  0.16795570314E+04  0.16795570314E+04  0.25500000920E-02 0. -1.
        2   -1    0    0  501    0  0.00000000000E+00  0.00000000000E+00 -0.23763211815E+04  0.23763211815E+04  0.25500000920E-02 0.  1.
    10030    2    1    2    0    0  0.00000000000E+00  0.00000000000E+00 -0.69676415019E+03  0.40558782129E+04  0.39955810337E+04 0.  0.
        4    1    3    3  502    0 -0.97164480836E+03 -0.44654880572E+03  0.13645868232E+04  0.17336661387E+04  0.12699999809E+01 0. -1.
       -4    1    3    3    0  502  0.97164480836E+03  0.44654880572E+03 -0.20613509733E+04  0.23222120742E+04  0.12699999809E+01 0.  1.
</event>
<event>
 5   0  0.2599332E-08  0.3998950E+04  0.7818609E-02  0.8004758E-01
       -2   -1    0    0    0  501  0.00000000000E+00  0.00000000000E+00  0.28296175813E+04  0.28296175813E+04  0.25500000920E-02 0. -1.
        2   -1    0    0  501    0  0.00000000000E+00  0.00000000000E+00 -0.14128766418E+04  0.14128766418E+04  0.25500000920E-02 0.  1.
    10030    2    1    2    0    0  0.00000000000E+00  0.00000000000E+00  0.14167409395E+04  0.42424942231E+04  0.39989501551E+04 0.  0.
        2    1    3    3  502    0  0.10769420491E+04 -0.66502320694E+03  0.23504879480E+04  0.26696167584E+04  0.25500000920E-02 0. -1.
       -2    1    3    3    0  502 -0.10769420491E+04  0.66502320694E+03 -0.93374700854E+03  0.15728774647E+04  0.25500000920E-02 0.  1.
</event>
<event>
 5   0  0.8329875E-09  0.4045881E+04  0.7818609E-02  0.7995354E-01
       -1   -1    0    0    0  501  0.00000000000E+00  0.00000000000E+00  0.17604196961E+04  0.17604196961E+04  0.50400001928E-02 0.  1.
        1   -1    0    0  501    0  0.00000000000E+00  0.00000000000E+00 -0.23246099997E+04  0.23246099997E+04  0.50400001928E-02 0. -1.
    10030    2    1    2    0    0  0.00000000000E+00  0.00000000000E+00 -0.56419030367E+03  0.40850296958E+04  0.40458814759E+04 0.  0.
        5    1    3    3  502    0  0.79552989849E+03 -0.17260565181E+03 -0.21519341599E+04  0.23007614499E+04  0.46999998093E+01 0. -1.
       -5    1    3    3    0  502 -0.79552989849E+03  0.17260565181E+03  0.15877438563E+04  0.17842682460E+04  0.46999998093E+01 0.  1.
</event>
<event>
 5   0  0.8329875E-09  0.4004053E+04  0.7818609E-02  0.8003729E-01
        1   -1    0    0  501    0  0.00000000000E+00  0.00000000000E+00  0.25145144124E+04  0.25145144124E+04  0.50400001928E-02 0.  1.
       -1   -1    0    0    0  501  0.00000000000E+00  0.00000000000E+00 -0.15939896590E+04  0.15939896590E+04  0.50400001928E-02 0. -1.
    10030    2    1    2    0    0  0.00000000000E+00  0.00000000000E+00  0.92052475343E+03  0.41085040714E+04  0.40040529321E+04 0.  0.
        1    1    3    3  502    0 -0.12311820054E+03 -0.10024481645E+04 -0.13134279996E+04  0.16568504833E+04  0.50400001928E-02 0. -1.
       -1    1    3    3    0  502  0.12311820054E+03  0.10024481645E+04  0.22339527530E+04  0.24516535882E+04  0.50400001928E-02 0.  1.
</event>
<event>
 5   0  0.2650452E-08  0.4001024E+04  0.7818609E-02  0.8004340E-01
       -2   -1    0    0    0  501  0.00000000000E+00  0.00000000000E+00  0.14707104522E+04  0.14707104522E+04  0.25500000920E-02 0.  1.
        2   -1    0    0  501    0  0.00000000000E+00  0.00000000000E+00 -0.27211661568E+04  0.27211661568E+04  0.25500000920E-02 0. -1.
    10030    2    1    2    0    0  0.00000000000E+00  0.00000000000E+00 -0.12504557046E+04  0.41918766090E+04  0.40010236235E+04 0.  0.
        3    1    3    3  502    0  0.18425141548E+04  0.29830122447E+03 -0.13794310515E+04  0.23209205215E+04  0.10100000352E+00 0. -1.
       -3    1    3    3    0  502 -0.18425141548E+04 -0.29830122447E+03  0.12897534691E+03  0.18709560875E+04  0.10100000352E+00 0.  1.
</event>
<event>
 5   0  0.2612363E-08  0.3994511E+04  0.7818609E-02  0.8005655E-01
        2   -1    0    0  501    0  0.00000000000E+00  0.00000000000E+00  0.21088312714E+04  0.21088312714E+04  0.25500000920E-02 0. -1.
       -2   -1    0    0    0  501  0.00000000000E+00  0.00000000000E+00 -0.18915833879E+04  0.18915833879E+04  0.25500000920E-02 0.  1.
    10030    2    1    2    0    0  0.00000000000E+00  0.00000000000E+00  0.21724788345E+03  0.40004146593E+04  0.39945113347E+04 0.  0.
        4    1    3    3  502    0 -0.29264948593E+03 -0.10915611818E+04 -0.15405881506E+04  0.19106446550E+04  0.12699999809E+01 0.  1.
       -4    1    3    3    0  502  0.29264948593E+03  0.10915611818E+04  0.17578360340E+04  0.20897700042E+04  0.12699999809E+01 0. -1.
</event>
<event>
 5   0  0.2612363E-08  0.3998927E+04  0.7818609E-02  0.8004763E-01
        2   -1    0    0  501    0  0.00000000000E+00  0.00000000000E+00  0.21439867261E+04  0.21439867261E+04  0.25500000920E-02 0.  1.
       -2   -1    0    0    0  501  0.00000000000E+00  0.00000000000E+00 -0.18646823171E+04  0.18646823171E+04  0.25500000920E-02 0. -1.
    10030    2    1    2    0    0  0.00000000000E+00  0.00000000000E+00  0.27930440907E+03  0.40086690432E+04  0.39989269242E+04 0.  0.
        4    1    3    3  502    0 -0.15683975819E+04 -0.10062510868E+04 -0.58698632657E+03  0.19537059106E+04  0.12699999809E+01 0. -1.
       -4    1    3    3    0  502  0.15683975819E+04  0.10062510868E+04  0.86629073564E+03  0.20549631326E+04  0.12699999809E+01 0.  1.
</event>
<event>
 5   0  0.8329875E-09  0.3986954E+04  0.7818609E-02  0.8007184E-01
        1   -1    0    0  501    0  0.00000000000E+00  0.00000000000E+00  0.24102129315E+04  0.24102129315E+04  0.50400001928E-02 0. -1.
       -1   -1    0    0    0  501  0.00000000000E+00  0.00000000000E+00 -0.16487963064E+04  0.16487963064E+04  0.50400001928E-02 0.  1.
    10030    2    1    2    0    0  0.00000000000E+00  0.00000000000E+00  0.76141662509E+03  0.40590092379E+04  0.39869538142E+04 0.  0.
        3    1    3    3  502    0 -0.33514591303E+03 -0.19196489181E+04 -0.47094815180E+02  0.19492543917E+04  0.10100000352E+00 0.  1.
       -3    1    3    3    0  502  0.33514591303E+03  0.19196489181E+04  0.80851144027E+03  0.21097548462E+04  0.10100000352E+00 0. -1.
</event>
<event>
 5   0  0.8329875E-09  0.3979843E+04  0.7818609E-02  0.8008625E-01
        1   -1    0    0  501    0  0.00000000000E+00  0.00000000000E+00  0.21928254990E+04  0.21928254990E+04  0.50400001928E-02 0.  1.
       -1   -1    0    0    0  501  0.00000000000E+00  0.00000000000E+00 -0.18057924853E+04  0.18057924853E+04  0.50400001928E-02 0. -1.
    10030    2    1    2    0    0  0.00000000000E+00  0.00000000000E+00  0.38703301370E+03  0.39986179843E+04  0.39798431164E+04 0.  0.
        5    1    3    3  502    0  0.17257879480E+04  0.34865006074E+03  0.11251799405E+04  0.20894862754E+04  0.46999998093E+01 0.  1.
       -5    1    3    3    0  502 -0.17257879480E+04 -0.34865006074E+03 -0.73814692683E+03  0.19091317089E+04  0.46999998093E+01 0. -1.
</event>
<event>
 5   0  0.8329875E-09  0.4000429E+04  0.7818609E-02  0.8004460E-01
       -1   -1    0    0    0  501  0.00000000000E+00  0.00000000000E+00  0.33797500959E+04  0.33797500959E+04  0.50400001928E-02 0.  1.
        1   -1    0    0  501    0  0.00000000000E+00  0.00000000000E+00 -0.11837731738E+04  0.11837731739E+04  0.50400001928E-02 0. -1.
    10030    2    1    2    0    0  0.00000000000E+00  0.00000000000E+00  0.21959769221E+04  0.45635232698E+04  0.40004287260E+04 0.  0.
        3    1    3    3  502    0  0.63123106850E+01 -0.67758499148E+03 -0.10488500946E+04  0.12486984412E+04  0.10100000352E+00 0. -1.
       -3    1    3    3    0  502 -0.63123106850E+01  0.67758499148E+03  0.32448270166E+04  0.33148248286E+04  0.10100000352E+00 0.  1.
</event>
<event>
 5   0  0.8329875E-09  0.4001608E+04  0.7818609E-02  0.8004222E-01
        1   -1    0    0  501    0  0.00000000000E+00  0.00000000000E+00  0.23447979370E+04  0.23447979370E+04  0.50400001928E-02 0.  1.
       -1   -1    0    0    0  501  0.00000000000E+00  0.00000000000E+00 -0.17072756359E+04  0.17072756359E+04  0.50400001928E-02 0. -1.
    10030    2    1    2    0    0  0.00000000000E+00  0.00000000000E+00  0.63752230114E+03  0.40520735729E+04  0.40016078714E+04 0.  0.
        2    1    3    3  502    0 -0.11967555221E+04 -0.14401572086E+04  0.10325909835E+04  0.21383453193E+04  0.25500000920E-02 0.  1.
       -2    1    3    3    0  502  0.11967555221E+04  0.14401572086E+04 -0.39506868238E+03  0.19137282537E+04  0.25500000920E-02 0. -1.
</event>
<event>
 5   0  0.2650452E-08  0.4001181E+04  0.7818609E-02  0.8004308E-01
        2   -1    0    0  501    0  0.00000000000E+00  0.00000000000E+00  0.19785373086E+04  0.19785373086E+04  0.25500000920E-02 0.  1.
       -2   -1    0    0    0  501  0.00000000000E+00  0.00000000000E+00 -0.20228899471E+04  0.20228899471E+04  0.25500000920E-02 0. -1.
    10030    2    1    2    0    0  0.00000000000E+00  0.00000000000E+00 -0.44352638526E+02  0.40014272557E+04  0.40011814413E+04 0.  0.
        3    1    3    3  502    0 -0.10069046771E+04 -0.44134428077E+02 -0.17504486697E+04  0.20198701522E+04  0.10100000352E+00 0. -1.
       -3    1    3    3    0  502  0.10069046771E+04  0.44134428077E+02  0.17060960312E+04  0.19815571034E+04  0.10100000352E+00 0.  1.
</event>
<event>
 5   0  0.2650452E-08  0.3993609E+04  0.7818609E-02  0.8005837E-01
       -2   -1    0    0    0  501  0.00000000000E+00  0.00000000000E+00  0.14791391279E+04  0.14791391280E+04  0.25500000920E-02 0. -1.
        2   -1    0    0  501    0  0.00000000000E+00  0.00000000000E+00 -0.26956417369E+04  0.26956417369E+04  0.25500000920E-02 0.  1.
    10030    2    1    2    0    0  0.00000000000E+00  0.00000000000E+00 -0.12165026089E+04  0.41747808648E+04  0.39936094791E+04 0.  0.
        3    1    3    3  502    0 -0.71592943270E+03 -0.14471207743E+04  0.62000431553E+03  0.17294851400E+04  0.10100000352E+00 0. -1.
       -3    1    3    3    0  502  0.71592943270E+03  0.14471207743E+04 -0.18365069244E+04  0.24452957248E+04  0.10100000352E+00 0.  1.
</event>
<event>
 5   0  0.8329875E-09  0.3982056E+04  0.7818609E-02  0.8008176E-01
        1   -1    0    0  501    0  0.00000000000E+00  0.00000000000E+00  0.19839328484E+04  0.19839328484E+04  0.50400001928E-02 0.  1.
       -1   -1    0    0    0  501  0.00000000000E+00  0.00000000000E+00 -0.19981487421E+04  0.19981487421E+04  0.50400001928E-02 0. -1.
    10030    2    1    2    0    0  0.00000000000E+00  0.00000000000E+00 -0.14215893664E+02  0.39820815905E+04  0.39820562153E+04 0.  0.
        5    1    3    3  502    0 -0.15582527433E+04 -0.98436306721E+03 -0.76013902339E+03  0.19937290902E+04  0.46999998093E+01 0. -1.
       -5    1    3    3    0  502  0.15582527433E+04  0.98436306721E+03  0.74592312973E+03  0.19883525003E+04  0.46999998093E+01 0.  1.
</event>
<event>
 5   0  0.2599332E-08  0.4020000E+04  0.7818609E-02  0.8000524E-01
       -2   -1    0    0    0  501  0.00000000000E+00  0.00000000000E+00  0.16850939365E+04  0.16850939365E+04  0.25500000920E-02 0.  1.
        2   -1    0    0  501    0  0.00000000000E+00  0.00000000000E+00 -0.23975522148E+04  0.23975522148E+04  0.25500000920E-02 0. -1.
    10030    2    1    2    0    0  0.00000000000E+00  0.00000000000E+00 -0.71245827831E+03  0.40826461513E+04  0.40200003481E+04 0.  0.
        2    1    3    3  502    0 -0.44234779611E+02  0.33542861865E+03  0.16559675118E+04  0.16901767582E+04  0.25500000920E-02 0.  1.
       -2    1    3    3    0  502  0.44234779611E+02 -0.33542861865E+03 -0.23684257901E+04  0.23924693931E+04  0.25500000920E-02 0. -1.
</event>
<event>
 5   0  0.2746876E-08  0.3965555E+04  0.7818609E-02  0.8011532E-01
       -2   -1    0    0    0  501  0.00000000000E+00  0.00000000000E+00  0.16082185310E+04  0.16082185310E+04  0.25500000920E-02 0. -1.
        2   -1    0    0  501    0  0.00000000000E+00  0.00000000000E+00 -0.24445717816E+04  0.24445717816E+04  0.25500000920E-02 0.  1.
    10030    2    1    2    0    0  0.00000000000E+00  0.00000000000E+00 -0.83635325057E+03  0.40527903125E+04  0.39655545082E+04 0.  0.
        1    1    3    3  502    0  0.17031897896E+04 -0.93858153632E+03 -0.22866804131E+02  0.19448171252E+04  0.50400001928E-02 0. -1.
       -1    1    3    3    0  502 -0.17031897896E+04  0.93858153632E+03 -0.81348644644E+03  0.21079731873E+04  0.50400001928E-02 0.  1.
</event>
<event>
 5   0  0.2612363E-08  0.4006527E+04  0.7818609E-02  0.8003231E-01
        2   -1    0    0  501    0  0.00000000000E+00  0.00000000000E+00  0.18488863760E+04  0.18488863760E+04  0.25500000920E-02 0.  1.
       -2   -1    0    0    0  501  0.00000000000E+00  0.00000000000E+00 -0.21705306369E+04  0.21705306369E+04  0.25500000920E-02 0. -1.
    10030    2    1    2    0    0  0.00000000000E+00  0.00000000000E+00 -0.32164426090E+03  0.40194170129E+04  0.40065269366E+04 0.  0.
        4    1    3    3  502    0 -0.47997228845E+03  0.16709813267E+04  0.83762398837E+03  0.19298102369E+04  0.12699999809E+01 0.  1.
       -4    1    3    3    0  502  0.47997228845E+03 -0.16709813267E+04 -0.11592682493E+04  0.20896067760E+04  0.12699999809E+01 0. -1.
</event>
<event>
 5   0  0.8329875E-09  0.3997440E+04  0.7818609E-02  0.8005063E-01
       -1   -1    0    0    0  501  0.00000000000E+00  0.00000000000E+00  0.13830186212E+04  0.13830186212E+04  0.50400001928E-02 0.  1.
        1   -1    0    0  501    0  0.00000000000E+00  0.00000000000E+00 -0.28885228344E+04  0.28885228344E+04  0.50400001928E-02 0. -1.
    10030    2    1    2    0    0  0.00000000000E+00  0.00000000000E+00 -0.15055042132E+04  0.42715414556E+04  0.39974396144E+04 0.  0.
        5    1    3    3  502    0  0.18713861865E+04 -0.50370677310E+03 -0.12752071300E+04  0.23199099307E+04  0.46999998093E+01 0. -1.
       -5    1    3    3    0  502 -0.18713861865E+04  0.50370677310E+03 -0.23029708323E+03  0.19516315248E+04  0.46999998093E+01 0.  1.
</event>
<event>
 5   0  0.2746876E-08  0.4002437E+04  0.7818609E-02  0.8004055E-01
       -2   -1    0    0    0  501  0.00000000000E+00  0.00000000000E+00  0.29610129366E+04  0.29610129366E+04  0.25500000920E-02 0. -1.
        2   -1    0    0  501    0  0.00000000000E+00  0.00000000000E+00 -0.13525356177E+04  0.13525356177E+04  0.25500000920E-02 0.  1.
    10030    2    1    2    0    0  0.00000000000E+00  0.00000000000E+00  0.16084773189E+04  0.43135485543E+04  0.40024369883E+04 0.  0.
        1    1    3    3  502    0 -0.19739928794E+04 -0.12691772697E+03  0.47713463388E+03  0.20348005937E+04  0.50400001928E-02 0. -1.
       -1    1    3    3    0  502  0.19739928794E+04  0.12691772697E+03  0.11313426850E+04  0.22787479606E+04  0.50400001928E-02 0.  1.
</event>
<event>
 5   0  0.2650452E-08  0.3967718E+04  0.7818609E-02  0.8011091E-01
        2   -1    0    0  501    0  0.00000000000E+00  0.00000000000E+00  0.13042485393E+04  0.13042485393E+04  0.25500000920E-02 0.  1.
       -2   -1    0    0    0  501  0.00000000000E+00  0.00000000000E+00 -0.30175970788E+04  0.30175970788E+04  0.25500000920E-02 0. -1.
    10030    2    1    2    0    0  0.00000000000E+00  0.00000000000E+00 -0.17133485396E+04  0.43218456181E+04  0.39677180254E+04 0.  0.
        3    1    3    3  502    0  0.51331224394E+03 -0.18442245237E+04 -0.14237584884E+04  0.23857371600E+04  0.10100000352E+00 0. -1.
       -3    1    3    3    0  502 -0.51331224394E+03  0.18442245237E+04 -0.28959005120E+03  0.19361084581E+04  0.10100000352E+00 0.  1.
</event>
<event>
 5   0  0.8329875E-09  0.4000669E+04  0.7818609E-02  0.8004412E-01
        1   -1    0    0  501    0  0.00000000000E+00  0.00000000000E+00  0.29823570091E+04  0.29823570091E+04  0.50400001928E-02 0.  1.
       -1   -1    0    0    0  501  0.00000000000E+00  0.00000000000E+00 -0.13416699757E+04  0.13416699757E+04  0.50400001928E-02 0. -1.
    10030    2    1    2    0    0  0.00000000000E+00  0.00000000000E+00  0.16406870334E+04  0.43240269848E+04  0.40006693719E+04 0.  0.
        4    1    3    3  502    0 -0.61427542887E+03  0.44169378683E+03  0.28217428376E+04  0.29214143763E+04  0.12699999809E+01 0.  1.
       -4    1    3    3    0  502  0.61427542887E+03 -0.44169378683E+03 -0.11810558042E+04  0.14026126084E+04  0.12699999809E+01 0. -1.
</event>
<event>
 5   0  0.2587493E-08  0.4019707E+04  0.7818609E-02  0.8000583E-01
        2   -1    0    0  501    0  0.00000000000E+00  0.00000000000E+00  0.25505199470E+04  0.25505199470E+04  0.25500000920E-02 0.  1.
       -2   -1    0    0    0  501  0.00000000000E+00  0.00000000000E+00 -0.15837988121E+04  0.15837988121E+04  0.25500000920E-02 0. -1.
    10030    2    1    2    0    0  0.00000000000E+00  0.00000000000E+00  0.96672113491E+03  0.41343187591E+04  0.40197066869E+04 0.  0.
        5    1    3    3  502    0  0.61086918327E+03 -0.55029967904E+03 -0.14029150319E+04  0.16260945768E+04  0.46999998093E+01 0. -1.
       -5    1    3    3    0  502 -0.61086918327E+03  0.55029967904E+03  0.23696361668E+04  0.25082241823E+04  0.46999998093E+01 0.  1.
</event>
<event>
 5   0  0.2599332E-08  0.3999136E+04  0.7818609E-02  0.8004721E-01
       -2   -1    0    0    0  501  0.00000000000E+00  0.00000000000E+00  0.27347915557E+04  0.27347915557E+04  0.25500000920E-02 0.  1.
        2   -1    0    0  501    0  0.00000000000E+00  0.00000000000E+00 -0.14620024079E+04  0.14620024079E+04  0.25500000920E-02 0. -1.
    10030    2    1    2    0    0  0.00000000000E+00  0.00000000000E+00  0.12727891478E+04  0.41967939635E+04  0.39991358264E+04 0.  0.
        2    1    3    3  502    0  0.33610404073E+03  0.41108558779E+03 -0.13866605981E+04  0.14848518112E+04  0.25500000920E-02 0. -1.
       -2    1    3    3    0  502 -0.33610404073E+03 -0.41108558779E+03  0.26594497459E+04  0.27119421524E+04  0.25500000920E-02 0.  1.
</event>
<event>
 5   0  0.2599332E-08  0.4005976E+04  0.7818609E-02  0.8003342E-01
        2   -1    0    0  501    0  0.00000000000E+00  0.00000000000E+00  0.31315976167E+04  0.31315976167E+04  0.25500000920E-02 0.  1.
       -2   -1    0    0    0  501  0.00000000000E+00  0.00000000000E+00 -0.12811229731E+04  0.12811229731E+04  0.25500000920E-02 0. -1.
    10030    2    1    2    0    0  0.00000000000E+00  0.00000000000E+00  0.18504746436E+04  0.44127205898E+04  0.40059763600E+04 0.  0.
        2    1    3    3  502    0  0.30033531249E+03  0.18170352577E+04  0.57788128342E+02  0.18425954237E+04  0.25500000920E-02 0. -1.
       -2    1    3    3    0  502 -0.30033531249E+03 -0.18170352577E+04  0.17926865152E+04  0.25701251661E+04  0.25500000920E-02 0.  1.
</event>
<event>
 5   0  0.8329875E-09  0.3993951E+04  0.7818609E-02  0.8005768E-01
        1   -1    0    0  501    0  0.00000000000E+00  0.00000000000E+00  0.25247822901E+04  0.25247822901E+04  0.50400001928E-02 0. -1.
       -1   -1    0    0    0  501  0.00000000000E+00  0.00000000000E+00 -0.15795070282E+04  0.15795070282E+04  0.50400001928E-02 0.  1.
    10030    2    1    2    0    0  0.00000000000E+00  0.00000000000E+00  0.94527526190E+03  0.41042893184E+04  0.39939511124E+04 0.  0.
        3    1    3    3  502    0  0.72364415914E+03 -0.17548416420E+04  0.11100818749E+04  0.21989569884E+04  0.10100000352E+00 0.  1.
       -3    1    3    3    0  502 -0.72364415914E+03  0.17548416420E+04 -0.16480661295E+03  0.19053323300E+04  0.10100000352E+00 0. -1.
</event>
<event>
 5   0  0.8329875E-09  0.4002741E+04  0.7818609E-02  0.8003994E-01
       -1   -1    0    0    0  501  0.00000000000E+00  0.00000000000E+00  0.20371420484E+04  0.20371420484E+04  0.50400001928E-02 0.  1.
        1   -1    0    0  501    0  0.00000000000E+00  0.00000000000E+00 -0.19662266014E+04  0.19662266014E+04  0.50400001928E-02 0. -1.
    10030    2    1    2    0    0  0.00000000000E+00  0.00000000000E+00  0.70915446970E+02  0.40033686498E+04  0.40027405044E+04 0.  0.
        2    1    3    3  502    0  0.52740034901E+03 -0.12829719868E+03  0.19621222931E+04  0.20358131527E+04  0.25500000920E-02 0.  1.
       -2    1    3    3    0  502 -0.52740034901E+03  0.12829719868E+03 -0.18912068462E+04  0.19675554971E+04  0.25500000920E-02 0. -1.
</event>
<event>
 5   0  0.2746876E-08  0.4005129E+04  0.7818609E-02  0.8003513E-01
       -2   -1    0    0    0  501  0.00000000000E+00  0.00000000000E+00  0.17623537344E+04  0.17623537344E+04  0.25500000920E-02 0.  1.
        2   -1    0    0  501    0  0.00000000000E+00  0.00000000000E+00 -0.22755163130E+04  0.22755163130E+04  0.25500000920E-02 0. -1.
    10030    2    1    2    0    0  0.00000000000E+00  0.00000000000E+00 -0.51316257868E+03  0.40378700474E+04  0.40051290476E+04 0.  0.
        1    1    3    3  502    0  0.17005884086E+04  0.47946529278E+03 -0.12068237238E+04  0.21396989047E+04  0.50400001928E-02 0. -1.
       -1    1    3    3    0  502 -0.17005884086E+04 -0.47946529278E+03  0.69366114511E+03  0.18981711427E+04  0.50400001928E-02 0.  1.
</event>
<event>
 5   0  0.8329875E-09  0.4002041E+04  0.7818609E-02  0.8004135E-01
       -1   -1    0    0    0  501  0.00000000000E+00  0.00000000000E+00  0.13862223209E+04  0.13862223209E+04  0.50400001928E-02 0. -1.
        1   -1    0    0  501    0  0.00000000000E+00  0.00000000000E+00 -0.28884857225E+04  0.28884857225E+04  0.50400001928E-02 0.  1.
    10030    2    1    2    0    0  0.00000000000E+00  0.00000000000E+00 -0.15022634016E+04  0.42747080434E+04  0.40020411702E+04 0.  0.
        2    1    3    3  502    0  0.10068825454E+04  0.13973457087E+04 -0.18392095148E+04  0.25197379089E+04  0.25500000920E-02 0.  1.
       -2    1    3    3    0  502 -0.10068825454E+04 -0.13973457087E+04  0.33694611325E+03  0.17549701345E+04  0.25500000920E-02 0. -1.
</event>
<event>
 5   0  0.8329875E-09  0.3996328E+04  0.7818609E-02  0.8005288E-01
        1   -1    0    0  501    0  0.00000000000E+00  0.00000000000E+00  0.27457869921E+04  0.27457869921E+04  0.50400001928E-02 0.  1.
       -1   -1    0    0    0  501  0.00000000000E+00  0.00000000000E+00 -0.14541036266E+04  0.14541036266E+04  0.50400001928E-02 0. -1.
    10030    2    1    2    0    0  0.00000000000E+00  0.00000000000E+00  0.12916833655E+04  0.41998906188E+04  0.39963277259E+04 0.  0.
        5    1    3    3  502    0  0.13322632640E+04  0.14885250513E+04  0.69289388588E+03  0.21144162929E+04  0.46999998093E+01 0. -1.
       -5    1    3    3    0  502 -0.13322632640E+04 -0.14885250513E+04  0.59878947962E+03  0.20854743258E+04  0.46999998093E+01 0.  1.
</event>
<event>
 5   0  0.2587493E-08  0.4005431E+04  0.7818609E-02  0.8003452E-01
        2   -1    0    0  501    0  0.00000000000E+00  0.00000000000E+00  0.16937137453E+04  0.16937137453E+04  0.25500000920E-02 0. -1.
       -2   -1    0    0    0  501  0.00000000000E+00  0.00000000000E+00 -0.23680916983E+04  0.23680916983E+04  0.25500000920E-02 0.  1.
    10030    2    1    2    0    0  0.00000000000E+00  0.00000000000E+00 -0.67437795300E+03  0.40618054435E+04  0.40054310427E+04 0.  0.
        5    1    3    3  502    0 -0.14364191667E+04 -0.48046404484E+03 -0.16658594075E+04  0.22515006942E+04  0.46999998093E+01 0.  1.
       -5    1    3    3    0  502  0.14364191667E+04  0.48046404484E+03  0.99148145446E+03  0.18103047493E+04  0.46999998093E+01 0. -1.
</event>
<event>
 5   0  0.8329875E-09  0.4004804E+04  0.7818609E-02  0.8003578E-01
       -1   -1    0    0    0  501  0.00000000000E+00  0.00000000000E+00  0.24281090425E+04  0.24281090425E+04  0.50400001928E-02 0.  1.
        1   -1    0    0  501    0  0.00000000000E+00  0.00000000000E+00 -0.16513322189E+04  0.16513322189E+04  0.50400001928E-02 0. -1.
    10030    2    1    2    0    0  0.00000000000E+00  0.00000000000E+00  0.77677682358E+03  0.40794412614E+04  0.40048044611E+04 0.  0.
        2    1    3    3  502    0 -0.18811496552E+04  0.60087751637E+03  0.50795392119E+02  0.19754386821E+04  0.25500000920E-02 0. -1.
       -2    1    3    3    0  502  0.18811496552E+04 -0.60087751637E+03  0.72598143146E+03  0.21040025793E+04  0.25500000920E-02 0.  1.
</event>
<event>
 5   0  0.8329875E-09  0.3995053E+04  0.7818609E-02  0.8005545E-01
        1   -1    0    0  501    0  0.00000000000E+00  0.00000000000E+00  0.30214267885E+04  0.30214267885E+04  0.50400001928E-02 0.  1.
       -1   -1    0    0    0  501  0.00000000000E+00  0.00000000000E+00 -0.13206051400E+04  0.13206051400E+04  0.50400001928E-02 0. -1.
    10030    2    1    2    0    0  0.00000000000E+00  0.00000000000E+00  0.17008216485E+04  0.43420319284E+04  0.39950528141E+04 0.  0.
        3    1    3    3  502    0 -0.13534973793E+04 -0.10273578897E+03  0.24431599717E+04  0.27949133181E+04  0.10100000352E+00 0. -1.
       -3    1    3    3    0  502  0.13534973793E+04  0.10273578897E+03 -0.74233832322E+03  0.15471186103E+04  0.10100000352E+00 0.  1.
</event>
<event>
 5   0  0.8329875E-09  0.3998984E+04  0.7818609E-02  0.8004752E-01
       -1   -1    0    0    0  501  0.00000000000E+00  0.00000000000E+00  0.26913865438E+04  0.26913865438E+04  0.50400001928E-02 0. -1.
        1   -1    0    0  501    0  0.00000000000E+00  0.00000000000E+00 -0.14854679895E+04  0.14854679895E+04  0.50400001928E-02 0.  1.
    10030    2    1    2    0    0  0.00000000000E+00  0.00000000000E+00  0.12059185543E+04  0.41768545333E+04  0.39989841501E+04 0.  0.
        5    1    3    3  502    0 -0.11782788396E+04  0.81517325709E+03  0.20596602552E+04  0.25089979912E+04  0.46999998093E+01 0. -1.
       -5    1    3    3    0  502  0.11782788396E+04 -0.81517325709E+03 -0.85374170091E+03  0.16678565421E+04  0.46999998093E+01 0.  1.
</event>
<event>
 5   0  0.2599332E-08  0.4001513E+04  0.7818609E-02  0.8004241E-01
       -2   -1    0    0    0  501  0.00000000000E+00  0.00000000000E+00  0.24739887440E+04  0.24739887440E+04  0.25500000920E-02 0.  1.
        2   -1    0    0  501    0  0.00000000000E+00  0.00000000000E+00 -0.16180454364E+04  0.16180454364E+04  0.25500000920E-02 0. -1.
    10030    2    1    2    0    0  0.00000000000E+00  0.00000000000E+00  0.85594330765E+03  0.40920341804E+04  0.40015128124E+04 0.  0.
        2    1    3    3  502    0 -0.13403930215E+04  0.10616216869E+04  0.14903827437E+04  0.22682448680E+04  0.25500000920E-02 0.  1.
       -2    1    3    3    0  502  0.13403930215E+04 -0.10616216869E+04 -0.63443943609E+03  0.18237893125E+04  0.25500000920E-02 0. -1.
</event>
<event>
 5   0  0.2746876E-08  0.3988303E+04  0.7818609E-02  0.8006910E-01
       -2   -1    0    0    0  501  0.00000000000E+00  0.00000000000E+00  0.30152680136E+04  0.30152680136E+04  0.25500000920E-02 0.  1.
        2   -1    0    0  501    0  0.00000000000E+00  0.00000000000E+00 -0.13188346734E+04  0.13188346734E+04  0.25500000920E-02 0. -1.
    10030    2    1    2    0    0  0.00000000000E+00  0.00000000000E+00  0.16964333403E+04  0.43341026870E+04  0.39883029002E+04 0.  0.
        1    1    3    3  502    0 -0.10797338941E+03  0.17344411754E+04  0.19111302169E+04  0.25830917811E+04  0.50400001928E-02 0.  1.
       -1    1    3    3    0  502  0.10797338941E+03 -0.17344411754E+04 -0.21469687667E+03  0.17510109059E+04  0.50400001928E-02 0. -1.
</event>
<event>
 5   0  0.8329875E-09  0.3991705E+04  0.7818609E-02  0.8006222E-01
        1   -1    0    0  501    0  0.00000000000E+00  0.00000000000E+00  0.27983331932E+04  0.27983331932E+04  0.50400001928E-02 0.  1.
       -1   -1    0    0    0  501  0.00000000000E+00  0.00000000000E+00 -0.14235002339E+04  0.14235002339E+04  0.50400001928E-02 0. -1.
    10030    2    1    2    0    0  0.00000000000E+00  0.00000000000E+00  0.13748329593E+04  0.42218334271E+04  0.39917053775E+04 0.  0.
        3    1    3    3  502    0  0.18211541774E+04  0.60149932550E+02  0.15487419586E+04  0.23914059080E+04  0.10100000352E+00 0.  1.
       -3    1    3    3    0  502 -0.18211541774E+04 -0.60149932550E+02 -0.17390899932E+03  0.18304275191E+04  0.10100000352E+00 0. -1.
</event>
<event>
 5   0  0.2746876E-08  0.3997150E+04  0.7818609E-02  0.8005122E-01
       -2   -1    0    0    0  501  0.00000000000E+00  0.00000000000E+00  0.26344383804E+04  0.26344383804E+04  0.25500000920E-02 0. -1.
        2   -1    0    0  501    0  0.00000000000E+00  0.00000000000E+00 -0.15161875019E+04  0.15161875019E+04  0.25500000920E-02 0.  1.
    10030    2    1    2    0    0  0.00000000000E+00  0.00000000000E+00  0.11182508786E+04  0.41506258823E+04  0.39971502583E+04 0.  0.
        1    1    3    3  502    0 -0.90279778715E+03  0.93560313209E+03 -0.10170169333E+04  0.16506727440E+04  0.50400001928E-02 0.  1.
       -1    1    3    3    0  502  0.90279778715E+03 -0.93560313209E+03  0.21352678118E+04  0.24999531383E+04  0.50400001928E-02 0. -1.
</event>
<event>
 5   0  0.2746876E-08  0.3998971E+04  0.7818609E-02  0.8004754E-01
        2   -1    0    0  501    0  0.00000000000E+00  0.00000000000E+00  0.25734734445E+04  0.25734734445E+04  0.25500000920E-02 0.  1.
       -2   -1    0    0    0  501  0.00000000000E+00  0.00000000000E+00 -0.15535196663E+04  0.15535196663E+04  0.25500000920E-02 0. -1.
    10030    2    1    2    0    0  0.00000000000E+00  0.00000000000E+00  0.10199537782E+04  0.41269931108E+04  0.39989706710E+04 0.  0.
        1    1    3    3  502    0 -0.11829931289E+04  0.56654312007E+03  0.20674282906E+04  0.24484083783E+04  0.50400001928E-02 0.  1.
       -1    1    3    3    0  502  0.11829931289E+04 -0.56654312007E+03 -0.10474745125E+04  0.16785847325E+04  0.50400001928E-02 0. -1.
</event>
<event>
 5   0  0.2587493E-08  0.4008958E+04  0.7818609E-02  0.8002742E-01
       -2   -1    0    0    0  501  0.00000000000E+00  0.00000000000E+00  0.26947060199E+04  0.26947060199E+04  0.25500000920E-02 0. -1.
        2   -1    0    0  501    0  0.00000000000E+00  0.00000000000E+00 -0.14910481573E+04  0.14910481573E+04  0.25500000920E-02 0.  1.
    10030    2    1    2    0    0  0.00000000000E+00  0.00000000000E+00  0.12036578626E+04  0.41857541773E+04  0.40089581916E+04 0.  0.
        5    1    3    3  502    0 -0.85152344525E+03  0.17944338422E+04  0.32005847809E+03  0.20118510161E+04  0.46999998093E+01 0.  1.
       -5    1    3    3    0  502  0.85152344525E+03 -0.17944338422E+04  0.88359938453E+03  0.21739031611E+04  0.46999998093E+01 0. -1.
</event>
<event>
 5   0  0.2650452E-08  0.4035579E+04  0.7818609E-02  0.7997407E-01
        2   -1    0    0  501    0  0.00000000000E+00  0.00000000000E+00  0.14623746926E+04  0.14623746926E+04  0.25500000920E-02 0.  1.
       -2   -1    0    0    0  501  0.00000000000E+00  0.00000000000E+00 -0.27841528803E+04  0.27841528803E+04  0.25500000920E-02 0. -1.
    10030    2    1    2    0    0  0.00000000000E+00  0.00000000000E+00 -0.13217781877E+04  0.42465275729E+04  0.40355791220E+04 0.  0.
        3    1    3    3  502    0 -0.15996979834E+03  0.21711607271E+03  0.14433250504E+04  0.14683041022E+04  0.10100000352E+00 0.  1.
       -3    1    3    3    0  502  0.15996979834E+03 -0.21711607271E+03 -0.27651032381E+04  0.27782234707E+04  0.10100000352E+00 0. -1.
</event>
<event>
 5   0  0.8329875E-09  0.4006228E+04  0.7818609E-02  0.8003291E-01
       -1   -1    0    0    0  501  0.00000000000E+00  0.00000000000E+00  0.23359534622E+04  0.23359534622E+04  0.50400001928E-02 0. -1.
        1   -1    0    0  501    0  0.00000000000E+00  0.00000000000E+00 -0.17176994836E+04  0.17176994836E+04  0.50400001928E-02 0.  1.
    10030    2    1    2    0    0  0.00000000000E+00  0.00000000000E+00  0.61825397860E+03  0.40536529458E+04  0.40062281791E+04 0.  0.
        1    1    3    3  502    0  0.15714466988E+04  0.10552631097E+04 -0.35394805752E+03  0.19256957665E+04  0.50400001928E-02 0.  1.
       -1    1    3    3    0  502 -0.15714466988E+04 -0.10552631097E+04  0.97220203612E+03  0.21279571793E+04  0.50400001928E-02 0. -1.
</event>
<event>
 5   0  0.8329875E-09  0.3993357E+04  0.7818609E-02  0.8005888E-01
        1   -1    0    0  501    0  0.00000000000E+00  0.00000000000E+00  0.24011821375E+04  0.24011821375E+04  0.50400001928E-02 0.  1.
       -1   -1    0    0    0  501  0.00000000000E+00  0.00000000000E+00 -0.16603178755E+04  0.16603178755E+04  0.50400001928E-02 0. -1.
    10030    2    1    2    0    0  0.00000000000E+00  0.00000000000E+00  0.74086426198E+03  0.40615000130E+04  0.39933572970E+04 0.  0.
        1    1    3    3  502    0  0.16831946004E+04 -0.81396340257E+03 -0.34227154501E+03  0.19007446683E+04  0.50400001928E-02 0.  1.
       -1    1    3    3    0  502 -0.16831946004E+04  0.81396340257E+03  0.10831358070E+04  0.21607553448E+04  0.50400001928E-02 0. -1.
</event>
<event>
 5   0  0.8329875E-09  0.4000827E+04  0.7818609E-02  0.8004380E-01
        1   -1    0    0  501    0  0.00000000000E+00  0.00000000000E+00  0.26643950512E+04  0.26643950512E+04  0.50400001928E-02 0. -1.
       -1   -1    0    0    0  501  0.00000000000E+00  0.00000000000E+00 -0.15019000294E+04  0.15019000294E+04  0.50400001928E-02 0.  1.
    10030    2    1    2    0    0  0.00000000000E+00  0.00000000000E+00  0.11624950219E+04  0.41662950806E+04  0.40008274173E+04 0.  0.
        3    1    3    3  502    0  0.16439618309E+04  0.57410711589E+03  0.16065733703E+04  0.23692377438E+04  0.10100000352E+00 0. -1.
       -3    1    3    3    0  502 -0.16439618309E+04 -0.57410711589E+03 -0.44407834846E+03  0.17970573368E+04  0.10100000352E+00 0.  1.
</event>
<event>
 5   0  0.2587493E-08  0.4003874E+04  0.7818609E-02  0.8003766E-01
        2   -1    0    0  501    0  0.00000000000E+00  0.00000000000E+00  0.20070229087E+04  0.20070229087E+04  0.25500000920E-02 0.  1.
       -2   -1    0    0    0  501  0.00000000000E+00  0.00000000000E+00 -0.19968635426E+04  0.19968635426E+04  0.25500000920E-02 0. -1.
    10030    2    1    2    0    0  0.00000000000E+00  0.00000000000E+00  0.10159366079E+02  0.40038864513E+04  0.40038735622E+04 0.  0.
        5    1    3    3  502    0  0.12093837916E+04  0.43859598757E+03 -0.15287939550E+04  0.19980512112E+04  0.46999998093E+01 0. -1.
       -5    1    3    3    0  502 -0.12093837916E+04 -0.43859598757E+03  0.15389533211E+04  0.20058352401E+04  0.46999998093E+01 0.  1.
</event>
<event>
 5   0  0.2746876E-08  0.4002529E+04  0.7818609E-02  0.8004037E-01
       -2   -1    0    0    0  501  0.00000000000E+00  0.00000000000E+00  0.17175338014E+04  0.17175338014E+04  0.25500000920E-02 0.  1.
        2   -1    0    0  501    0  0.00000000000E+00  0.00000000000E+00 -0.23318661430E+04  0.23318661430E+04  0.25500000920E-02 0. -1.
    10030    2    1    2    0    0  0.00000000000E+00  0.00000000000E+00 -0.61433234161E+03  0.40493999444E+04  0.40025286612E+04 0.  0.
        1    1    3    3  502    0  0.19306924110E+04  0.58031821214E+02  0.22252780420E+03  0.19443403771E+04  0.50400001928E-02 0.  1.
       -1    1    3    3    0  502 -0.19306924110E+04 -0.58031821214E+02 -0.83686014581E+03  0.21050595673E+04  0.50400001928E-02 0. -1.
</event>
<event>
 5   0  0.8329875E-09  0.3996411E+04  0.7818609E-02  0.8005271E-01
       -1   -1    0    0    0  501  0.00000000000E+00  0.00000000000E+00  0.23063805642E+04  0.23063805642E+04  0.50400001928E-02 0.  1.
        1   -1    0    0  501    0  0.00000000000E+00  0.00000000000E+00 -0.17312082395E+04  0.17312082395E+04  0.50400001928E-02 0. -1.
    10030    2    1    2    0    0  0.00000000000E+00  0.00000000000E+00  0.57517232477E+03  0.40375888037E+04  0.39964109079E+04 0.  0.
        5    1    3    3  502    0  0.12624324499E+04 -0.85976922512E+03  0.15892181784E+04  0.22042176208E+04  0.46999998093E+01 0.  1.
       -5    1    3    3    0  502 -0.12624324499E+04  0.85976922512E+03 -0.10140458537E+04  0.18333711829E+04  0.46999998093E+01 0. -1.
</event>
<event>
 5   0  0.8329875E-09  0.3927325E+04  0.7818609E-02  0.8019370E-01
        1   -1    0    0  501    0  0.00000000000E+00  0.00000000000E+00  0.20217340808E+04  0.20217340808E+04  0.50400001928E-02 0. -1.
       -1   -1    0    0    0  501  0.00000000000E+00  0.00000000000E+00 -0.19072593752E+04  0.19072593752E+04  0.50400001928E-02 0.  1.
    10030    2    1    2    0    0  0.00000000000E+00  0.00000000000E+00  0.11447470558E+03  0.39289934561E+04  0.39273254410E+04 0.  0.
        5    1    3    3  502    0 -0.10248132043E+03  0.10140921534E+04  0.17363613239E+04  0.20134194927E+04  0.46999998093E+01 0. -1.
       -5    1    3    3    0  502  0.10248132043E+03 -0.10140921534E+04 -0.16218866183E+04  0.19155739634E+04  0.46999998093E+01 0.  1.
</event>
<event>
 5   0  0.2746876E-08  0.3985561E+04  0.7818609E-02  0.8007466E-01
        2   -1    0    0  501    0  0.00000000000E+00  0.00000000000E+00  0.13498944484E+04  0.13498944484E+04  0.25500000920E-02 0.  1.
       -2   -1    0    0    0  501  0.00000000000E+00  0.00000000000E+00 -0.29418403245E+04  0.29418403245E+04  0.25500000920E-02 0. -1.
    10030    2    1    2    0    0  0.00000000000E+00  0.00000000000E+00 -0.15919458761E+04  0.42917347729E+04  0.39855609001E+04 0.  0.
        1    1    3    3  502    0 -0.12387023138E+04 -0.51965232009E+03 -0.23810414003E+04  0.27338215205E+04  0.50400001928E-02 0. -1.
       -1    1    3    3    0  502  0.12387023138E+04  0.51965232009E+03  0.78909552417E+03  0.15579132525E+04  0.50400001928E-02 0.  1.
</event>
<event>
 5   0  0.8329875E-09  0.4000199E+04  0.7818609E-02  0.8004506E-01
        1   -1    0    0  501    0  0.00000000000E+00  0.00000000000E+00  0.29241959238E+04  0.29241959238E+04  0.50400001928E-02 0. -1.
       -1   -1    0    0    0  501  0.00000000000E+00  0.00000000000E+00 -0.13680333514E+04  0.13680333514E+04  0.50400001928E-02 0.  1.
    10030    2    1    2    0    0  0.00000000000E+00  0.00000000000E+00  0.15561625724E+04  0.42922292752E+04  0.40001987699E+04 0.  0.
        3    1    3    3  502    0  0.13829147315E+04 -0.81888477435E+03  0.20555294370E+04  0.26092578839E+04  0.10100000352E+00 0. -1.
       -3    1    3    3    0  502 -0.13829147315E+04  0.81888477435E+03 -0.49936686456E+03  0.16829713913E+04  0.10100000352E+00 0.  1.
</event>
<event>
 5   0  0.8329875E-09  0.3965238E+04  0.7818609E-02  0.8011596E-01
        1   -1    0    0  501    0  0.00000000000E+00  0.00000000000E+00  0.19635943100E+04  0.19635943100E+04  0.50400001928E-02 0.  1.
       -1   -1    0    0    0  501  0.00000000000E+00  0.00000000000E+00 -0.20018284602E+04  0.20018284602E+04  0.50400001928E-02 0. -1.
    10030    2    1    2    0    0  0.00000000000E+00  0.00000000000E+00 -0.38234150267E+02  0.39654227702E+04  0.39652384413E+04 0.  0.
        2    1    3    3  502    0  0.16349009401E+04  0.48715772226E+03  0.99115522953E+03  0.19729704557E+04  0.25500000920E-02 0.  1.
       -2    1    3    3    0  502 -0.16349009401E+04 -0.48715772226E+03 -0.10293893798E+04  0.19924523145E+04  0.25500000920E-02 0. -1.
</event>
<event>
 5   0  0.8329875E-09  0.4015574E+04  0.7818609E-02  0.8001412E-01
        1   -1    0    0  501    0  0.00000000000E+00  0.00000000000E+00  0.20883562737E+04  0.20883562737E+04  0.50400001928E-02 0.  1.
       -1   -1    0    0    0  501  0.00000000000E+00  0.00000000000E+00 -0.19303261235E+04  0.19303261235E+04  0.50400001928E-02 0. -1.
    10030    2    1    2    0    0  0.00000000000E+00  0.00000000000E+00  0.15803015020E+03  0.40186823971E+04  0.40155740163E+04 0.  0.
        4    1    3    3  502    0  0.14411856943E+04  0.12257494142E+04  0.75164338734E+03  0.20357915479E+04  0.12699999809E+01 0. -1.
       -4    1    3    3    0  502 -0.14411856943E+04 -0.12257494142E+04 -0.59361323714E+03  0.19828908492E+04  0.12699999809E+01 0.  1.
</event>
<event>
 5   0  0.8329875E-09  0.3998363E+04  0.7818609E-02  0.8004877E-01
        1   -1    0    0  501    0  0.00000000000E+00  0.00000000000E+00  0.24879656523E+04  0.24879656523E+04  0.50400001928E-02 0. -1.
       -1   -1    0    0    0  501  0.00000000000E+00  0.00000000000E+00 -0.16064236832E+04  0.16064236832E+04  0.50400001928E-02 0.  1.
    10030    2    1    2    0    0  0.00000000000E+00  0.00000000000E+00  0.88154196907E+03  0.40943893355E+04  0.39983631385E+04 0.  0.
        4    1    3    3  502    0 -0.97099560852E+03 -0.13674660145E+03  0.22247924468E+04  0.24313031791E+04  0.12699999809E+01 0. -1.
       -4    1    3    3    0  502  0.97099560852E+03  0.13674660145E+03 -0.13432504777E+04  0.16630861564E+04  0.12699999809E+01 0.  1.
</event>
<event>
 5   0  0.8329875E-09  0.3914822E+04  0.7818609E-02  0.8021954E-01
        1   -1    0    0  501    0  0.00000000000E+00  0.00000000000E+00  0.18148705179E+04  0.18148705179E+04  0.50400001928E-02 0.  1.
       -1   -1    0    0    0  501  0.00000000000E+00  0.00000000000E+00 -0.21111468255E+04  0.21111468255E+04  0.50400001928E-02 0. -1.
    10030    2    1    2    0    0  0.00000000000E+00  0.00000000000E+00 -0.29627630767E+03  0.39260173434E+04  0.39148221582E+04 0.  0.
        1    1    3    3  502    0  0.12870969852E+04 -0.14608136873E+04 -0.35086185450E+03  0.19783071852E+04  0.50400001928E-02 0.  1.
       -1    1    3    3    0  502 -0.12870969852E+04  0.14608136873E+04  0.54585546829E+02  0.19477101582E+04  0.50400001928E-02 0. -1.
</event>
<event>
 5   0  0.8329875E-09  0.4003505E+04  0.7818609E-02  0.8003840E-01
        1   -1    0    0  501    0  0.00000000000E+00  0.00000000000E+00  0.23575170464E+04  0.23575170464E+04  0.50400001928E-02 0. -1.
       -1   -1    0    0    0  501  0.00000000000E+00  0.00000000000E+00 -0.16996754813E+04  0.16996754813E+04  0.50400001928E-02 0.  1.
    10030    2    1    2    0    0  0.00000000000E+00  0.00000000000E+00  0.65784156515E+03  0.40571925277E+04  0.40035054243E+04 0.  0.
        3    1    3    3  502    0  0.49402152093E+03  0.15390745862E+04  0.15255199039E+04  0.22226153136E+04  0.10100000352E+00 0. -1.
       -3    1    3    3    0  502 -0.49402152093E+03 -0.15390745862E+04 -0.86767833872E+03  0.18345772141E+04  0.10100000352E+00 0.  1.
</event>
<event>
 5   0  0.8329875E-09  0.4000273E+04  0.7818609E-02  0.8004492E-01
       -1   -1    0    0    0  501  0.00000000000E+00  0.00000000000E+00  0.26235223044E+04  0.26235223044E+04  0.50400001928E-02 0.  1.
        1   -1    0    0  501    0  0.00000000000E+00  0.00000000000E+00 -0.15248757042E+04  0.15248757043E+04  0.50400001928E-02 0. -1.
    10030    2    1    2    0    0  0.00000000000E+00  0.00000000000E+00  0.10986466001E+04  0.41483980086E+04  0.40002727015E+04 0.  0.
        4    1    3    3  502    0 -0.11737265490E+04 -0.72150850131E+03  0.20529561588E+04  0.24724156471E+04  0.12699999809E+01 0.  1.
       -4    1    3    3    0  502  0.11737265490E+04  0.72150850131E+03 -0.95430955868E+03  0.16759823615E+04  0.12699999809E+01 0. -1.
</event>
<event>
 5   0  0.2650452E-08  0.3994478E+04  0.7818609E-02  0.8005661E-01
       -2   -1    0    0    0  501  0.00000000000E+00  0.00000000000E+00  0.30294031703E+04  0.30294031703E+04  0.25500000920E-02 0.  1.
        2   -1    0    0  501    0  0.00000000000E+00  0.00000000000E+00 -0.13167490890E+04  0.13167490890E+04  0.25500000920E-02 0. -1.
    10030    2    1    2    0    0  0.00000000000E+00  0.00000000000E+00  0.17126540813E+04  0.43461522593E+04  0.39944781210E+04 0.  0.
        3    1    3    3  502    0 -0.92468535830E+03  0.13583633970E+04 -0.37885950602E+03  0.16863358697E+04  0.10100000352E+00 0. -1.
       -3    1    3    3    0  502  0.92468535830E+03 -0.13583633970E+04  0.20915135873E+04  0.26598163895E+04  0.10100000352E+00 0.  1.
</event>
<event>
 5   0  0.8329875E-09  0.4001397E+04  0.7818609E-02  0.8004265E-01
       -1   -1    0    0    0  501  0.00000000000E+00  0.00000000000E+00  0.30148389219E+04  0.30148389219E+04  0.50400001928E-02 0. -1.
        1   -1    0    0  501    0  0.00000000000E+00  0.00000000000E+00 -0.13276973096E+04  0.13276973097E+04  0.50400001928E-02 0.  1.
    10030    2    1    2    0    0  0.00000000000E+00  0.00000000000E+00  0.16871416122E+04  0.43425362315E+04  0.40013965190E+04 0.  0.
        2    1    3    3  502    0 -0.97702084274E+03 -0.17350613588E+04  0.63261250006E+03  0.20893075937E+04  0.25500000920E-02 0.  1.
       -2    1    3    3    0  502  0.97702084274E+03  0.17350613588E+04  0.10545291122E+04  0.22532286378E+04  0.25500000920E-02 0. -1.
</event>
<event>
 5   0  0.8329875E-09  0.4108635E+04  0.7818609E-02  0.7982983E-01
       -1   -1    0    0    0  501  0.00000000000E+00  0.00000000000E+00  0.16918920800E+04  0.16918920800E+04  0.50400001928E-02 0. -1.
        1   -1    0    0  501    0  0.00000000000E+00  0.00000000000E+00 -0.24943787002E+04  0.24943787002E+04  0.50400001928E-02 0.  1.
    10030    2    1    2    0    0  0.00000000000E+00  0.00000000000E+00 -0.80248662019E+03  0.41862707802E+04  0.41086345991E+04 0.  0.
        3    1    3    3  502    0  0.34118530448E+03  0.42791685766E+03 -0.24187341209E+04  0.24798780226E+04  0.10100000352E+00 0.  1.
       -3    1    3    3    0  502 -0.34118530448E+03 -0.42791685766E+03  0.16162475008E+04  0.17063927575E+04  0.10100000352E+00 0. -1.
</event>
<event>
 5   0  0.8329875E-09  0.3987453E+04  0.7818609E-02  0.8007082E-01
        1   -1    0    0  501    0  0.00000000000E+00  0.00000000000E+00  0.16268636127E+04  0.16268636127E+04  0.50400001928E-02 0.  1.
       -1   -1    0    0    0  501  0.00000000000E+00  0.00000000000E+00 -0.24433187063E+04  0.24433187063E+04  0.50400001928E-02 0. -1.
    10030    2    1    2    0    0  0.00000000000E+00  0.00000000000E+00 -0.81645509359E+03  0.40701823191E+04  0.39874534719E+04 0.  0.
        2    1    3    3  502    0 -0.18118032325E+04 -0.81721485245E+03 -0.24853611356E+03  0.20030579792E+04  0.25500000920E-02 0. -1.
       -2    1    3    3    0  502  0.18118032325E+04  0.81721485245E+03 -0.56791898003E+03  0.20671243398E+04  0.25500000920E-02 0.  1.
</event>
<event>
 5   0  0.2746876E-08  0.3996941E+04  0.7818609E-02  0.8005164E-01
        2   -1    0    0  501    0  0.00000000000E+00  0.00000000000E+00  0.16340080890E+04  0.16340080890E+04  0.25500000920E-02 0. -1.
       -2   -1    0    0    0  501  0.00000000000E+00  0.00000000000E+00 -0.24442252868E+04  0.24442252868E+04  0.25500000920E-02 0.  1.
    10030    2    1    2    0    0  0.00000000000E+00  0.00000000000E+00 -0.81021719787E+03  0.40782333758E+04  0.39969407751E+04 0.  0.
        1    1    3    3  502    0 -0.15439422895E+04  0.12669601056E+04 -0.33340711553E+03  0.20248718496E+04  0.50400001928E-02 0.  1.
       -1    1    3    3    0  502  0.15439422895E+04 -0.12669601056E+04 -0.47681008234E+03  0.20533615262E+04  0.50400001928E-02 0. -1.
</event>
<event>
 5   0  0.8329875E-09  0.4001770E+04  0.7818609E-02  0.8004190E-01
        1   -1    0    0  501    0  0.00000000000E+00  0.00000000000E+00  0.17557368368E+04  0.17557368368E+04  0.50400001928E-02 0.  1.
       -1   -1    0    0    0  501  0.00000000000E+00  0.00000000000E+00 -0.22802623734E+04  0.22802623734E+04  0.50400001928E-02 0. -1.
    10030    2    1    2    0    0  0.00000000000E+00  0.00000000000E+00 -0.52452553666E+03  0.40359992102E+04  0.40017699317E+04 0.  0.
        1    1    3    3  502    0 -0.12027221309E+04  0.11699855586E+04 -0.13616018115E+04  0.21608716354E+04  0.50400001928E-02 0. -1.
       -1    1    3    3    0  502  0.12027221309E+04 -0.11699855586E+04  0.83707627488E+03  0.18751275748E+04  0.50400001928E-02 0.  1.
</event>
<event>
 5   0  0.2599332E-08  0.4002078E+04  0.7818609E-02  0.8004127E-01
       -2   -1    0    0    0  501  0.00000000000E+00  0.00000000000E+00  0.17697621385E+04  0.17697621385E+04  0.25500000920E-02 0. -1.
        2   -1    0    0  501    0  0.00000000000E+00  0.00000000000E+00 -0.22625402149E+04  0.22625402149E+04  0.25500000920E-02 0.  1.
    10030    2    1    2    0    0  0.00000000000E+00  0.00000000000E+00 -0.49277807639E+03  0.40323023534E+04  0.40020784646E+04 0.  0.
        2    1    3    3  502    0 -0.18462949597E+04  0.76891140969E+03 -0.18165293730E+03  0.20082399318E+04  0.25500000920E-02 0. -1.
       -2    1    3    3    0  502  0.18462949597E+04 -0.76891140969E+03 -0.31112513909E+03  0.20240624216E+04  0.25500000920E-02 0.  1.
</event>
<event>
 5   0  0.8329875E-09  0.4016400E+04  0.7818609E-02  0.8001246E-01
       -1   -1    0    0    0  501  0.00000000000E+00  0.00000000000E+00  0.14391018795E+04  0.14391018795E+04  0.50400001928E-02 0.  1.
        1   -1    0    0  501    0  0.00000000000E+00  0.00000000000E+00 -0.28023507280E+04  0.28023507280E+04  0.50400001928E-02 0. -1.
    10030    2    1    2    0    0  0.00000000000E+00  0.00000000000E+00 -0.13632488485E+04  0.42414526075E+04  0.40164004779E+04 0.  0.
        1    1    3    3  502    0 -0.63979482055E+02 -0.19655255272E+04 -0.11112161540E+04  0.22588017428E+04  0.50400001928E-02 0. -1.
       -1    1    3    3    0  502  0.63979482055E+02  0.19655255272E+04 -0.25203269450E+03  0.19826508647E+04  0.50400001928E-02 0.  1.
</event>
<event>
 5   0  0.8329875E-09  0.3914700E+04  0.7818609E-02  0.8021979E-01
        1   -1    0    0  501    0  0.00000000000E+00  0.00000000000E+00  0.22087873033E+04  0.22087873033E+04  0.50400001928E-02 0.  1.
       -1   -1    0    0    0  501  0.00000000000E+00  0.00000000000E+00 -0.17345353281E+04  0.17345353281E+04  0.50400001928E-02 0. -1.
    10030    2    1    2    0    0  0.00000000000E+00  0.00000000000E+00  0.47425197523E+03  0.39433226314E+04  0.39147003001E+04 0.  0.
        3    1    3    3  502    0 -0.15406401572E+04 -0.91431849942E+03 -0.55709884768E+03  0.18761421984E+04  0.10100000352E+00 0. -1.
       -3    1    3    3    0  502  0.15406401572E+04  0.91431849942E+03  0.10313508229E+04  0.20671804330E+04  0.10100000352E+00 0.  1.
</event>
<event>
 5   0  0.2650452E-08  0.4011543E+04  0.7818609E-02  0.8002222E-01
        2   -1    0    0  501    0  0.00000000000E+00  0.00000000000E+00  0.20766458601E+04  0.20766458601E+04  0.25500000920E-02 0. -1.
       -2   -1    0    0    0  501  0.00000000000E+00  0.00000000000E+00 -0.19373160583E+04  0.19373160583E+04  0.25500000920E-02 0.  1.
    10030    2    1    2    0    0  0.00000000000E+00  0.00000000000E+00  0.13932980175E+03  0.40139619184E+04  0.40115430309E+04 0.  0.
        3    1    3    3  502    0 -0.26150509832E+03 -0.19882521893E+04  0.29795205229E+02  0.20055970306E+04  0.10100000352E+00 0.  1.
       -3    1    3    3    0  502  0.26150509832E+03  0.19882521893E+04  0.10953459652E+03  0.20083648878E+04  0.10100000352E+00 0. -1.
</event>
<event>
 5   0  0.2612363E-08  0.4001820E+04  0.7818609E-02  0.8004179E-01
        2   -1    0    0  501    0  0.00000000000E+00  0.00000000000E+00  0.23388083349E+04  0.23388083349E+04  0.25500000920E-02 0.  1.
       -2   -1    0    0    0  501  0.00000000000E+00  0.00000000000E+00 -0.17118297449E+04  0.17118297449E+04  0.25500000920E-02 0. -1.
    10030    2    1    2    0    0  0.00000000000E+00  0.00000000000E+00  0.62697859008E+03  0.40506380798E+04  0.40018204234E+04 0.  0.
        4    1    3    3  502    0  0.60906162212E+03  0.18867792906E+04  0.58649775783E+03  0.20675766936E+04  0.12699999809E+01 0.  1.
       -4    1    3    3    0  502 -0.60906162212E+03 -0.18867792906E+04  0.40480832252E+02  0.19830613862E+04  0.12699999809E+01 0. -1.
</event>
<event>
 5   0  0.8329875E-09  0.4000925E+04  0.7818609E-02  0.8004360E-01
       -1   -1    0    0    0  501  0.00000000000E+00  0.00000000000E+00  0.18791250334E+04  0.18791250334E+04  0.50400001928E-02 0.  1.
        1   -1    0    0  501    0  0.00000000000E+00  0.00000000000E+00 -0.21296348934E+04  0.21296348934E+04  0.50400001928E-02 0. -1.
    10030    2    1    2    0    0  0.00000000000E+00  0.00000000000E+00 -0.25050985993E+03  0.40087599268E+04  0.40009250131E+04 0.  0.
        1    1    3    3  502    0  0.97882019976E+03  0.10122057710E+03  0.16198548670E+04  0.18953269847E+04  0.50400001928E-02 0.  1.
       -1    1    3    3    0  502 -0.97882019976E+03 -0.10122057710E+03 -0.18703647270E+04  0.21134329421E+04  0.50400001928E-02 0. -1.
</event>
<event>
 5   0  0.8329875E-09  0.3994865E+04  0.7818609E-02  0.8005583E-01
       -1   -1    0    0    0  501  0.00000000000E+00  0.00000000000E+00  0.33180328395E+04  0.33180328395E+04  0.50400001928E-02 0.  1.
        1   -1    0    0  501    0  0.00000000000E+00  0.00000000000E+00 -0.12024403799E+04  0.12024403799E+04  0.50400001928E-02 0. -1.
    10030    2    1    2    0    0  0.00000000000E+00  0.00000000000E+00  0.21155924596E+04  0.45204732193E+04  0.39948650380E+04 0.  0.
        5    1    3    3  502    0  0.49273059663E+03  0.18824236979E+04  0.54744373369E+03  0.20213904004E+04  0.46999998093E+01 0.  1.
       -5    1    3    3    0  502 -0.49273059663E+03 -0.18824236979E+04  0.15681487259E+04  0.24990828189E+04  0.46999998093E+01 0. -1.
</event>
<event>
 5   0  0.2650452E-08  0.4000021E+04  0.7818609E-02  0.8004542E-01
       -2   -1    0    0    0  501  0.00000000000E+00  0.00000000000E+00  0.16890375240E+04  0.16890375241E+04  0.25500000920E-02 0.  1.
        2   -1    0    0  501    0  0.00000000000E+00  0.00000000000E+00 -0.23682374791E+04  0.23682374791E+04  0.25500000920E-02 0. -1.
    10030    2    1    2    0    0  0.00000000000E+00  0.00000000000E+00 -0.67919995507E+03  0.40572750032E+04  0.40000209840E+04 0.  0.
        3    1    3    3  502    0  0.24731846482E+03  0.16864599850E+04  0.72166868188E+03  0.18509779579E+04  0.10100000352E+00 0.  1.
       -3    1    3    3    0  502 -0.24731846482E+03 -0.16864599850E+04 -0.14008686369E+04  0.22062970453E+04  0.10100000352E+00 0. -1.
</event>
<event>
 5   0  0.8329875E-09  0.3994407E+04  0.7818609E-02  0.8005676E-01
        1   -1    0    0  501    0  0.00000000000E+00  0.00000000000E+00  0.15335547953E+04  0.15335547953E+04  0.50400001928E-02 0. -1.
       -1   -1    0    0    0  501  0.00000000000E+00  0.00000000000E+00 -0.26010296549E+04  0.26010296549E+04  0.50400001928E-02 0.  1.
    10030    2    1    2    0    0  0.00000000000E+00  0.00000000000E+00 -0.10674748596E+04  0.41345844502E+04  0.39944068396E+04 0.  0.
        4    1    3    3  502    0 -0.43982618705E+03 -0.59948127493E+03 -0.24524319389E+04  0.25626644146E+04  0.12699999809E+01 0.  1.
       -4    1    3    3    0  502  0.43982618705E+03  0.59948127493E+03  0.13849570794E+04  0.15719200356E+04  0.12699999809E+01 0. -1.
</event>
<event>
 5   0  0.2650452E-08  0.4007723E+04  0.7818609E-02  0.8002990E-01
       -2   -1    0    0    0  501  0.00000000000E+00  0.00000000000E+00  0.13353350681E+04  0.13353350681E+04  0.25500000920E-02 0. -1.
        2   -1    0    0  501    0  0.00000000000E+00  0.00000000000E+00 -0.30070813452E+04  0.30070813452E+04  0.25500000920E-02 0.  1.
    10030    2    1    2    0    0  0.00000000000E+00  0.00000000000E+00 -0.16717462771E+04  0.43424164133E+04  0.40077231306E+04 0.  0.
        3    1    3    3  502    0  0.15957540299E+04  0.38372606613E+03  0.40982865904E+03  0.16916371236E+04  0.10100000352E+00 0. -1.
       -3    1    3    3    0  502 -0.15957540299E+04 -0.38372606613E+03 -0.20815749362E+04  0.26507792898E+04  0.10100000352E+00 0.  1.
</event>
<event>
 5   0  0.8329875E-09  0.3984873E+04  0.7818609E-02  0.8007605E-01
        1   -1    0    0  501    0  0.00000000000E+00  0.00000000000E+00  0.20779703895E+04  0.20779703895E+04  0.50400001928E-02 0.  1.
       -1   -1    0    0    0  501  0.00000000000E+00  0.00000000000E+00 -0.19104238340E+04  0.19104238340E+04  0.50400001928E-02 0. -1.
    10030    2    1    2    0    0  0.00000000000E+00  0.00000000000E+00  0.16754655552E+03  0.39883942236E+04  0.39848734778E+04 0.  0.
        2    1    3    3  502    0 -0.99071440275E+03 -0.17286044384E+04  0.98477281216E+02  0.19948148053E+04  0.25500000920E-02 0. -1.
       -2    1    3    3    0  502  0.99071440275E+03  0.17286044384E+04  0.69069274300E+02  0.19935794183E+04  0.25500000920E-02 0.  1.
</event>
<event>
 5   0  0.2587493E-08  0.4000199E+04  0.7818609E-02  0.8004506E-01
        2   -1    0    0  501    0  0.00000000000E+00  0.00000000000E+00  0.32136429186E+04  0.32136429186E+04  0.25500000920E-02 0. -1.
       -2   -1    0    0    0  501  0.00000000000E+00  0.00000000000E+00 -0.12448172411E+04  0.12448172411E+04  0.25500000920E-02 0.  1.
    10030    2    1    2    0    0  0.00000000000E+00  0.00000000000E+00  0.19688256776E+04  0.44584601597E+04  0.40001990509E+04 0.  0.
        5    1    3    3  502    0 -0.10366868987E+04  0.16446330922E+04  0.46064301525E+03  0.19979368888E+04  0.46999998093E+01 0. -1.
       -5    1    3    3    0  502  0.10366868987E+04 -0.16446330922E+04  0.15081826623E+04  0.24605232710E+04  0.46999998093E+01 0.  1.
</event>
<event>
 5   0  0.8329875E-09  0.4001273E+04  0.7818609E-02  0.8004290E-01
       -1   -1    0    0    0  501  0.00000000000E+00  0.00000000000E+00  0.14741592515E+04  0.14741592515E+04  0.50400001928E-02 0.  1.
        1   -1    0    0  501    0  0.00000000000E+00  0.00000000000E+00 -0.27151383860E+04  0.27151383860E+04  0.50400001928E-02 0. -1.
    10030    2    1    2    0    0  0.00000000000E+00  0.00000000000E+00 -0.12409791346E+04  0.41892976375E+04  0.40012729828E+04 0.  0.
        1    1    3    3  502    0  0.17493594495E+03 -0.30600807112E+03 -0.26823719818E+04  0.27054321232E+04  0.50400001928E-02 0. -1.
       -1    1    3    3    0  502 -0.17493594495E+03  0.30600807112E+03  0.14413928472E+04  0.14838655143E+04  0.50400001928E-02 0.  1.
</event>
<event>
 5   0  0.8329875E-09  0.4002732E+04  0.7818609E-02  0.8003996E-01
       -1   -1    0    0    0  501  0.00000000000E+00  0.00000000000E+00  0.14671021998E+04  0.14671021998E+04  0.50400001928E-02 0.  1.
        1   -1    0    0  501    0  0.00000000000E+00  0.00000000000E+00 -0.27301890464E+04  0.27301890465E+04  0.50400001928E-02 0. -1.
    10030    2    1    2    0    0  0.00000000000E+00  0.00000000000E+00 -0.12630868466E+04  0.41972912463E+04  0.40027322449E+04 0.  0.
        1    1    3    3  502    0  0.18527777105E+04 -0.64084558979E+03 -0.20948998004E+03  0.19716374835E+04  0.50400001928E-02 0.  1.
       -1    1    3    3    0  502 -0.18527777105E+04  0.64084558979E+03 -0.10535968666E+04  0.22256537628E+04  0.50400001928E-02 0. -1.
</event>
<event>
 5   0  0.2650452E-08  0.4001591E+04  0.7818609E-02  0.8004226E-01
       -2   -1    0    0    0  501  0.00000000000E+00  0.00000000000E+00  0.15694784478E+04  0.15694784478E+04  0.25500000920E-02 0.  1.
        2   -1    0    0  501    0  0.00000000000E+00  0.00000000000E+00 -0.25506456235E+04  0.25506456235E+04  0.25500000920E-02 0. -1.
    10030    2    1    2    0    0  0.00000000000E+00  0.00000000000E+00 -0.98116717567E+03  0.41201240713E+04  0.40015913505E+04 0.  0.
        3    1    3    3  502    0  0.13272176803E+04 -0.14969953899E+04 -0.46370759700E+03  0.20536617818E+04  0.10100000352E+00 0.  1.
       -3    1    3    3    0  502 -0.13272176803E+04  0.14969953899E+04 -0.51745957867E+03  0.20664622895E+04  0.10100000352E+00 0. -1.
</event>
<event>
 5   0  0.8329875E-09  0.3998976E+04  0.7818609E-02  0.8004753E-01
       -1   -1    0    0    0  501  0.00000000000E+00  0.00000000000E+00  0.18652547926E+04  0.18652547926E+04  0.50400001928E-02 0.  1.
        1   -1    0    0  501    0  0.00000000000E+00  0.00000000000E+00 -0.21433807827E+04  0.21433807827E+04  0.50400001928E-02 0. -1.
    10030    2    1    2    0    0  0.00000000000E+00  0.00000000000E+00 -0.27812599010E+03  0.40086355752E+04  0.39989755074E+04 0.  0.
        4    1    3    3  502    0  0.36870989464E+03  0.12857956807E+04 -0.16288334533E+04  0.21076806092E+04  0.12699999809E+01 0. -1.
       -4    1    3    3    0  502 -0.36870989464E+03 -0.12857956807E+04  0.13507074632E+04  0.19009549660E+04  0.12699999809E+01 0.  1.
</event>
<event>
 5   0  0.8329875E-09  0.4000019E+04  0.7818609E-02  0.8004543E-01
        1   -1    0    0  501    0  0.00000000000E+00  0.00000000000E+00  0.23989140460E+04  0.23989140460E+04  0.50400001928E-02 0.  1.
       -1   -1    0    0    0  501  0.00000000000E+00  0.00000000000E+00 -0.16674366797E+04  0.16674366797E+04  0.50400001928E-02 0. -1.
    10030    2    1    2    0    0  0.00000000000E+00  0.00000000000E+00  0.73147736631E+03  0.40663507257E+04  0.40000186359E+04 0.  0.
        1    1    3    3  502    0 -0.49615402069E+03  0.26918898526E+03  0.23162553363E+04  0.23840449461E+04  0.50400001928E-02 0.  1.
       -1    1    3    3    0  502  0.49615402069E+03 -0.26918898526E+03 -0.15847779700E+04  0.16823057796E+04  0.50400001928E-02 0. -1.
</event>
<event>
 5   0  0.2587493E-08  0.4003171E+04  0.7818609E-02  0.8003907E-01
       -2   -1    0    0    0  501  0.00000000000E+00  0.00000000000E+00  0.16978513447E+04  0.16978513447E+04  0.25500000920E-02 0.  1.
        2   -1    0    0  501    0  0.00000000000E+00  0.00000000000E+00 -0.23596556315E+04  0.23596556315E+04  0.25500000920E-02 0. -1.
    10030    2    1    2    0    0  0.00000000000E+00  0.00000000000E+00 -0.66180428683E+03  0.40575069762E+04  0.40031709866E+04 0.  0.
        5    1    3    3  502    0 -0.56637855102E+03 -0.15388948531E+04 -0.14942353755E+04  0.22185002771E+04  0.46999998093E+01 0. -1.
       -5    1    3    3    0  502  0.56637855102E+03  0.15388948531E+04  0.83243108870E+03  0.18390066991E+04  0.46999998093E+01 0.  1.
</event>
<event>
 5   0  0.8329875E-09  0.3999299E+04  0.7818609E-02  0.8004688E-01
        1   -1    0    0  501    0  0.00000000000E+00  0.00000000000E+00  0.23011787874E+04  0.23011787874E+04  0.50400001928E-02 0. -1.
       -1   -1    0    0    0  501  0.00000000000E+00  0.00000000000E+00 -0.17376301624E+04  0.17376301624E+04  0.50400001928E-02 0.  1.
    10030    2    1    2    0    0  0.00000000000E+00  0.00000000000E+00  0.56354862501E+03  0.40388089498E+04  0.39992987736E+04 0.  0.
        5    1    3    3  502    0 -0.29774287963E+02 -0.19668607580E+04  0.64469608019E+03  0.20700441723E+04  0.46999998093E+01 0. -1.
       -5    1    3    3    0  502  0.29774287963E+02  0.19668607580E+04 -0.81147455184E+02  0.19687647775E+04  0.46999998093E+01 0.  1.
</event>
<event>
 5   0  0.2650452E-08  0.4003629E+04  0.7818609E-02  0.8003815E-01
       -2   -1    0    0    0  501  0.00000000000E+00  0.00000000000E+00  0.20492479198E+04  0.20492479198E+04  0.25500000920E-02 0.  1.
        2   -1    0    0  501    0  0.00000000000E+00  0.00000000000E+00 -0.19554792152E+04  0.19554792152E+04  0.25500000920E-02 0. -1.
    10030    2    1    2    0    0  0.00000000000E+00  0.00000000000E+00  0.93768704669E+02  0.40047271350E+04  0.40036292106E+04 0.  0.
        3    1    3    3  502    0  0.10923913867E+04 -0.13591935290E+04 -0.93651073405E+03  0.19793378581E+04  0.10100000352E+00 0. -1.
       -3    1    3    3    0  502 -0.10923913867E+04  0.13591935290E+04  0.10302794387E+04  0.20253892770E+04  0.10100000352E+00 0.  1.
</event>
<event>
 5   0  0.8329875E-09  0.3996297E+04  0.7818609E-02  0.8005294E-01
       -1   -1    0    0    0  501  0.00000000000E+00  0.00000000000E+00  0.25947610556E+04  0.25947610556E+04  0.50400001928E-02 0. -1.
        1   -1    0    0  501    0  0.00000000000E+00  0.00000000000E+00 -0.15387145843E+04  0.15387145843E+04  0.50400001928E-02 0.  1.
    10030    2    1    2    0    0  0.00000000000E+00  0.00000000000E+00  0.10560464713E+04  0.41334756400E+04  0.39962966252E+04 0.  0.
        2    1    3    3  502    0 -0.99805299435E+03  0.17414868670E+03  0.23093963356E+04  0.25218542741E+04  0.25500000920E-02 0. -1.
       -2    1    3    3    0  502  0.99805299435E+03 -0.17414868670E+03 -0.12533498643E+04  0.16116213659E+04  0.25500000920E-02 0.  1.
</event>
<event>
 5   0  0.8329875E-09  0.3998462E+04  0.7818609E-02  0.8004857E-01
        1   -1    0    0  501    0  0.00000000000E+00  0.00000000000E+00  0.25256995002E+04  0.25256995002E+04  0.50400001928E-02 0. -1.
       -1   -1    0    0    0  501  0.00000000000E+00  0.00000000000E+00 -0.15825022569E+04  0.15825022569E+04  0.50400001928E-02 0.  1.
    10030    2    1    2    0    0  0.00000000000E+00  0.00000000000E+00  0.94319724327E+03  0.41082017571E+04  0.39984622841E+04 0.  0.
        4    1    3    3  502    0 -0.14248870201E+04 -0.13038999941E+04 -0.58771581722E+02  0.19323338030E+04  0.12699999809E+01 0.  1.
       -4    1    3    3    0  502  0.14248870201E+04  0.13038999941E+04  0.10019688250E+04  0.21758679541E+04  0.12699999809E+01 0. -1.
</event>
<event>
 5   0  0.8329875E-09  0.3998123E+04  0.7818609E-02  0.8004925E-01
       -1   -1    0    0    0  501  0.00000000000E+00  0.00000000000E+00  0.24639855163E+04  0.24639855163E+04  0.50400001928E-02 0. -1.
        1   -1    0    0  501    0  0.00000000000E+00  0.00000000000E+00 -0.16218626287E+04  0.16218626287E+04  0.50400001928E-02 0.  1.
    10030    2    1    2    0    0  0.00000000000E+00  0.00000000000E+00  0.84212288759E+03  0.40858481451E+04  0.39981225728E+04 0.  0.
        1    1    3    3  502    0 -0.13331642926E+04 -0.13893473980E+04  0.97009509118E+03  0.21560838827E+04  0.50400001928E-02 0. -1.
       -1    1    3    3    0  502  0.13331642926E+04  0.13893473980E+04 -0.12797220359E+03  0.19297642624E+04  0.50400001928E-02 0.  1.
</event>
<event>
 5   0  0.8329875E-09  0.3999363E+04  0.7818609E-02  0.8004675E-01
        1   -1    0    0  501    0  0.00000000000E+00  0.00000000000E+00  0.19801364175E+04  0.19801364175E+04  0.50400001928E-02 0.  1.
       -1   -1    0    0    0  501  0.00000000000E+00  0.00000000000E+00 -0.20194199873E+04  0.20194199873E+04  0.50400001928E-02 0. -1.
    10030    2    1    2    0    0  0.00000000000E+00  0.00000000000E+00 -0.39283569775E+02  0.39995564048E+04  0.39993634789E+04 0.  0.
        4    1    3    3  502    0 -0.17314464228E+03  0.42171477047E+03 -0.19667598553E+04  0.20189027604E+04  0.12699999809E+01 0. -1.
       -4    1    3    3    0  502  0.17314464228E+03 -0.42171477047E+03  0.19274762855E+04  0.19806536444E+04  0.12699999809E+01 0.  1.
</event>
<event>
 5   0  0.2599332E-08  0.3997215E+04  0.7818609E-02  0.8005109E-01
       -2   -1    0    0    0  501  0.00000000000E+00  0.00000000000E+00  0.15622400079E+04  0.15622400079E+04  0.25500000920E-02 0. -1.
        2   -1    0    0  501    0  0.00000000000E+00  0.00000000000E+00 -0.25568622060E+04  0.25568622060E+04  0.25500000920E-02 0.  1.
    10030    2    1    2    0    0  0.00000000000E+00  0.00000000000E+00 -0.99462219808E+03  0.41191022139E+04  0.39972152470E+04 0.  0.
        2    1    3    3  502    0  0.34414607636E+03 -0.13738981087E+04 -0.19504157729E+04  0.24104261495E+04  0.25500000920E-02 0.  1.
       -2    1    3    3    0  502 -0.34414607636E+03  0.13738981087E+04  0.95579357484E+03  0.17086760643E+04  0.25500000920E-02 0. -1.
</event>
<event>
 5   0  0.2746876E-08  0.3996418E+04  0.7818609E-02  0.8005270E-01
        2   -1    0    0  501    0  0.00000000000E+00  0.00000000000E+00  0.23624485615E+04  0.23624485615E+04  0.25500000920E-02 0.  1.
       -2   -1    0    0    0  501  0.00000000000E+00  0.00000000000E+00 -0.16901275614E+04  0.16901275614E+04  0.25500000920E-02 0. -1.
    10030    2    1    2    0    0  0.00000000000E+00  0.00000000000E+00  0.67232100015E+03  0.40525761229E+04  0.39964181093E+04 0.  0.
        1    1    3    3  502    0  0.18426729518E+04 -0.56264915713E+03  0.87353323767E+03  0.21154380158E+04  0.50400001928E-02 0.  1.
       -1    1    3    3    0  502 -0.18426729518E+04  0.56264915713E+03 -0.20121223752E+03  0.19371381071E+04  0.50400001928E-02 0. -1.
</event>
<event>
 5   0  0.2650452E-08  0.4000749E+04  0.7818609E-02  0.8004396E-01
       -2   -1    0    0    0  501  0.00000000000E+00  0.00000000000E+00  0.16576533808E+04  0.16576533808E+04  0.25500000920E-02 0. -1.
        2   -1    0    0  501    0  0.00000000000E+00  0.00000000000E+00 -0.24139529290E+04  0.24139529290E+04  0.25500000920E-02 0.  1.
    10030    2    1    2    0    0  0.00000000000E+00  0.00000000000E+00 -0.75629954814E+03  0.40716063098E+04  0.40007485469E+04 0.  0.
        3    1    3    3  502    0  0.12890390775E+04 -0.10673305129E+04 -0.14933127750E+04  0.22429443197E+04  0.10100000352E+00 0.  1.
       -3    1    3    3    0  502 -0.12890390775E+04  0.10673305129E+04  0.73701322686E+03  0.18286619901E+04  0.10100000352E+00 0. -1.
</event>
<event>
 5   0  0.2746876E-08  0.4006693E+04  0.7818609E-02  0.8003198E-01
        2   -1    0    0  501    0  0.00000000000E+00  0.00000000000E+00  0.18694456313E+04  0.18694456313E+04  0.25500000920E-02 0.  1.
       -2   -1    0    0    0  501  0.00000000000E+00  0.00000000000E+00 -0.21468376922E+04  0.21468376922E+04  0.25500000920E-02 0. -1.
    10030    2    1    2    0    0  0.00000000000E+00  0.00000000000E+00 -0.27739206094E+03  0.40162833235E+04  0.40066925736E+04 0.  0.
        1    1    3    3  502    0 -0.19507725871E+04  0.42987635989E+03  0.13618253573E+02  0.19976217931E+04  0.50400001928E-02 0. -1.
       -1    1    3    3    0  502  0.19507725871E+04 -0.42987635989E+03 -0.29101031451E+03  0.20186615304E+04  0.50400001928E-02 0.  1.
</event>
<event>
 5   0  0.2612363E-08  0.4016609E+04  0.7818609E-02  0.8001204E-01
       -2   -1    0    0    0  501  0.00000000000E+00  0.00000000000E+00  0.24805005220E+04  0.24805005220E+04  0.25500000920E-02 0.  1.
        2   -1    0    0  501    0  0.00000000000E+00  0.00000000000E+00 -0.16259970973E+04  0.16259970973E+04  0.25500000920E-02 0. -1.
    10030    2    1    2    0    0  0.00000000000E+00  0.00000000000E+00  0.85450342474E+03  0.41064976193E+04  0.40166088425E+04 0.  0.
        4    1    3    3  502    0  0.53105647041E+03 -0.19348692831E+04  0.33844632666E+03  0.20347696789E+04  0.12699999809E+01 0.  1.
       -4    1    3    3    0  502 -0.53105647041E+03  0.19348692831E+04  0.51605709808E+03  0.20717279403E+04  0.12699999809E+01 0. -1.
</event>
<event>
 5   0  0.8329875E-09  0.3906086E+04  0.7818609E-02  0.8023765E-01
       -1   -1    0    0    0  501  0.00000000000E+00  0.00000000000E+00  0.24959440969E+04  0.24959440969E+04  0.50400001928E-02 0.  1.
        1   -1    0    0  501    0  0.00000000000E+00  0.00000000000E+00 -0.15282300271E+04  0.15282300271E+04  0.50400001928E-02 0. -1.
    10030    2    1    2    0    0  0.00000000000E+00  0.00000000000E+00  0.96771406983E+03  0.40241741240E+04  0.39060858746E+04 0.  0.
        3    1    3    3  502    0  0.46332296309E+03 -0.18678276719E+04  0.82698507060E+03  0.20946008444E+04  0.10100000352E+00 0.  1.
       -3    1    3    3    0  502 -0.46332296309E+03  0.18678276719E+04  0.14072899923E+03  0.19295732796E+04  0.10100000352E+00 0. -1.
</event>
<event>
 5   0  0.8329875E-09  0.3994748E+04  0.7818609E-02  0.8005607E-01
        1   -1    0    0  501    0  0.00000000000E+00  0.00000000000E+00  0.33326463100E+04  0.33326463100E+04  0.50400001928E-02 0.  1.
       -1   -1    0    0    0  501  0.00000000000E+00  0.00000000000E+00 -0.11970975932E+04  0.11970975932E+04  0.50400001928E-02 0. -1.
    10030    2    1    2    0    0  0.00000000000E+00  0.00000000000E+00  0.21355487168E+04  0.45297439032E+04  0.39947479905E+04 0.  0.
        1    1    3    3  502    0  0.24758138221E+03  0.99705749735E+03  0.30100928117E+04  0.31805783953E+04  0.50400001928E-02 0.  1.
       -1    1    3    3    0  502 -0.24758138221E+03 -0.99705749735E+03 -0.87454409491E+03  0.13491655079E+04  0.50400001928E-02 0. -1.
</event>
<event>
 5   0  0.8329875E-09  0.3984861E+04  0.7818609E-02  0.8007608E-01
       -1   -1    0    0    0  501  0.00000000000E+00  0.00000000000E+00  0.15093606995E+04  0.15093606995E+04  0.50400001928E-02 0.  1.
        1   -1    0    0  501    0  0.00000000000E+00  0.00000000000E+00 -0.26301064779E+04  0.26301064779E+04  0.50400001928E-02 0. -1.
    10030    2    1    2    0    0  0.00000000000E+00  0.00000000000E+00 -0.11207457784E+04  0.41394671774E+04  0.39848610281E+04 0.  0.
        1    1    3    3  502    0 -0.38515865784E+03 -0.17152379688E+04 -0.15345148259E+04  0.23334789976E+04  0.50400001928E-02 0. -1.
       -1    1    3    3    0  502  0.38515865784E+03  0.17152379688E+04  0.41376904741E+03  0.18059881799E+04  0.50400001928E-02 0.  1.
</event>
<event>
 5   0  0.8329875E-09  0.3996399E+04  0.7818609E-02  0.8005273E-01
       -1   -1    0    0    0  501  0.00000000000E+00  0.00000000000E+00  0.14576483028E+04  0.14576483029E+04  0.50400001928E-02 0.  1.
        1   -1    0    0  501    0  0.00000000000E+00  0.00000000000E+00 -0.27392073752E+04  0.27392073752E+04  0.50400001928E-02 0. -1.
    10030    2    1    2    0    0  0.00000000000E+00  0.00000000000E+00 -0.12815590723E+04  0.41968556780E+04  0.39963988698E+04 0.  0.
        4    1    3    3  502    0 -0.82382437745E+03  0.10001978433E+04  0.95660814092E+03  0.16106467890E+04  0.12699999809E+01 0.  1.
       -4    1    3    3    0  502  0.82382437745E+03 -0.10001978433E+04 -0.22381672132E+04  0.25862088891E+04  0.12699999809E+01 0. -1.
</event>
<event>
 5   0  0.8329875E-09  0.3997357E+04  0.7818609E-02  0.8005080E-01
       -1   -1    0    0    0  501  0.00000000000E+00  0.00000000000E+00  0.20544256774E+04  0.20544256774E+04  0.50400001928E-02 0.  1.
        1   -1    0    0  501    0  0.00000000000E+00  0.00000000000E+00 -0.19444440149E+04  0.19444440149E+04  0.50400001928E-02 0. -1.
    10030    2    1    2    0    0  0.00000000000E+00  0.00000000000E+00  0.10998166249E+03  0.39988696922E+04  0.39973569830E+04 0.  0.
        3    1    3    3  502    0 -0.82322855568E+03  0.13322954533E+04 -0.11872517227E+04  0.19652692164E+04  0.10100000352E+00 0. -1.
       -3    1    3    3    0  502  0.82322855568E+03 -0.13322954533E+04  0.12972333852E+04  0.20336004759E+04  0.10100000352E+00 0.  1.
</event>
<event>
 5   0  0.2612363E-08  0.4004757E+04  0.7818609E-02  0.8003588E-01
       -2   -1    0    0    0  501  0.00000000000E+00  0.00000000000E+00  0.26213263084E+04  0.26213263084E+04  0.25500000920E-02 0. -1.
        2   -1    0    0  501    0  0.00000000000E+00  0.00000000000E+00 -0.15295764965E+04  0.15295764965E+04  0.25500000920E-02 0.  1.
    10030    2    1    2    0    0  0.00000000000E+00  0.00000000000E+00  0.10917498119E+04  0.41509028049E+04  0.40047567271E+04 0.  0.
        4    1    3    3  502    0 -0.19412647615E+04 -0.17069210681E+03  0.10229690181E+04  0.22009343231E+04  0.12699999809E+01 0. -1.
       -4    1    3    3    0  502  0.19412647615E+04  0.17069210681E+03  0.68780793815E+02  0.19499684818E+04  0.12699999809E+01 0.  1.
</event>
<event>
 5   0  0.8329875E-09  0.4015212E+04  0.7818609E-02  0.8001485E-01
        1   -1    0    0  501    0  0.00000000000E+00  0.00000000000E+00  0.19717206780E+04  0.19717206780E+04  0.50400001928E-02 0. -1.
       -1   -1    0    0    0  501  0.00000000000E+00  0.00000000000E+00 -0.20441443080E+04  0.20441443080E+04  0.50400001928E-02 0.  1.
    10030    2    1    2    0    0  0.00000000000E+00  0.00000000000E+00 -0.72423629974E+02  0.40158649860E+04  0.40152118753E+04 0.  0.
        2    1    3    3  502    0  0.45941262343E+03 -0.10967106952E+04  0.15816567228E+04  0.19787552391E+04  0.25500000920E-02 0. -1.
       -2    1    3    3    0  502 -0.45941262343E+03  0.10967106952E+04 -0.16540803528E+04  0.20371097469E+04  0.25500000920E-02 0.  1.
</event>
<event>
 5   0  0.8329875E-09  0.4001296E+04  0.7818609E-02  0.8004285E-01
        1   -1    0    0  501    0  0.00000000000E+00  0.00000000000E+00  0.24759290752E+04  0.24759290752E+04  0.50400001928E-02 0. -1.
       -1   -1    0    0    0  501  0.00000000000E+00  0.00000000000E+00 -0.16166024035E+04  0.16166024035E+04  0.50400001928E-02 0.  1.
    10030    2    1    2    0    0  0.00000000000E+00  0.00000000000E+00  0.85932667176E+03  0.40925314787E+04  0.40012962369E+04 0.  0.
        3    1    3    3  502    0 -0.51904818997E+03  0.44042503354E+03  0.23538373487E+04  0.24502929433E+04  0.10100000352E+00 0. -1.
       -3    1    3    3    0  502  0.51904818997E+03 -0.44042503354E+03 -0.14945106769E+04  0.16422385354E+04  0.10100000352E+00 0.  1.
</event>
<event>
 5   0  0.2587493E-08  0.4018301E+04  0.7818609E-02  0.8000865E-01
        2   -1    0    0  501    0  0.00000000000E+00  0.00000000000E+00  0.25572071225E+04  0.25572071225E+04  0.25500000920E-02 0. -1.
       -2   -1    0    0    0  501  0.00000000000E+00  0.00000000000E+00 -0.15785528576E+04  0.15785528576E+04  0.25500000920E-02 0.  1.
    10030    2    1    2    0    0  0.00000000000E+00  0.00000000000E+00  0.97865426487E+03  0.41357599800E+04  0.40183014375E+04 0.  0.
        5    1    3    3  502    0 -0.58952146944E+03 -0.56392574611E+03  0.23790569158E+04  0.25150510350E+04  0.46999998093E+01 0. -1.
       -5    1    3    3    0  502  0.58952146944E+03  0.56392574611E+03 -0.14004026509E+04  0.16207089451E+04  0.46999998093E+01 0.  1.
</event>
<event>
 5   0  0.8329875E-09  0.3996413E+04  0.7818609E-02  0.8005271E-01
       -1   -1    0    0    0  501  0.00000000000E+00  0.00000000000E+00  0.19447080125E+04  0.19447080125E+04  0.50400001928E-02 0.  1.
        1   -1    0    0  501    0  0.00000000000E+00  0.00000000000E+00 -0.20531765550E+04  0.20531765550E+04  0.50400001928E-02 0. -1.
    10030    2    1    2    0    0  0.00000000000E+00  0.00000000000E+00 -0.10846854254E+03  0.39978845675E+04  0.39964128403E+04 0.  0.
        2    1    3    3  502    0  0.11824284135E+04 -0.15198990657E+04  0.47944018666E+03  0.19844629036E+04  0.25500000920E-02 0.  1.
       -2    1    3    3    0  502 -0.11824284135E+04  0.15198990657E+04 -0.58790872920E+03  0.20134216640E+04  0.25500000920E-02 0. -1.
</event>
<event>
 5   0  0.8329875E-09  0.3998905E+04  0.7818609E-02  0.8004767E-01
       -1   -1    0    0    0  501  0.00000000000E+00  0.00000000000E+00  0.27488300957E+04  0.27488300957E+04  0.50400001928E-02 0. -1.
        1   -1    0    0  501    0  0.00000000000E+00  0.00000000000E+00 -0.14543682632E+04  0.14543682632E+04  0.50400001928E-02 0.  1.
    10030    2    1    2    0    0  0.00000000000E+00  0.00000000000E+00  0.12944618326E+04  0.42031983589E+04  0.39989054763E+04 0.  0.
        5    1    3    3  502    0  0.17259888986E+04  0.41477979330E+03  0.16144077563E+04  0.23994612830E+04  0.46999998093E+01 0. -1.
       -5    1    3    3    0  502 -0.17259888986E+04 -0.41477979330E+03 -0.31994592372E+03  0.18037370759E+04  0.46999998093E+01 0.  1.
</event>
<event>
 5   0  0.8329875E-09  0.4003350E+04  0.7818609E-02  0.8003871E-01
       -1   -1    0    0    0  501  0.00000000000E+00  0.00000000000E+00  0.28733131674E+04  0.28733131674E+04  0.50400001928E-02 0. -1.
        1   -1    0    0  501    0  0.00000000000E+00  0.00000000000E+00 -0.13944536667E+04  0.13944536667E+04  0.50400001928E-02 0.  1.
    10030    2    1    2    0    0  0.00000000000E+00  0.00000000000E+00  0.14788595007E+04  0.42677668341E+04  0.40033496384E+04 0.  0.
        5    1    3    3  502    0  0.53624676107E+02 -0.13003330692E+04 -0.88185458250E+03  0.15720786530E+04  0.46999998093E+01 0.  1.
       -5    1    3    3    0  502 -0.53624676107E+02  0.13003330692E+04  0.23607140832E+04  0.26956881810E+04  0.46999998093E+01 0. -1.
</event>
<event>
 5   0  0.2599332E-08  0.3948192E+04  0.7818609E-02  0.8015080E-01
        2   -1    0    0  501    0  0.00000000000E+00  0.00000000000E+00  0.25467012147E+04  0.25467012147E+04  0.25500000920E-02 0. -1.
       -2   -1    0    0    0  501  0.00000000000E+00  0.00000000000E+00 -0.15302361896E+04  0.15302361896E+04  0.25500000920E-02 0.  1.
    10030    2    1    2    0    0  0.00000000000E+00  0.00000000000E+00  0.10164650251E+04  0.40769374044E+04  0.39481916686E+04 0.  0.
        2    1    3    3  502    0  0.28216168448E+03  0.12126985638E+04  0.20901141310E+04  0.24328645880E+04  0.25500000920E-02 0. -1.
       -2    1    3    3    0  502 -0.28216168448E+03 -0.12126985638E+04 -0.10736491059E+04  0.16440728164E+04  0.25500000920E-02 0.  1.
</event>
<event>
 5   0  0.2599332E-08  0.4016924E+04  0.7818609E-02  0.8001141E-01
        2   -1    0    0  501    0  0.00000000000E+00  0.00000000000E+00  0.19000436988E+04  0.19000436988E+04  0.25500000920E-02 0. -1.
       -2   -1    0    0    0  501  0.00000000000E+00  0.00000000000E+00 -0.21230662888E+04  0.21230662888E+04  0.25500000920E-02 0.  1.
    10030    2    1    2    0    0  0.00000000000E+00  0.00000000000E+00 -0.22302259000E+03  0.40231099877E+04  0.40169235613E+04 0.  0.
        2    1    3    3  502    0  0.16469455201E+04 -0.11285887866E+04  0.10740376273E+03  0.19994193567E+04  0.25500000920E-02 0. -1.
       -2    1    3    3    0  502 -0.16469455201E+04  0.11285887866E+04 -0.33042635273E+03  0.20236906310E+04  0.25500000920E-02 0.  1.
</event>
<event>
 5   0  0.2650452E-08  0.3990090E+04  0.7818609E-02  0.8006549E-01
        2   -1    0    0  501    0  0.00000000000E+00  0.00000000000E+00  0.25565170236E+04  0.25565170236E+04  0.25500000920E-02 0. -1.
       -2   -1    0    0    0  501  0.00000000000E+00  0.00000000000E+00 -0.15568853986E+04  0.15568853986E+04  0.25500000920E-02 0.  1.
    10030    2    1    2    0    0  0.00000000000E+00  0.00000000000E+00  0.99963162494E+03  0.41134024222E+04  0.39900897360E+04 0.  0.
        3    1    3    3  502    0 -0.16694593056E+04 -0.38112568581E+03 -0.55546656744E+03  0.18002483937E+04  0.10100000352E+00 0.  1.
       -3    1    3    3    0  502  0.16694593056E+04  0.38112568581E+03  0.15550981924E+04  0.23131540285E+04  0.10100000352E+00 0. -1.
</event>
<event>
 5   0  0.2612363E-08  0.4009847E+04  0.7818609E-02  0.8002563E-01
        2   -1    0    0  501    0  0.00000000000E+00  0.00000000000E+00  0.11895673528E+04  0.11895673528E+04  0.25500000920E-02 0. -1.
       -2   -1    0    0    0  501  0.00000000000E+00  0.00000000000E+00 -0.33791430139E+04  0.33791430139E+04  0.25500000920E-02 0.  1.
    10030    2    1    2    0    0  0.00000000000E+00  0.00000000000E+00 -0.21895756612E+04  0.45687103667E+04  0.40098469845E+04 0.  0.
        4    1    3    3  502    0 -0.10884115357E+04  0.15018286266E+04 -0.19621997937E+04  0.27000663951E+04  0.12699999809E+01 0.  1.
       -4    1    3    3    0  502  0.10884115357E+04 -0.15018286266E+04 -0.22737586749E+03  0.18686439716E+04  0.12699999809E+01 0. -1.
</event>
<event>
 5   0  0.8329875E-09  0.3998912E+04  0.7818609E-02  0.8004766E-01
       -1   -1    0    0    0  501  0.00000000000E+00  0.00000000000E+00  0.26613894607E+04  0.26613894607E+04  0.50400001928E-02 0.  1.
        1   -1    0    0  501    0  0.00000000000E+00  0.00000000000E+00 -0.15021568891E+04  0.15021568891E+04  0.50400001928E-02 0. -1.
    10030    2    1    2    0    0  0.00000000000E+00  0.00000000000E+00  0.11592325716E+04  0.41635463498E+04  0.39989121085E+04 0.  0.
        1    1    3    3  502    0  0.87675203949E+03 -0.13179146150E+04  0.18514772493E+04  0.24358902020E+04  0.50400001928E-02 0.  1.
       -1    1    3    3    0  502 -0.87675203949E+03  0.13179146150E+04 -0.69224467769E+03  0.17276561478E+04  0.50400001928E-02 0. -1.
</event>
<event>
 5   0  0.2612363E-08  0.3958459E+04  0.7818609E-02  0.8012980E-01
       -2   -1    0    0    0  501  0.00000000000E+00  0.00000000000E+00  0.15254259941E+04  0.15254259941E+04  0.25500000920E-02 0.  1.
        2   -1    0    0  501    0  0.00000000000E+00  0.00000000000E+00 -0.25680361044E+04  0.25680361044E+04  0.25500000920E-02 0. -1.
    10030    2    1    2    0    0  0.00000000000E+00  0.00000000000E+00 -0.10426101102E+04  0.40934620985E+04  0.39584588049E+04 0.  0.
        4    1    3    3  502    0  0.77719454505E+03  0.14062955423E+04  0.67381297825E+03  0.17423329348E+04  0.12699999809E+01 0.  1.
       -4    1    3    3    0  502 -0.77719454505E+03 -0.14062955423E+04 -0.17164230885E+04  0.23511291638E+04  0.12699999809E+01 0. -1.
</event>
<event>
 5   0  0.8329875E-09  0.3997360E+04  0.7818609E-02  0.8005079E-01
       -1   -1    0    0    0  501  0.00000000000E+00  0.00000000000E+00  0.13548754542E+04  0.13548754543E+04  0.50400001928E-02 0. -1.
        1   -1    0    0  501    0  0.00000000000E+00  0.00000000000E+00 -0.29484050981E+04  0.29484050981E+04  0.50400001928E-02 0.  1.
    10030    2    1    2    0    0  0.00000000000E+00  0.00000000000E+00 -0.15935296438E+04  0.43032805523E+04  0.39973599771E+04 0.  0.
        4    1    3    3  502    0 -0.31685705225E+03  0.14998619179E+04  0.58385622433E+03  0.16403883284E+04  0.12699999809E+01 0. -1.
       -4    1    3    3    0  502  0.31685705225E+03 -0.14998619179E+04 -0.21773858681E+04  0.26628922239E+04  0.12699999809E+01 0.  1.
</event>
<event>
 5   0  0.2746876E-08  0.3998528E+04  0.7818609E-02  0.8004844E-01
        2   -1    0    0  501    0  0.00000000000E+00  0.00000000000E+00  0.19858646543E+04  0.19858646543E+04  0.25500000920E-02 0. -1.
       -2   -1    0    0    0  501  0.00000000000E+00  0.00000000000E+00 -0.20127540306E+04  0.20127540306E+04  0.25500000920E-02 0.  1.
    10030    2    1    2    0    0  0.00000000000E+00  0.00000000000E+00 -0.26889376281E+02  0.39986186850E+04  0.39985282729E+04 0.  0.
        1    1    3    3  502    0  0.11040379562E+04 -0.13795983010E+04  0.92191907570E+03  0.19930193333E+04  0.50400001928E-02 0. -1.
       -1    1    3    3    0  502 -0.11040379562E+04  0.13795983010E+04 -0.94880845198E+03  0.20055993517E+04  0.50400001928E-02 0.  1.
</event>
<event>
 5   0  0.8329875E-09  0.4000995E+04  0.7818609E-02  0.8004346E-01
       -1   -1    0    0    0  501  0.00000000000E+00  0.00000000000E+00  0.21710058116E+04  0.21710058116E+04  0.50400001928E-02 0. -1.
        1   -1    0    0  501    0  0.00000000000E+00  0.00000000000E+00 -0.18433802692E+04  0.18433802692E+04  0.50400001928E-02 0.  1.
    10030    2    1    2    0    0  0.00000000000E+00  0.00000000000E+00  0.32762554244E+03  0.40143860808E+04  0.40009945150E+04 0.  0.
        3    1    3    3  502    0  0.10153905849E+04  0.12806657567E+04  0.13213058961E+04  0.21016593686E+04  0.10100000352E+00 0. -1.
       -3    1    3    3    0  502 -0.10153905849E+04 -0.12806657567E+04 -0.99368035367E+03  0.19127267122E+04  0.10100000352E+00 0.  1.
</event>
<event>
 5   0  0.2650452E-08  0.4018690E+04  0.7818609E-02  0.8000787E-01
       -2   -1    0    0    0  501  0.00000000000E+00  0.00000000000E+00  0.15976839131E+04  0.15976839131E+04  0.25500000920E-02 0.  1.
        2   -1    0    0  501    0  0.00000000000E+00  0.00000000000E+00 -0.25270749732E+04  0.25270749732E+04  0.25500000920E-02 0. -1.
    10030    2    1    2    0    0  0.00000000000E+00  0.00000000000E+00 -0.92939106012E+03  0.41247588863E+04  0.40186898521E+04 0.  0.
        3    1    3    3  502    0  0.27544702036E+03 -0.14038821970E+04  0.98346983380E+03  0.17360786872E+04  0.10100000352E+00 0.  1.
       -3    1    3    3    0  502 -0.27544702036E+03  0.14038821970E+04 -0.19128608939E+04  0.23886801991E+04  0.10100000352E+00 0. -1.
</event>
<event>
 5   0  0.8329875E-09  0.3996527E+04  0.7818609E-02  0.8005248E-01
       -1   -1    0    0    0  501  0.00000000000E+00  0.00000000000E+00  0.19540792466E+04  0.19540792466E+04  0.50400001928E-02 0.  1.
        1   -1    0    0  501    0  0.00000000000E+00  0.00000000000E+00 -0.20434468405E+04  0.20434468405E+04  0.50400001928E-02 0. -1.
    10030    2    1    2    0    0  0.00000000000E+00  0.00000000000E+00 -0.89367593916E+02  0.39975260871E+04  0.39965270236E+04 0.  0.
        5    1    3    3  502    0  0.32925632503E+03  0.14137540902E+04  0.13289492083E+04  0.19680544818E+04  0.46999998093E+01 0.  1.
       -5    1    3    3    0  502 -0.32925632503E+03 -0.14137540902E+04 -0.14183168022E+04  0.20294716053E+04  0.46999998093E+01 0. -1.
</event>
<event>
 5   0  0.2746876E-08  0.4016276E+04  0.7818609E-02  0.8001271E-01
       -2   -1    0    0    0  501  0.00000000000E+00  0.00000000000E+00  0.23575092958E+04  0.23575092958E+04  0.25500000920E-02 0.  1.
        2   -1    0    0  501    0  0.00000000000E+00  0.00000000000E+00 -0.17105420665E+04  0.17105420665E+04  0.25500000920E-02 0. -1.
    10030    2    1    2    0    0  0.00000000000E+00  0.00000000000E+00  0.64696722926E+03  0.40680513623E+04  0.40162762966E+04 0.  0.
        1    1    3    3  502    0  0.12962764167E+03  0.47625231919E+03 -0.16481449601E+04  0.17204654622E+04  0.50400001928E-02 0. -1.
       -1    1    3    3    0  502 -0.12962764167E+03 -0.47625231919E+03  0.22951121893E+04  0.23475859002E+04  0.50400001928E-02 0.  1.
</event>
<event>
 5   0  0.2650452E-08  0.3994322E+04  0.7818609E-02  0.8005693E-01
       -2   -1    0    0    0  501  0.00000000000E+00  0.00000000000E+00  0.15806584380E+04  0.15806584380E+04  0.25500000920E-02 0. -1.
        2   -1    0    0  501    0  0.00000000000E+00  0.00000000000E+00 -0.25234120908E+04  0.25234120908E+04  0.25500000920E-02 0.  1.
    10030    2    1    2    0    0  0.00000000000E+00  0.00000000000E+00 -0.94275365283E+03  0.41040705288E+04  0.39943222774E+04 0.  0.
        3    1    3    3  502    0  0.15219394760E+04 -0.10373065665E+04  0.32207683456E+03  0.18697695524E+04  0.10100000352E+00 0. -1.
       -3    1    3    3    0  502 -0.15219394760E+04  0.10373065665E+04 -0.12648304874E+04  0.22343009765E+04  0.10100000352E+00 0.  1.
</event>
<event>
 5   0  0.8329875E-09  0.3998200E+04  0.7818609E-02  0.8004910E-01
       -1   -1    0    0    0  501  0.00000000000E+00  0.00000000000E+00  0.21586397722E+04  0.21586397723E+04  0.50400001928E-02 0.  1.
        1   -1    0    0  501    0  0.00000000000E+00  0.00000000000E+00 -0.18513511465E+04  0.18513511465E+04  0.50400001928E-02 0. -1.
    10030    2    1    2    0    0  0.00000000000E+00  0.00000000000E+00  0.30728862577E+03  0.40099909187E+04  0.39981997035E+04 0.  0.
        4    1    3    3  502    0 -0.15465839426E+04  0.11108544983E+04  0.76410921829E+03  0.20517758451E+04  0.12699999809E+01 0.  1.
       -4    1    3    3    0  502  0.15465839426E+04 -0.11108544983E+04 -0.45682059252E+03  0.19582150737E+04  0.12699999809E+01 0. -1.
</event>
<event>
 5   0  0.8329875E-09  0.3986991E+04  0.7818609E-02  0.8007176E-01
        1   -1    0    0  501    0  0.00000000000E+00  0.00000000000E+00  0.21207834452E+04  0.21207834452E+04  0.50400001928E-02 0.  1.
       -1   -1    0    0    0  501  0.00000000000E+00  0.00000000000E+00 -0.18738471753E+04  0.18738471753E+04  0.50400001928E-02 0. -1.
    10030    2    1    2    0    0  0.00000000000E+00  0.00000000000E+00  0.24693626985E+03  0.39946306205E+04  0.39869908795E+04 0.  0.
        2    1    3    3  502    0 -0.17919391340E+03  0.46748493037E+03 -0.18098332707E+04  0.18778043259E+04  0.25500000920E-02 0. -1.
       -2    1    3    3    0  502  0.17919391340E+03 -0.46748493037E+03  0.20567695405E+04  0.21168262946E+04  0.25500000920E-02 0.  1.
</event>
<event>
 5   0  0.2612363E-08  0.3997328E+04  0.7818609E-02  0.8005086E-01
       -2   -1    0    0    0  501  0.00000000000E+00  0.00000000000E+00  0.15789416562E+04  0.15789416562E+04  0.25500000920E-02 0.  1.
        2   -1    0    0  501    0  0.00000000000E+00  0.00000000000E+00 -0.25299588867E+04  0.25299588867E+04  0.25500000920E-02 0. -1.
    10030    2    1    2    0    0  0.00000000000E+00  0.00000000000E+00 -0.95101723054E+03  0.41089005429E+04  0.39973278448E+04 0.  0.
        4    1    3    3  502    0 -0.92802116738E+03  0.97598795132E+03  0.10424913253E+04  0.17031046781E+04  0.12699999809E+01 0.  1.
       -4    1    3    3    0  502  0.92802116738E+03 -0.97598795132E+03 -0.19935085558E+04  0.24057958648E+04  0.12699999809E+01 0. -1.
</event>
<event>
 5   0  0.2746876E-08  0.3997378E+04  0.7818609E-02  0.8005076E-01
       -2   -1    0    0    0  501  0.00000000000E+00  0.00000000000E+00  0.14004882042E+04  0.14004882042E+04  0.25500000920E-02 0. -1.
        2   -1    0    0  501    0  0.00000000000E+00  0.00000000000E+00 -0.28524032631E+04  0.28524032631E+04  0.25500000920E-02 0.  1.
    10030    2    1    2    0    0  0.00000000000E+00  0.00000000000E+00 -0.14519150589E+04  0.42528914673E+04  0.39973777022E+04 0.  0.
        1    1    3    3  502    0 -0.11331337556E+03  0.77966418031E+03 -0.26802262908E+04  0.27936229390E+04  0.50400001928E-02 0.  1.
       -1    1    3    3    0  502  0.11331337556E+03 -0.77966418031E+03  0.12283112320E+04  0.14592685283E+04  0.50400001928E-02 0. -1.
</event>
<event>
 5   0  0.8329875E-09  0.4001132E+04  0.7818609E-02  0.8004318E-01
        1   -1    0    0  501    0  0.00000000000E+00  0.00000000000E+00  0.16949284525E+04  0.16949284525E+04  0.50400001928E-02 0.  1.
       -1   -1    0    0    0  501  0.00000000000E+00  0.00000000000E+00 -0.23613171510E+04  0.23613171510E+04  0.50400001928E-02 0. -1.
    10030    2    1    2    0    0  0.00000000000E+00  0.00000000000E+00 -0.66638869844E+03  0.40562456035E+04  0.40011316522E+04 0.  0.
        1    1    3    3  502    0  0.19032940779E+03 -0.67175337522E+03 -0.22337948091E+04  0.23403668793E+04  0.50400001928E-02 0. -1.
       -1    1    3    3    0  502 -0.19032940779E+03  0.67175337522E+03  0.15674061106E+04  0.17158787242E+04  0.50400001928E-02 0.  1.
</event>
<event>
 5   0  0.2587493E-08  0.4001812E+04  0.7818609E-02  0.8004181E-01
        2   -1    0    0  501    0  0.00000000000E+00  0.00000000000E+00  0.17743745361E+04  0.17743745361E+04  0.25500000920E-02 0.  1.
       -2   -1    0    0    0  501  0.00000000000E+00  0.00000000000E+00 -0.22563589114E+04  0.22563589114E+04  0.25500000920E-02 0. -1.
    10030    2    1    2    0    0  0.00000000000E+00  0.00000000000E+00 -0.48198437531E+03  0.40307334476E+04  0.40018124878E+04 0.  0.
        5    1    3    3  502    0 -0.17973294350E+04 -0.82625918127E+03  0.62024765891E+02  0.19791327632E+04  0.46999998093E+01 0. -1.
       -5    1    3    3    0  502  0.17973294350E+04  0.82625918127E+03 -0.54400914120E+03  0.20516006844E+04  0.46999998093E+01 0.  1.
</event>
<event>
 5   0  0.8329875E-09  0.3997431E+04  0.7818609E-02  0.8005065E-01
       -1   -1    0    0    0  501  0.00000000000E+00  0.00000000000E+00  0.29859091914E+04  0.29859091914E+04  0.50400001928E-02 0. -1.
        1   -1    0    0  501    0  0.00000000000E+00  0.00000000000E+00 -0.13379055552E+04  0.13379055552E+04  0.50400001928E-02 0.  1.
    10030    2    1    2    0    0  0.00000000000E+00  0.00000000000E+00  0.16480036362E+04  0.43238147466E+04  0.39974314226E+04 0.  0.
        4    1    3    3  502    0 -0.15703018709E+04 -0.11813359391E+04  0.42885168811E+03  0.20112975787E+04  0.12699999809E+01 0. -1.
       -4    1    3    3    0  502  0.15703018709E+04  0.11813359391E+04  0.12191519481E+04  0.23125171679E+04  0.12699999809E+01 0.  1.
</event>
<event>
 5   0  0.8329875E-09  0.3998498E+04  0.7818609E-02  0.8004850E-01
        1   -1    0    0  501    0  0.00000000000E+00  0.00000000000E+00  0.19808117340E+04  0.19808117341E+04  0.50400001928E-02 0.  1.
       -1   -1    0    0    0  501  0.00000000000E+00  0.00000000000E+00 -0.20178577215E+04  0.20178577215E+04  0.50400001928E-02 0. -1.
    10030    2    1    2    0    0  0.00000000000E+00  0.00000000000E+00 -0.37045987429E+02  0.39986694555E+04  0.39984978441E+04 0.  0.
        5    1    3    3  502    0 -0.37877055632E+03  0.19055543615E+04 -0.49010404886E+03  0.20037037275E+04  0.46999998093E+01 0.  1.
       -5    1    3    3    0  502  0.37877055632E+03 -0.19055543615E+04  0.45305806143E+03  0.19949657280E+04  0.46999998093E+01 0. -1.
</event>
<event>
 5   0  0.8329875E-09  0.3961088E+04  0.7818609E-02  0.8012443E-01
        1   -1    0    0  501    0  0.00000000000E+00  0.00000000000E+00  0.25006971922E+04  0.25006971922E+04  0.50400001928E-02 0. -1.
       -1   -1    0    0    0  501  0.00000000000E+00  0.00000000000E+00 -0.15685843275E+04  0.15685843275E+04  0.50400001928E-02 0.  1.
    10030    2    1    2    0    0  0.00000000000E+00  0.00000000000E+00  0.93211286473E+03  0.40692815197E+04  0.39610879432E+04 0.  0.
        2    1    3    3  502    0 -0.31376095616E+03  0.19054625600E+04  0.14364144027E+02  0.19311757646E+04  0.25500000920E-02 0.  1.
       -2    1    3    3    0  502  0.31376095616E+03 -0.19054625600E+04  0.91774872071E+03  0.21381057550E+04  0.25500000920E-02 0. -1.
</event>
<event>
 5   0  0.2612363E-08  0.4003265E+04  0.7818609E-02  0.8003888E-01
        2   -1    0    0  501    0  0.00000000000E+00  0.00000000000E+00  0.16711436855E+04  0.16711436855E+04  0.25500000920E-02 0. -1.
       -2   -1    0    0    0  501  0.00000000000E+00  0.00000000000E+00 -0.23974788933E+04  0.23974788933E+04  0.25500000920E-02 0.  1.
    10030    2    1    2    0    0  0.00000000000E+00  0.00000000000E+00 -0.72633520774E+03  0.40686225788E+04  0.40032645247E+04 0.  0.
        4    1    3    3  502    0  0.11681164641E+04  0.52196152037E+02 -0.20142862603E+04  0.23290709013E+04  0.12699999809E+01 0.  1.
       -4    1    3    3    0  502 -0.11681164641E+04 -0.52196152037E+02  0.12879510525E+04  0.17395516775E+04  0.12699999809E+01 0. -1.
</event>
<event>
 5   0  0.8329875E-09  0.4009035E+04  0.7818609E-02  0.8002726E-01
        1   -1    0    0  501    0  0.00000000000E+00  0.00000000000E+00  0.18463805091E+04  0.18463805091E+04  0.50400001928E-02 0.  1.
       -1   -1    0    0    0  501  0.00000000000E+00  0.00000000000E+00 -0.21761986728E+04  0.21761986728E+04  0.50400001928E-02 0. -1.
    10030    2    1    2    0    0  0.00000000000E+00  0.00000000000E+00 -0.32981816371E+03  0.40225791819E+04  0.40090352023E+04 0.  0.
        1    1    3    3  502    0 -0.70068651153E+03  0.60538219062E+03 -0.19487345491E+04  0.21575484993E+04  0.50400001928E-02 0. -1.
       -1    1    3    3    0  502  0.70068651153E+03 -0.60538219062E+03  0.16189163854E+04  0.18650306826E+04  0.50400001928E-02 0.  1.
</event>
<event>
 5   0  0.8329875E-09  0.4012867E+04  0.7818609E-02  0.8001956E-01
       -1   -1    0    0    0  501  0.00000000000E+00  0.00000000000E+00  0.13774679257E+04  0.13774679258E+04  0.50400001928E-02 0.  1.
        1   -1    0    0  501    0  0.00000000000E+00  0.00000000000E+00 -0.29225912782E+04  0.29225912782E+04  0.50400001928E-02 0. -1.
    10030    2    1    2    0    0  0.00000000000E+00  0.00000000000E+00 -0.15451233525E+04  0.43000592040E+04  0.40128671774E+04 0.  0.
        3    1    3    3  502    0  0.38901374098E+03  0.18920927431E+04 -0.13540085140E+04  0.23589586061E+04  0.10100000352E+00 0. -1.
       -3    1    3    3    0  502 -0.38901374098E+03 -0.18920927431E+04 -0.19111483845E+03  0.19411005978E+04  0.10100000352E+00 0.  1.
</event>
<event>
 5   0  0.2599332E-08  0.4000576E+04  0.7818609E-02  0.8004430E-01
       -2   -1    0    0    0  501  0.00000000000E+00  0.00000000000E+00  0.21993373956E+04  0.21993373956E+04  0.25500000920E-02 0.  1.
        2   -1    0    0  501    0  0.00000000000E+00  0.00000000000E+00 -0.18192535830E+04  0.18192535830E+04  0.25500000920E-02 0. -1.
    10030    2    1    2    0    0  0.00000000000E+00  0.00000000000E+00  0.38008381257E+03  0.40185909785E+04  0.40005761770E+04 0.  0.
        2    1    3    3  502    0 -0.18814442701E+04 -0.59165244811E+03  0.52511147679E+03  0.20409868260E+04  0.25500000920E-02 0.  1.
       -2    1    3    3    0  502  0.18814442701E+04  0.59165244811E+03 -0.14502766422E+03  0.19776041526E+04  0.25500000920E-02 0. -1.
</event>
<event>
 5   0  0.2612363E-08  0.3985773E+04  0.7818609E-02  0.8007423E-01
       -2   -1    0    0    0  501  0.00000000000E+00  0.00000000000E+00  0.15824887018E+04  0.15824887018E+04  0.25500000920E-02 0.  1.
        2   -1    0    0  501    0  0.00000000000E+00  0.00000000000E+00 -0.25097151319E+04  0.25097151319E+04  0.25500000920E-02 0. -1.
    10030    2    1    2    0    0  0.00000000000E+00  0.00000000000E+00 -0.92722643009E+03  0.40922038338E+04  0.39857726183E+04 0.  0.
        4    1    3    3  502    0 -0.19162415938E+03  0.15123407283E+04  0.85429085866E+03  0.17474864180E+04  0.12699999809E+01 0.  1.
       -4    1    3    3    0  502  0.19162415938E+03 -0.15123407283E+04 -0.17815172887E+04  0.23447174158E+04  0.12699999809E+01 0. -1.
</event>
<event>
 5   0  0.8329875E-09  0.3991722E+04  0.7818609E-02  0.8006219E-01
        1   -1    0    0  501    0  0.00000000000E+00  0.00000000000E+00  0.19098314423E+04  0.19098314423E+04  0.50400001928E-02 0. -1.
       -1   -1    0    0    0  501  0.00000000000E+00  0.00000000000E+00 -0.20857661227E+04  0.20857661227E+04  0.50400001928E-02 0.  1.
    10030    2    1    2    0    0  0.00000000000E+00  0.00000000000E+00 -0.17593468041E+03  0.39955975649E+04  0.39917222961E+04 0.  0.
        5    1    3    3  502    0 -0.93137349832E+03 -0.17464509249E+04  0.16897663731E+03  0.19864849913E+04  0.46999998093E+01 0. -1.
       -5    1    3    3    0  502  0.93137349832E+03  0.17464509249E+04 -0.34491131772E+03  0.20091125737E+04  0.46999998093E+01 0.  1.
</event>
<event>
 5   0  0.2612363E-08  0.3997809E+04  0.7818609E-02  0.8004989E-01
       -2   -1    0    0    0  501  0.00000000000E+00  0.00000000000E+00  0.26805111872E+04  0.26805111872E+04  0.25500000920E-02 0. -1.
        2   -1    0    0  501    0  0.00000000000E+00  0.00000000000E+00 -0.14906186397E+04  0.14906186397E+04  0.25500000920E-02 0.  1.
    10030    2    1    2    0    0  0.00000000000E+00  0.00000000000E+00  0.11898925475E+04  0.41711298268E+04  0.39978093699E+04 0.  0.
        4    1    3    3  502    0 -0.18604187912E+04 -0.32813914300E+03 -0.86664073277E+02  0.18911228543E+04  0.12699999809E+01 0.  1.
       -4    1    3    3    0  502  0.18604187912E+04  0.32813914300E+03  0.12765566208E+04  0.22800069725E+04  0.12699999809E+01 0. -1.
</event>
<event>
 5   0  0.8329875E-09  0.3914658E+04  0.7818609E-02  0.8021987E-01
        1   -1    0    0  501    0  0.00000000000E+00  0.00000000000E+00  0.24448333025E+04  0.24448333025E+04  0.50400001928E-02 0.  1.
       -1   -1    0    0    0  501  0.00000000000E+00  0.00000000000E+00 -0.15670342588E+04  0.15670342588E+04  0.50400001928E-02 0. -1.
    10030    2    1    2    0    0  0.00000000000E+00  0.00000000000E+00  0.87779904365E+03  0.40118675613E+04  0.39146583719E+04 0.  0.
        2    1    3    3  502    0 -0.60597817323E+03  0.12499408708E+04  0.18521187662E+04  0.23151470042E+04  0.25500000920E-02 0.  1.
       -2    1    3    3    0  502  0.60597817323E+03 -0.12499408708E+04 -0.97431972259E+03  0.16967205571E+04  0.25500000920E-02 0. -1.
</event>
<event>
 5   0  0.2587493E-08  0.3993134E+04  0.7818609E-02  0.8005933E-01
       -2   -1    0    0    0  501  0.00000000000E+00  0.00000000000E+00  0.30215835799E+04  0.30215835799E+04  0.25500000920E-02 0. -1.
        2   -1    0    0  501    0  0.00000000000E+00  0.00000000000E+00 -0.13192687252E+04  0.13192687252E+04  0.25500000920E-02 0.  1.
    10030    2    1    2    0    0  0.00000000000E+00  0.00000000000E+00  0.17023148546E+04  0.43408523051E+04  0.39931344669E+04 0.  0.
        5    1    3    3  502    0 -0.14457350074E+04 -0.21544849858E+02 -0.64555908135E+03  0.15834716637E+04  0.46999998093E+01 0.  1.
       -5    1    3    3    0  502  0.14457350074E+04  0.21544849858E+02  0.23478739360E+04  0.27573806414E+04  0.46999998093E+01 0. -1.
</event>
<event>
 5   0  0.8329875E-09  0.4003694E+04  0.7818609E-02  0.8003802E-01
        1   -1    0    0  501    0  0.00000000000E+00  0.00000000000E+00  0.12892613418E+04  0.12892613418E+04  0.50400001928E-02 0. -1.
       -1   -1    0    0    0  501  0.00000000000E+00  0.00000000000E+00 -0.31082845494E+04  0.31082845494E+04  0.50400001928E-02 0.  1.
    10030    2    1    2    0    0  0.00000000000E+00  0.00000000000E+00 -0.18190232076E+04  0.43975458912E+04  0.40036938488E+04 0.  0.
        4    1    3    3  502    0 -0.14030890221E+04  0.11030650252E+04  0.86305727178E+02  0.17868580093E+04  0.12699999809E+01 0.  1.
       -4    1    3    3    0  502  0.14030890221E+04 -0.11030650252E+04 -0.19053289348E+04  0.26106878819E+04  0.12699999809E+01 0. -1.
</event>
<event>
 5   0  0.2650452E-08  0.3996821E+04  0.7818609E-02  0.8005188E-01
        2   -1    0    0  501    0  0.00000000000E+00  0.00000000000E+00  0.23011022426E+04  0.23011022426E+04  0.25500000920E-02 0. -1.
       -2   -1    0    0    0  501  0.00000000000E+00  0.00000000000E+00 -0.17355358226E+04  0.17355358226E+04  0.25500000920E-02 0.  1.
    10030    2    1    2    0    0  0.00000000000E+00  0.00000000000E+00  0.56556641996E+03  0.40366380653E+04  0.39968214239E+04 0.  0.
        3    1    3    3  502    0 -0.15134326968E+04 -0.57087851567E+02 -0.10340105250E+04  0.18338253261E+04  0.10100000352E+00 0.  1.
       -3    1    3    3    0  502  0.15134326968E+04  0.57087851567E+02  0.15995769450E+04  0.22028127391E+04  0.10100000352E+00 0. -1.
</event>
<event>
 5   0  0.8329875E-09  0.3999552E+04  0.7818609E-02  0.8004637E-01
       -4   -1    0    0    0  501  0.00000000000E+00  0.00000000000E+00  0.15408712531E+04  0.15408717764E+04  0.12699999809E+01 0. -1.
        4   -1    0    0  501    0  0.00000000000E+00  0.00000000000E+00 -0.25953508686E+04  0.25953511793E+04  0.12699999809E+01 0.  1.
    10030    2    1    2    0    0  0.00000000000E+00  0.00000000000E+00 -0.10544796155E+04  0.41362229557E+04  0.39995516099E+04 0.  0.
        2    1    3    3  502    0 -0.61001856170E+03 -0.50965355447E+03  0.13704677032E+04  0.15843140840E+04  0.25500000920E-02 0. -1.
       -2    1    3    3    0  502  0.61001856170E+03  0.50965355447E+03 -0.24249473187E+04  0.25519088717E+04  0.25500000920E-02 0.  1.
</event>
<event>
 5   0  0.2599332E-08  0.4004518E+04  0.7818609E-02  0.8003636E-01
       -2   -1    0    0    0  501  0.00000000000E+00  0.00000000000E+00  0.20564991189E+04  0.20564991189E+04  0.25500000920E-02 0. -1.
        2   -1    0    0  501    0  0.00000000000E+00  0.00000000000E+00 -0.19494498665E+04  0.19494498665E+04  0.25500000920E-02 0.  1.
    10030    2    1    2    0    0  0.00000000000E+00  0.00000000000E+00  0.10704925239E+03  0.40059489854E+04  0.40045184144E+04 0.  0.
        2    1    3    3  502    0 -0.52944358146E+03  0.12168430512E+04 -0.14463523245E+04  0.19628939258E+04  0.25500000920E-02 0.  1.
       -2    1    3    3    0  502  0.52944358146E+03 -0.12168430512E+04  0.15534015769E+04  0.20430550596E+04  0.25500000920E-02 0. -1.
</event>
<event>
 5   0  0.2612363E-08  0.4006793E+04  0.7818609E-02  0.8003178E-01
        2   -1    0    0  501    0  0.00000000000E+00  0.00000000000E+00  0.24279480188E+04  0.24279480188E+04  0.25500000920E-02 0.  1.
       -2   -1    0    0    0  501  0.00000000000E+00  0.00000000000E+00 -0.16530822573E+04  0.16530822573E+04  0.25500000920E-02 0. -1.
    10030    2    1    2    0    0  0.00000000000E+00  0.00000000000E+00  0.77486576146E+03  0.40810302760E+04  0.40067931274E+04 0.  0.
        4    1    3    3  502    0 -0.13965853022E+03  0.48495976237E+02  0.24223841298E+04  0.24268916024E+04  0.12699999809E+01 0.  1.
       -4    1    3    3    0  502  0.13965853022E+03 -0.48495976237E+02 -0.16475183683E+04  0.16541386736E+04  0.12699999809E+01 0. -1.
</event>
<event>
 5   0  0.2587493E-08  0.4005171E+04  0.7818609E-02  0.8003504E-01
       -2   -1    0    0    0  501  0.00000000000E+00  0.00000000000E+00  0.16000537183E+04  0.16000537183E+04  0.25500000920E-02 0.  1.
        2   -1    0    0  501    0  0.00000000000E+00  0.00000000000E+00 -0.25063839471E+04  0.25063839471E+04  0.25500000920E-02 0. -1.
    10030    2    1    2    0    0  0.00000000000E+00  0.00000000000E+00 -0.90633022883E+03  0.41064376654E+04  0.40051711344E+04 0.  0.
        5    1    3    3  502    0  0.40755549658E+03  0.49500802894E+03 -0.23982864195E+04  0.24825257846E+04  0.46999998093E+01 0. -1.
       -5    1    3    3    0  502 -0.40755549658E+03 -0.49500802894E+03  0.14919561907E+04  0.16239118807E+04  0.46999998093E+01 0.  1.
</event>
<event>
 5   0  0.8329875E-09  0.3997184E+04  0.7818609E-02  0.8005115E-01
       -1   -1    0    0    0  501  0.00000000000E+00  0.00000000000E+00  0.13037048102E+04  0.13037048102E+04  0.50400001928E-02 0. -1.
        1   -1    0    0  501    0  0.00000000000E+00  0.00000000000E+00 -0.30638603949E+04  0.30638603949E+04  0.50400001928E-02 0.  1.
    10030    2    1    2    0    0  0.00000000000E+00  0.00000000000E+00 -0.17601555847E+04  0.43675652051E+04  0.39971837759E+04 0.  0.
        1    1    3    3  502    0 -0.26003826913E+03 -0.10243493595E+04  0.97341021281E+03  0.14368155602E+04  0.50400001928E-02 0. -1.
       -1    1    3    3    0  502  0.26003826913E+03  0.10243493595E+04 -0.27335657975E+04  0.29307496449E+04  0.50400001928E-02 0.  1.
</event>
<event>
 5   0  0.8329875E-09  0.3996225E+04  0.7818609E-02  0.8005309E-01
       -1   -1    0    0    0  501  0.00000000000E+00  0.00000000000E+00  0.17443909933E+04  0.17443909933E+04  0.50400001928E-02 0. -1.
        1   -1    0    0  501    0  0.00000000000E+00  0.00000000000E+00 -0.22887374592E+04  0.22887374592E+04  0.50400001928E-02 0.  1.
    10030    2    1    2    0    0  0.00000000000E+00  0.00000000000E+00 -0.54434646592E+03  0.40331284526E+04  0.39962247234E+04 0.  0.
        2    1    3    3  502    0  0.18353252332E+04 -0.78906106703E+03 -0.23418347717E+03  0.20114367949E+04  0.25500000920E-02 0. -1.
       -2    1    3    3    0  502 -0.18353252332E+04  0.78906106703E+03 -0.31016298875E+03  0.20216916576E+04  0.25500000920E-02 0.  1.
</event>
<event>
 5   0  0.2587493E-08  0.3991670E+04  0.7818609E-02  0.8006229E-01
       -2   -1    0    0    0  501  0.00000000000E+00  0.00000000000E+00  0.17242385615E+04  0.17242385615E+04  0.25500000920E-02 0.  1.
        2   -1    0    0  501    0  0.00000000000E+00  0.00000000000E+00 -0.23102119365E+04  0.23102119365E+04  0.25500000920E-02 0. -1.
    10030    2    1    2    0    0  0.00000000000E+00  0.00000000000E+00 -0.58597337493E+03  0.40344504980E+04  0.39916695786E+04 0.  0.
        5    1    3    3  502    0 -0.13813467243E+02  0.49110533114E+03  0.16621599189E+04  0.17332550142E+04  0.46999998093E+01 0.  1.
       -5    1    3    3    0  502  0.13813467243E+02 -0.49110533114E+03 -0.22481332938E+04  0.23011954839E+04  0.46999998093E+01 0. -1.
</event>
<event>
 5   0  0.8329875E-09  0.3994365E+04  0.7818609E-02  0.8005684E-01
       -1   -1    0    0    0  501  0.00000000000E+00  0.00000000000E+00  0.15854336839E+04  0.15854336839E+04  0.50400001928E-02 0.  1.
        1   -1    0    0  501    0  0.00000000000E+00  0.00000000000E+00 -0.25158653917E+04  0.25158653917E+04  0.50400001928E-02 0. -1.
    10030    2    1    2    0    0  0.00000000000E+00  0.00000000000E+00 -0.93043170784E+03  0.41012990757E+04  0.39943648988E+04 0.  0.
        3    1    3    3  502    0  0.63733071789E+03  0.13358296208E+04 -0.18420493076E+04  0.23630016678E+04  0.10100000352E+00 0. -1.
       -3    1    3    3    0  502 -0.63733071789E+03 -0.13358296208E+04  0.91161759980E+03  0.17382974079E+04  0.10100000352E+00 0.  1.
</event>
<event>
 5   0  0.2746876E-08  0.3952544E+04  0.7818609E-02  0.8014189E-01
        2   -1    0    0  501    0  0.00000000000E+00  0.00000000000E+00  0.13555869082E+04  0.13555869082E+04  0.25500000920E-02 0.  1.
       -2   -1    0    0    0  501  0.00000000000E+00  0.00000000000E+00 -0.28811515742E+04  0.28811515742E+04  0.25500000920E-02 0. -1.
    10030    2    1    2    0    0  0.00000000000E+00  0.00000000000E+00 -0.15255646660E+04  0.42367384824E+04  0.39525441703E+04 0.  0.
        1    1    3    3  502    0 -0.16351684083E+04  0.41494672179E+03  0.34064906406E+03  0.17210456967E+04  0.50400001928E-02 0.  1.
       -1    1    3    3    0  502  0.16351684083E+04 -0.41494672179E+03 -0.18662137301E+04  0.25156927857E+04  0.50400001928E-02 0. -1.
</event>
<event>
 5   0  0.8329875E-09  0.3995073E+04  0.7818609E-02  0.8005541E-01
        1   -1    0    0  501    0  0.00000000000E+00  0.00000000000E+00  0.18370213968E+04  0.18370213968E+04  0.50400001928E-02 0.  1.
       -1   -1    0    0    0  501  0.00000000000E+00  0.00000000000E+00 -0.21720767100E+04  0.21720767100E+04  0.50400001928E-02 0. -1.
    10030    2    1    2    0    0  0.00000000000E+00  0.00000000000E+00 -0.33505531319E+03  0.40090981068E+04  0.39950726611E+04 0.  0.
        1    1    3    3  502    0 -0.18954743498E+04  0.60126903648E+03 -0.35741120233E+03  0.20204183310E+04  0.50400001928E-02 0.  1.
       -1    1    3    3    0  502  0.18954743498E+04 -0.60126903648E+03  0.22355889145E+02  0.19886797758E+04  0.50400001928E-02 0. -1.
</event>
<event>
 5   0  0.2746876E-08  0.4006153E+04  0.7818609E-02  0.8003306E-01
        2   -1    0    0  501    0  0.00000000000E+00  0.00000000000E+00  0.25113612496E+04  0.25113612496E+04  0.25500000920E-02 0. -1.
       -2   -1    0    0    0  501  0.00000000000E+00  0.00000000000E+00 -0.15976658455E+04  0.15976658455E+04  0.25500000920E-02 0.  1.
    10030    2    1    2    0    0  0.00000000000E+00  0.00000000000E+00  0.91369540414E+03  0.41090270951E+04  0.40061533141E+04 0.  0.
        1    1    3    3  502    0  0.39345804039E+03 -0.37095074637E+03  0.24350796558E+04  0.24943990490E+04  0.50400001928E-02 0. -1.
       -1    1    3    3    0  502 -0.39345804039E+03  0.37095074637E+03 -0.15213842517E+04  0.16146280460E+04  0.50400001928E-02 0.  1.
</event>
<event>
 5   0  0.2746876E-08  0.3998938E+04  0.7818609E-02  0.8004761E-01
       -2   -1    0    0    0  501  0.00000000000E+00  0.00000000000E+00  0.17553088576E+04  0.17553088576E+04  0.25500000920E-02 0.  1.
        2   -1    0    0  501    0  0.00000000000E+00  0.00000000000E+00 -0.22775911418E+04  0.22775911418E+04  0.25500000920E-02 0. -1.
    10030    2    1    2    0    0  0.00000000000E+00  0.00000000000E+00 -0.52228228419E+03  0.40328999995E+04  0.39989378116E+04 0.  0.
        1    1    3    3  502    0 -0.41119499947E+03 -0.10573834498E+04 -0.19215548875E+04  0.22314825281E+04  0.50400001928E-02 0. -1.
       -1    1    3    3    0  502  0.41119499947E+03  0.10573834498E+04  0.13992726033E+04  0.18014174713E+04  0.50400001928E-02 0.  1.
</event>
<event>
 5   0  0.2587493E-08  0.3997961E+04  0.7818609E-02  0.8004958E-01
        2   -1    0    0  501    0  0.00000000000E+00  0.00000000000E+00  0.25008678819E+04  0.25008678819E+04  0.25500000920E-02 0. -1.
       -2   -1    0    0    0  501  0.00000000000E+00  0.00000000000E+00 -0.15978144185E+04  0.15978144185E+04  0.25500000920E-02 0.  1.
    10030    2    1    2    0    0  0.00000000000E+00  0.00000000000E+00  0.90305346341E+03  0.40986823004E+04  0.39979608605E+04 0.  0.
        5    1    3    3  502    0 -0.19484563953E+04 -0.13819320643E+03  0.16186451663E+02  0.19534236043E+04  0.46999998093E+01 0.  1.
       -5    1    3    3    0  502  0.19484563953E+04  0.13819320643E+03  0.88686701175E+03  0.21452586961E+04  0.46999998093E+01 0. -1.
</event>
<event>
 5   0  0.2650452E-08  0.3995819E+04  0.7818609E-02  0.8005390E-01
       -2   -1    0    0    0  501  0.00000000000E+00  0.00000000000E+00  0.20399521707E+04  0.20399521707E+04  0.25500000920E-02 0.  1.
        2   -1    0    0  501    0  0.00000000000E+00  0.00000000000E+00 -0.19567334430E+04  0.19567334430E+04  0.25500000920E-02 0. -1.
    10030    2    1    2    0    0  0.00000000000E+00  0.00000000000E+00  0.83218727620E+02  0.39966856137E+04  0.39958191323E+04 0.  0.
        3    1    3    3  502    0 -0.95115266304E+03  0.14035364683E+04  0.10987380801E+04  0.20203542722E+04  0.10100000352E+00 0.  1.
       -3    1    3    3    0  502  0.95115266304E+03 -0.14035364683E+04 -0.10155193525E+04  0.19763313416E+04  0.10100000352E+00 0. -1.
</event>
<event>
 5   0  0.8329875E-09  0.3995383E+04  0.7818609E-02  0.8005479E-01
        1   -1    0    0  501    0  0.00000000000E+00  0.00000000000E+00  0.14381488139E+04  0.14381488139E+04  0.50400001928E-02 0. -1.
       -1   -1    0    0    0  501  0.00000000000E+00  0.00000000000E+00 -0.27749361658E+04  0.27749361658E+04  0.50400001928E-02 0.  1.
    10030    2    1    2    0    0  0.00000000000E+00  0.00000000000E+00 -0.13367873518E+04  0.42130849797E+04  0.39953829131E+04 0.  0.
        2    1    3    3  502    0 -0.59510406557E+03 -0.18355210844E+04 -0.12137636802E+04  0.22795852192E+04  0.25500000920E-02 0.  1.
       -2    1    3    3    0  502  0.59510406557E+03  0.18355210844E+04 -0.12302367160E+03  0.19334997605E+04  0.25500000920E-02 0. -1.
</event>
<event>
 5   0  0.8329875E-09  0.3993301E+04  0.7818609E-02  0.8005899E-01
       -1   -1    0    0    0  501  0.00000000000E+00  0.00000000000E+00  0.24778155508E+04  0.24778155508E+04  0.50400001928E-02 0.  1.
        1   -1    0    0  501    0  0.00000000000E+00  0.00000000000E+00 -0.16089227920E+04  0.16089227920E+04  0.50400001928E-02 0. -1.
    10030    2    1    2    0    0  0.00000000000E+00  0.00000000000E+00  0.86889275881E+03  0.40867383428E+04  0.39933013481E+04 0.  0.
        3    1    3    3  502    0  0.17350380056E+04  0.87696283692E+00  0.14456221677E+04  0.22583580566E+04  0.10100000352E+00 0.  1.
       -3    1    3    3    0  502 -0.17350380056E+04 -0.87696283692E+00 -0.57672940888E+03  0.18283802862E+04  0.10100000352E+00 0. -1.
</event>
<event>
 5   0  0.8329875E-09  0.3994928E+04  0.7818609E-02  0.8005570E-01
       -1   -1    0    0    0  501  0.00000000000E+00  0.00000000000E+00  0.31487009905E+04  0.31487009905E+04  0.50400001928E-02 0. -1.
        1   -1    0    0  501    0  0.00000000000E+00  0.00000000000E+00 -0.12671456125E+04  0.12671456125E+04  0.50400001928E-02 0.  1.
    10030    2    1    2    0    0  0.00000000000E+00  0.00000000000E+00  0.18815553781E+04  0.44158466030E+04  0.39949281071E+04 0.  0.
        2    1    3    3  502    0  0.16558103883E+04 -0.10960223111E+04  0.11801333607E+04  0.23099107553E+04  0.25500000920E-02 0. -1.
       -2    1    3    3    0  502 -0.16558103883E+04  0.10960223111E+04  0.70142201733E+03  0.21059358477E+04  0.25500000920E-02 0.  1.
</event>
<event>
 5   0  0.8329875E-09  0.3999626E+04  0.7818609E-02  0.8004622E-01
        1   -1    0    0  501    0  0.00000000000E+00  0.00000000000E+00  0.23947897478E+04  0.23947897478E+04  0.50400001928E-02 0. -1.
       -1   -1    0    0    0  501  0.00000000000E+00  0.00000000000E+00 -0.16699800558E+04  0.16699800558E+04  0.50400001928E-02 0.  1.
    10030    2    1    2    0    0  0.00000000000E+00  0.00000000000E+00  0.72480969203E+03  0.40647698037E+04  0.39996255409E+04 0.  0.
        1    1    3    3  502    0 -0.18485917392E+03 -0.80957220698E+02 -0.16596050230E+04  0.16718300805E+04  0.50400001928E-02 0.  1.
       -1    1    3    3    0  502  0.18485917392E+03  0.80957220698E+02  0.23844147150E+04  0.23929397232E+04  0.50400001928E-02 0. -1.
</event>
<event>
 5   0  0.2612363E-08  0.4000926E+04  0.7818609E-02  0.8004360E-01
       -2   -1    0    0    0  501  0.00000000000E+00  0.00000000000E+00  0.12710249512E+04  0.12710249512E+04  0.25500000920E-02 0.  1.
        2   -1    0    0  501    0  0.00000000000E+00  0.00000000000E+00 -0.31485243855E+04  0.31485243855E+04  0.25500000920E-02 0. -1.
    10030    2    1    2    0    0  0.00000000000E+00  0.00000000000E+00 -0.18774994343E+04  0.44195493368E+04  0.40009264195E+04 0.  0.
        4    1    3    3  502    0 -0.15438997942E+04 -0.12357999383E+04 -0.60548150023E+03  0.20681966836E+04  0.12699999809E+01 0.  1.
       -4    1    3    3    0  502  0.15438997942E+04  0.12357999383E+04 -0.12720179341E+04  0.23513526532E+04  0.12699999809E+01 0. -1.
</event>
<event>
 5   0  0.8329875E-09  0.4027114E+04  0.7818609E-02  0.7999099E-01
       -1   -1    0    0    0  501  0.00000000000E+00  0.00000000000E+00  0.15011631042E+04  0.15011631042E+04  0.50400001928E-02 0.  1.
        1   -1    0    0  501    0  0.00000000000E+00  0.00000000000E+00 -0.27008468404E+04  0.27008468404E+04  0.50400001928E-02 0. -1.
    10030    2    1    2    0    0  0.00000000000E+00  0.00000000000E+00 -0.11996837362E+04  0.42020099446E+04  0.40271139179E+04 0.  0.
        3    1    3    3  502    0 -0.19366470931E+04 -0.38125581724E+02 -0.11735916372E+04  0.22648118827E+04  0.10100000352E+00 0. -1.
       -3    1    3    3    0  502  0.19366470931E+04  0.38125581724E+02 -0.26092099033E+02  0.19371980619E+04  0.10100000352E+00 0.  1.
</event>
<event>
 5   0  0.2599332E-08  0.3995294E+04  0.7818609E-02  0.8005497E-01
       -2   -1    0    0    0  501  0.00000000000E+00  0.00000000000E+00  0.15816874365E+04  0.15816874365E+04  0.25500000920E-02 0.  1.
        2   -1    0    0  501    0  0.00000000000E+00  0.00000000000E+00 -0.25229970826E+04  0.25229970826E+04  0.25500000920E-02 0. -1.
    10030    2    1    2    0    0  0.00000000000E+00  0.00000000000E+00 -0.94130964612E+03  0.41046845191E+04  0.39952936252E+04 0.  0.
        2    1    3    3  502    0 -0.91785096735E+03 -0.16970049968E+04 -0.10028301247E+04  0.21743837325E+04  0.25500000920E-02 0. -1.
       -2    1    3    3    0  502  0.91785096735E+03  0.16970049968E+04  0.61520478543E+02  0.19303007866E+04  0.25500000920E-02 0.  1.
</event>
<event>
 5   0  0.8329875E-09  0.4003797E+04  0.7818609E-02  0.8003781E-01
       -1   -1    0    0    0  501  0.00000000000E+00  0.00000000000E+00  0.17372921223E+04  0.17372921224E+04  0.50400001928E-02 0. -1.
        1   -1    0    0  501    0  0.00000000000E+00  0.00000000000E+00 -0.23068073487E+04  0.23068073488E+04  0.50400001928E-02 0.  1.
    10030    2    1    2    0    0  0.00000000000E+00  0.00000000000E+00 -0.56951522640E+03  0.40440994711E+04  0.40037973149E+04 0.  0.
        5    1    3    3  502    0 -0.12119372875E+04 -0.44281287169E+03  0.12612376857E+04  0.18043330674E+04  0.46999998093E+01 0. -1.
       -5    1    3    3    0  502  0.12119372875E+04  0.44281287169E+03 -0.18307529121E+04  0.22397664037E+04  0.46999998093E+01 0.  1.
</event>
<event>
 5   0  0.2612363E-08  0.4011327E+04  0.7818609E-02  0.8002265E-01
        2   -1    0    0  501    0  0.00000000000E+00  0.00000000000E+00  0.13775032483E+04  0.13775032483E+04  0.25500000920E-02 0. -1.
       -2   -1    0    0    0  501  0.00000000000E+00  0.00000000000E+00 -0.29202730219E+04  0.29202730219E+04  0.25500000920E-02 0.  1.
    10030    2    1    2    0    0  0.00000000000E+00  0.00000000000E+00 -0.15427697736E+04  0.42977762702E+04  0.40113267499E+04 0.  0.
        4    1    3    3  502    0  0.14283186763E+04 -0.90726310922E+03  0.38229223529E+03  0.17347534569E+04  0.12699999809E+01 0. -1.
       -4    1    3    3    0  502 -0.14283186763E+04  0.90726310922E+03 -0.19250620089E+04  0.25630228133E+04  0.12699999809E+01 0.  1.
</event>
<event>
 5   0  0.2746876E-08  0.3999778E+04  0.7818609E-02  0.8004591E-01
        2   -1    0    0  501    0  0.00000000000E+00  0.00000000000E+00  0.14303312194E+04  0.14303312195E+04  0.25500000920E-02 0. -1.
       -2   -1    0    0    0  501  0.00000000000E+00  0.00000000000E+00 -0.27962448976E+04  0.27962448976E+04  0.25500000920E-02 0.  1.
    10030    2    1    2    0    0  0.00000000000E+00  0.00000000000E+00 -0.13659136781E+04  0.42265761170E+04  0.39997781810E+04 0.  0.
        1    1    3    3  502    0  0.47838171282E+03 -0.16340984102E+04 -0.17914523500E+04  0.24715234572E+04  0.50400001928E-02 0.  1.
       -1    1    3    3    0  502 -0.47838171282E+03  0.16340984102E+04  0.42553867190E+03  0.17550526598E+04  0.50400001928E-02 0. -1.
</event>
<event>
 5   0  0.2746876E-08  0.3987784E+04  0.7818609E-02  0.8007015E-01
        2   -1    0    0  501    0  0.00000000000E+00  0.00000000000E+00  0.14982187254E+04  0.14982187254E+04  0.25500000920E-02 0. -1.
       -2   -1    0    0    0  501  0.00000000000E+00  0.00000000000E+00 -0.26535549944E+04  0.26535549944E+04  0.25500000920E-02 0.  1.
    10030    2    1    2    0    0  0.00000000000E+00  0.00000000000E+00 -0.11553362690E+04  0.41517737198E+04  0.39877842376E+04 0.  0.
        1    1    3    3  502    0 -0.17104447245E+04  0.13364545290E+03 -0.16353811787E+04  0.23702223234E+04  0.50400001928E-02 0.  1.
       -1    1    3    3    0  502  0.17104447245E+04 -0.13364545290E+03  0.48004490970E+03  0.17815513964E+04  0.50400001928E-02 0. -1.
</event>
<event>
 5   0  0.8329875E-09  0.4012001E+04  0.7818609E-02  0.8002130E-01
        1   -1    0    0  501    0  0.00000000000E+00  0.00000000000E+00  0.16261444579E+04  0.16261444579E+04  0.50400001928E-02 0.  1.
       -1   -1    0    0    0  501  0.00000000000E+00  0.00000000000E+00 -0.24745881881E+04  0.24745881881E+04  0.50400001928E-02 0. -1.
    10030    2    1    2    0    0  0.00000000000E+00  0.00000000000E+00 -0.84844373023E+03  0.41007326460E+04  0.40120009311E+04 0.  0.
        4    1    3    3  502    0  0.51758014971E+01 -0.13794115577E+04 -0.19128788534E+04  0.23583702329E+04  0.12699999809E+01 0. -1.
       -4    1    3    3    0  502 -0.51758014971E+01  0.13794115577E+04  0.10644351232E+04  0.17423624132E+04  0.12699999809E+01 0.  1.
</event>
<event>
 5   0  0.2612363E-08  0.4003482E+04  0.7818609E-02  0.8003844E-01
       -2   -1    0    0    0  501  0.00000000000E+00  0.00000000000E+00  0.25349440887E+04  0.25349440887E+04  0.25500000920E-02 0.  1.
        2   -1    0    0  501    0  0.00000000000E+00  0.00000000000E+00 -0.15806924636E+04  0.15806924636E+04  0.25500000920E-02 0. -1.
    10030    2    1    2    0    0  0.00000000000E+00  0.00000000000E+00  0.95425162510E+03  0.41156365524E+04  0.40034819929E+04 0.  0.
        4    1    3    3  502    0  0.18186672180E+04 -0.71781289153E+03  0.35965611717E+02  0.19555308576E+04  0.12699999809E+01 0.  1.
       -4    1    3    3    0  502 -0.18186672180E+04  0.71781289153E+03  0.91828601338E+03  0.21601056947E+04  0.12699999809E+01 0. -1.
</event>
<event>
 5   0  0.2612363E-08  0.3999936E+04  0.7818609E-02  0.8004559E-01
       -2   -1    0    0    0  501  0.00000000000E+00  0.00000000000E+00  0.29752127679E+04  0.29752127679E+04  0.25500000920E-02 0. -1.
        2   -1    0    0  501    0  0.00000000000E+00  0.00000000000E+00 -0.13443989096E+04  0.13443989096E+04  0.25500000920E-02 0.  1.
    10030    2    1    2    0    0  0.00000000000E+00  0.00000000000E+00  0.16308138583E+04  0.43196116775E+04  0.39999364000E+04 0.  0.
        4    1    3    3  502    0  0.24676240457E+03 -0.12115050895E+04  0.25130588017E+04  0.28007324792E+04  0.12699999809E+01 0. -1.
       -4    1    3    3    0  502 -0.24676240457E+03  0.12115050895E+04 -0.88224494337E+03  0.15188791983E+04  0.12699999809E+01 0.  1.
</event>
<event>
 5   0  0.8329875E-09  0.4011374E+04  0.7818609E-02  0.8002256E-01
        1   -1    0    0  501    0  0.00000000000E+00  0.00000000000E+00  0.17604484292E+04  0.17604484292E+04  0.50400001928E-02 0. -1.
       -1   -1    0    0    0  501  0.00000000000E+00  0.00000000000E+00 -0.22850889013E+04  0.22850889013E+04  0.50400001928E-02 0.  1.
    10030    2    1    2    0    0  0.00000000000E+00  0.00000000000E+00 -0.52464047204E+03  0.40455373305E+04  0.40113744113E+04 0.  0.
        2    1    3    3  502    0 -0.65367285851E+03  0.12213086373E+04  0.12005148607E+04  0.18330627170E+04  0.25500000920E-02 0. -1.
       -2    1    3    3    0  502  0.65367285851E+03 -0.12213086373E+04 -0.17251553327E+04  0.22124746136E+04  0.25500000920E-02 0.  1.
</event>
<event>
 5   0  0.2612363E-08  0.4000545E+04  0.7818609E-02  0.8004437E-01
       -2   -1    0    0    0  501  0.00000000000E+00  0.00000000000E+00  0.24264333009E+04  0.24264333009E+04  0.25500000920E-02 0. -1.
        2   -1    0    0  501    0  0.00000000000E+00  0.00000000000E+00 -0.16489592705E+04  0.16489592705E+04  0.25500000920E-02 0.  1.
    10030    2    1    2    0    0  0.00000000000E+00  0.00000000000E+00  0.77747403039E+03  0.40753925715E+04  0.40005448059E+04 0.  0.
        4    1    3    3  502    0  0.19545155381E+04 -0.34190497732E+03  0.13090476528E+03  0.19885089069E+04  0.12699999809E+01 0.  1.
       -4    1    3    3    0  502 -0.19545155381E+04  0.34190497732E+03  0.64656926511E+03  0.20868836646E+04  0.12699999809E+01 0. -1.
</event>
<event>
 5   0  0.8329875E-09  0.3993577E+04  0.7818609E-02  0.8005844E-01
        1   -1    0    0  501    0  0.00000000000E+00  0.00000000000E+00  0.30987043919E+04  0.30987043919E+04  0.50400001928E-02 0.  1.
       -1   -1    0    0    0  501  0.00000000000E+00  0.00000000000E+00 -0.12867196047E+04  0.12867196047E+04  0.50400001928E-02 0. -1.
    10030    2    1    2    0    0  0.00000000000E+00  0.00000000000E+00  0.18119847871E+04  0.43854239966E+04  0.39935766878E+04 0.  0.
        5    1    3    3  502    0 -0.13237960549E+03 -0.47758821626E+03 -0.12181028510E+04  0.13150709144E+04  0.46999998093E+01 0. -1.
       -5    1    3    3    0  502  0.13237960549E+03  0.47758821626E+03  0.30300876382E+04  0.30703530822E+04  0.46999998093E+01 0.  1.
</event>
<event>
 5   0  0.8329875E-09  0.3998065E+04  0.7818609E-02  0.8004937E-01
        1   -1    0    0  501    0  0.00000000000E+00  0.00000000000E+00  0.18290587642E+04  0.18290587642E+04  0.50400001928E-02 0. -1.
       -1   -1    0    0    0  501  0.00000000000E+00  0.00000000000E+00 -0.21848021361E+04  0.21848021361E+04  0.50400001928E-02 0.  1.
    10030    2    1    2    0    0  0.00000000000E+00  0.00000000000E+00 -0.35574337186E+03  0.40138609003E+04  0.39980652797E+04 0.  0.
        5    1    3    3  502    0 -0.84738961257E+03 -0.18103149526E+04 -0.14947527794E+03  0.20044137127E+04  0.46999998093E+01 0.  1.
       -5    1    3    3    0  502  0.84738961257E+03  0.18103149526E+04 -0.20626809392E+03  0.20094471876E+04  0.46999998093E+01 0. -1.
</event>
<event>
 5   0  0.8329875E-09  0.3992211E+04  0.7818609E-02  0.8006120E-01
        1   -1    0    0  501    0  0.00000000000E+00  0.00000000000E+00  0.19086116666E+04  0.19086116666E+04  0.50400001928E-02 0. -1.
       -1   -1    0    0    0  501  0.00000000000E+00  0.00000000000E+00 -0.20876098984E+04  0.20876098984E+04  0.50400001928E-02 0.  1.
    10030    2    1    2    0    0  0.00000000000E+00  0.00000000000E+00 -0.17899823183E+03  0.39962215650E+04  0.39922107196E+04 0.  0.
        5    1    3    3  502    0 -0.16971613963E+04  0.21754764350E+03 -0.11185059810E+04  0.20442019229E+04  0.46999998093E+01 0.  1.
       -5    1    3    3    0  502  0.16971613963E+04 -0.21754764350E+03  0.93950774913E+03  0.19520196420E+04  0.46999998093E+01 0. -1.
</event>
<event>
 5   0  0.8329875E-09  0.3982805E+04  0.7818609E-02  0.8008024E-01
        1   -1    0    0  501    0  0.00000000000E+00  0.00000000000E+00  0.18731303361E+04  0.18731303361E+04  0.50400001928E-02 0.  1.
       -1   -1    0    0    0  501  0.00000000000E+00  0.00000000000E+00 -0.21171426640E+04  0.21171426640E+04  0.50400001928E-02 0. -1.
    10030    2    1    2    0    0  0.00000000000E+00  0.00000000000E+00 -0.24401232783E+03  0.39902730001E+04  0.39828051169E+04 0.  0.
        2    1    3    3  502    0 -0.86460110937E+03  0.93991920076E+03  0.14088316620E+04  0.19015230301E+04  0.25500000920E-02 0.  1.
       -2    1    3    3    0  502  0.86460110937E+03 -0.93991920076E+03 -0.16528439898E+04  0.20887499700E+04  0.25500000920E-02 0. -1.
</event>
<event>
 5   0  0.2650452E-08  0.3992695E+04  0.7818609E-02  0.8006022E-01
        2   -1    0    0  501    0  0.00000000000E+00  0.00000000000E+00  0.27824745140E+04  0.27824745140E+04  0.25500000920E-02 0. -1.
       -2   -1    0    0    0  501  0.00000000000E+00  0.00000000000E+00 -0.14323231740E+04  0.14323231740E+04  0.25500000920E-02 0.  1.
    10030    2    1    2    0    0  0.00000000000E+00  0.00000000000E+00  0.13501513401E+04  0.42147976880E+04  0.39926946927E+04 0.  0.
        3    1    3    3  502    0  0.13636520824E+04 -0.12864703312E+04  0.13994312781E+04  0.23394360062E+04  0.10100000352E+00 0. -1.
       -3    1    3    3    0  502 -0.13636520824E+04  0.12864703312E+04 -0.49279938062E+02  0.18753616817E+04  0.10100000352E+00 0.  1.
</event>
<event>
 5   0  0.2587493E-08  0.4001143E+04  0.7818609E-02  0.8004316E-01
        2   -1    0    0  501    0  0.00000000000E+00  0.00000000000E+00  0.29999712970E+04  0.29999712970E+04  0.25500000920E-02 0.  1.
       -2   -1    0    0    0  501  0.00000000000E+00  0.00000000000E+00 -0.13341085307E+04  0.13341085307E+04  0.25500000920E-02 0. -1.
    10030    2    1    2    0    0  0.00000000000E+00  0.00000000000E+00  0.16658627663E+04  0.43340798277E+04  0.40011434861E+04 0.  0.
        5    1    3    3  502    0  0.68172438493E+03  0.13513915499E+04 -0.58407080084E+03  0.16223957744E+04  0.46999998093E+01 0. -1.
       -5    1    3    3    0  502 -0.68172438493E+03 -0.13513915499E+04  0.22499335672E+04  0.27116840533E+04  0.46999998093E+01 0.  1.
</event>
<event>
 5   0  0.2599332E-08  0.3989907E+04  0.7818609E-02  0.8006586E-01
        2   -1    0    0  501    0  0.00000000000E+00  0.00000000000E+00  0.23309563378E+04  0.23309563378E+04  0.25500000920E-02 0.  1.
       -2   -1    0    0    0  501  0.00000000000E+00  0.00000000000E+00 -0.17073846432E+04  0.17073846432E+04  0.25500000920E-02 0. -1.
    10030    2    1    2    0    0  0.00000000000E+00  0.00000000000E+00  0.62357169456E+03  0.40383409811E+04  0.39899067935E+04 0.  0.
        2    1    3    3  502    0 -0.56106405451E+03  0.14325800929E+04  0.15971469977E+04  0.22176467545E+04  0.25500000920E-02 0. -1.
       -2    1    3    3    0  502  0.56106405451E+03 -0.14325800929E+04 -0.97357530309E+03  0.18206942265E+04  0.25500000920E-02 0.  1.
</event>
<event>
 5   0  0.8329875E-09  0.4000985E+04  0.7818609E-02  0.8004348E-01
        1   -1    0    0  501    0  0.00000000000E+00  0.00000000000E+00  0.19217050580E+04  0.19217050581E+04  0.50400001928E-02 0.  1.
       -1   -1    0    0    0  501  0.00000000000E+00  0.00000000000E+00 -0.20825096963E+04  0.20825096963E+04  0.50400001928E-02 0. -1.
    10030    2    1    2    0    0  0.00000000000E+00  0.00000000000E+00 -0.16080463821E+03  0.40042147543E+04  0.40009845872E+04 0.  0.
        4    1    3    3  502    0  0.91186560463E+03  0.11344503713E+03 -0.18588004006E+04  0.20735257894E+04  0.12699999809E+01 0. -1.
       -4    1    3    3    0  502 -0.91186560463E+03 -0.11344503713E+03  0.16979957623E+04  0.19306889649E+04  0.12699999809E+01 0.  1.
</event>
<event>
 5   0  0.2746876E-08  0.4007194E+04  0.7818609E-02  0.8003097E-01
        2   -1    0    0  501    0  0.00000000000E+00  0.00000000000E+00  0.23574359454E+04  0.23574359454E+04  0.25500000920E-02 0. -1.
       -2   -1    0    0    0  501  0.00000000000E+00  0.00000000000E+00 -0.17028676348E+04  0.17028676348E+04  0.25500000920E-02 0.  1.
    10030    2    1    2    0    0  0.00000000000E+00  0.00000000000E+00  0.65456831052E+03  0.40603035802E+04  0.40071942167E+04 0.  0.
        1    1    3    3  502    0  0.99847456986E+03 -0.86930009840E+03  0.18511336287E+04  0.22758141047E+04  0.50400001928E-02 0. -1.
       -1    1    3    3    0  502 -0.99847456986E+03  0.86930009840E+03 -0.11965653182E+04  0.17844894756E+04  0.50400001928E-02 0.  1.
</event>
<event>
 5   0  0.8329875E-09  0.3997102E+04  0.7818609E-02  0.8005131E-01
       -1   -1    0    0    0  501  0.00000000000E+00  0.00000000000E+00  0.15399100074E+04  0.15399100074E+04  0.50400001928E-02 0. -1.
        1   -1    0    0  501    0  0.00000000000E+00  0.00000000000E+00 -0.25937917738E+04  0.25937917738E+04  0.50400001928E-02 0.  1.
    10030    2    1    2    0    0  0.00000000000E+00  0.00000000000E+00 -0.10538817664E+04  0.41337017812E+04  0.39971019049E+04 0.  0.
        2    1    3    3  502    0  0.16964155564E+04 -0.65339433004E+03  0.33177047056E+03  0.18479235741E+04  0.25500000920E-02 0. -1.
       -2    1    3    3    0  502 -0.16964155564E+04  0.65339433004E+03 -0.13856522370E+04  0.22857782071E+04  0.25500000920E-02 0.  1.
</event>
<event>
 5   0  0.8329875E-09  0.4002731E+04  0.7818609E-02  0.8003996E-01
        1   -1    0    0  501    0  0.00000000000E+00  0.00000000000E+00  0.21693976695E+04  0.21693976695E+04  0.50400001928E-02 0. -1.
       -1   -1    0    0    0  501  0.00000000000E+00  0.00000000000E+00 -0.18463484270E+04  0.18463484270E+04  0.50400001928E-02 0.  1.
    10030    2    1    2    0    0  0.00000000000E+00  0.00000000000E+00  0.32304924251E+03  0.40157460965E+04  0.40027310550E+04 0.  0.
        1    1    3    3  502    0 -0.16122544810E+03 -0.10291957740E+04  0.18759480609E+04  0.21457909296E+04  0.50400001928E-02 0. -1.
       -1    1    3    3    0  502  0.16122544810E+03  0.10291957740E+04 -0.15528988183E+04  0.18699551670E+04  0.50400001928E-02 0.  1.
</event>
<event>
 5   0  0.8329875E-09  0.4008243E+04  0.7818609E-02  0.8002886E-01
       -1   -1    0    0    0  501  0.00000000000E+00  0.00000000000E+00  0.15005992189E+04  0.15005992189E+04  0.50400001928E-02 0.  1.
        1   -1    0    0  501    0  0.00000000000E+00  0.00000000000E+00 -0.26765998849E+04  0.26765998850E+04  0.50400001928E-02 0. -1.
    10030    2    1    2    0    0  0.00000000000E+00  0.00000000000E+00 -0.11760006661E+04  0.41771991038E+04  0.40082433542E+04 0.  0.
        3    1    3    3  502    0 -0.16989584600E+04  0.10630124682E+04 -0.59524536018E+03  0.20906392337E+04  0.10100000352E+00 0. -1.
       -3    1    3    3    0  502  0.16989584600E+04 -0.10630124682E+04 -0.58075530590E+03  0.20865598702E+04  0.10100000352E+00 0.  1.
</event>
<event>
 5   0  0.8329875E-09  0.4001760E+04  0.7818609E-02  0.8004192E-01
       -1   -1    0    0    0  501  0.00000000000E+00  0.00000000000E+00  0.26317646742E+04  0.26317646742E+04  0.50400001928E-02 0.  1.
        1   -1    0    0  501    0  0.00000000000E+00  0.00000000000E+00 -0.15212303495E+04  0.15212303495E+04  0.50400001928E-02 0. -1.
    10030    2    1    2    0    0  0.00000000000E+00  0.00000000000E+00  0.11105343247E+04  0.41529950237E+04  0.40017597605E+04 0.  0.
        2    1    3    3  502    0 -0.15662341712E+04 -0.60116044954E+03 -0.57637226315E+03  0.17738907382E+04  0.25500000920E-02 0. -1.
       -2    1    3    3    0  502  0.15662341712E+04  0.60116044954E+03  0.16869065878E+04  0.23791042855E+04  0.25500000920E-02 0.  1.
</event>
<event>
 5   0  0.8329875E-09  0.3995865E+04  0.7818609E-02  0.8005381E-01
        1   -1    0    0  501    0  0.00000000000E+00  0.00000000000E+00  0.20351521128E+04  0.20351521128E+04  0.50400001928E-02 0. -1.
       -1   -1    0    0    0  501  0.00000000000E+00  0.00000000000E+00 -0.19613931917E+04  0.19613931917E+04  0.50400001928E-02 0.  1.
    10030    2    1    2    0    0  0.00000000000E+00  0.00000000000E+00  0.73758921082E+02  0.39965453045E+04  0.39958646113E+04 0.  0.
        3    1    3    3  502    0  0.91338790943E+03  0.49879419725E+03  0.17426494993E+04  0.20297537811E+04  0.10100000352E+00 0. -1.
       -3    1    3    3    0  502 -0.91338790943E+03 -0.49879419725E+03 -0.16688905782E+04  0.19667915234E+04  0.10100000352E+00 0.  1.
</event>
<event>
 5   0  0.8329875E-09  0.3995889E+04  0.7818609E-02  0.8005376E-01
       -1   -1    0    0    0  501  0.00000000000E+00  0.00000000000E+00  0.20114285584E+04  0.20114285584E+04  0.50400001928E-02 0.  1.
        1   -1    0    0  501    0  0.00000000000E+00  0.00000000000E+00 -0.19845504744E+04  0.19845504744E+04  0.50400001928E-02 0. -1.
    10030    2    1    2    0    0  0.00000000000E+00  0.00000000000E+00  0.26878083956E+02  0.39959790328E+04  0.39958886370E+04 0.  0.
        1    1    3    3  502    0  0.11982759805E+04 -0.97323727836E+03  0.12818231167E+04  0.20065210261E+04  0.50400001928E-02 0.  1.
       -1    1    3    3    0  502 -0.11982759805E+04  0.97323727836E+03 -0.12549450327E+04  0.19894580068E+04  0.50400001928E-02 0. -1.
</event>
<event>
 5   0  0.8329875E-09  0.3997560E+04  0.7818609E-02  0.8005039E-01
       -1   -1    0    0    0  501  0.00000000000E+00  0.00000000000E+00  0.22045845963E+04  0.22045845963E+04  0.50400001928E-02 0.  1.
        1   -1    0    0  501    0  0.00000000000E+00  0.00000000000E+00 -0.18121880018E+04  0.18121880018E+04  0.50400001928E-02 0. -1.
    10030    2    1    2    0    0  0.00000000000E+00  0.00000000000E+00  0.39239659450E+03  0.40167725981E+04  0.39975601331E+04 0.  0.
        2    1    3    3  502    0  0.18026182764E+04  0.86353156398E+03  0.19773601853E+03  0.20085365183E+04  0.25500000920E-02 0. -1.
       -2    1    3    3    0  502 -0.18026182764E+04 -0.86353156398E+03  0.19466057597E+03  0.20082360798E+04  0.25500000920E-02 0.  1.
</event>
<event>
 5   0  0.2599332E-08  0.4002776E+04  0.7818609E-02  0.8003987E-01
        2   -1    0    0  501    0  0.00000000000E+00  0.00000000000E+00  0.26675428630E+04  0.26675428630E+04  0.25500000920E-02 0.  1.
       -2   -1    0    0    0  501  0.00000000000E+00  0.00000000000E+00 -0.15015891554E+04  0.15015891554E+04  0.25500000920E-02 0. -1.
    10030    2    1    2    0    0  0.00000000000E+00  0.00000000000E+00  0.11659537076E+04  0.41691320184E+04  0.40027757543E+04 0.  0.
        2    1    3    3  502    0  0.16818258895E+04 -0.83504453044E+03  0.13043772447E+04  0.22863153078E+04  0.25500000920E-02 0.  1.
       -2    1    3    3    0  502 -0.16818258895E+04  0.83504453044E+03 -0.13842353704E+03  0.18828167106E+04  0.25500000920E-02 0. -1.
</event>
<event>
 5   0  0.8329875E-09  0.3997472E+04  0.7818609E-02  0.8005057E-01
       -1   -1    0    0    0  501  0.00000000000E+00  0.00000000000E+00  0.13942079980E+04  0.13942079980E+04  0.50400001928E-02 0. -1.
        1   -1    0    0  501    0  0.00000000000E+00  0.00000000000E+00 -0.28653877184E+04  0.28653877184E+04  0.50400001928E-02 0.  1.
    10030    2    1    2    0    0  0.00000000000E+00  0.00000000000E+00 -0.14711797205E+04  0.42595957164E+04  0.39974724386E+04 0.  0.
        2    1    3    3  502    0 -0.19852037635E+04 -0.63321940715E+02 -0.49755231485E+03  0.20475844199E+04  0.25500000920E-02 0.  1.
       -2    1    3    3    0  502  0.19852037635E+04  0.63321940715E+02 -0.97362740562E+03  0.22120112965E+04  0.25500000920E-02 0. -1.
</event>
<event>
 5   0  0.8329875E-09  0.4020992E+04  0.7818609E-02  0.8000325E-01
        1   -1    0    0  501    0  0.00000000000E+00  0.00000000000E+00  0.17702953418E+04  0.17702953418E+04  0.50400001928E-02 0.  1.
       -1   -1    0    0    0  501  0.00000000000E+00  0.00000000000E+00 -0.22832882141E+04  0.22832882141E+04  0.50400001928E-02 0. -1.
    10030    2    1    2    0    0  0.00000000000E+00  0.00000000000E+00 -0.51299287228E+03  0.40535835559E+04  0.40209921608E+04 0.  0.
        5    1    3    3  502    0  0.15204628484E+04 -0.44646503062E+03  0.99084155944E+03  0.18689375010E+04  0.46999998093E+01 0.  1.
       -5    1    3    3    0  502 -0.15204628484E+04  0.44646503062E+03 -0.15038344317E+04  0.21846460548E+04  0.46999998093E+01 0. -1.
</event>
<event>
 5   0  0.2650452E-08  0.4003180E+04  0.7818609E-02  0.8003905E-01
       -2   -1    0    0    0  501  0.00000000000E+00  0.00000000000E+00  0.24771464538E+04  0.24771464538E+04  0.25500000920E-02 0. -1.
        2   -1    0    0  501    0  0.00000000000E+00  0.00000000000E+00 -0.16173300897E+04  0.16173300897E+04  0.25500000920E-02 0.  1.
    10030    2    1    2    0    0  0.00000000000E+00  0.00000000000E+00  0.85981636413E+03  0.40944765435E+04  0.40031804838E+04 0.  0.
        3    1    3    3  502    0  0.19864996159E+04  0.15211080823E+03  0.62676859543E+03  0.20885778186E+04  0.10100000352E+00 0.  1.
       -3    1    3    3    0  502 -0.19864996159E+04 -0.15211080823E+03  0.23304776871E+03  0.20058987249E+04  0.10100000352E+00 0. -1.
</event>
<event>
 5   0  0.2650452E-08  0.3999912E+04  0.7818609E-02  0.8004564E-01
       -2   -1    0    0    0  501  0.00000000000E+00  0.00000000000E+00  0.22428474619E+04  0.22428474619E+04  0.25500000920E-02 0.  1.
        2   -1    0    0  501    0  0.00000000000E+00  0.00000000000E+00 -0.17833690844E+04  0.17833690844E+04  0.25500000920E-02 0. -1.
    10030    2    1    2    0    0  0.00000000000E+00  0.00000000000E+00  0.45947837753E+03  0.40262165462E+04  0.39999124113E+04 0.  0.
        3    1    3    3  502    0  0.88146787889E+03  0.48807968129E+03 -0.15092263773E+04  0.18146546958E+04  0.10100000352E+00 0. -1.
       -3    1    3    3    0  502 -0.88146787889E+03 -0.48807968129E+03  0.19687047548E+04  0.22115618505E+04  0.10100000352E+00 0.  1.
</event>
<event>
 5   0  0.2612363E-08  0.4001883E+04  0.7818609E-02  0.8004167E-01
        2   -1    0    0  501    0  0.00000000000E+00  0.00000000000E+00  0.23244905723E+04  0.23244905723E+04  0.25500000920E-02 0. -1.
       -2   -1    0    0    0  501  0.00000000000E+00  0.00000000000E+00 -0.17224276620E+04  0.17224276620E+04  0.25500000920E-02 0.  1.
    10030    2    1    2    0    0  0.00000000000E+00  0.00000000000E+00  0.60206291022E+03  0.40469182343E+04  0.40018829877E+04 0.  0.
        4    1    3    3  502    0 -0.76712447635E+03 -0.16975127114E+04 -0.43776234757E+03  0.19135482365E+04  0.12699999809E+01 0.  1.
       -4    1    3    3    0  502  0.76712447635E+03  0.16975127114E+04  0.10398252578E+04  0.21333699978E+04  0.12699999809E+01 0. -1.
</event>
<event>
 5   0  0.2650452E-08  0.3993500E+04  0.7818609E-02  0.8005859E-01
        2   -1    0    0  501    0  0.00000000000E+00  0.00000000000E+00  0.20461167090E+04  0.20461167090E+04  0.25500000920E-02 0. -1.
       -2   -1    0    0    0  501  0.00000000000E+00  0.00000000000E+00 -0.19485740190E+04  0.19485740190E+04  0.25500000920E-02 0.  1.
    10030    2    1    2    0    0  0.00000000000E+00  0.00000000000E+00  0.97542690011E+02  0.39946907281E+04  0.39934996478E+04 0.  0.
        3    1    3    3  502    0 -0.11250712300E+04  0.99542566282E+03 -0.12670495592E+04  0.19652155399E+04  0.10100000352E+00 0.  1.
       -3    1    3    3    0  502  0.11250712300E+04 -0.99542566282E+03  0.13645922492E+04  0.20294751882E+04  0.10100000352E+00 0. -1.
</event>
<event>
 5   0  0.2746876E-08  0.4001981E+04  0.7818609E-02  0.8004147E-01
       -2   -1    0    0    0  501  0.00000000000E+00  0.00000000000E+00  0.20325924943E+04  0.20325924943E+04  0.25500000920E-02 0.  1.
        2   -1    0    0  501    0  0.00000000000E+00  0.00000000000E+00 -0.19698794965E+04  0.19698794965E+04  0.25500000920E-02 0. -1.
    10030    2    1    2    0    0  0.00000000000E+00  0.00000000000E+00  0.62712997841E+02  0.40024719908E+04  0.40019806493E+04 0.  0.
        1    1    3    3  502    0  0.25601978011E+03  0.52292752193E+03 -0.18832878394E+04  0.19712362636E+04  0.50400001928E-02 0. -1.
       -1    1    3    3    0  502 -0.25601978011E+03 -0.52292752193E+03  0.19460008372E+04  0.20312357272E+04  0.50400001928E-02 0.  1.
</event>
<event>
 5   0  0.2650452E-08  0.3998797E+04  0.7818609E-02  0.8004789E-01
       -2   -1    0    0    0  501  0.00000000000E+00  0.00000000000E+00  0.14286682970E+04  0.14286682970E+04  0.25500000920E-02 0.  1.
        2   -1    0    0  501    0  0.00000000000E+00  0.00000000000E+00 -0.27981266111E+04  0.27981266111E+04  0.25500000920E-02 0. -1.
    10030    2    1    2    0    0  0.00000000000E+00  0.00000000000E+00 -0.13694583141E+04  0.42267949081E+04  0.39987972093E+04 0.  0.
        3    1    3    3  502    0 -0.47607138822E+03  0.39550258473E+02 -0.27369171167E+04  0.27782950714E+04  0.10100000352E+00 0. -1.
       -3    1    3    3    0  502  0.47607138822E+03 -0.39550258473E+02  0.13674588027E+04  0.14484998367E+04  0.10100000352E+00 0.  1.
</event>
<event>
 5   0  0.2587493E-08  0.3994357E+04  0.7818609E-02  0.8005686E-01
        2   -1    0    0  501    0  0.00000000000E+00  0.00000000000E+00  0.21745313757E+04  0.21745313757E+04  0.25500000920E-02 0. -1.
       -2   -1    0    0    0  501  0.00000000000E+00  0.00000000000E+00 -0.18342899512E+04  0.18342899512E+04  0.25500000920E-02 0.  1.
    10030    2    1    2    0    0  0.00000000000E+00  0.00000000000E+00  0.34024142446E+03  0.40088213269E+04  0.39943565444E+04 0.  0.
        5    1    3    3  502    0 -0.59722884625E+03 -0.18384354673E+04  0.67410621479E+03  0.20471855170E+04  0.46999998093E+01 0.  1.
       -5    1    3    3    0  502  0.59722884625E+03  0.18384354673E+04 -0.33386479033E+03  0.19616358099E+04  0.46999998093E+01 0. -1.
</event>
<event>
 5   0  0.8329875E-09  0.3992373E+04  0.7818609E-02  0.8006087E-01
        1   -1    0    0  501    0  0.00000000000E+00  0.00000000000E+00  0.21440969264E+04  0.21440969264E+04  0.50400001928E-02 0.  1.
       -1   -1    0    0    0  501  0.00000000000E+00  0.00000000000E+00 -0.18584799626E+04  0.18584799626E+04  0.50400001928E-02 0. -1.
    10030    2    1    2    0    0  0.00000000000E+00  0.00000000000E+00  0.28561696376E+03  0.40025768890E+04  0.39923733170E+04 0.  0.
        5    1    3    3  502    0  0.83182149852E+03 -0.11736366432E+04 -0.12447044708E+04  0.19022779201E+04  0.46999998093E+01 0. -1.
       -5    1    3    3    0  502 -0.83182149852E+03  0.11736366432E+04  0.15303214345E+04  0.21002989689E+04  0.46999998093E+01 0.  1.
</event>
<event>
 5   0  0.8329875E-09  0.3875862E+04  0.7818609E-02  0.8030068E-01
       -1   -1    0    0    0  501  0.00000000000E+00  0.00000000000E+00  0.22179668669E+04  0.22179668669E+04  0.50400001928E-02 0. -1.
        1   -1    0    0  501    0  0.00000000000E+00  0.00000000000E+00 -0.16932521965E+04  0.16932521966E+04  0.50400001928E-02 0.  1.
    10030    2    1    2    0    0  0.00000000000E+00  0.00000000000E+00  0.52471467040E+03  0.39112190635E+04  0.38758623656E+04 0.  0.
        1    1    3    3  502    0 -0.94648854820E+03 -0.42945545324E+03 -0.13881992652E+04  0.17341769685E+04  0.50400001928E-02 0.  1.
       -1    1    3    3    0  502  0.94648854820E+03  0.42945545324E+03  0.19129139356E+04  0.21770420950E+04  0.50400001928E-02 0. -1.
</event>
<event>
 5   0  0.8329875E-09  0.4002001E+04  0.7818609E-02  0.8004143E-01
       -1   -1    0    0    0  501  0.00000000000E+00  0.00000000000E+00  0.24294410517E+04  0.24294410517E+04  0.50400001928E-02 0.  1.
        1   -1    0    0  501    0  0.00000000000E+00  0.00000000000E+00 -0.16481168914E+04  0.16481168914E+04  0.50400001928E-02 0. -1.
    10030    2    1    2    0    0  0.00000000000E+00  0.00000000000E+00  0.78132416035E+03  0.40775579431E+04  0.40020009165E+04 0.  0.
        3    1    3    3  502    0  0.16353318300E+03  0.68398287643E+03  0.22993770209E+04  0.24045187401E+04  0.10100000352E+00 0.  1.
       -3    1    3    3    0  502 -0.16353318300E+03 -0.68398287643E+03 -0.15180528605E+04  0.16730392030E+04  0.10100000352E+00 0. -1.
</event>
<event>
 5   0  0.8329875E-09  0.3998618E+04  0.7818609E-02  0.8004825E-01
        1   -1    0    0  501    0  0.00000000000E+00  0.00000000000E+00  0.19351918766E+04  0.19351918766E+04  0.50400001928E-02 0.  1.
       -1   -1    0    0    0  501  0.00000000000E+00  0.00000000000E+00 -0.20655509400E+04  0.20655509400E+04  0.50400001928E-02 0. -1.
    10030    2    1    2    0    0  0.00000000000E+00  0.00000000000E+00 -0.13035906338E+03  0.40007428166E+04  0.39986184613E+04 0.  0.
        1    1    3    3  502    0 -0.16968165969E+04 -0.83548485165E+03 -0.71361017790E+03  0.20214996876E+04  0.50400001928E-02 0. -1.
       -1    1    3    3    0  502  0.16968165969E+04  0.83548485165E+03  0.58325111452E+03  0.19792431290E+04  0.50400001928E-02 0.  1.
</event>
<event>
 5   0  0.8329875E-09  0.3999413E+04  0.7818609E-02  0.8004665E-01
        1   -1    0    0  501    0  0.00000000000E+00  0.00000000000E+00  0.21596408415E+04  0.21596408415E+04  0.50400001928E-02 0.  1.
       -1   -1    0    0    0  501  0.00000000000E+00  0.00000000000E+00 -0.18516163220E+04  0.18516163220E+04  0.50400001928E-02 0. -1.
    10030    2    1    2    0    0  0.00000000000E+00  0.00000000000E+00  0.30802451952E+03  0.40112571635E+04  0.39994130728E+04 0.  0.
        4    1    3    3  502    0 -0.12869300807E+04 -0.49308517368E+03 -0.12992448355E+04  0.18940329397E+04  0.12699999809E+01 0. -1.
       -4    1    3    3    0  502  0.12869300807E+04  0.49308517368E+03  0.16072693550E+04  0.21172242238E+04  0.12699999809E+01 0.  1.
</event>
<event>
 5   0  0.2612363E-08  0.4014179E+04  0.7818609E-02  0.8001692E-01
       -2   -1    0    0    0  501  0.00000000000E+00  0.00000000000E+00  0.34290203628E+04  0.34290203628E+04  0.25500000920E-02 0. -1.
        2   -1    0    0  501    0  0.00000000000E+00  0.00000000000E+00 -0.11747984024E+04  0.11747984024E+04  0.25500000920E-02 0.  1.
    10030    2    1    2    0    0  0.00000000000E+00  0.00000000000E+00  0.22542219604E+04  0.46038187652E+04  0.40141786926E+04 0.  0.
        4    1    3    3  502    0  0.12312781731E+04  0.14774858194E+04  0.46887667917E+03  0.19796103756E+04  0.12699999809E+01 0.  1.
       -4    1    3    3    0  502 -0.12312781731E+04 -0.14774858194E+04  0.17853452812E+04  0.26242083896E+04  0.12699999809E+01 0. -1.
</event>
<event>
 5   0  0.2587493E-08  0.4017927E+04  0.7818609E-02  0.8000940E-01
       -2   -1    0    0    0  501  0.00000000000E+00  0.00000000000E+00  0.19298318080E+04  0.19298318080E+04  0.25500000920E-02 0.  1.
        2   -1    0    0  501    0  0.00000000000E+00  0.00000000000E+00 -0.20913395720E+04  0.20913395720E+04  0.25500000920E-02 0. -1.
    10030    2    1    2    0    0  0.00000000000E+00  0.00000000000E+00 -0.16150776406E+03  0.40211713800E+04  0.40179266431E+04 0.  0.
        5    1    3    3  502    0  0.47841634014E+03 -0.10041029318E+04 -0.17550683408E+04  0.20778334541E+04  0.46999998093E+01 0. -1.
       -5    1    3    3    0  502 -0.47841634014E+03  0.10041029318E+04  0.15935605768E+04  0.19433379258E+04  0.46999998093E+01 0.  1.
</event>
<event>
 5   0  0.8329875E-09  0.3990447E+04  0.7818609E-02  0.8006476E-01
       -1   -1    0    0    0  501  0.00000000000E+00  0.00000000000E+00  0.18408842285E+04  0.18408842285E+04  0.50400001928E-02 0.  1.
        1   -1    0    0  501    0  0.00000000000E+00  0.00000000000E+00 -0.21625027962E+04  0.21625027962E+04  0.50400001928E-02 0. -1.
    10030    2    1    2    0    0  0.00000000000E+00  0.00000000000E+00 -0.32161856767E+03  0.40033870247E+04  0.39904472389E+04 0.  0.
        1    1    3    3  502    0  0.71349552442E+03 -0.13328807791E+04 -0.14670567936E+04  0.21066330175E+04  0.50400001928E-02 0. -1.
       -1    1    3    3    0  502 -0.71349552442E+03  0.13328807791E+04  0.11454382260E+04  0.18967540073E+04  0.50400001928E-02 0.  1.
</event>
<event>
 5   0  0.2650452E-08  0.3985188E+04  0.7818609E-02  0.8007541E-01
       -2   -1    0    0    0  501  0.00000000000E+00  0.00000000000E+00  0.13764418141E+04  0.13764418141E+04  0.25500000920E-02 0. -1.
        2   -1    0    0  501    0  0.00000000000E+00  0.00000000000E+00 -0.28845614890E+04  0.28845614890E+04  0.25500000920E-02 0.  1.
    10030    2    1    2    0    0  0.00000000000E+00  0.00000000000E+00 -0.15081196749E+04  0.42610033031E+04  0.39851881003E+04 0.  0.
        3    1    3    3  502    0 -0.19560991944E+04 -0.20034263407E+03 -0.40929999799E+03  0.20084789587E+04  0.10100000352E+00 0. -1.
       -3    1    3    3    0  502  0.19560991944E+04  0.20034263407E+03 -0.10988196769E+04  0.22525243443E+04  0.10100000352E+00 0.  1.
</event>
<event>
 5   0  0.2746876E-08  0.4005001E+04  0.7818609E-02  0.8003538E-01
       -2   -1    0    0    0  501  0.00000000000E+00  0.00000000000E+00  0.15730218905E+04  0.15730218905E+04  0.25500000920E-02 0.  1.
        2   -1    0    0  501    0  0.00000000000E+00  0.00000000000E+00 -0.25492391463E+04  0.25492391463E+04  0.25500000920E-02 0. -1.
    10030    2    1    2    0    0  0.00000000000E+00  0.00000000000E+00 -0.97621725576E+03  0.41222610369E+04  0.40050013640E+04 0.  0.
        1    1    3    3  502    0 -0.10442376892E+03 -0.64746875780E+03 -0.24355643553E+04  0.25223191401E+04  0.50400001928E-02 0. -1.
       -1    1    3    3    0  502  0.10442376892E+03  0.64746875780E+03  0.14593470996E+04  0.15999418967E+04  0.50400001928E-02 0.  1.
</event>
<event>
 5   0  0.2599332E-08  0.3989110E+04  0.7818609E-02  0.8006747E-01
        2   -1    0    0  501    0  0.00000000000E+00  0.00000000000E+00  0.19465196595E+04  0.19465196595E+04  0.25500000920E-02 0.  1.
       -2   -1    0    0    0  501  0.00000000000E+00  0.00000000000E+00 -0.20437759422E+04  0.20437759422E+04  0.25500000920E-02 0. -1.
    10030    2    1    2    0    0  0.00000000000E+00  0.00000000000E+00 -0.97256282742E+02  0.39902956017E+04  0.39891102021E+04 0.  0.
        2    1    3    3  502    0  0.49533580372E+03  0.85125175063E+03  0.16863217367E+04  0.19528615161E+04  0.25500000920E-02 0.  1.
       -2    1    3    3    0  502 -0.49533580372E+03 -0.85125175063E+03 -0.17835780195E+04  0.20374340856E+04  0.25500000920E-02 0. -1.
</event>
<event>
 5   0  0.8329875E-09  0.4004732E+04  0.7818609E-02  0.8003593E-01
        1   -1    0    0  501    0  0.00000000000E+00  0.00000000000E+00  0.11898833139E+04  0.11898833139E+04  0.50400001928E-02 0. -1.
       -1   -1    0    0    0  501  0.00000000000E+00  0.00000000000E+00 -0.33696326108E+04  0.33696326108E+04  0.50400001928E-02 0.  1.
    10030    2    1    2    0    0  0.00000000000E+00  0.00000000000E+00 -0.21797492969E+04  0.45595159247E+04  0.40047320097E+04 0.  0.
        2    1    3    3  502    0 -0.17291032179E+03 -0.17225896704E+04  0.55613387254E+02  0.17321391401E+04  0.25500000920E-02 0.  1.
       -2    1    3    3    0  502  0.17291032179E+03  0.17225896704E+04 -0.22353626842E+04  0.28273767845E+04  0.25500000920E-02 0. -1.
</event>
<event>
 5   0  0.8329875E-09  0.4047881E+04  0.7818609E-02  0.7994956E-01
        1   -1    0    0  501    0  0.00000000000E+00  0.00000000000E+00  0.13968796263E+04  0.13968796263E+04  0.50400001928E-02 0.  1.
       -1   -1    0    0    0  501  0.00000000000E+00  0.00000000000E+00 -0.29324899773E+04  0.29324899773E+04  0.50400001928E-02 0. -1.
    10030    2    1    2    0    0  0.00000000000E+00  0.00000000000E+00 -0.15356103510E+04  0.43293696035E+04  0.40478811759E+04 0.  0.
        4    1    3    3  502    0 -0.14190110054E+04 -0.69411133913E+03  0.58546946176E+03  0.16846836166E+04  0.12699999809E+01 0.  1.
       -4    1    3    3    0  502  0.14190110054E+04  0.69411133913E+03 -0.21210798128E+04  0.26446859869E+04  0.12699999809E+01 0. -1.
</event>
<event>
 5   0  0.2587493E-08  0.4029937E+04  0.7818609E-02  0.7998534E-01
        2   -1    0    0  501    0  0.00000000000E+00  0.00000000000E+00  0.22896054138E+04  0.22896054138E+04  0.25500000920E-02 0. -1.
       -2   -1    0    0    0  501  0.00000000000E+00  0.00000000000E+00 -0.17732744716E+04  0.17732744716E+04  0.25500000920E-02 0.  1.
    10030    2    1    2    0    0  0.00000000000E+00  0.00000000000E+00  0.51633094217E+03  0.40628798853E+04  0.40299373842E+04 0.  0.
        5    1    3    3  502    0 -0.71217420786E+03 -0.64602260588E+03 -0.15270548349E+04  0.18045652851E+04  0.46999998093E+01 0.  1.
       -5    1    3    3    0  502  0.71217420786E+03  0.64602260588E+03  0.20433857770E+04  0.22583146002E+04  0.46999998093E+01 0. -1.
</event>
<event>
 5   0  0.8329875E-09  0.4000098E+04  0.7818609E-02  0.8004527E-01
        4   -1    0    0  501    0  0.00000000000E+00  0.00000000000E+00  0.20590004398E+04  0.20590008314E+04  0.12699999809E+01 0. -1.
       -4   -1    0    0    0  501  0.00000000000E+00  0.00000000000E+00 -0.19427845596E+04  0.19427849747E+04  0.12699999809E+01 0.  1.
    10030    2    1    2    0    0  0.00000000000E+00  0.00000000000E+00  0.11621588013E+03  0.40017858062E+04  0.40000979373E+04 0.  0.
        2    1    3    3  502    0  0.14383886368E+04  0.13895490346E+04  0.38414942246E+02  0.20003209987E+04  0.25500000920E-02 0.  1.
       -2    1    3    3    0  502 -0.14383886368E+04 -0.13895490346E+04  0.77800937886E+02  0.20014648075E+04  0.25500000920E-02 0. -1.
</event>
<event>
 5   0  0.8329875E-09  0.3994671E+04  0.7818609E-02  0.8005622E-01
        1   -1    0    0  501    0  0.00000000000E+00  0.00000000000E+00  0.15522713590E+04  0.15522713590E+04  0.50400001928E-02 0.  1.
       -1   -1    0    0    0  501  0.00000000000E+00  0.00000000000E+00 -0.25700076996E+04  0.25700076996E+04  0.50400001928E-02 0. -1.
    10030    2    1    2    0    0  0.00000000000E+00  0.00000000000E+00 -0.10177363405E+04  0.41222790586E+04  0.39946711227E+04 0.  0.
        5    1    3    3  502    0  0.43627826866E+03  0.16450543237E+04 -0.15876253037E+04  0.23274704404E+04  0.46999998093E+01 0. -1.
       -5    1    3    3    0  502 -0.43627826866E+03 -0.16450543237E+04  0.56988896320E+03  0.17948086182E+04  0.46999998093E+01 0.  1.
</event>
<event>
 5   0  0.8329875E-09  0.3995418E+04  0.7818609E-02  0.8005472E-01
       -1   -1    0    0    0  501  0.00000000000E+00  0.00000000000E+00  0.13586718338E+04  0.13586718338E+04  0.50400001928E-02 0. -1.
        1   -1    0    0  501    0  0.00000000000E+00  0.00000000000E+00 -0.29373102007E+04  0.29373102007E+04  0.50400001928E-02 0.  1.
    10030    2    1    2    0    0  0.00000000000E+00  0.00000000000E+00 -0.15786383669E+04  0.42959820345E+04  0.39954176938E+04 0.  0.
        4    1    3    3  502    0  0.57159701583E+03 -0.36131769321E+03 -0.28105077592E+04  0.28907142891E+04  0.12699999809E+01 0.  1.
       -4    1    3    3    0  502 -0.57159701583E+03  0.36131769321E+03  0.12318693923E+04  0.14052677455E+04  0.12699999809E+01 0. -1.
</event>
<event>
 5   0  0.8329875E-09  0.3994613E+04  0.7818609E-02  0.8005634E-01
        1   -1    0    0  501    0  0.00000000000E+00  0.00000000000E+00  0.13525867292E+04  0.13525867292E+04  0.50400001928E-02 0.  1.
       -1   -1    0    0    0  501  0.00000000000E+00  0.00000000000E+00 -0.29493357260E+04  0.29493357260E+04  0.50400001928E-02 0. -1.
    10030    2    1    2    0    0  0.00000000000E+00  0.00000000000E+00 -0.15967489968E+04  0.43019224551E+04  0.39946125533E+04 0.  0.
        3    1    3    3  502    0 -0.37177915938E+03  0.13292476791E+04  0.75633255585E+03  0.15738990059E+04  0.10100000352E+00 0.  1.
       -3    1    3    3    0  502  0.37177915938E+03 -0.13292476791E+04 -0.23530815527E+04  0.27280234492E+04  0.10100000352E+00 0. -1.
</event>
<event>
 5   0  0.8329875E-09  0.4015169E+04  0.7818609E-02  0.8001493E-01
        1   -1    0    0  501    0  0.00000000000E+00  0.00000000000E+00  0.28906482478E+04  0.28906482478E+04  0.50400001928E-02 0.  1.
       -1   -1    0    0    0  501  0.00000000000E+00  0.00000000000E+00 -0.13942880081E+04  0.13942880081E+04  0.50400001928E-02 0. -1.
    10030    2    1    2    0    0  0.00000000000E+00  0.00000000000E+00  0.14963602397E+04  0.42849362559E+04  0.40151693302E+04 0.  0.
        5    1    3    3  502    0 -0.19062498727E+03 -0.44384806851E+02 -0.13840759902E+04  0.13978541889E+04  0.46999998093E+01 0. -1.
       -5    1    3    3    0  502  0.19062498727E+03  0.44384806851E+02  0.28804362299E+04  0.28870820670E+04  0.46999998093E+01 0.  1.
</event>
<event>
 5   0  0.8329875E-09  0.3995658E+04  0.7818609E-02  0.8005423E-01
       -1   -1    0    0    0  501  0.00000000000E+00  0.00000000000E+00  0.14382728117E+04  0.14382728117E+04  0.50400001928E-02 0.  1.
        1   -1    0    0  501    0  0.00000000000E+00  0.00000000000E+00 -0.27750796590E+04  0.27750796590E+04  0.50400001928E-02 0. -1.
    10030    2    1    2    0    0  0.00000000000E+00  0.00000000000E+00 -0.13368068473E+04  0.42133524707E+04  0.39956584558E+04 0.  0.
        1    1    3    3  502    0 -0.12100615692E+04 -0.15322123337E+04 -0.22177308911E+03  0.19649699590E+04  0.50400001928E-02 0.  1.
       -1    1    3    3    0  502  0.12100615692E+04  0.15322123337E+04 -0.11150337582E+04  0.22483825117E+04  0.50400001928E-02 0. -1.
</event>
<event>
 5   0  0.2746876E-08  0.3998177E+04  0.7818609E-02  0.8004914E-01
        2   -1    0    0  501    0  0.00000000000E+00  0.00000000000E+00  0.27631602429E+04  0.27631602429E+04  0.25500000920E-02 0.  1.
       -2   -1    0    0    0  501  0.00000000000E+00  0.00000000000E+00 -0.14462986600E+04  0.14462986600E+04  0.25500000920E-02 0. -1.
    10030    2    1    2    0    0  0.00000000000E+00  0.00000000000E+00  0.13168615830E+04  0.42094589029E+04  0.39981770629E+04 0.  0.
        1    1    3    3  502    0 -0.44529134426E+02 -0.59702142820E+03 -0.13496994151E+04  0.14765181816E+04  0.50400001928E-02 0. -1.
       -1    1    3    3    0  502  0.44529134426E+02  0.59702142820E+03  0.26665609981E+04  0.27329407213E+04  0.50400001928E-02 0.  1.
</event>
<event>
 5   0  0.8329875E-09  0.4020778E+04  0.7818609E-02  0.8000368E-01
        1   -1    0    0  501    0  0.00000000000E+00  0.00000000000E+00  0.23719176637E+04  0.23719176637E+04  0.50400001928E-02 0. -1.
       -1   -1    0    0    0  501  0.00000000000E+00  0.00000000000E+00 -0.17039643393E+04  0.17039643393E+04  0.50400001928E-02 0.  1.
    10030    2    1    2    0    0  0.00000000000E+00  0.00000000000E+00  0.66795332440E+03  0.40758820030E+04  0.40207775938E+04 0.  0.
        1    1    3    3  502    0  0.10120755941E+04  0.67972010277E+03 -0.12864764400E+04  0.17723820290E+04  0.50400001928E-02 0.  1.
       -1    1    3    3    0  502 -0.10120755941E+04 -0.67972010277E+03  0.19544297644E+04  0.23034999740E+04  0.50400001928E-02 0. -1.
</event>
<event>
 5   0  0.2612363E-08  0.3993388E+04  0.7818609E-02  0.8005882E-01
        2   -1    0    0  501    0  0.00000000000E+00  0.00000000000E+00  0.26127066799E+04  0.26127066799E+04  0.25500000920E-02 0.  1.
       -2   -1    0    0    0  501  0.00000000000E+00  0.00000000000E+00 -0.15259219835E+04  0.15259219835E+04  0.25500000920E-02 0. -1.
    10030    2    1    2    0    0  0.00000000000E+00  0.00000000000E+00  0.10867846964E+04  0.41386286635E+04  0.39933878146E+04 0.  0.
        4    1    3    3  502    0 -0.10942511672E+04 -0.16687994790E+04  0.47381161153E+03  0.20510427529E+04  0.12699999809E+01 0. -1.
       -4    1    3    3    0  502  0.10942511672E+04  0.16687994790E+04  0.61297308488E+03  0.20875859105E+04  0.12699999809E+01 0.  1.
</event>
<event>
 5   0  0.2587493E-08  0.3994873E+04  0.7818609E-02  0.8005582E-01
       -2   -1    0    0    0  501  0.00000000000E+00  0.00000000000E+00  0.27414103820E+04  0.27414103820E+04  0.25500000920E-02 0.  1.
        2   -1    0    0  501    0  0.00000000000E+00  0.00000000000E+00 -0.14553652768E+04  0.14553652768E+04  0.25500000920E-02 0. -1.
    10030    2    1    2    0    0  0.00000000000E+00  0.00000000000E+00  0.12860451052E+04  0.41967756587E+04  0.39948734544E+04 0.  0.
        5    1    3    3  502    0 -0.15602670111E+04 -0.11853403481E+04  0.10502563523E+04  0.22231791162E+04  0.46999998093E+01 0.  1.
       -5    1    3    3    0  502  0.15602670111E+04  0.11853403481E+04  0.23578875285E+03  0.19735965426E+04  0.46999998093E+01 0. -1.
</event>
<event>
 5   0  0.8329875E-09  0.3996922E+04  0.7818609E-02  0.8005168E-01
        1   -1    0    0  501    0  0.00000000000E+00  0.00000000000E+00  0.26136030618E+04  0.26136030618E+04  0.50400001928E-02 0.  1.
       -1   -1    0    0    0  501  0.00000000000E+00  0.00000000000E+00 -0.15280996596E+04  0.15280996597E+04  0.50400001928E-02 0. -1.
    10030    2    1    2    0    0  0.00000000000E+00  0.00000000000E+00  0.10855034022E+04  0.41417027215E+04  0.39969217902E+04 0.  0.
        2    1    3    3  502    0  0.14822860162E+03 -0.98436958283E+03  0.23384072816E+04  0.25414766984E+04  0.25500000920E-02 0.  1.
       -2    1    3    3    0  502 -0.14822860162E+03  0.98436958283E+03 -0.12529038794E+04  0.16002260231E+04  0.25500000920E-02 0. -1.
</event>
<event>
 5   0  0.8329875E-09  0.3998311E+04  0.7818609E-02  0.8004887E-01
        1   -1    0    0  501    0  0.00000000000E+00  0.00000000000E+00  0.13527765811E+04  0.13527765811E+04  0.50400001928E-02 0.  1.
       -1   -1    0    0    0  501  0.00000000000E+00  0.00000000000E+00 -0.29543847810E+04  0.29543847810E+04  0.50400001928E-02 0. -1.
    10030    2    1    2    0    0  0.00000000000E+00  0.00000000000E+00 -0.16016081999E+04  0.43071613621E+04  0.39983109150E+04 0.  0.
        1    1    3    3  502    0  0.13574947743E+04  0.10935945390E+04 -0.18551192926E+04  0.25456253982E+04  0.50400001928E-02 0.  1.
       -1    1    3    3    0  502 -0.13574947743E+04 -0.10935945390E+04  0.25351109273E+03  0.17615359639E+04  0.50400001928E-02 0. -1.
</event>
<event>
 5   0  0.2599332E-08  0.4000065E+04  0.7818609E-02  0.8004533E-01
       -2   -1    0    0    0  501  0.00000000000E+00  0.00000000000E+00  0.12952799057E+04  0.12952799057E+04  0.25500000920E-02 0. -1.
        2   -1    0    0  501    0  0.00000000000E+00  0.00000000000E+00 -0.30882365466E+04  0.30882365466E+04  0.25500000920E-02 0.  1.
    10030    2    1    2    0    0  0.00000000000E+00  0.00000000000E+00 -0.17929566409E+04  0.43835164524E+04  0.40000653709E+04 0.  0.
        2    1    3    3  502    0  0.35134994908E+03 -0.15645239992E+04 -0.22064558845E+04  0.27275684595E+04  0.25500000920E-02 0.  1.
       -2    1    3    3    0  502 -0.35134994908E+03  0.15645239992E+04  0.41349924361E+03  0.16559479929E+04  0.25500000920E-02 0. -1.
</event>
<event>
 5   0  0.8329875E-09  0.3999609E+04  0.7818609E-02  0.8004625E-01
        1   -1    0    0  501    0  0.00000000000E+00  0.00000000000E+00  0.27494937368E+04  0.27494937368E+04  0.50400001928E-02 0.  1.
       -1   -1    0    0    0  501  0.00000000000E+00  0.00000000000E+00 -0.14545290855E+04  0.14545290855E+04  0.50400001928E-02 0. -1.
    10030    2    1    2    0    0  0.00000000000E+00  0.00000000000E+00  0.12949646513E+04  0.42040228223E+04  0.39996092862E+04 0.  0.
        3    1    3    3  502    0  0.77934368831E+03  0.33097405508E+03  0.25517873517E+04  0.26885942625E+04  0.10100000352E+00 0.  1.
       -3    1    3    3    0  502 -0.77934368831E+03 -0.33097405508E+03 -0.12568227004E+04  0.15154285599E+04  0.10100000352E+00 0. -1.
</event>
<event>
 5   0  0.8329875E-09  0.4000602E+04  0.7818609E-02  0.8004425E-01
        1   -1    0    0  501    0  0.00000000000E+00  0.00000000000E+00  0.14558314740E+04  0.14558314740E+04  0.50400001928E-02 0.  1.
       -1   -1    0    0    0  501  0.00000000000E+00  0.00000000000E+00 -0.27483976688E+04  0.27483976688E+04  0.50400001928E-02 0. -1.
    10030    2    1    2    0    0  0.00000000000E+00  0.00000000000E+00 -0.12925661948E+04  0.42042291428E+04  0.40006018694E+04 0.  0.
        3    1    3    3  502    0  0.35262481900E+03  0.30349735606E+03 -0.26907476314E+04  0.27306734946E+04  0.10100000352E+00 0. -1.
       -3    1    3    3    0  502 -0.35262481900E+03 -0.30349735606E+03  0.13981814367E+04  0.14735556481E+04  0.10100000352E+00 0.  1.
</event>
<event>
 5   0  0.2599332E-08  0.4002722E+04  0.7818609E-02  0.8003998E-01
        2   -1    0    0  501    0  0.00000000000E+00  0.00000000000E+00  0.24688983217E+04  0.24688983217E+04  0.25500000920E-02 0.  1.
       -2   -1    0    0    0  501  0.00000000000E+00  0.00000000000E+00 -0.16223612438E+04  0.16223612438E+04  0.25500000920E-02 0. -1.
    10030    2    1    2    0    0  0.00000000000E+00  0.00000000000E+00  0.84653707792E+03  0.40912595654E+04  0.40027215501E+04 0.  0.
        2    1    3    3  502    0 -0.15738378686E+04  0.56017171129E+03 -0.70323832059E+03  0.18125402390E+04  0.25500000920E-02 0. -1.
       -2    1    3    3    0  502  0.15738378686E+04 -0.56017171129E+03  0.15497753985E+04  0.22787193264E+04  0.25500000920E-02 0.  1.
</event>
<event>
 5   0  0.8329875E-09  0.3998642E+04  0.7818609E-02  0.8004821E-01
       -1   -1    0    0    0  501  0.00000000000E+00  0.00000000000E+00  0.20124118027E+04  0.20124118027E+04  0.50400001928E-02 0.  1.
        1   -1    0    0  501    0  0.00000000000E+00  0.00000000000E+00 -0.19863154754E+04  0.19863154754E+04  0.50400001928E-02 0. -1.
    10030    2    1    2    0    0  0.00000000000E+00  0.00000000000E+00  0.26096327246E+02  0.39987272781E+04  0.39986421228E+04 0.  0.
        5    1    3    3  502    0 -0.75479973930E+03 -0.13727550762E+03  0.18593527404E+04  0.20114129150E+04  0.46999998093E+01 0.  1.
       -5    1    3    3    0  502  0.75479973930E+03  0.13727550762E+03 -0.18332564132E+04  0.19873143631E+04  0.46999998093E+01 0. -1.
</event>
<event>
 5   0  0.2650452E-08  0.4001340E+04  0.7818609E-02  0.8004276E-01
        2   -1    0    0  501    0  0.00000000000E+00  0.00000000000E+00  0.23444623134E+04  0.23444623134E+04  0.25500000920E-02 0.  1.
       -2   -1    0    0    0  501  0.00000000000E+00  0.00000000000E+00 -0.17072915777E+04  0.17072915777E+04  0.25500000920E-02 0. -1.
    10030    2    1    2    0    0  0.00000000000E+00  0.00000000000E+00  0.63717073567E+03  0.40517538912E+04  0.40013401565E+04 0.  0.
        3    1    3    3  502    0  0.17848578334E+04  0.86660036450E+03  0.58508816106E+02  0.19849778258E+04  0.10100000352E+00 0. -1.
       -3    1    3    3    0  502 -0.17848578334E+04 -0.86660036450E+03  0.57866191957E+03  0.20667760654E+04  0.10100000352E+00 0.  1.
</event>
<event>
 5   0  0.2650452E-08  0.4008017E+04  0.7818609E-02  0.8002931E-01
       -2   -1    0    0    0  501  0.00000000000E+00  0.00000000000E+00  0.26489484289E+04  0.26489484289E+04  0.25500000920E-02 0.  1.
        2   -1    0    0  501    0  0.00000000000E+00  0.00000000000E+00 -0.15160922132E+04  0.15160922132E+04  0.25500000920E-02 0. -1.
    10030    2    1    2    0    0  0.00000000000E+00  0.00000000000E+00  0.11328562158E+04  0.41650406421E+04  0.40080170091E+04 0.  0.
        3    1    3    3  502    0 -0.52418764885E+03  0.12637216849E+04  0.20881347284E+04  0.24964117934E+04  0.10100000352E+00 0.  1.
       -3    1    3    3    0  502  0.52418764885E+03 -0.12637216849E+04 -0.95527851260E+03  0.16686288488E+04  0.10100000352E+00 0. -1.
</event>
<event>
 5   0  0.2599332E-08  0.3994865E+04  0.7818609E-02  0.8005583E-01
       -2   -1    0    0    0  501  0.00000000000E+00  0.00000000000E+00  0.26428332852E+04  0.26428332852E+04  0.25500000920E-02 0.  1.
        2   -1    0    0  501    0  0.00000000000E+00  0.00000000000E+00 -0.15096439387E+04  0.15096439387E+04  0.25500000920E-02 0. -1.
    10030    2    1    2    0    0  0.00000000000E+00  0.00000000000E+00  0.11331893465E+04  0.41524772238E+04  0.39948653293E+04 0.  0.
        2    1    3    3  502    0  0.10319328435E+04  0.45401303387E+03 -0.11473140052E+04  0.16085218851E+04  0.25500000920E-02 0. -1.
       -2    1    3    3    0  502 -0.10319328435E+04 -0.45401303387E+03  0.22805033517E+04  0.25439553387E+04  0.25500000920E-02 0.  1.
</event>
<event>
 5   0  0.8329875E-09  0.4019826E+04  0.7818609E-02  0.8000559E-01
        1   -1    0    0  501    0  0.00000000000E+00  0.00000000000E+00  0.20389064058E+04  0.20389064058E+04  0.50400001928E-02 0. -1.
       -1   -1    0    0    0  501  0.00000000000E+00  0.00000000000E+00 -0.19813319608E+04  0.19813319608E+04  0.50400001928E-02 0.  1.
    10030    2    1    2    0    0  0.00000000000E+00  0.00000000000E+00  0.57574445030E+02  0.40202383666E+04  0.40198260793E+04 0.  0.
        4    1    3    3  502    0 -0.88989020934E+03 -0.17311440129E+04  0.52982227357E+03  0.20172945825E+04  0.12699999809E+01 0.  1.
       -4    1    3    3    0  502  0.88989020934E+03  0.17311440129E+04 -0.47224782854E+03  0.20029437842E+04  0.12699999809E+01 0. -1.
</event>
<event>
 5   0  0.2746876E-08  0.4001436E+04  0.7818609E-02  0.8004257E-01
        2   -1    0    0  501    0  0.00000000000E+00  0.00000000000E+00  0.26501907956E+04  0.26501907956E+04  0.25500000920E-02 0. -1.
       -2   -1    0    0    0  501  0.00000000000E+00  0.00000000000E+00 -0.15104095138E+04  0.15104095138E+04  0.25500000920E-02 0.  1.
    10030    2    1    2    0    0  0.00000000000E+00  0.00000000000E+00  0.11397812818E+04  0.41606003094E+04  0.40014364376E+04 0.  0.
        1    1    3    3  502    0 -0.21496389656E+03 -0.10651606949E+04 -0.11768402984E+04  0.16017895838E+04  0.50400001928E-02 0.  1.
       -1    1    3    3    0  502  0.21496389656E+03  0.10651606949E+04  0.23166215803E+04  0.25588107255E+04  0.50400001928E-02 0. -1.
</event>
<event>
 5   0  0.2599332E-08  0.4004823E+04  0.7818609E-02  0.8003574E-01
        2   -1    0    0  501    0  0.00000000000E+00  0.00000000000E+00  0.32411355507E+04  0.32411355507E+04  0.25500000920E-02 0.  1.
       -2   -1    0    0    0  501  0.00000000000E+00  0.00000000000E+00 -0.12371134017E+04  0.12371134017E+04  0.25500000920E-02 0. -1.
    10030    2    1    2    0    0  0.00000000000E+00  0.00000000000E+00  0.20040221490E+04  0.44782489525E+04  0.40048232054E+04 0.  0.
        2    1    3    3  502    0  0.17186075892E+04 -0.12813005499E+03  0.21421631879E+04  0.27493440091E+04  0.25500000920E-02 0.  1.
       -2    1    3    3    0  502 -0.17186075892E+04  0.12813005499E+03 -0.13814103886E+03  0.17289049434E+04  0.25500000920E-02 0. -1.
</event>
<event>
 5   0  0.2612363E-08  0.4007095E+04  0.7818609E-02  0.8003117E-01
        2   -1    0    0  501    0  0.00000000000E+00  0.00000000000E+00  0.20524449089E+04  0.20524449089E+04  0.25500000920E-02 0.  1.
       -2   -1    0    0    0  501  0.00000000000E+00  0.00000000000E+00 -0.19558151628E+04  0.19558151628E+04  0.25500000920E-02 0. -1.
    10030    2    1    2    0    0  0.00000000000E+00  0.00000000000E+00  0.96629746106E+02  0.40082600716E+04  0.40070951441E+04 0.  0.
        4    1    3    3  502    0 -0.13085403709E+03 -0.76849472626E+03 -0.17978907686E+04  0.19596223494E+04  0.12699999809E+01 0. -1.
       -4    1    3    3    0  502  0.13085403709E+03  0.76849472626E+03  0.18945205147E+04  0.20486377222E+04  0.12699999809E+01 0.  1.
</event>
<event>
 5   0  0.2650452E-08  0.3974521E+04  0.7818609E-02  0.8009706E-01
        2   -1    0    0  501    0  0.00000000000E+00  0.00000000000E+00  0.30370332687E+04  0.30370332687E+04  0.25500000920E-02 0.  1.
       -2   -1    0    0    0  501  0.00000000000E+00  0.00000000000E+00 -0.13003493829E+04  0.13003493829E+04  0.25500000920E-02 0. -1.
    10030    2    1    2    0    0  0.00000000000E+00  0.00000000000E+00  0.17366838858E+04  0.43373826516E+04  0.39745210211E+04 0.  0.
        3    1    3    3  502    0 -0.13146848976E+04  0.76492759917E+03  0.22640479002E+04  0.27275306628E+04  0.10100000352E+00 0.  1.
       -3    1    3    3    0  502  0.13146848976E+04 -0.76492759917E+03 -0.52736401440E+03  0.16098519888E+04  0.10100000352E+00 0. -1.
</event>
<event>
 5   0  0.8329875E-09  0.3991770E+04  0.7818609E-02  0.8006209E-01
       -1   -1    0    0    0  501  0.00000000000E+00  0.00000000000E+00  0.20078184560E+04  0.20078184560E+04  0.50400001928E-02 0. -1.
        1   -1    0    0  501    0  0.00000000000E+00  0.00000000000E+00 -0.19840224320E+04  0.19840224320E+04  0.50400001928E-02 0.  1.
    10030    2    1    2    0    0  0.00000000000E+00  0.00000000000E+00  0.23796023966E+02  0.39918408881E+04  0.39917699614E+04 0.  0.
        2    1    3    3  502    0  0.15950959733E+04 -0.94458299689E+03 -0.72770194234E+03  0.19915115663E+04  0.25500000920E-02 0.  1.
       -2    1    3    3    0  502 -0.15950959733E+04  0.94458299689E+03  0.75149796631E+03  0.20003293217E+04  0.25500000920E-02 0. -1.
</event>
<event>
 5   0  0.2746876E-08  0.3998081E+04  0.7818609E-02  0.8004934E-01
       -2   -1    0    0    0  501  0.00000000000E+00  0.00000000000E+00  0.23328173889E+04  0.23328173889E+04  0.25500000920E-02 0.  1.
        2   -1    0    0  501    0  0.00000000000E+00  0.00000000000E+00 -0.17130197397E+04  0.17130197398E+04  0.25500000920E-02 0. -1.
    10030    2    1    2    0    0  0.00000000000E+00  0.00000000000E+00  0.61979764915E+03  0.40458371287E+04  0.39980806577E+04 0.  0.
        1    1    3    3  502    0  0.14796978826E+04  0.11011419831E+04 -0.47011489896E+03  0.19034252044E+04  0.50400001928E-02 0. -1.
       -1    1    3    3    0  502 -0.14796978826E+04 -0.11011419831E+04  0.10899125481E+04  0.21424119242E+04  0.50400001928E-02 0.  1.
</event>
<event>
 5   0  0.2612363E-08  0.4036495E+04  0.7818609E-02  0.7997225E-01
       -2   -1    0    0    0  501  0.00000000000E+00  0.00000000000E+00  0.21392521941E+04  0.21392521941E+04  0.25500000920E-02 0.  1.
        2   -1    0    0  501    0  0.00000000000E+00  0.00000000000E+00 -0.19040876010E+04  0.19040876010E+04  0.25500000920E-02 0. -1.
    10030    2    1    2    0    0  0.00000000000E+00  0.00000000000E+00  0.23516459311E+03  0.40433397952E+04  0.40364953008E+04 0.  0.
        4    1    3    3  502    0  0.43499484333E+03 -0.12588028786E+04 -0.14014047805E+04  0.19333241250E+04  0.12699999809E+01 0. -1.
       -4    1    3    3    0  502 -0.43499484333E+03  0.12588028786E+04  0.16365693736E+04  0.21100156701E+04  0.12699999809E+01 0.  1.
</event>
<event>
 5   0  0.8329875E-09  0.3997216E+04  0.7818609E-02  0.8005108E-01
        1   -1    0    0  501    0  0.00000000000E+00  0.00000000000E+00  0.21800410886E+04  0.21800410887E+04  0.50400001928E-02 0.  1.
       -1   -1    0    0    0  501  0.00000000000E+00  0.00000000000E+00 -0.18322742955E+04  0.18322742955E+04  0.50400001928E-02 0. -1.
    10030    2    1    2    0    0  0.00000000000E+00  0.00000000000E+00  0.34776679313E+03  0.40123153842E+04  0.39972156559E+04 0.  0.
        1    1    3    3  502    0 -0.12135004652E+04 -0.15545920083E+03  0.17602592180E+04  0.21436565623E+04  0.50400001928E-02 0.  1.
       -1    1    3    3    0  502  0.12135004652E+04  0.15545920083E+03 -0.14124924249E+04  0.18686588219E+04  0.50400001928E-02 0. -1.
</event>
<event>
 5   0  0.8329875E-09  0.4015985E+04  0.7818609E-02  0.8001330E-01
       -1   -1    0    0    0  501  0.00000000000E+00  0.00000000000E+00  0.25653166019E+04  0.25653166019E+04  0.50400001928E-02 0. -1.
        1   -1    0    0  501    0  0.00000000000E+00  0.00000000000E+00 -0.15717493232E+04  0.15717493232E+04  0.50400001928E-02 0.  1.
    10030    2    1    2    0    0  0.00000000000E+00  0.00000000000E+00  0.99356727866E+03  0.41370659251E+04  0.40159853749E+04 0.  0.
        2    1    3    3  502    0 -0.18212214817E+04  0.30563616289E+03  0.13090835724E+04  0.22636167849E+04  0.25500000920E-02 0. -1.
       -2    1    3    3    0  502  0.18212214817E+04 -0.30563616289E+03 -0.31551629375E+03  0.18734491402E+04  0.25500000920E-02 0.  1.
</event>
<event>
 5   0  0.8329875E-09  0.3997707E+04  0.7818609E-02  0.8005009E-01
        1   -1    0    0  501    0  0.00000000000E+00  0.00000000000E+00  0.20383673637E+04  0.20383673637E+04  0.50400001928E-02 0.  1.
       -1   -1    0    0    0  501  0.00000000000E+00  0.00000000000E+00 -0.19601055566E+04  0.19601055566E+04  0.50400001928E-02 0. -1.
    10030    2    1    2    0    0  0.00000000000E+00  0.00000000000E+00  0.78261807077E+02  0.39984729203E+04  0.39977069407E+04 0.  0.
        5    1    3    3  502    0  0.39285296925E+03  0.17459328204E+04 -0.85142064821E+03  0.19818057622E+04  0.46999998093E+01 0. -1.
       -5    1    3    3    0  502 -0.39285296925E+03 -0.17459328204E+04  0.92968245528E+03  0.20166671581E+04  0.46999998093E+01 0.  1.
</event>
<event>
 5   0  0.8329875E-09  0.4007712E+04  0.7818609E-02  0.8002993E-01
       -1   -1    0    0    0  501  0.00000000000E+00  0.00000000000E+00  0.15481822325E+04  0.15481822325E+04  0.50400001928E-02 0. -1.
        1   -1    0    0  501    0  0.00000000000E+00  0.00000000000E+00 -0.25936478169E+04  0.25936478169E+04  0.50400001928E-02 0.  1.
    10030    2    1    2    0    0  0.00000000000E+00  0.00000000000E+00 -0.10454655844E+04  0.41418300494E+04  0.40077122988E+04 0.  0.
        3    1    3    3  502    0  0.78030927820E+03  0.37925352904E+03  0.13440160158E+04  0.15997171218E+04  0.10100000352E+00 0. -1.
       -3    1    3    3    0  502 -0.78030927820E+03 -0.37925352904E+03 -0.23894816002E+04  0.25421129276E+04  0.10100000352E+00 0.  1.
</event>
<event>
 5   0  0.2612363E-08  0.4000946E+04  0.7818609E-02  0.8004356E-01
        2   -1    0    0  501    0  0.00000000000E+00  0.00000000000E+00  0.17747831057E+04  0.17747831057E+04  0.25500000920E-02 0. -1.
       -2   -1    0    0    0  501  0.00000000000E+00  0.00000000000E+00 -0.22548621832E+04  0.22548621832E+04  0.25500000920E-02 0.  1.
    10030    2    1    2    0    0  0.00000000000E+00  0.00000000000E+00 -0.48007907754E+03  0.40296452889E+04  0.40009455424E+04 0.  0.
        4    1    3    3  502    0 -0.28155398296E+03 -0.17483638823E+04  0.69714086356E+03  0.19031699627E+04  0.12699999809E+01 0. -1.
       -4    1    3    3    0  502  0.28155398296E+03  0.17483638823E+04 -0.11772199411E+04  0.21264753262E+04  0.12699999809E+01 0.  1.
</event>
<event>
 5   0  0.8329875E-09  0.4001655E+04  0.7818609E-02  0.8004213E-01
       -1   -1    0    0    0  501  0.00000000000E+00  0.00000000000E+00  0.24933557824E+04  0.24933557824E+04  0.50400001928E-02 0. -1.
        1   -1    0    0  501    0  0.00000000000E+00  0.00000000000E+00 -0.16055913480E+04  0.16055913480E+04  0.50400001928E-02 0.  1.
    10030    2    1    2    0    0  0.00000000000E+00  0.00000000000E+00  0.88776443436E+03  0.40989471304E+04  0.40016548936E+04 0.  0.
        1    1    3    3  502    0  0.68929727191E+03 -0.77020553603E+03  0.21987080255E+04  0.24295399314E+04  0.50400001928E-02 0. -1.
       -1    1    3    3    0  502 -0.68929727191E+03  0.77020553603E+03 -0.13109435912E+04  0.16694071990E+04  0.50400001928E-02 0.  1.
</event>
<event>
 5   0  0.2587493E-08  0.3995526E+04  0.7818609E-02  0.8005450E-01
       -2   -1    0    0    0  501  0.00000000000E+00  0.00000000000E+00  0.14899458931E+04  0.14899458931E+04  0.25500000920E-02 0. -1.
        2   -1    0    0  501    0  0.00000000000E+00  0.00000000000E+00 -0.26786588988E+04  0.26786588988E+04  0.25500000920E-02 0.  1.
    10030    2    1    2    0    0  0.00000000000E+00  0.00000000000E+00 -0.11887130058E+04  0.41686047919E+04  0.39955259104E+04 0.  0.
        5    1    3    3  502    0  0.21133631883E+03  0.14990689891E+04 -0.19543423957E+04  0.24721139058E+04  0.46999998093E+01 0.  1.
       -5    1    3    3    0  502 -0.21133631883E+03 -0.14990689891E+04  0.76562938993E+03  0.16964908861E+04  0.46999998093E+01 0. -1.
</event>
<event>
 5   0  0.2587493E-08  0.3975479E+04  0.7818609E-02  0.8009512E-01
        2   -1    0    0  501    0  0.00000000000E+00  0.00000000000E+00  0.17179813462E+04  0.17179813462E+04  0.25500000920E-02 0. -1.
       -2   -1    0    0    0  501  0.00000000000E+00  0.00000000000E+00 -0.22998550856E+04  0.22998550856E+04  0.25500000920E-02 0.  1.
    10030    2    1    2    0    0  0.00000000000E+00  0.00000000000E+00 -0.58187373944E+03  0.40178364318E+04  0.39754789075E+04 0.  0.
        5    1    3    3  502    0  0.47043733154E+03  0.78256373871E+03 -0.20753560723E+04  0.22673425425E+04  0.46999998093E+01 0.  1.
       -5    1    3    3    0  502 -0.47043733154E+03 -0.78256373871E+03  0.14934823329E+04  0.17504938893E+04  0.46999998093E+01 0. -1.
</event>
<event>
 5   0  0.2587493E-08  0.3987567E+04  0.7818609E-02  0.8007059E-01
        2   -1    0    0  501    0  0.00000000000E+00  0.00000000000E+00  0.23517301349E+04  0.23517301349E+04  0.25500000920E-02 0.  1.
       -2   -1    0    0    0  501  0.00000000000E+00  0.00000000000E+00 -0.16903183378E+04  0.16903183378E+04  0.25500000920E-02 0. -1.
    10030    2    1    2    0    0  0.00000000000E+00  0.00000000000E+00  0.66141179712E+03  0.40420484727E+04  0.39875669638E+04 0.  0.
        5    1    3    3  502    0 -0.15613603033E+04  0.12072056046E+04  0.44072023720E+02  0.19741215266E+04  0.46999998093E+01 0. -1.
       -5    1    3    3    0  502  0.15613603033E+04 -0.12072056046E+04  0.61733977339E+03  0.20679269461E+04  0.46999998093E+01 0.  1.
</event>
<event>
 5   0  0.2599332E-08  0.4002119E+04  0.7818609E-02  0.8004119E-01
        2   -1    0    0  501    0  0.00000000000E+00  0.00000000000E+00  0.14155483343E+04  0.14155483343E+04  0.25500000920E-02 0.  1.
       -2   -1    0    0    0  501  0.00000000000E+00  0.00000000000E+00 -0.28287550655E+04  0.28287550655E+04  0.25500000920E-02 0. -1.
    10030    2    1    2    0    0  0.00000000000E+00  0.00000000000E+00 -0.14132067312E+04  0.42443033998E+04  0.40021191992E+04 0.  0.
        2    1    3    3  502    0 -0.13553852677E+04  0.85321151915E+03 -0.19788667768E+04  0.25457715610E+04  0.25500000920E-02 0. -1.
       -2    1    3    3    0  502  0.13553852677E+04 -0.85321151915E+03  0.56566004568E+03  0.16985318388E+04  0.25500000920E-02 0.  1.
</event>
<event>
 5   0  0.8329875E-09  0.3989680E+04  0.7818609E-02  0.8006632E-01
        1   -1    0    0  501    0  0.00000000000E+00  0.00000000000E+00  0.16516366716E+04  0.16516366716E+04  0.50400001928E-02 0. -1.
       -1   -1    0    0    0  501  0.00000000000E+00  0.00000000000E+00 -0.24093594590E+04  0.24093594590E+04  0.50400001928E-02 0.  1.
    10030    2    1    2    0    0  0.00000000000E+00  0.00000000000E+00 -0.75772278740E+03  0.40609961306E+04  0.39896799057E+04 0.  0.
        4    1    3    3  502    0 -0.11087708161E+04  0.13067725959E+04 -0.14180703163E+04  0.22243993290E+04  0.12699999809E+01 0.  1.
       -4    1    3    3    0  502  0.11087708161E+04 -0.13067725959E+04  0.66034752893E+03  0.18365968016E+04  0.12699999809E+01 0. -1.
</event>
<event>
 5   0  0.2746876E-08  0.4003643E+04  0.7818609E-02  0.8003812E-01
        2   -1    0    0  501    0  0.00000000000E+00  0.00000000000E+00  0.30103645508E+04  0.30103645508E+04  0.25500000920E-02 0.  1.
       -2   -1    0    0    0  501  0.00000000000E+00  0.00000000000E+00 -0.13311641734E+04  0.13311641734E+04  0.25500000920E-02 0. -1.
    10030    2    1    2    0    0  0.00000000000E+00  0.00000000000E+00  0.16792003774E+04  0.43415287241E+04  0.40036430604E+04 0.  0.
        1    1    3    3  502    0  0.14197653776E+04  0.13007990410E+04  0.24617022034E+03  0.19412397199E+04  0.50400001928E-02 0.  1.
       -1    1    3    3    0  502 -0.14197653776E+04 -0.13007990410E+04  0.14330301571E+04  0.24002890042E+04  0.50400001928E-02 0. -1.
</event>
<event>
 5   0  0.2587493E-08  0.4004799E+04  0.7818609E-02  0.8003579E-01
       -2   -1    0    0    0  501  0.00000000000E+00  0.00000000000E+00  0.19921116585E+04  0.19921116585E+04  0.25500000920E-02 0. -1.
        2   -1    0    0  501    0  0.00000000000E+00  0.00000000000E+00 -0.20127400547E+04  0.20127400547E+04  0.25500000920E-02 0.  1.
    10030    2    1    2    0    0  0.00000000000E+00  0.00000000000E+00 -0.20628396168E+02  0.40048517132E+04  0.40047985859E+04 0.  0.
        5    1    3    3  502    0 -0.39822277556E+03 -0.38727078654E+03 -0.19341434506E+04  0.20123352152E+04  0.46999998093E+01 0.  1.
       -5    1    3    3    0  502  0.39822277556E+03  0.38727078654E+03  0.19135150544E+04  0.19925164979E+04  0.46999998093E+01 0. -1.
</event>
<event>
 5   0  0.2612363E-08  0.3996894E+04  0.7818609E-02  0.8005173E-01
       -2   -1    0    0    0  501  0.00000000000E+00  0.00000000000E+00  0.18560109565E+04  0.18560109565E+04  0.25500000920E-02 0. -1.
        2   -1    0    0  501    0  0.00000000000E+00  0.00000000000E+00 -0.21518144737E+04  0.21518144737E+04  0.25500000920E-02 0.  1.
    10030    2    1    2    0    0  0.00000000000E+00  0.00000000000E+00 -0.29580351713E+03  0.40078254302E+04  0.39968944142E+04 0.  0.
        4    1    3    3  502    0  0.50811900038E+02  0.18769114912E+04 -0.83417912868E+03  0.20545644372E+04  0.12699999809E+01 0. -1.
       -4    1    3    3    0  502 -0.50811900038E+02 -0.18769114912E+04  0.53837561155E+03  0.19532609930E+04  0.12699999809E+01 0.  1.
</event>
<event>
 5   0  0.2650452E-08  0.3996295E+04  0.7818609E-02  0.8005294E-01
       -2   -1    0    0    0  501  0.00000000000E+00  0.00000000000E+00  0.14149513984E+04  0.14149513984E+04  0.25500000920E-02 0.  1.
        2   -1    0    0  501    0  0.00000000000E+00  0.00000000000E+00 -0.28217176621E+04  0.28217176621E+04  0.25500000920E-02 0. -1.
    10030    2    1    2    0    0  0.00000000000E+00  0.00000000000E+00 -0.14067662636E+04  0.42366690605E+04  0.39962949601E+04 0.  0.
        3    1    3    3  502    0  0.83138318925E+02  0.64024527247E+03 -0.27080934855E+04  0.27839892825E+04  0.10100000352E+00 0. -1.
       -3    1    3    3    0  502 -0.83138318925E+02 -0.64024527247E+03  0.13013272218E+04  0.14526797780E+04  0.10100000352E+00 0.  1.
</event>
<event>
 5   0  0.2587493E-08  0.3987101E+04  0.7818609E-02  0.8007154E-01
        2   -1    0    0  501    0  0.00000000000E+00  0.00000000000E+00  0.19193575690E+04  0.19193575690E+04  0.25500000920E-02 0. -1.
       -2   -1    0    0    0  501  0.00000000000E+00  0.00000000000E+00 -0.20706113702E+04  0.20706113702E+04  0.25500000920E-02 0.  1.
    10030    2    1    2    0    0  0.00000000000E+00  0.00000000000E+00 -0.15125380126E+03  0.39899689392E+04  0.39871010049E+04 0.  0.
        5    1    3    3  502    0 -0.93214000485E+03  0.13808672888E+04 -0.11711938352E+04  0.20365157862E+04  0.46999998093E+01 0.  1.
       -5    1    3    3    0  502  0.93214000485E+03 -0.13808672888E+04  0.10199400339E+04  0.19534531529E+04  0.46999998093E+01 0. -1.
</event>
<event>
 5   0  0.8329875E-09  0.3999619E+04  0.7818609E-02  0.8004623E-01
        1   -1    0    0  501    0  0.00000000000E+00  0.00000000000E+00  0.27747015835E+04  0.27747015835E+04  0.50400001928E-02 0.  1.
       -1   -1    0    0    0  501  0.00000000000E+00  0.00000000000E+00 -0.14413217337E+04  0.14413217337E+04  0.50400001928E-02 0. -1.
    10030    2    1    2    0    0  0.00000000000E+00  0.00000000000E+00  0.13333798498E+04  0.42160233171E+04  0.39996188302E+04 0.  0.
        4    1    3    3  502    0 -0.56400899079E+03  0.19756414348E+03 -0.13449962645E+04  0.14717860907E+04  0.12699999809E+01 0. -1.
       -4    1    3    3    0  502  0.56400899079E+03 -0.19756414348E+03  0.26783761143E+04  0.27442372264E+04  0.12699999809E+01 0.  1.
</event>
<event>
 5   0  0.8329875E-09  0.3997027E+04  0.7818609E-02  0.8005147E-01
       -1   -1    0    0    0  501  0.00000000000E+00  0.00000000000E+00  0.18283199182E+04  0.18283199182E+04  0.50400001928E-02 0.  1.
        1   -1    0    0  501    0  0.00000000000E+00  0.00000000000E+00 -0.21845497346E+04  0.21845497346E+04  0.50400001928E-02 0. -1.
    10030    2    1    2    0    0  0.00000000000E+00  0.00000000000E+00 -0.35622981640E+03  0.40128696529E+04  0.39970267911E+04 0.  0.
        3    1    3    3  502    0 -0.50730574005E+03 -0.64898350175E+02 -0.21177365533E+04  0.21786186057E+04  0.10100000352E+00 0. -1.
       -3    1    3    3    0  502  0.50730574005E+03  0.64898350175E+02  0.17615067369E+04  0.18342510472E+04  0.10100000352E+00 0.  1.
</event>
<event>
 5   0  0.8329875E-09  0.3993860E+04  0.7818609E-02  0.8005786E-01
        3   -1    0    0  501    0  0.00000000000E+00  0.00000000000E+00  0.24579971100E+04  0.24579971120E+04  0.10100000352E+00 0.  1.
       -3   -1    0    0    0  501  0.00000000000E+00  0.00000000000E+00 -0.16223494957E+04  0.16223494988E+04  0.10100000352E+00 0. -1.
    10030    2    1    2    0    0  0.00000000000E+00  0.00000000000E+00  0.83564761432E+03  0.40803466108E+04  0.39938604794E+04 0.  0.
        4    1    3    3  502    0  0.16903449787E+04  0.72016699227E+03  0.12169525591E+04  0.22038334301E+04  0.12699999809E+01 0.  1.
       -4    1    3    3    0  502 -0.16903449787E+04 -0.72016699227E+03 -0.38130494476E+03  0.18765131807E+04  0.12699999809E+01 0. -1.
</event>
<event>
 5   0  0.2746876E-08  0.4001467E+04  0.7818609E-02  0.8004251E-01
        2   -1    0    0  501    0  0.00000000000E+00  0.00000000000E+00  0.17903372728E+04  0.17903372728E+04  0.25500000920E-02 0.  1.
       -2   -1    0    0    0  501  0.00000000000E+00  0.00000000000E+00 -0.22358550366E+04  0.22358550366E+04  0.25500000920E-02 0. -1.
    10030    2    1    2    0    0  0.00000000000E+00  0.00000000000E+00 -0.44551776383E+03  0.40261923095E+04  0.40014670353E+04 0.  0.
        1    1    3    3  502    0 -0.43748639227E+03 -0.40793663907E+03 -0.21437778849E+04  0.22256662519E+04  0.50400001928E-02 0. -1.
       -1    1    3    3    0  502  0.43748639227E+03  0.40793663907E+03  0.16982601211E+04  0.18005260576E+04  0.50400001928E-02 0.  1.
</event>
<event>
 5   0  0.2587493E-08  0.3999761E+04  0.7818609E-02  0.8004595E-01
       -2   -1    0    0    0  501  0.00000000000E+00  0.00000000000E+00  0.17733586936E+04  0.17733586936E+04  0.25500000920E-02 0. -1.
        2   -1    0    0  501    0  0.00000000000E+00  0.00000000000E+00 -0.22553375592E+04  0.22553375592E+04  0.25500000920E-02 0.  1.
    10030    2    1    2    0    0  0.00000000000E+00  0.00000000000E+00 -0.48197886560E+03  0.40286962527E+04  0.39997612266E+04 0.  0.
        5    1    3    3  502    0 -0.13767923936E+04  0.28657866122E+03  0.11912025774E+04  0.18430057771E+04  0.46999998093E+01 0. -1.
       -5    1    3    3    0  502  0.13767923936E+04 -0.28657866122E+03 -0.16731814430E+04  0.21856904756E+04  0.46999998093E+01 0.  1.
</event>
<event>
 5   0  0.8329875E-09  0.4008888E+04  0.7818609E-02  0.8002756E-01
       -3   -1    0    0    0  501  0.00000000000E+00  0.00000000000E+00  0.14764448373E+04  0.14764448408E+04  0.10100000352E+00 0. -1.
        3   -1    0    0  501    0  0.00000000000E+00  0.00000000000E+00 -0.27212640908E+04  0.27212640927E+04  0.10100000352E+00 0.  1.
    10030    2    1    2    0    0  0.00000000000E+00  0.00000000000E+00 -0.12448192535E+04  0.41977089335E+04  0.40088882893E+04 0.  0.
        4    1    3    3  502    0 -0.40208732500E+03 -0.10006261131E+04  0.11468084757E+04  0.15741976140E+04  0.12699999809E+01 0.  1.
       -4    1    3    3    0  502  0.40208732500E+03  0.10006261131E+04 -0.23916277292E+04  0.26235113195E+04  0.12699999809E+01 0. -1.
</event>
<event>
 5   0  0.8329875E-09  0.3996130E+04  0.7818609E-02  0.8005328E-01
       -1   -1    0    0    0  501  0.00000000000E+00  0.00000000000E+00  0.18948253729E+04  0.18948253729E+04  0.50400001928E-02 0.  1.
        1   -1    0    0  501    0  0.00000000000E+00  0.00000000000E+00 -0.21069292342E+04  0.21069292342E+04  0.50400001928E-02 0. -1.
    10030    2    1    2    0    0  0.00000000000E+00  0.00000000000E+00 -0.21210386125E+03  0.40017546071E+04  0.39961296135E+04 0.  0.
        1    1    3    3  502    0  0.12140480881E+03  0.93177039962E+03 -0.18718626146E+04  0.20944700650E+04  0.50400001928E-02 0. -1.
       -1    1    3    3    0  502 -0.12140480881E+03 -0.93177039962E+03  0.16597587534E+04  0.19072845421E+04  0.50400001928E-02 0.  1.
</event>
<event>
 5   0  0.2599332E-08  0.3998107E+04  0.7818609E-02  0.8004929E-01
       -2   -1    0    0    0  501  0.00000000000E+00  0.00000000000E+00  0.16014172840E+04  0.16014172840E+04  0.25500000920E-02 0.  1.
        2   -1    0    0  501    0  0.00000000000E+00  0.00000000000E+00 -0.24954239654E+04  0.24954239654E+04  0.25500000920E-02 0. -1.
    10030    2    1    2    0    0  0.00000000000E+00  0.00000000000E+00 -0.89400668136E+03  0.40968412494E+04  0.39981070867E+04 0.  0.
        2    1    3    3  502    0 -0.40348143162E+03 -0.48838054311E+02 -0.24526417584E+04  0.24860880950E+04  0.25500000920E-02 0. -1.
       -2    1    3    3    0  502  0.40348143162E+03  0.48838054311E+02  0.15586350770E+04  0.16107531544E+04  0.25500000920E-02 0.  1.
</event>
<event>
 5   0  0.8329875E-09  0.4000382E+04  0.7818609E-02  0.8004470E-01
       -1   -1    0    0    0  501  0.00000000000E+00  0.00000000000E+00  0.15406264092E+04  0.15406264092E+04  0.50400001928E-02 0.  1.
        1   -1    0    0  501    0  0.00000000000E+00  0.00000000000E+00 -0.25968420638E+04  0.25968420638E+04  0.50400001928E-02 0. -1.
    10030    2    1    2    0    0  0.00000000000E+00  0.00000000000E+00 -0.10562156547E+04  0.41374684730E+04  0.40003817138E+04 0.  0.
        1    1    3    3  502    0 -0.14961214428E+04 -0.12581151298E+04 -0.89877652169E+02  0.19568625511E+04  0.50400001928E-02 0.  1.
       -1    1    3    3    0  502  0.14961214428E+04  0.12581151298E+04 -0.96633800251E+03  0.21806059219E+04  0.50400001928E-02 0. -1.
</event>
<event>
 5   0  0.2612363E-08  0.4004808E+04  0.7818609E-02  0.8003577E-01
        2   -1    0    0  501    0  0.00000000000E+00  0.00000000000E+00  0.13772167414E+04  0.13772167414E+04  0.25500000920E-02 0. -1.
       -2   -1    0    0    0  501  0.00000000000E+00  0.00000000000E+00 -0.29113941984E+04  0.29113941984E+04  0.25500000920E-02 0.  1.
    10030    2    1    2    0    0  0.00000000000E+00  0.00000000000E+00 -0.15341774569E+04  0.42886109398E+04  0.40048075264E+04 0.  0.
        4    1    3    3  502    0  0.19751919845E+04  0.30374718895E+03 -0.63174601567E+03  0.20958889216E+04  0.12699999809E+01 0. -1.
       -4    1    3    3    0  502 -0.19751919845E+04 -0.30374718895E+03 -0.90243144126E+03  0.21927220183E+04  0.12699999809E+01 0.  1.
</event>
<event>
 5   0  0.2746876E-08  0.3997840E+04  0.7818609E-02  0.8004982E-01
       -2   -1    0    0    0  501  0.00000000000E+00  0.00000000000E+00  0.26527526715E+04  0.26527526715E+04  0.25500000920E-02 0.  1.
        2   -1    0    0  501    0  0.00000000000E+00  0.00000000000E+00 -0.15062394508E+04  0.15062394508E+04  0.25500000920E-02 0. -1.
    10030    2    1    2    0    0  0.00000000000E+00  0.00000000000E+00  0.11465132208E+04  0.41589921223E+04  0.39978397801E+04 0.  0.
        1    1    3    3  502    0 -0.15027140206E+03  0.13252841926E+04  0.21221382601E+04  0.25064777039E+04  0.50400001928E-02 0.  1.
       -1    1    3    3    0  502  0.15027140206E+03 -0.13252841926E+04 -0.97562503935E+03  0.16525144183E+04  0.50400001928E-02 0. -1.
</event>
<event>
 5   0  0.2587493E-08  0.3989886E+04  0.7818609E-02  0.8006590E-01
       -2   -1    0    0    0  501  0.00000000000E+00  0.00000000000E+00  0.31413300902E+04  0.31413300902E+04  0.25500000920E-02 0.  1.
        2   -1    0    0  501    0  0.00000000000E+00  0.00000000000E+00 -0.12669147434E+04  0.12669147434E+04  0.25500000920E-02 0. -1.
    10030    2    1    2    0    0  0.00000000000E+00  0.00000000000E+00  0.18744153468E+04  0.44082448336E+04  0.39898859157E+04 0.  0.
        5    1    3    3  502    0  0.34503693806E+03  0.34447477219E+03  0.30744842012E+04  0.31129067687E+04  0.46999998093E+01 0.  1.
       -5    1    3    3    0  502 -0.34503693806E+03 -0.34447477219E+03 -0.12000688543E+04  0.12953380649E+04  0.46999998093E+01 0. -1.
</event>
<event>
 5   0  0.8329875E-09  0.4006334E+04  0.7818609E-02  0.8003270E-01
        1   -1    0    0  501    0  0.00000000000E+00  0.00000000000E+00  0.18985651734E+04  0.18985651734E+04  0.50400001928E-02 0. -1.
       -1   -1    0    0    0  501  0.00000000000E+00  0.00000000000E+00 -0.21135315284E+04  0.21135315284E+04  0.50400001928E-02 0.  1.
    10030    2    1    2    0    0  0.00000000000E+00  0.00000000000E+00 -0.21496635499E+03  0.40120967017E+04  0.40063336619E+04 0.  0.
        1    1    3    3  502    0 -0.13163491878E+04  0.11268619517E+04 -0.11139584017E+04  0.20599748453E+04  0.50400001928E-02 0.  1.
       -1    1    3    3    0  502  0.13163491878E+04 -0.11268619517E+04  0.89899204670E+03  0.19521218565E+04  0.50400001928E-02 0. -1.
</event>
<event>
 5   0  0.2612363E-08  0.4001678E+04  0.7818609E-02  0.8004208E-01
        2   -1    0    0  501    0  0.00000000000E+00  0.00000000000E+00  0.27020759577E+04  0.27020759577E+04  0.25500000920E-02 0.  1.
       -2   -1    0    0    0  501  0.00000000000E+00  0.00000000000E+00 -0.14815852110E+04  0.14815852110E+04  0.25500000920E-02 0. -1.
    10030    2    1    2    0    0  0.00000000000E+00  0.00000000000E+00  0.12204907467E+04  0.41836611686E+04  0.40016775371E+04 0.  0.
        4    1    3    3  502    0 -0.49536247881E+03  0.70514117027E+03  0.24981189462E+04  0.26425760041E+04  0.12699999809E+01 0.  1.
       -4    1    3    3    0  502  0.49536247881E+03 -0.70514117027E+03 -0.12776281994E+04  0.15410851645E+04  0.12699999809E+01 0. -1.
</event>
<event>
 5   0  0.8329875E-09  0.3997243E+04  0.7818609E-02  0.8005103E-01
       -1   -1    0    0    0  501  0.00000000000E+00  0.00000000000E+00  0.22516277581E+04  0.22516277581E+04  0.50400001928E-02 0.  1.
        1   -1    0    0  501    0  0.00000000000E+00  0.00000000000E+00 -0.17740445660E+04  0.17740445660E+04  0.50400001928E-02 0. -1.
    10030    2    1    2    0    0  0.00000000000E+00  0.00000000000E+00  0.47758319216E+03  0.40256723241E+04  0.39972430443E+04 0.  0.
        4    1    3    3  502    0 -0.14003128202E+04 -0.86766824854E+03  0.13785481962E+04  0.21480504944E+04  0.12699999809E+01 0.  1.
       -4    1    3    3    0  502  0.14003128202E+04  0.86766824854E+03 -0.90096500408E+03  0.18776218297E+04  0.12699999809E+01 0. -1.
</event>
<event>
 5   0  0.2612363E-08  0.3997955E+04  0.7818609E-02  0.8004959E-01
       -2   -1    0    0    0  501  0.00000000000E+00  0.00000000000E+00  0.23263842503E+04  0.23263842503E+04  0.25500000920E-02 0.  1.
        2   -1    0    0  501    0  0.00000000000E+00  0.00000000000E+00 -0.17176485778E+04  0.17176485778E+04  0.25500000920E-02 0. -1.
    10030    2    1    2    0    0  0.00000000000E+00  0.00000000000E+00  0.60873567254E+03  0.40440328281E+04  0.39979547766E+04 0.  0.
        4    1    3    3  502    0  0.12305810445E+04 -0.61753468954E+03 -0.11615520732E+04  0.18013560535E+04  0.12699999809E+01 0. -1.
       -4    1    3    3    0  502 -0.12305810445E+04  0.61753468954E+03  0.17702877457E+04  0.22426767746E+04  0.12699999809E+01 0.  1.
</event>
<event>
 5   0  0.8329875E-09  0.3998805E+04  0.7818609E-02  0.8004788E-01
       -1   -1    0    0    0  501  0.00000000000E+00  0.00000000000E+00  0.13309064036E+04  0.13309064036E+04  0.50400001928E-02 0.  1.
        1   -1    0    0  501    0  0.00000000000E+00  0.00000000000E+00 -0.30036751101E+04  0.30036751101E+04  0.50400001928E-02 0. -1.
    10030    2    1    2    0    0  0.00000000000E+00  0.00000000000E+00 -0.16727687066E+04  0.43345815137E+04  0.39988050407E+04 0.  0.
        2    1    3    3  502    0 -0.11606306221E+04  0.13561710645E+04  0.13999878772E+03  0.17904924065E+04  0.25500000920E-02 0.  1.
       -2    1    3    3    0  502  0.11606306221E+04 -0.13561710645E+04 -0.18127674943E+04  0.25440891072E+04  0.25500000920E-02 0. -1.
</event>
<event>
 5   0  0.2746876E-08  0.4005381E+04  0.7818609E-02  0.8003462E-01
       -2   -1    0    0    0  501  0.00000000000E+00  0.00000000000E+00  0.18812460542E+04  0.18812460542E+04  0.25500000920E-02 0. -1.
        2   -1    0    0  501    0  0.00000000000E+00  0.00000000000E+00 -0.21319743285E+04  0.21319743285E+04  0.25500000920E-02 0.  1.
    10030    2    1    2    0    0  0.00000000000E+00  0.00000000000E+00 -0.25072827430E+03  0.40132203826E+04  0.40053805278E+04 0.  0.
        1    1    3    3  502    0 -0.52013114417E+03 -0.15115442172E+03  0.18064616237E+04  0.18859182549E+04  0.50400001928E-02 0. -1.
       -1    1    3    3    0  502  0.52013114417E+03  0.15115442172E+03 -0.20571898980E+04  0.21273021277E+04  0.50400001928E-02 0.  1.
</event>
<event>
 5   0  0.8329875E-09  0.4002343E+04  0.7818609E-02  0.8004074E-01
        1   -1    0    0  501    0  0.00000000000E+00  0.00000000000E+00  0.27157393022E+04  0.27157393022E+04  0.50400001928E-02 0. -1.
       -1   -1    0    0    0  501  0.00000000000E+00  0.00000000000E+00 -0.14746212517E+04  0.14746212517E+04  0.50400001928E-02 0.  1.
    10030    2    1    2    0    0  0.00000000000E+00  0.00000000000E+00  0.12411180506E+04  0.41903605539E+04  0.40023427585E+04 0.  0.
        3    1    3    3  502    0 -0.61134270950E+03  0.17803687000E+04 -0.90487297337E+02  0.18845796820E+04  0.10100000352E+00 0.  1.
       -3    1    3    3    0  502  0.61134270950E+03 -0.17803687000E+04  0.13316053479E+04  0.23057808719E+04  0.10100000352E+00 0. -1.
</event>
<event>
 5   0  0.8329875E-09  0.4004741E+04  0.7818609E-02  0.8003591E-01
        1   -1    0    0  501    0  0.00000000000E+00  0.00000000000E+00  0.20507641585E+04  0.20507641586E+04  0.50400001928E-02 0. -1.
       -1   -1    0    0    0  501  0.00000000000E+00  0.00000000000E+00 -0.19551184688E+04  0.19551184688E+04  0.50400001928E-02 0.  1.
    10030    2    1    2    0    0  0.00000000000E+00  0.00000000000E+00  0.95645689775E+02  0.40058826273E+04  0.40047406316E+04 0.  0.
        1    1    3    3  502    0 -0.10719158349E+04 -0.13450784871E+04  0.10734186828E+04  0.20274287564E+04  0.50400001928E-02 0. -1.
       -1    1    3    3    0  502  0.10719158349E+04  0.13450784871E+04 -0.97777299305E+03  0.19784538710E+04  0.50400001928E-02 0.  1.
</event>
<event>
 5   0  0.8329875E-09  0.3993228E+04  0.7818609E-02  0.8005914E-01
        1   -1    0    0  501    0  0.00000000000E+00  0.00000000000E+00  0.12817731626E+04  0.12817731626E+04  0.50400001928E-02 0.  1.
       -1   -1    0    0    0  501  0.00000000000E+00  0.00000000000E+00 -0.31101200334E+04  0.31101200334E+04  0.50400001928E-02 0. -1.
    10030    2    1    2    0    0  0.00000000000E+00  0.00000000000E+00 -0.18283468708E+04  0.43918931960E+04  0.39932284640E+04 0.  0.
        3    1    3    3  502    0  0.18963758380E+04  0.81373242019E+02 -0.23298071098E+03  0.19123657980E+04  0.10100000352E+00 0. -1.
       -3    1    3    3    0  502 -0.18963758380E+04 -0.81373242019E+02 -0.15953661598E+04  0.24795273980E+04  0.10100000352E+00 0.  1.
</event>
<event>
 5   0  0.2650452E-08  0.3985200E+04  0.7818609E-02  0.8007539E-01
       -2   -1    0    0    0  501  0.00000000000E+00  0.00000000000E+00  0.25344103435E+04  0.25344103435E+04  0.25500000920E-02 0.  1.
        2   -1    0    0  501    0  0.00000000000E+00  0.00000000000E+00 -0.15666186479E+04  0.15666186479E+04  0.25500000920E-02 0. -1.
    10030    2    1    2    0    0  0.00000000000E+00  0.00000000000E+00  0.96779169561E+03  0.41010289914E+04  0.39851998723E+04 0.  0.
        3    1    3    3  502    0  0.15585863557E+04 -0.10349714659E+04  0.11894600408E+04  0.22170188457E+04  0.10100000352E+00 0.  1.
       -3    1    3    3    0  502 -0.15585863557E+04  0.10349714659E+04 -0.22166834524E+03  0.18840101456E+04  0.10100000352E+00 0. -1.
</event>
<event>
 5   0  0.2599332E-08  0.3994915E+04  0.7818609E-02  0.8005573E-01
        2   -1    0    0  501    0  0.00000000000E+00  0.00000000000E+00  0.17119580889E+04  0.17119580889E+04  0.25500000920E-02 0.  1.
       -2   -1    0    0    0  501  0.00000000000E+00  0.00000000000E+00 -0.23305685690E+04  0.23305685690E+04  0.25500000920E-02 0. -1.
    10030    2    1    2    0    0  0.00000000000E+00  0.00000000000E+00 -0.61861048012E+03  0.40425266578E+04  0.39949146240E+04 0.  0.
        2    1    3    3  502    0  0.68236248423E+03 -0.13603466923E+04 -0.16184293726E+04  0.22215929685E+04  0.25500000920E-02 0. -1.
       -2    1    3    3    0  502 -0.68236248423E+03  0.13603466923E+04  0.99981889253E+03  0.18209336894E+04  0.25500000920E-02 0.  1.
</event>
<event>
 5   0  0.8329875E-09  0.3957348E+04  0.7818609E-02  0.8013206E-01
        1   -1    0    0  501    0  0.00000000000E+00  0.00000000000E+00  0.24424360789E+04  0.24424360789E+04  0.50400001928E-02 0.  1.
       -1   -1    0    0    0  501  0.00000000000E+00  0.00000000000E+00 -0.16029700017E+04  0.16029700017E+04  0.50400001928E-02 0. -1.
    10030    2    1    2    0    0  0.00000000000E+00  0.00000000000E+00  0.83946607724E+03  0.40454060806E+04  0.39573484888E+04 0.  0.
        4    1    3    3  502    0 -0.61604260211E+03  0.46147110325E+03  0.22831175569E+04  0.24093757403E+04  0.12699999809E+01 0.  1.
       -4    1    3    3    0  502  0.61604260211E+03 -0.46147110325E+03 -0.14436514796E+04  0.16360303403E+04  0.12699999809E+01 0. -1.
</event>
<event>
 5   0  0.2612363E-08  0.4002665E+04  0.7818609E-02  0.8004009E-01
        2   -1    0    0  501    0  0.00000000000E+00  0.00000000000E+00  0.27080198992E+04  0.27080198992E+04  0.25500000920E-02 0. -1.
       -2   -1    0    0    0  501  0.00000000000E+00  0.00000000000E+00 -0.14790627632E+04  0.14790627632E+04  0.25500000920E-02 0.  1.
    10030    2    1    2    0    0  0.00000000000E+00  0.00000000000E+00  0.12289571359E+04  0.41870826624E+04  0.40026648098E+04 0.  0.
        4    1    3    3  502    0  0.20562002234E+02 -0.10789017095E+04  0.23776259245E+04  0.26110454505E+04  0.12699999809E+01 0. -1.
       -4    1    3    3    0  502 -0.20562002234E+02  0.10789017095E+04 -0.11486687885E+04  0.15760372119E+04  0.12699999809E+01 0.  1.
</event>
<event>
 5   0  0.2587493E-08  0.4000391E+04  0.7818609E-02  0.8004468E-01
       -2   -1    0    0    0  501  0.00000000000E+00  0.00000000000E+00  0.22356080758E+04  0.22356080758E+04  0.25500000920E-02 0. -1.
        2   -1    0    0  501    0  0.00000000000E+00  0.00000000000E+00 -0.17895726172E+04  0.17895726172E+04  0.25500000920E-02 0.  1.
    10030    2    1    2    0    0  0.00000000000E+00  0.00000000000E+00  0.44603545864E+03  0.40251806930E+04  0.40003914785E+04 0.  0.
        5    1    3    3  502    0  0.10225019472E+04  0.15190232302E+04  0.10328773793E+04  0.21023319377E+04  0.46999998093E+01 0. -1.
       -5    1    3    3    0  502 -0.10225019472E+04 -0.15190232302E+04 -0.58684192067E+03  0.19228487553E+04  0.46999998093E+01 0.  1.
</event>
<event>
 5   0  0.8329875E-09  0.4006486E+04  0.7818609E-02  0.8003239E-01
        1   -1    0    0  501    0  0.00000000000E+00  0.00000000000E+00  0.22100226255E+04  0.22100226255E+04  0.50400001928E-02 0.  1.
       -1   -1    0    0    0  501  0.00000000000E+00  0.00000000000E+00 -0.18158101736E+04  0.18158101737E+04  0.50400001928E-02 0. -1.
    10030    2    1    2    0    0  0.00000000000E+00  0.00000000000E+00  0.39421245182E+03  0.40258327991E+04  0.40064855259E+04 0.  0.
        4    1    3    3  502    0  0.34101136554E+03 -0.16771678644E+04  0.12431902277E+04  0.21153496996E+04  0.12699999809E+01 0.  1.
       -4    1    3    3    0  502 -0.34101136554E+03  0.16771678644E+04 -0.84897777584E+03  0.19104830995E+04  0.12699999809E+01 0. -1.
</event>
<event>
 5   0  0.2746876E-08  0.4106807E+04  0.7818609E-02  0.7983340E-01
        2   -1    0    0  501    0  0.00000000000E+00  0.00000000000E+00  0.29409290007E+04  0.29409290007E+04  0.25500000920E-02 0.  1.
       -2   -1    0    0    0  501  0.00000000000E+00  0.00000000000E+00 -0.14337189121E+04  0.14337189121E+04  0.25500000920E-02 0. -1.
    10030    2    1    2    0    0  0.00000000000E+00  0.00000000000E+00  0.15072100886E+04  0.43746479128E+04  0.41068068021E+04 0.  0.
        1    1    3    3  502    0  0.11599390197E+03  0.81422664033E+03 -0.12506052124E+04  0.14968076043E+04  0.50400001928E-02 0. -1.
       -1    1    3    3    0  502 -0.11599390197E+03 -0.81422664033E+03  0.27578153009E+04  0.28778403085E+04  0.50400001928E-02 0.  1.
</event>
<event>
 5   0  0.8329875E-09  0.3981769E+04  0.7818609E-02  0.8008234E-01
        1   -1    0    0  501    0  0.00000000000E+00  0.00000000000E+00  0.23405660681E+04  0.23405660681E+04  0.50400001928E-02 0.  1.
       -1   -1    0    0    0  501  0.00000000000E+00  0.00000000000E+00 -0.16934457201E+04  0.16934457201E+04  0.50400001928E-02 0. -1.
    10030    2    1    2    0    0  0.00000000000E+00  0.00000000000E+00  0.64712034802E+03  0.40340117883E+04  0.39817692503E+04 0.  0.
        1    1    3    3  502    0 -0.42990584876E+03 -0.11457613982E+03 -0.16424351660E+04  0.17016286331E+04  0.50400001928E-02 0. -1.
       -1    1    3    3    0  502  0.42990584876E+03  0.11457613982E+03  0.22895555140E+04  0.23323831551E+04  0.50400001928E-02 0.  1.
</event>
<event>
 5   0  0.2746876E-08  0.3999931E+04  0.7818609E-02  0.8004561E-01
       -2   -1    0    0    0  501  0.00000000000E+00  0.00000000000E+00  0.22480966348E+04  0.22480966348E+04  0.25500000920E-02 0.  1.
        2   -1    0    0  501    0  0.00000000000E+00  0.00000000000E+00 -0.17792211580E+04  0.17792211580E+04  0.25500000920E-02 0. -1.
    10030    2    1    2    0    0  0.00000000000E+00  0.00000000000E+00  0.46887547681E+03  0.40273177927E+04  0.39999305483E+04 0.  0.
        1    1    3    3  502    0  0.11610229294E+04 -0.16251667769E+04  0.13019235272E+03  0.20015222567E+04  0.50400001928E-02 0. -1.
       -1    1    3    3    0  502 -0.11610229294E+04  0.16251667769E+04  0.33868312409E+03  0.20257955361E+04  0.50400001928E-02 0.  1.
</event>
<event>
 5   0  0.8329875E-09  0.4012138E+04  0.7818609E-02  0.8002102E-01
       -1   -1    0    0    0  501  0.00000000000E+00  0.00000000000E+00  0.13898565479E+04  0.13898565479E+04  0.50400001928E-02 0.  1.
        1   -1    0    0  501    0  0.00000000000E+00  0.00000000000E+00 -0.28954878530E+04  0.28954878530E+04  0.50400001928E-02 0. -1.
    10030    2    1    2    0    0  0.00000000000E+00  0.00000000000E+00 -0.15056313052E+04  0.42853444009E+04  0.40121379597E+04 0.  0.
        4    1    3    3  502    0 -0.88915564598E+03  0.14197426971E+04  0.42598772072E+03  0.17285063609E+04  0.12699999809E+01 0.  1.
       -4    1    3    3    0  502  0.88915564598E+03 -0.14197426971E+04 -0.19316190259E+04  0.25568380400E+04  0.12699999809E+01 0. -1.
</event>
<event>
 5   0  0.2599332E-08  0.4006998E+04  0.7818609E-02  0.8003136E-01
        2   -1    0    0  501    0  0.00000000000E+00  0.00000000000E+00  0.18033926174E+04  0.18033926174E+04  0.25500000920E-02 0.  1.
       -2   -1    0    0    0  501  0.00000000000E+00  0.00000000000E+00 -0.22258098468E+04  0.22258098468E+04  0.25500000920E-02 0. -1.
    10030    2    1    2    0    0  0.00000000000E+00  0.00000000000E+00 -0.42241722938E+03  0.40292024642E+04  0.40069984006E+04 0.  0.
        2    1    3    3  502    0 -0.88584323232E+03 -0.15080795899E+04  0.77144079574E+03  0.19115813305E+04  0.25500000920E-02 0.  1.
       -2    1    3    3    0  502  0.88584323232E+03  0.15080795899E+04 -0.11938580251E+04  0.21176211337E+04  0.25500000920E-02 0. -1.
</event>
<event>
 5   0  0.2599332E-08  0.3997051E+04  0.7818609E-02  0.8005142E-01
        2   -1    0    0  501    0  0.00000000000E+00  0.00000000000E+00  0.28189344274E+04  0.28189344274E+04  0.25500000920E-02 0.  1.
       -2   -1    0    0    0  501  0.00000000000E+00  0.00000000000E+00 -0.14168846438E+04  0.14168846438E+04  0.25500000920E-02 0. -1.
    10030    2    1    2    0    0  0.00000000000E+00  0.00000000000E+00  0.14020497836E+04  0.42358190713E+04  0.39970513643E+04 0.  0.
        2    1    3    3  502    0  0.17210456756E+04 -0.18841704097E+03  0.17589607957E+04  0.24680847391E+04  0.25500000920E-02 0.  1.
       -2    1    3    3    0  502 -0.17210456756E+04  0.18841704097E+03 -0.35691101205E+03  0.17677343322E+04  0.25500000920E-02 0. -1.
</event>
<event>
 5   0  0.8329875E-09  0.3995591E+04  0.7818609E-02  0.8005437E-01
       -1   -1    0    0    0  501  0.00000000000E+00  0.00000000000E+00  0.13022580753E+04  0.13022580753E+04  0.50400001928E-02 0. -1.
        1   -1    0    0  501    0  0.00000000000E+00  0.00000000000E+00 -0.30648204726E+04  0.30648204726E+04  0.50400001928E-02 0.  1.
    10030    2    1    2    0    0  0.00000000000E+00  0.00000000000E+00 -0.17625623973E+04  0.43670785479E+04  0.39955911752E+04 0.  0.
        4    1    3    3  502    0  0.16483505549E+04  0.84972041304E+03 -0.16933995591E+04  0.25113120100E+04  0.12699999809E+01 0.  1.
       -4    1    3    3    0  502 -0.16483505549E+04 -0.84972041304E+03 -0.69162838291E+02  0.18557665379E+04  0.12699999809E+01 0. -1.
</event>
<event>
 5   0  0.8329875E-09  0.4055426E+04  0.7818609E-02  0.7993458E-01
        1   -1    0    0  501    0  0.00000000000E+00  0.00000000000E+00  0.19168607124E+04  0.19168607124E+04  0.50400001928E-02 0.  1.
       -1   -1    0    0    0  501  0.00000000000E+00  0.00000000000E+00 -0.21449755589E+04  0.21449755589E+04  0.50400001928E-02 0. -1.
    10030    2    1    2    0    0  0.00000000000E+00  0.00000000000E+00 -0.22811484650E+03  0.40618362712E+04  0.40554256880E+04 0.  0.
        5    1    3    3  502    0 -0.50145308699E+03  0.18482775699E+04  0.55333823209E+03  0.19934368470E+04  0.46999998093E+01 0.  1.
       -5    1    3    3    0  502  0.50145308699E+03 -0.18482775699E+04 -0.78145307859E+03  0.20683994242E+04  0.46999998093E+01 0. -1.
</event>
<event>
 5   0  0.8329875E-09  0.4001014E+04  0.7818609E-02  0.8004342E-01
        1   -1    0    0  501    0  0.00000000000E+00  0.00000000000E+00  0.14675979414E+04  0.14675979414E+04  0.50400001928E-02 0. -1.
       -1   -1    0    0    0  501  0.00000000000E+00  0.00000000000E+00 -0.27269237263E+04  0.27269237263E+04  0.50400001928E-02 0.  1.
    10030    2    1    2    0    0  0.00000000000E+00  0.00000000000E+00 -0.12593257850E+04  0.41945216677E+04  0.40010136950E+04 0.  0.
        2    1    3    3  502    0  0.50374889935E+03 -0.19204266267E+04 -0.37238328208E+03  0.20200174977E+04  0.25500000920E-02 0. -1.
       -2    1    3    3    0  502 -0.50374889935E+03  0.19204266267E+04 -0.88694250288E+03  0.21745041700E+04  0.25500000920E-02 0.  1.
</event>
<event>
 5   0  0.2650452E-08  0.4000873E+04  0.7818609E-02  0.8004371E-01
        2   -1    0    0  501    0  0.00000000000E+00  0.00000000000E+00  0.18849123396E+04  0.18849123396E+04  0.25500000920E-02 0. -1.
       -2   -1    0    0    0  501  0.00000000000E+00  0.00000000000E+00 -0.21230406548E+04  0.21230406548E+04  0.25500000920E-02 0.  1.
    10030    2    1    2    0    0  0.00000000000E+00  0.00000000000E+00 -0.23812831522E+03  0.40079529944E+04  0.40008726687E+04 0.  0.
        3    1    3    3  502    0  0.11896114252E+04 -0.88867114501E+03 -0.14618966471E+04  0.20837594784E+04  0.10100000352E+00 0.  1.
       -3    1    3    3    0  502 -0.11896114252E+04  0.88867114501E+03  0.12237683319E+04  0.19241935160E+04  0.10100000352E+00 0. -1.
</event>
<event>
 5   0  0.8329875E-09  0.3973628E+04  0.7818609E-02  0.8009888E-01
        1   -1    0    0  501    0  0.00000000000E+00  0.00000000000E+00  0.18899742666E+04  0.18899742666E+04  0.50400001928E-02 0. -1.
       -1   -1    0    0    0  501  0.00000000000E+00  0.00000000000E+00 -0.20886160789E+04  0.20886160789E+04  0.50400001928E-02 0.  1.
    10030    2    1    2    0    0  0.00000000000E+00  0.00000000000E+00 -0.19864181236E+03  0.39785903455E+04  0.39736283883E+04 0.  0.
        2    1    3    3  502    0  0.19770619131E+04  0.10938484833E+03 -0.26290113565E+03  0.19974623552E+04  0.25500000920E-02 0. -1.
       -2    1    3    3    0  502 -0.19770619131E+04 -0.10938484833E+03  0.64259323290E+02  0.19811279903E+04  0.25500000920E-02 0.  1.
</event>
<event>
 5   0  0.8329875E-09  0.4002929E+04  0.7818609E-02  0.8003956E-01
        1   -1    0    0  501    0  0.00000000000E+00  0.00000000000E+00  0.20730398304E+04  0.20730398304E+04  0.50400001928E-02 0.  1.
       -1   -1    0    0    0  501  0.00000000000E+00  0.00000000000E+00 -0.19323602483E+04  0.19323602483E+04  0.50400001928E-02 0. -1.
    10030    2    1    2    0    0  0.00000000000E+00  0.00000000000E+00  0.14067958215E+03  0.40054000787E+04  0.40029288085E+04 0.  0.
        1    1    3    3  502    0  0.16909438752E+04  0.17894907906E+03 -0.98603248644E+03  0.19655976257E+04  0.50400001928E-02 0. -1.
       -1    1    3    3    0  502 -0.16909438752E+04 -0.17894907906E+03  0.11267120686E+04  0.20398024530E+04  0.50400001928E-02 0.  1.
</event>
<event>
 5   0  0.2746876E-08  0.4010261E+04  0.7818609E-02  0.8002480E-01
       -2   -1    0    0    0  501  0.00000000000E+00  0.00000000000E+00  0.15952753183E+04  0.15952753183E+04  0.25500000920E-02 0. -1.
        2   -1    0    0  501    0  0.00000000000E+00  0.00000000000E+00 -0.25202852180E+04  0.25202852180E+04  0.25500000920E-02 0.  1.
    10030    2    1    2    0    0  0.00000000000E+00  0.00000000000E+00 -0.92500989968E+03  0.41155605364E+04  0.40102612401E+04 0.  0.
        1    1    3    3  502    0 -0.50228786644E+03  0.19380272553E+04 -0.57635044550E+03  0.20833680853E+04  0.50400001928E-02 0.  1.
       -1    1    3    3    0  502  0.50228786644E+03 -0.19380272553E+04 -0.34865945418E+03  0.20321924510E+04  0.50400001928E-02 0. -1.
</event>
<event>
 5   0  0.8329875E-09  0.3992056E+04  0.7818609E-02  0.8006151E-01
        1   -1    0    0  501    0  0.00000000000E+00  0.00000000000E+00  0.32821793505E+04  0.32821793505E+04  0.50400001928E-02 0. -1.
       -1   -1    0    0    0  501  0.00000000000E+00  0.00000000000E+00 -0.12138665949E+04  0.12138665950E+04  0.50400001928E-02 0.  1.
    10030    2    1    2    0    0  0.00000000000E+00  0.00000000000E+00  0.20683127556E+04  0.44960459455E+04  0.39920560478E+04 0.  0.
        5    1    3    3  502    0  0.26550118207E+03  0.10044749710E+04  0.29536233184E+04  0.31310339573E+04  0.46999998093E+01 0. -1.
       -5    1    3    3    0  502 -0.26550118207E+03 -0.10044749710E+04 -0.88531056285E+03  0.13650119881E+04  0.46999998093E+01 0.  1.
</event>
<event>
 5   0  0.2599332E-08  0.4004143E+04  0.7818609E-02  0.8003711E-01
       -2   -1    0    0    0  501  0.00000000000E+00  0.00000000000E+00  0.28733616892E+04  0.28733616892E+04  0.25500000920E-02 0. -1.
        2   -1    0    0  501    0  0.00000000000E+00  0.00000000000E+00 -0.13949825409E+04  0.13949825409E+04  0.25500000920E-02 0.  1.
    10030    2    1    2    0    0  0.00000000000E+00  0.00000000000E+00  0.14783791483E+04  0.42683442301E+04  0.40041425499E+04 0.  0.
        2    1    3    3  502    0  0.84187545693E+03 -0.72292470947E+02 -0.11955925518E+04  0.14640430445E+04  0.25500000920E-02 0.  1.
       -2    1    3    3    0  502 -0.84187545693E+03  0.72292470947E+02  0.26739717001E+04  0.28043011855E+04  0.25500000920E-02 0. -1.
</event>
<event>
 5   0  0.2599332E-08  0.3994702E+04  0.7818609E-02  0.8005616E-01
        2   -1    0    0  501    0  0.00000000000E+00  0.00000000000E+00  0.27771766401E+04  0.27771766401E+04  0.25500000920E-02 0.  1.
       -2   -1    0    0    0  501  0.00000000000E+00  0.00000000000E+00 -0.14364988346E+04  0.14364988346E+04  0.25500000920E-02 0. -1.
    10030    2    1    2    0    0  0.00000000000E+00  0.00000000000E+00  0.13406778055E+04  0.42136754747E+04  0.39947019948E+04 0.  0.
        2    1    3    3  502    0  0.60562438888E+03  0.12317406840E+04 -0.86021506594E+03  0.16198567754E+04  0.25500000920E-02 0.  1.
       -2    1    3    3    0  502 -0.60562438888E+03 -0.12317406840E+04  0.22008928715E+04  0.25938186993E+04  0.25500000920E-02 0. -1.
</event>
<event>
 5   0  0.8329875E-09  0.3983578E+04  0.7818609E-02  0.8007868E-01
        1   -1    0    0  501    0  0.00000000000E+00  0.00000000000E+00  0.23264249733E+04  0.23264249734E+04  0.50400001928E-02 0.  1.
       -1   -1    0    0    0  501  0.00000000000E+00  0.00000000000E+00 -0.17052876704E+04  0.17052876704E+04  0.50400001928E-02 0. -1.
    10030    2    1    2    0    0  0.00000000000E+00  0.00000000000E+00  0.62113730292E+03  0.40317126438E+04  0.39835782022E+04 0.  0.
        3    1    3    3  502    0  0.40987944764E+03 -0.57691466931E+03  0.21948904294E+04  0.23061603813E+04  0.10100000352E+00 0.  1.
       -3    1    3    3    0  502 -0.40987944764E+03  0.57691466931E+03 -0.15737531265E+04  0.17255522625E+04  0.10100000352E+00 0. -1.
</event>
<event>
 5   0  0.2587493E-08  0.4001137E+04  0.7818609E-02  0.8004317E-01
        2   -1    0    0  501    0  0.00000000000E+00  0.00000000000E+00  0.16990259050E+04  0.16990259050E+04  0.25500000920E-02 0.  1.
       -2   -1    0    0    0  501  0.00000000000E+00  0.00000000000E+00 -0.23556292014E+04  0.23556292014E+04  0.25500000920E-02 0. -1.
    10030    2    1    2    0    0  0.00000000000E+00  0.00000000000E+00 -0.65660329634E+03  0.40546551064E+04  0.40011373562E+04 0.  0.
        5    1    3    3  502    0 -0.15544424380E+04 -0.11001362338E+04 -0.94941239637E+03  0.21279090710E+04  0.46999998093E+01 0. -1.
       -5    1    3    3    0  502  0.15544424380E+04  0.11001362338E+04  0.29280910003E+03  0.19267460354E+04  0.46999998093E+01 0.  1.
</event>
<event>
 5   0  0.8329875E-09  0.4002315E+04  0.7818609E-02  0.8004080E-01
       -1   -1    0    0    0  501  0.00000000000E+00  0.00000000000E+00  0.21040878296E+04  0.21040878296E+04  0.50400001928E-02 0.  1.
        1   -1    0    0  501    0  0.00000000000E+00  0.00000000000E+00 -0.19032623338E+04  0.19032623338E+04  0.50400001928E-02 0. -1.
    10030    2    1    2    0    0  0.00000000000E+00  0.00000000000E+00  0.20082549580E+03  0.40073501635E+04  0.40023148868E+04 0.  0.
        4    1    3    3  502    0 -0.52879835765E+03  0.51571434781E+03  0.19626022012E+04  0.20969973783E+04  0.12699999809E+01 0.  1.
       -4    1    3    3    0  502  0.52879835765E+03 -0.51571434781E+03 -0.17617767054E+04  0.19103527852E+04  0.12699999809E+01 0. -1.
</event>
<event>
 5   0  0.2599332E-08  0.4000414E+04  0.7818609E-02  0.8004463E-01
        2   -1    0    0  501    0  0.00000000000E+00  0.00000000000E+00  0.21997360001E+04  0.21997360001E+04  0.25500000920E-02 0.  1.
       -2   -1    0    0    0  501  0.00000000000E+00  0.00000000000E+00 -0.18187764481E+04  0.18187764481E+04  0.25500000920E-02 0. -1.
    10030    2    1    2    0    0  0.00000000000E+00  0.00000000000E+00  0.38095955200E+03  0.40185124482E+04  0.40004139931E+04 0.  0.
        2    1    3    3  502    0  0.40596149564E+03 -0.11106594202E+04  0.18109920464E+04  0.21628826310E+04  0.25500000920E-02 0.  1.
       -2    1    3    3    0  502 -0.40596149564E+03  0.11106594202E+04 -0.14300324944E+04  0.18556298172E+04  0.25500000920E-02 0. -1.
</event>
<event>
 5   0  0.8329875E-09  0.3993666E+04  0.7818609E-02  0.8005826E-01
        1   -1    0    0  501    0  0.00000000000E+00  0.00000000000E+00  0.23270221827E+04  0.23270221827E+04  0.50400001928E-02 0. -1.
       -1   -1    0    0    0  501  0.00000000000E+00  0.00000000000E+00 -0.17134951714E+04  0.17134951714E+04  0.50400001928E-02 0.  1.
    10030    2    1    2    0    0  0.00000000000E+00  0.00000000000E+00  0.61352701126E+03  0.40405173541E+04  0.39936656214E+04 0.  0.
        5    1    3    3  502    0  0.35356618334E+03  0.90322493234E+02 -0.16794672160E+04  0.17186621013E+04  0.46999998093E+01 0.  1.
       -5    1    3    3    0  502 -0.35356618334E+03 -0.90322493234E+02  0.22929942273E+04  0.23218552528E+04  0.46999998093E+01 0. -1.
</event>
<event>
 5   0  0.8329875E-09  0.4002191E+04  0.7818609E-02  0.8004105E-01
       -1   -1    0    0    0  501  0.00000000000E+00  0.00000000000E+00  0.21300283702E+04  0.21300283702E+04  0.50400001928E-02 0. -1.
        1   -1    0    0  501    0  0.00000000000E+00  0.00000000000E+00 -0.18799671300E+04  0.18799671300E+04  0.50400001928E-02 0.  1.
    10030    2    1    2    0    0  0.00000000000E+00  0.00000000000E+00  0.25006124014E+03  0.40099955002E+04  0.40021910609E+04 0.  0.
        2    1    3    3  502    0 -0.21856969634E+03 -0.15730203166E+04  0.13448683561E+04  0.20810661988E+04  0.25500000920E-02 0. -1.
       -2    1    3    3    0  502  0.21856969634E+03  0.15730203166E+04 -0.10948071159E+04  0.19289293014E+04  0.25500000920E-02 0.  1.
</event>
<event>
 5   0  0.8329875E-09  0.3997325E+04  0.7818609E-02  0.8005086E-01
       -1   -1    0    0    0  501  0.00000000000E+00  0.00000000000E+00  0.18844203778E+04  0.18844203778E+04  0.50400001928E-02 0. -1.
        1   -1    0    0  501    0  0.00000000000E+00  0.00000000000E+00 -0.21198307044E+04  0.21198307044E+04  0.50400001928E-02 0.  1.
    10030    2    1    2    0    0  0.00000000000E+00  0.00000000000E+00 -0.23541032658E+03  0.40042510822E+04  0.39973251941E+04 0.  0.
        5    1    3    3  502    0  0.15744713751E+04  0.63023378868E+03  0.94170718069E+03  0.19398425821E+04  0.46999998093E+01 0. -1.
       -5    1    3    3    0  502 -0.15744713751E+04 -0.63023378868E+03 -0.11771175073E+04  0.20644085001E+04  0.46999998093E+01 0.  1.
</event>
<event>
 5   0  0.2599332E-08  0.4005746E+04  0.7818609E-02  0.8003388E-01
       -2   -1    0    0    0  501  0.00000000000E+00  0.00000000000E+00  0.23059583664E+04  0.23059583664E+04  0.25500000920E-02 0. -1.
        2   -1    0    0  501    0  0.00000000000E+00  0.00000000000E+00 -0.17396239055E+04  0.17396239055E+04  0.25500000920E-02 0.  1.
    10030    2    1    2    0    0  0.00000000000E+00  0.00000000000E+00  0.56633446090E+03  0.40455822718E+04  0.40057460225E+04 0.  0.
        2    1    3    3  502    0 -0.54640426915E+03  0.15074548535E+04  0.14953208320E+04  0.21924785407E+04  0.25500000920E-02 0. -1.
       -2    1    3    3    0  502  0.54640426915E+03 -0.15074548535E+04 -0.92898637113E+03  0.18531037312E+04  0.25500000920E-02 0.  1.
</event>
<event>
 5   0  0.2599332E-08  0.4000025E+04  0.7818609E-02  0.8004542E-01
       -2   -1    0    0    0  501  0.00000000000E+00  0.00000000000E+00  0.24822298515E+04  0.24822298515E+04  0.25500000920E-02 0. -1.
        2   -1    0    0  501    0  0.00000000000E+00  0.00000000000E+00 -0.16114742673E+04  0.16114742673E+04  0.25500000920E-02 0.  1.
    10030    2    1    2    0    0  0.00000000000E+00  0.00000000000E+00  0.87075558424E+03  0.40937041188E+04  0.40000247656E+04 0.  0.
        2    1    3    3  502    0 -0.83447640137E+03  0.15513796284E+04 -0.53386058860E+03  0.18406892035E+04  0.25500000920E-02 0.  1.
       -2    1    3    3    0  502  0.83447640137E+03 -0.15513796284E+04  0.14046161728E+04  0.22530149153E+04  0.25500000920E-02 0. -1.
</event>
<event>
 5   0  0.8329875E-09  0.4003449E+04  0.7818609E-02  0.8003851E-01
       -1   -1    0    0    0  501  0.00000000000E+00  0.00000000000E+00  0.26958730496E+04  0.26958730496E+04  0.50400001928E-02 0. -1.
        1   -1    0    0  501    0  0.00000000000E+00  0.00000000000E+00 -0.14863088642E+04  0.14863088642E+04  0.50400001928E-02 0.  1.
    10030    2    1    2    0    0  0.00000000000E+00  0.00000000000E+00  0.12095641855E+04  0.41821819138E+04  0.40034485186E+04 0.  0.
        4    1    3    3  502    0  0.12855787926E+04  0.63025730469E+03  0.20661507532E+04  0.25137457409E+04  0.12699999809E+01 0. -1.
       -4    1    3    3    0  502 -0.12855787926E+04 -0.63025730469E+03 -0.85658656773E+03  0.16684361729E+04  0.12699999809E+01 0.  1.
</event>
<event>
 5   0  0.2612363E-08  0.4002713E+04  0.7818609E-02  0.8004000E-01
        2   -1    0    0  501    0  0.00000000000E+00  0.00000000000E+00  0.19015598759E+04  0.19015598759E+04  0.25500000920E-02 0.  1.
       -2   -1    0    0    0  501  0.00000000000E+00  0.00000000000E+00 -0.21063901211E+04  0.21063901211E+04  0.25500000920E-02 0. -1.
    10030    2    1    2    0    0  0.00000000000E+00  0.00000000000E+00 -0.20483024518E+03  0.40079499971E+04  0.40027125490E+04 0.  0.
        4    1    3    3  502    0 -0.18730657811E+04  0.54263904220E+03 -0.55310714150E+03  0.20270080595E+04  0.12699999809E+01 0. -1.
       -4    1    3    3    0  502  0.18730657811E+04 -0.54263904220E+03  0.34827689632E+03  0.19809419375E+04  0.12699999809E+01 0.  1.
</event>
<event>
 5   0  0.8329875E-09  0.4012488E+04  0.7818609E-02  0.8002032E-01
        1   -1    0    0  501    0  0.00000000000E+00  0.00000000000E+00  0.17392845210E+04  0.17392845210E+04  0.50400001928E-02 0. -1.
       -1   -1    0    0    0  501  0.00000000000E+00  0.00000000000E+00 -0.23141787707E+04  0.23141787707E+04  0.50400001928E-02 0.  1.
    10030    2    1    2    0    0  0.00000000000E+00  0.00000000000E+00 -0.57489424963E+03  0.40534632917E+04  0.40124881631E+04 0.  0.
        5    1    3    3  502    0  0.15537440472E+04 -0.12407410465E+04 -0.55744846894E+03  0.20650253737E+04  0.46999998093E+01 0. -1.
       -5    1    3    3    0  502 -0.15537440472E+04  0.12407410465E+04 -0.17445780692E+02  0.19884379180E+04  0.46999998093E+01 0.  1.
</event>
<event>
 5   0  0.2599332E-08  0.4001132E+04  0.7818609E-02  0.8004318E-01
        2   -1    0    0  501    0  0.00000000000E+00  0.00000000000E+00  0.33512592670E+04  0.33512592670E+04  0.25500000920E-02 0. -1.
       -2   -1    0    0    0  501  0.00000000000E+00  0.00000000000E+00 -0.11942568321E+04  0.11942568321E+04  0.25500000920E-02 0.  1.
    10030    2    1    2    0    0  0.00000000000E+00  0.00000000000E+00  0.21570024348E+04  0.45455160991E+04  0.40011319778E+04 0.  0.
        2    1    3    3  502    0  0.14958989368E+04  0.40717037424E+03 -0.35795488542E+03  0.15911106318E+04  0.25500000920E-02 0.  1.
       -2    1    3    3    0  502 -0.14958989368E+04 -0.40717037424E+03  0.25149573203E+04  0.29544054673E+04  0.25500000920E-02 0. -1.
</event>
<event>
 5   0  0.8329875E-09  0.4001729E+04  0.7818609E-02  0.8004198E-01
        1   -1    0    0  501    0  0.00000000000E+00  0.00000000000E+00  0.25772936314E+04  0.25772936314E+04  0.50400001928E-02 0. -1.
       -1   -1    0    0    0  501  0.00000000000E+00  0.00000000000E+00 -0.15533572896E+04  0.15533572896E+04  0.50400001928E-02 0.  1.
    10030    2    1    2    0    0  0.00000000000E+00  0.00000000000E+00  0.10239363418E+04  0.41306509210E+04  0.40017285513E+04 0.  0.
        1    1    3    3  502    0 -0.16857679830E+03 -0.16682483394E+04 -0.61498705785E+03  0.17859674522E+04  0.50400001928E-02 0.  1.
       -1    1    3    3    0  502  0.16857679830E+03  0.16682483394E+04  0.16389233997E+04  0.23446834688E+04  0.50400001928E-02 0. -1.
</event>
<event>
 5   0  0.2599332E-08  0.3991722E+04  0.7818609E-02  0.8006219E-01
        2   -1    0    0  501    0  0.00000000000E+00  0.00000000000E+00  0.17537993719E+04  0.17537993719E+04  0.25500000920E-02 0. -1.
       -2   -1    0    0    0  501  0.00000000000E+00  0.00000000000E+00 -0.22713317920E+04  0.22713317920E+04  0.25500000920E-02 0.  1.
    10030    2    1    2    0    0  0.00000000000E+00  0.00000000000E+00 -0.51753242016E+03  0.40251311639E+04  0.39917215686E+04 0.  0.
        2    1    3    3  502    0  0.30731503420E+03 -0.29486560401E+03  0.17074440844E+04  0.17597595166E+04  0.25500000920E-02 0. -1.
       -2    1    3    3    0  502 -0.30731503420E+03  0.29486560401E+03 -0.22249765046E+04  0.22653716474E+04  0.25500000920E-02 0.  1.
</event>
<event>
 5   0  0.2599332E-08  0.3998587E+04  0.7818609E-02  0.8004832E-01
        2   -1    0    0  501    0  0.00000000000E+00  0.00000000000E+00  0.20536053683E+04  0.20536053683E+04  0.25500000920E-02 0.  1.
       -2   -1    0    0    0  501  0.00000000000E+00  0.00000000000E+00 -0.19464178686E+04  0.19464178686E+04  0.25500000920E-02 0. -1.
    10030    2    1    2    0    0  0.00000000000E+00  0.00000000000E+00  0.10718749964E+03  0.40000232369E+04  0.39985868424E+04 0.  0.
        2    1    3    3  502    0 -0.32108301795E+03 -0.16321232184E+04  0.11631602036E+04  0.20297443592E+04  0.25500000920E-02 0.  1.
       -2    1    3    3    0  502  0.32108301795E+03  0.16321232184E+04 -0.10559727039E+04  0.19702788777E+04  0.25500000920E-02 0. -1.
</event>
<event>
 5   0  0.8329875E-09  0.4001641E+04  0.7818609E-02  0.8004216E-01
        1   -1    0    0  501    0  0.00000000000E+00  0.00000000000E+00  0.21560193528E+04  0.21560193528E+04  0.50400001928E-02 0. -1.
       -1   -1    0    0    0  501  0.00000000000E+00  0.00000000000E+00 -0.18567933181E+04  0.18567933181E+04  0.50400001928E-02 0.  1.
    10030    2    1    2    0    0  0.00000000000E+00  0.00000000000E+00  0.29922603474E+03  0.40128126709E+04  0.40016408275E+04 0.  0.
        5    1    3    3  502    0 -0.10905388793E+04  0.12864134395E+04 -0.93001970642E+03  0.19259006539E+04  0.46999998093E+01 0.  1.
       -5    1    3    3    0  502  0.10905388793E+04 -0.12864134395E+04  0.12292457412E+04  0.20869120170E+04  0.46999998093E+01 0. -1.
</event>
<event>
 5   0  0.8329875E-09  0.4028780E+04  0.7818609E-02  0.7998766E-01
        1   -1    0    0  501    0  0.00000000000E+00  0.00000000000E+00  0.21071924482E+04  0.21071924482E+04  0.50400001928E-02 0. -1.
       -1   -1    0    0    0  501  0.00000000000E+00  0.00000000000E+00 -0.19256747330E+04  0.19256747330E+04  0.50400001928E-02 0.  1.
    10030    2    1    2    0    0  0.00000000000E+00  0.00000000000E+00  0.18151771518E+03  0.40328671812E+04  0.40287800908E+04 0.  0.
        1    1    3    3  502    0 -0.15120365139E+04 -0.66013674794E+03  0.12476701827E+04  0.20685056998E+04  0.50400001928E-02 0. -1.
       -1    1    3    3    0  502  0.15120365139E+04  0.66013674794E+03 -0.10661524675E+04  0.19643614814E+04  0.50400001928E-02 0.  1.
</event>
<event>
 5   0  0.8329875E-09  0.4006088E+04  0.7818609E-02  0.8003319E-01
        1   -1    0    0  501    0  0.00000000000E+00  0.00000000000E+00  0.23950140008E+04  0.23950140008E+04  0.50400001928E-02 0.  1.
       -1   -1    0    0    0  501  0.00000000000E+00  0.00000000000E+00 -0.16752245420E+04  0.16752245420E+04  0.50400001928E-02 0. -1.
    10030    2    1    2    0    0  0.00000000000E+00  0.00000000000E+00  0.71978945878E+03  0.40702385429E+04  0.40060884826E+04 0.  0.
        3    1    3    3  502    0 -0.84384217452E+03  0.79614936037E+03  0.20189115988E+04  0.23285032689E+04  0.10100000352E+00 0.  1.
       -3    1    3    3    0  502  0.84384217452E+03 -0.79614936037E+03 -0.12991221400E+04  0.17417352739E+04  0.10100000352E+00 0. -1.
</event>
<event>
 5   0  0.8329875E-09  0.3986715E+04  0.7818609E-02  0.8007232E-01
       -1   -1    0    0    0  501  0.00000000000E+00  0.00000000000E+00  0.33330936804E+04  0.33330936804E+04  0.50400001928E-02 0. -1.
        1   -1    0    0  501    0  0.00000000000E+00  0.00000000000E+00 -0.11921278394E+04  0.11921278395E+04  0.50400001928E-02 0.  1.
    10030    2    1    2    0    0  0.00000000000E+00  0.00000000000E+00  0.21409658410E+04  0.45252215199E+04  0.39867148220E+04 0.  0.
        4    1    3    3  502    0 -0.15911631834E+04 -0.10828212068E+04  0.16593782248E+04  0.25412280000E+04  0.12699999809E+01 0.  1.
       -4    1    3    3    0  502  0.15911631834E+04  0.10828212068E+04  0.48158761620E+03  0.19839935199E+04  0.12699999809E+01 0. -1.
</event>
<event>
 5   0  0.8329875E-09  0.4004045E+04  0.7818609E-02  0.8003731E-01
       -1   -1    0    0    0  501  0.00000000000E+00  0.00000000000E+00  0.13477900785E+04  0.13477900785E+04  0.50400001928E-02 0.  1.
        1   -1    0    0  501    0  0.00000000000E+00  0.00000000000E+00 -0.29738266697E+04  0.29738266697E+04  0.50400001928E-02 0. -1.
    10030    2    1    2    0    0  0.00000000000E+00  0.00000000000E+00 -0.16260365912E+04  0.43216167482E+04  0.40040449950E+04 0.  0.
        4    1    3    3  502    0  0.52234351506E+03 -0.18913519152E+04 -0.38394885318E+03  0.19993681876E+04  0.12699999809E+01 0.  1.
       -4    1    3    3    0  502 -0.52234351506E+03  0.18913519152E+04 -0.12420877381E+04  0.23222485605E+04  0.12699999809E+01 0. -1.
</event>
<event>
 5   0  0.2746876E-08  0.4001540E+04  0.7818609E-02  0.8004236E-01
        2   -1    0    0  501    0  0.00000000000E+00  0.00000000000E+00  0.16297363620E+04  0.16297363620E+04  0.25500000920E-02 0. -1.
       -2   -1    0    0    0  501  0.00000000000E+00  0.00000000000E+00 -0.24562743679E+04  0.24562743679E+04  0.25500000920E-02 0.  1.
    10030    2    1    2    0    0  0.00000000000E+00  0.00000000000E+00 -0.82653800586E+03  0.40860107299E+04  0.40015395300E+04 0.  0.
        1    1    3    3  502    0  0.63429177526E+03 -0.58462672765E+03  0.14300998787E+04  0.16701197951E+04  0.50400001928E-02 0. -1.
       -1    1    3    3    0  502 -0.63429177526E+03  0.58462672765E+03 -0.22566378846E+04  0.24158909348E+04  0.50400001928E-02 0.  1.
</event>
<event>
 5   0  0.2650452E-08  0.3998373E+04  0.7818609E-02  0.8004875E-01
        2   -1    0    0  501    0  0.00000000000E+00  0.00000000000E+00  0.16152402998E+04  0.16152402998E+04  0.25500000920E-02 0.  1.
       -2   -1    0    0    0  501  0.00000000000E+00  0.00000000000E+00 -0.24743973572E+04  0.24743973572E+04  0.25500000920E-02 0. -1.
    10030    2    1    2    0    0  0.00000000000E+00  0.00000000000E+00 -0.85915705740E+03  0.40896376570E+04  0.39983728336E+04 0.  0.
        3    1    3    3  502    0  0.42925788542E+03 -0.40137470866E+03  0.15248968231E+04  0.16342197895E+04  0.10100000352E+00 0.  1.
       -3    1    3    3    0  502 -0.42925788542E+03  0.40137470866E+03 -0.23840538805E+04  0.24554178676E+04  0.10100000352E+00 0. -1.
</event>
<event>
 5   0  0.2599332E-08  0.4005365E+04  0.7818609E-02  0.8003465E-01
        2   -1    0    0  501    0  0.00000000000E+00  0.00000000000E+00  0.28652335030E+04  0.28652335030E+04  0.25500000920E-02 0.  1.
       -2   -1    0    0    0  501  0.00000000000E+00  0.00000000000E+00 -0.13997942600E+04  0.13997942600E+04  0.25500000920E-02 0. -1.
    10030    2    1    2    0    0  0.00000000000E+00  0.00000000000E+00  0.14654392430E+04  0.42650277630E+04  0.40053651075E+04 0.  0.
        2    1    3    3  502    0  0.40425262177E+02  0.74993977381E+03 -0.12441639293E+04  0.14532679550E+04  0.25500000920E-02 0. -1.
       -2    1    3    3    0  502 -0.40425262177E+02 -0.74993977381E+03  0.27096031723E+04  0.28117598079E+04  0.25500000920E-02 0.  1.
</event>
<event>
 5   0  0.2612363E-08  0.3986929E+04  0.7818609E-02  0.8007189E-01
       -2   -1    0    0    0  501  0.00000000000E+00  0.00000000000E+00  0.16023050827E+04  0.16023050827E+04  0.25500000920E-02 0.  1.
        2   -1    0    0  501    0  0.00000000000E+00  0.00000000000E+00 -0.24801146711E+04  0.24801146711E+04  0.25500000920E-02 0. -1.
    10030    2    1    2    0    0  0.00000000000E+00  0.00000000000E+00 -0.87780958836E+03  0.40824197538E+04  0.39869288147E+04 0.  0.
        4    1    3    3  502    0  0.19376362281E+04  0.44195288990E+03 -0.59800391681E+03  0.20754196701E+04  0.12699999809E+01 0.  1.
       -4    1    3    3    0  502 -0.19376362281E+04 -0.44195288990E+03 -0.27980567155E+03  0.20070000838E+04  0.12699999809E+01 0. -1.
</event>
<event>
 5   0  0.8329875E-09  0.4008893E+04  0.7818609E-02  0.8002755E-01
        1   -1    0    0  501    0  0.00000000000E+00  0.00000000000E+00  0.29015730336E+04  0.29015730336E+04  0.50400001928E-02 0.  1.
       -1   -1    0    0    0  501  0.00000000000E+00  0.00000000000E+00 -0.13846990511E+04  0.13846990511E+04  0.50400001928E-02 0. -1.
    10030    2    1    2    0    0  0.00000000000E+00  0.00000000000E+00  0.15168739825E+04  0.42862720846E+04  0.40088928278E+04 0.  0.
        4    1    3    3  502    0  0.68887719700E+03  0.40468711297E+03  0.27239695995E+04  0.28387207407E+04  0.12699999809E+01 0.  1.
       -4    1    3    3    0  502 -0.68887719700E+03 -0.40468711297E+03 -0.12070956170E+04  0.14475513439E+04  0.12699999809E+01 0. -1.
</event>
<event>
 5   0  0.2587493E-08  0.4004998E+04  0.7818609E-02  0.8003539E-01
        2   -1    0    0  501    0  0.00000000000E+00  0.00000000000E+00  0.22561237197E+04  0.22561237197E+04  0.25500000920E-02 0.  1.
       -2   -1    0    0    0  501  0.00000000000E+00  0.00000000000E+00 -0.17773858847E+04  0.17773858847E+04  0.25500000920E-02 0. -1.
    10030    2    1    2    0    0  0.00000000000E+00  0.00000000000E+00  0.47873783502E+03  0.40335096044E+04  0.40049981041E+04 0.  0.
        5    1    3    3  502    0 -0.61511843121E+03  0.11850257329E+03  0.21548993732E+04  0.22441093875E+04  0.46999998093E+01 0.  1.
       -5    1    3    3    0  502  0.61511843121E+03 -0.11850257329E+03 -0.16761615382E+04  0.17894002169E+04  0.46999998093E+01 0. -1.
</event>
<event>
 5   0  0.2746876E-08  0.4000742E+04  0.7818609E-02  0.8004397E-01
       -2   -1    0    0    0  501  0.00000000000E+00  0.00000000000E+00  0.19745608822E+04  0.19745608822E+04  0.25500000920E-02 0.  1.
        2   -1    0    0  501    0  0.00000000000E+00  0.00000000000E+00 -0.20265182174E+04  0.20265182174E+04  0.25500000920E-02 0. -1.
    10030    2    1    2    0    0  0.00000000000E+00  0.00000000000E+00 -0.51957335192E+02  0.40010790996E+04  0.40007417308E+04 0.  0.
        1    1    3    3  502    0  0.15389111810E+04 -0.67768430101E+02  0.12503120921E+04  0.19839658542E+04  0.50400001928E-02 0.  1.
       -1    1    3    3    0  502 -0.15389111810E+04  0.67768430101E+02 -0.13022694273E+04  0.20171132453E+04  0.50400001928E-02 0. -1.
</event>
<event>
 5   0  0.8329875E-09  0.4000449E+04  0.7818609E-02  0.8004456E-01
        1   -1    0    0  501    0  0.00000000000E+00  0.00000000000E+00  0.21402634844E+04  0.21402634844E+04  0.50400001928E-02 0.  1.
       -1   -1    0    0    0  501  0.00000000000E+00  0.00000000000E+00 -0.18693485419E+04  0.18693485420E+04  0.50400001928E-02 0. -1.
    10030    2    1    2    0    0  0.00000000000E+00  0.00000000000E+00  0.27091494249E+03  0.40096120264E+04  0.40004491868E+04 0.  0.
        4    1    3    3  502    0  0.77620085213E+03 -0.17723561688E+04  0.64373106509E+03  0.20391482165E+04  0.12699999809E+01 0.  1.
       -4    1    3    3    0  502 -0.77620085213E+03  0.17723561688E+04 -0.37281612260E+03  0.19704638099E+04  0.12699999809E+01 0. -1.
</event>
<event>
 5   0  0.8329875E-09  0.4000978E+04  0.7818609E-02  0.8004349E-01
        1   -1    0    0  501    0  0.00000000000E+00  0.00000000000E+00  0.21776538659E+04  0.21776538659E+04  0.50400001928E-02 0. -1.
       -1   -1    0    0    0  501  0.00000000000E+00  0.00000000000E+00 -0.18377379608E+04  0.18377379608E+04  0.50400001928E-02 0.  1.
    10030    2    1    2    0    0  0.00000000000E+00  0.00000000000E+00  0.33991590508E+03  0.40153918267E+04  0.40009784677E+04 0.  0.
        3    1    3    3  502    0 -0.64247465724E+03  0.91423830757E+03  0.18352582857E+04  0.21486689726E+04  0.10100000352E+00 0. -1.
       -3    1    3    3    0  502  0.64247465724E+03 -0.91423830757E+03 -0.14953423807E+04  0.18667228540E+04  0.10100000352E+00 0.  1.
</event>
<event>
 5   0  0.2612363E-08  0.4010936E+04  0.7818609E-02  0.8002344E-01
       -2   -1    0    0    0  501  0.00000000000E+00  0.00000000000E+00  0.20376918057E+04  0.20376918057E+04  0.25500000920E-02 0.  1.
        2   -1    0    0  501    0  0.00000000000E+00  0.00000000000E+00 -0.19737540732E+04  0.19737540732E+04  0.25500000920E-02 0. -1.
    10030    2    1    2    0    0  0.00000000000E+00  0.00000000000E+00  0.63937732539E+02  0.40114458790E+04  0.40109363004E+04 0.  0.
        4    1    3    3  502    0 -0.42938091103E+03 -0.89755200515E+03 -0.17094971158E+04  0.19779660185E+04  0.12699999809E+01 0. -1.
       -4    1    3    3    0  502  0.42938091103E+03  0.89755200515E+03  0.17734348483E+04  0.20334798604E+04  0.12699999809E+01 0.  1.
</event>
<event>
 5   0  0.2650452E-08  0.3995536E+04  0.7818609E-02  0.8005448E-01
       -2   -1    0    0    0  501  0.00000000000E+00  0.00000000000E+00  0.13911069476E+04  0.13911069476E+04  0.25500000920E-02 0.  1.
        2   -1    0    0  501    0  0.00000000000E+00  0.00000000000E+00 -0.28689942750E+04  0.28689942750E+04  0.25500000920E-02 0. -1.
    10030    2    1    2    0    0  0.00000000000E+00  0.00000000000E+00 -0.14778873274E+04  0.42601012226E+04  0.39955364438E+04 0.  0.
        3    1    3    3  502    0  0.79085693142E+03 -0.93565567340E+03  0.94357334336E+03  0.15463624703E+04  0.10100000352E+00 0.  1.
       -3    1    3    3    0  502 -0.79085693142E+03  0.93565567340E+03 -0.24214606708E+04  0.27137387522E+04  0.10100000352E+00 0. -1.
</event>
<event>
 5   0  0.2599332E-08  0.4009750E+04  0.7818609E-02  0.8002582E-01
       -2   -1    0    0    0  501  0.00000000000E+00  0.00000000000E+00  0.17789620534E+04  0.17789620534E+04  0.25500000920E-02 0.  1.
        2   -1    0    0  501    0  0.00000000000E+00  0.00000000000E+00 -0.22594773030E+04  0.22594773030E+04  0.25500000920E-02 0. -1.
    10030    2    1    2    0    0  0.00000000000E+00  0.00000000000E+00 -0.48051524957E+03  0.40384393564E+04  0.40097503077E+04 0.  0.
        2    1    3    3  502    0  0.17250331641E+04 -0.43908421500E+03 -0.11693490867E+04  0.21297679807E+04  0.25500000920E-02 0. -1.
       -2    1    3    3    0  502 -0.17250331641E+04  0.43908421500E+03  0.68883383715E+03  0.19086713757E+04  0.25500000920E-02 0.  1.
</event>
<event>
 5   0  0.2599332E-08  0.4003123E+04  0.7818609E-02  0.8003917E-01
        2   -1    0    0  501    0  0.00000000000E+00  0.00000000000E+00  0.22871140305E+04  0.22871140305E+04  0.25500000920E-02 0. -1.
       -2   -1    0    0    0  501  0.00000000000E+00  0.00000000000E+00 -0.17516608771E+04  0.17516608771E+04  0.25500000920E-02 0.  1.
    10030    2    1    2    0    0  0.00000000000E+00  0.00000000000E+00  0.53545315349E+03  0.40387749076E+04  0.40031228653E+04 0.  0.
        2    1    3    3  502    0 -0.19739368597E+04 -0.24028529202E+03  0.49797923366E+03  0.20499139164E+04  0.25500000920E-02 0. -1.
       -2    1    3    3    0  502  0.19739368597E+04  0.24028529202E+03  0.37473919836E+02  0.19888609912E+04  0.25500000920E-02 0.  1.
</event>
<event>
 5   0  0.2612363E-08  0.3989959E+04  0.7818609E-02  0.8006575E-01
       -2   -1    0    0    0  501  0.00000000000E+00  0.00000000000E+00  0.29185496542E+04  0.29185496542E+04  0.25500000920E-02 0. -1.
        2   -1    0    0  501    0  0.00000000000E+00  0.00000000000E+00 -0.13636713800E+04  0.13636713800E+04  0.25500000920E-02 0.  1.
    10030    2    1    2    0    0  0.00000000000E+00  0.00000000000E+00  0.15548782743E+04  0.42822210342E+04  0.39899587138E+04 0.  0.
        4    1    3    3  502    0  0.88037124442E+03 -0.10973960917E+04  0.22954742652E+04  0.26923104251E+04  0.12699999809E+01 0. -1.
       -4    1    3    3    0  502 -0.88037124442E+03  0.10973960917E+04 -0.74059599096E+03  0.15899106091E+04  0.12699999809E+01 0.  1.
</event>
<event>
 5   0  0.2587493E-08  0.3999140E+04  0.7818609E-02  0.8004720E-01
       -2   -1    0    0    0  501  0.00000000000E+00  0.00000000000E+00  0.16844082149E+04  0.16844082149E+04  0.25500000920E-02 0. -1.
        2   -1    0    0  501    0  0.00000000000E+00  0.00000000000E+00 -0.23737002984E+04  0.23737002984E+04  0.25500000920E-02 0.  1.
    10030    2    1    2    0    0  0.00000000000E+00  0.00000000000E+00 -0.68929208351E+03  0.40581085133E+04  0.39991400487E+04 0.  0.
        5    1    3    3  502    0 -0.79451006398E+03  0.57246506188E+03  0.14244178598E+04  0.17285690088E+04  0.46999998093E+01 0. -1.
       -5    1    3    3    0  502  0.79451006398E+03 -0.57246506188E+03 -0.21137099433E+04  0.23295395045E+04  0.46999998093E+01 0.  1.
</event>
<event>
 5   0  0.2587493E-08  0.3997779E+04  0.7818609E-02  0.8004995E-01
        2   -1    0    0  501    0  0.00000000000E+00  0.00000000000E+00  0.24440030467E+04  0.24440030467E+04  0.25500000920E-02 0. -1.
       -2   -1    0    0    0  501  0.00000000000E+00  0.00000000000E+00 -0.16348422616E+04  0.16348422616E+04  0.25500000920E-02 0.  1.
    10030    2    1    2    0    0  0.00000000000E+00  0.00000000000E+00  0.80916078512E+03  0.40788453082E+04  0.39977791175E+04 0.  0.
        5    1    3    3  502    0  0.95045260026E+03  0.50103289972E+03  0.21243291591E+04  0.23805861837E+04  0.46999998093E+01 0. -1.
       -5    1    3    3    0  502 -0.95045260026E+03 -0.50103289972E+03 -0.13151683740E+04  0.16982591245E+04  0.46999998093E+01 0.  1.
</event>
<event>
 5   0  0.2650452E-08  0.4002756E+04  0.7818609E-02  0.8003991E-01
       -2   -1    0    0    0  501  0.00000000000E+00  0.00000000000E+00  0.18501445926E+04  0.18501445926E+04  0.25500000920E-02 0.  1.
        2   -1    0    0  501    0  0.00000000000E+00  0.00000000000E+00 -0.21649732796E+04  0.21649732796E+04  0.25500000920E-02 0. -1.
    10030    2    1    2    0    0  0.00000000000E+00  0.00000000000E+00 -0.31482868697E+03  0.40151178723E+04  0.40027558539E+04 0.  0.
        3    1    3    3  502    0 -0.29068527714E+03 -0.61374548505E+03 -0.20458683191E+04  0.21556341619E+04  0.10100000352E+00 0. -1.
       -3    1    3    3    0  502  0.29068527714E+03  0.61374548505E+03  0.17310396321E+04  0.18594837103E+04  0.10100000352E+00 0.  1.
</event>
<event>
 5   0  0.8329875E-09  0.3987244E+04  0.7818609E-02  0.8007125E-01
        1   -1    0    0  501    0  0.00000000000E+00  0.00000000000E+00  0.17994512215E+04  0.17994512215E+04  0.50400001928E-02 0. -1.
       -1   -1    0    0    0  501  0.00000000000E+00  0.00000000000E+00 -0.22087443501E+04  0.22087443501E+04  0.50400001928E-02 0.  1.
    10030    2    1    2    0    0  0.00000000000E+00  0.00000000000E+00 -0.40929312865E+03  0.40081955716E+04  0.39872435184E+04 0.  0.
        1    1    3    3  502    0  0.82585651876E+03  0.82730527641E+03 -0.18280800205E+04  0.21698731694E+04  0.50400001928E-02 0.  1.
       -1    1    3    3    0  502 -0.82585651876E+03 -0.82730527641E+03  0.14187868918E+04  0.18383224022E+04  0.50400001928E-02 0. -1.
</event>
<event>
 5   0  0.8329875E-09  0.4005895E+04  0.7818609E-02  0.8003358E-01
        1   -1    0    0  501    0  0.00000000000E+00  0.00000000000E+00  0.18278963220E+04  0.18278963220E+04  0.50400001928E-02 0.  1.
       -1   -1    0    0    0  501  0.00000000000E+00  0.00000000000E+00 -0.21947625283E+04  0.21947625284E+04  0.50400001928E-02 0. -1.
    10030    2    1    2    0    0  0.00000000000E+00  0.00000000000E+00 -0.36686620639E+03  0.40226588503E+04  0.40058948329E+04 0.  0.
        1    1    3    3  502    0 -0.74848521251E+03  0.13637244925E+04  0.10835217784E+04  0.18957832284E+04  0.50400001928E-02 0.  1.
       -1    1    3    3    0  502  0.74848521251E+03 -0.13637244925E+04 -0.14503879848E+04  0.21268756219E+04  0.50400001928E-02 0. -1.
</event>
<event>
 5   0  0.2599332E-08  0.3998139E+04  0.7818609E-02  0.8004922E-01
        2   -1    0    0  501    0  0.00000000000E+00  0.00000000000E+00  0.23289131302E+04  0.23289131302E+04  0.25500000920E-02 0. -1.
       -2   -1    0    0    0  501  0.00000000000E+00  0.00000000000E+00 -0.17159415615E+04  0.17159415615E+04  0.25500000920E-02 0.  1.
    10030    2    1    2    0    0  0.00000000000E+00  0.00000000000E+00  0.61297156869E+03  0.40448546917E+04  0.39981389837E+04 0.  0.
        2    1    3    3  502    0 -0.44090630659E+03 -0.19030741060E+04 -0.12296130965E+03  0.19573474162E+04  0.25500000920E-02 0.  1.
       -2    1    3    3    0  502  0.44090630659E+03  0.19030741060E+04  0.73593287835E+03  0.20875072755E+04  0.25500000920E-02 0. -1.
</event>
<event>
 5   0  0.2612363E-08  0.4001596E+04  0.7818609E-02  0.8004225E-01
        2   -1    0    0  501    0  0.00000000000E+00  0.00000000000E+00  0.28572603717E+04  0.28572603717E+04  0.25500000920E-02 0.  1.
       -2   -1    0    0    0  501  0.00000000000E+00  0.00000000000E+00 -0.14010597745E+04  0.14010597745E+04  0.25500000920E-02 0. -1.
    10030    2    1    2    0    0  0.00000000000E+00  0.00000000000E+00  0.14562005972E+04  0.42583201462E+04  0.40015959677E+04 0.  0.
        4    1    3    3  502    0 -0.12300595420E+04  0.13815597270E+04 -0.83339828852E+02  0.18516751594E+04  0.12699999809E+01 0. -1.
       -4    1    3    3    0  502  0.12300595420E+04 -0.13815597270E+04  0.15395404261E+04  0.24066449868E+04  0.12699999809E+01 0.  1.
</event>
<event>
 5   0  0.8329875E-09  0.3997795E+04  0.7818609E-02  0.8004991E-01
        1   -1    0    0  501    0  0.00000000000E+00  0.00000000000E+00  0.19355816343E+04  0.19355816343E+04  0.50400001928E-02 0.  1.
       -1   -1    0    0    0  501  0.00000000000E+00  0.00000000000E+00 -0.20642849159E+04  0.20642849159E+04  0.50400001928E-02 0. -1.
    10030    2    1    2    0    0  0.00000000000E+00  0.00000000000E+00 -0.12870328162E+03  0.39998665503E+04  0.39977953781E+04 0.  0.
        5    1    3    3  502    0  0.48423606051E+03  0.16271737222E+03  0.18691630396E+04  0.19377187784E+04  0.46999998093E+01 0.  1.
       -5    1    3    3    0  502 -0.48423606051E+03 -0.16271737222E+03 -0.19978663212E+04  0.20621477719E+04  0.46999998093E+01 0. -1.
</event>
<event>
 5   0  0.2612363E-08  0.4001691E+04  0.7818609E-02  0.8004205E-01
       -2   -1    0    0    0  501  0.00000000000E+00  0.00000000000E+00  0.18108996389E+04  0.18108996389E+04  0.25500000920E-02 0.  1.
        2   -1    0    0  501    0  0.00000000000E+00  0.00000000000E+00 -0.22107151180E+04  0.22107151180E+04  0.25500000920E-02 0. -1.
    10030    2    1    2    0    0  0.00000000000E+00  0.00000000000E+00 -0.39981547912E+03  0.40216147569E+04  0.40016912469E+04 0.  0.
        4    1    3    3  502    0 -0.18472796011E+04 -0.76212626389E+03 -0.30092300158E+03  0.20208499777E+04  0.12699999809E+01 0.  1.
       -4    1    3    3    0  502  0.18472796011E+04  0.76212626389E+03 -0.98892477540E+02  0.20007647792E+04  0.12699999809E+01 0. -1.
</event>
<event>
 5   0  0.8329875E-09  0.4008624E+04  0.7818609E-02  0.8002809E-01
        1   -1    0    0  501    0  0.00000000000E+00  0.00000000000E+00  0.20327644576E+04  0.20327644576E+04  0.50400001928E-02 0.  1.
       -1   -1    0    0    0  501  0.00000000000E+00  0.00000000000E+00 -0.19762581519E+04  0.19762581519E+04  0.50400001928E-02 0. -1.
    10030    2    1    2    0    0  0.00000000000E+00  0.00000000000E+00  0.56506305681E+02  0.40090226095E+04  0.40086243677E+04 0.  0.
        5    1    3    3  502    0 -0.45009266875E+03  0.60189152674E+03  0.18864981361E+04  0.20307028655E+04  0.46999998093E+01 0.  1.
       -5    1    3    3    0  502  0.45009266875E+03 -0.60189152674E+03 -0.18299918304E+04  0.19783197441E+04  0.46999998093E+01 0. -1.
</event>
<event>
 5   0  0.8329875E-09  0.3998505E+04  0.7818609E-02  0.8004848E-01
        1   -1    0    0  501    0  0.00000000000E+00  0.00000000000E+00  0.24301619885E+04  0.24301619885E+04  0.50400001928E-02 0.  1.
       -1   -1    0    0    0  501  0.00000000000E+00  0.00000000000E+00 -0.16447509910E+04  0.16447509910E+04  0.50400001928E-02 0. -1.
    10030    2    1    2    0    0  0.00000000000E+00  0.00000000000E+00  0.78541099750E+03  0.40749129795E+04  0.39985053902E+04 0.  0.
        4    1    3    3  502    0  0.10661149324E+04 -0.10286078349E+04  0.17608853235E+04  0.23011635888E+04  0.12699999809E+01 0.  1.
       -4    1    3    3    0  502 -0.10661149324E+04  0.10286078349E+04 -0.97547432602E+03  0.17737493906E+04  0.12699999809E+01 0. -1.
</event>
<event>
 5   0  0.8329875E-09  0.4000825E+04  0.7818609E-02  0.8004380E-01
        1   -1    0    0  501    0  0.00000000000E+00  0.00000000000E+00  0.20198350070E+04  0.20198350070E+04  0.50400001928E-02 0. -1.
       -1   -1    0    0    0  501  0.00000000000E+00  0.00000000000E+00 -0.19811762955E+04  0.19811762955E+04  0.50400001928E-02 0.  1.
    10030    2    1    2    0    0  0.00000000000E+00  0.00000000000E+00  0.38658711534E+02  0.40010113025E+04  0.40008245333E+04 0.  0.
        1    1    3    3  502    0 -0.84068447271E+03 -0.23165462722E+03  0.18197564200E+04  0.20179018007E+04  0.50400001928E-02 0. -1.
       -1    1    3    3    0  502  0.84068447271E+03  0.23165462722E+03 -0.17810977085E+04  0.19831095018E+04  0.50400001928E-02 0.  1.
</event>
<event>
 5   0  0.8329875E-09  0.3999095E+04  0.7818609E-02  0.8004729E-01
       -1   -1    0    0    0  501  0.00000000000E+00  0.00000000000E+00  0.17716585585E+04  0.17716585585E+04  0.50400001928E-02 0. -1.
        1   -1    0    0  501    0  0.00000000000E+00  0.00000000000E+00 -0.22567496144E+04  0.22567496145E+04  0.50400001928E-02 0.  1.
    10030    2    1    2    0    0  0.00000000000E+00  0.00000000000E+00 -0.48509105594E+03  0.40284081730E+04  0.39990947820E+04 0.  0.
        1    1    3    3  502    0 -0.19102107346E+04 -0.56935284475E+03 -0.82884336884E+02  0.19949780765E+04  0.50400001928E-02 0.  1.
       -1    1    3    3    0  502  0.19102107346E+04  0.56935284475E+03 -0.40220671905E+03  0.20334300965E+04  0.50400001928E-02 0. -1.
</event>
<event>
 5   0  0.8329875E-09  0.3954160E+04  0.7818609E-02  0.8013858E-01
        1   -1    0    0  501    0  0.00000000000E+00  0.00000000000E+00  0.30697424092E+04  0.30697424092E+04  0.50400001928E-02 0.  1.
       -1   -1    0    0    0  501  0.00000000000E+00  0.00000000000E+00 -0.12733461474E+04  0.12733461474E+04  0.50400001928E-02 0. -1.
    10030    2    1    2    0    0  0.00000000000E+00  0.00000000000E+00  0.17963962618E+04  0.43430885566E+04  0.39541596682E+04 0.  0.
        1    1    3    3  502    0  0.18866125805E+04  0.59085556972E+03  0.87549269791E+03  0.21621528154E+04  0.50400001928E-02 0. -1.
       -1    1    3    3    0  502 -0.18866125805E+04 -0.59085556972E+03  0.92090356394E+03  0.21809357412E+04  0.50400001928E-02 0.  1.
</event>
<event>
 5   0  0.8329875E-09  0.4000573E+04  0.7818609E-02  0.8004431E-01
       -1   -1    0    0    0  501  0.00000000000E+00  0.00000000000E+00  0.13296055937E+04  0.13296055937E+04  0.50400001928E-02 0. -1.
        1   -1    0    0  501    0  0.00000000000E+00  0.00000000000E+00 -0.30092733663E+04  0.30092733663E+04  0.50400001928E-02 0.  1.
    10030    2    1    2    0    0  0.00000000000E+00  0.00000000000E+00 -0.16796677727E+04  0.43388789600E+04  0.40005733093E+04 0.  0.
        2    1    3    3  502    0 -0.63050266851E+03  0.15426880245E+04 -0.20396025863E+04  0.26338942017E+04  0.25500000920E-02 0.  1.
       -2    1    3    3    0  502  0.63050266851E+03 -0.15426880245E+04  0.35993481366E+03  0.17049847583E+04  0.25500000920E-02 0. -1.
</event>
<event>
 5   0  0.8329875E-09  0.3993857E+04  0.7818609E-02  0.8005787E-01
        1   -1    0    0  501    0  0.00000000000E+00  0.00000000000E+00  0.14045462503E+04  0.14045462503E+04  0.50400001928E-02 0.  1.
       -1   -1    0    0    0  501  0.00000000000E+00  0.00000000000E+00 -0.28391549378E+04  0.28391549378E+04  0.50400001928E-02 0. -1.
    10030    2    1    2    0    0  0.00000000000E+00  0.00000000000E+00 -0.14346086875E+04  0.42437011881E+04  0.39938574947E+04 0.  0.
        5    1    3    3  502    0 -0.89060298436E+03 -0.16385770068E+04  0.41211061222E+02  0.18654299034E+04  0.46999998093E+01 0. -1.
       -5    1    3    3    0  502  0.89060298436E+03  0.16385770068E+04 -0.14758197487E+04  0.23782712847E+04  0.46999998093E+01 0.  1.
</event>
<event>
 5   0  0.2650452E-08  0.3980602E+04  0.7818609E-02  0.8008471E-01
        2   -1    0    0  501    0  0.00000000000E+00  0.00000000000E+00  0.20189886575E+04  0.20189886575E+04  0.25500000920E-02 0.  1.
       -2   -1    0    0    0  501  0.00000000000E+00  0.00000000000E+00 -0.19620205545E+04  0.19620205545E+04  0.25500000920E-02 0. -1.
    10030    2    1    2    0    0  0.00000000000E+00  0.00000000000E+00  0.56968102940E+02  0.39810092120E+04  0.39806015854E+04 0.  0.
        3    1    3    3  502    0  0.41126544861E+03 -0.41000942236E+02  0.19755981321E+04  0.20183677406E+04  0.10100000352E+00 0.  1.
       -3    1    3    3    0  502 -0.41126544861E+03  0.41000942236E+02 -0.19186300292E+04  0.19626414715E+04  0.10100000352E+00 0. -1.
</event>
<event>
 5   0  0.8329875E-09  0.3972633E+04  0.7818609E-02  0.8010090E-01
        1   -1    0    0  501    0  0.00000000000E+00  0.00000000000E+00  0.21915489705E+04  0.21915489705E+04  0.50400001928E-02 0.  1.
       -1   -1    0    0    0  501  0.00000000000E+00  0.00000000000E+00 -0.18003031367E+04  0.18003031367E+04  0.50400001928E-02 0. -1.
    10030    2    1    2    0    0  0.00000000000E+00  0.00000000000E+00  0.39124583381E+03  0.39918521072E+04  0.39726326212E+04 0.  0.
        3    1    3    3  502    0  0.19864818606E+03 -0.17192096110E+04 -0.78393161136E+03  0.18999188324E+04  0.10100000352E+00 0. -1.
       -3    1    3    3    0  502 -0.19864818606E+03  0.17192096110E+04  0.11751774452E+04  0.20919332748E+04  0.10100000352E+00 0.  1.
</event>
<event>
 5   0  0.8329875E-09  0.3993655E+04  0.7818609E-02  0.8005828E-01
        1   -1    0    0  501    0  0.00000000000E+00  0.00000000000E+00  0.28460719276E+04  0.28460719276E+04  0.50400001928E-02 0.  1.
       -1   -1    0    0    0  501  0.00000000000E+00  0.00000000000E+00 -0.14009908720E+04  0.14009908720E+04  0.50400001928E-02 0. -1.
    10030    2    1    2    0    0  0.00000000000E+00  0.00000000000E+00  0.14450810555E+04  0.42470627996E+04  0.39936553640E+04 0.  0.
        2    1    3    3  502    0 -0.19707393337E+04  0.17226355100E+03  0.10115033705E+04  0.22218522275E+04  0.25500000920E-02 0. -1.
       -2    1    3    3    0  502  0.19707393337E+04 -0.17226355100E+03  0.43357768501E+03  0.20252105721E+04  0.25500000920E-02 0.  1.
</event>
<event>
 5   0  0.2587493E-08  0.3989163E+04  0.7818609E-02  0.8006736E-01
       -2   -1    0    0    0  501  0.00000000000E+00  0.00000000000E+00  0.13928984525E+04  0.13928984525E+04  0.25500000920E-02 0.  1.
        2   -1    0    0  501    0  0.00000000000E+00  0.00000000000E+00 -0.28561700083E+04  0.28561700083E+04  0.25500000920E-02 0. -1.
    10030    2    1    2    0    0  0.00000000000E+00  0.00000000000E+00 -0.14632715558E+04  0.42490684607E+04  0.39891627114E+04 0.  0.
        5    1    3    3  502    0  0.15345874353E+03 -0.19256876646E+04 -0.20278961170E+03  0.19424130055E+04  0.46999998093E+01 0. -1.
       -5    1    3    3    0  502 -0.15345874353E+03  0.19256876646E+04 -0.12604819441E+04  0.23066554552E+04  0.46999998093E+01 0.  1.
</event>
<event>
 5   0  0.2650452E-08  0.4006608E+04  0.7818609E-02  0.8003215E-01
        2   -1    0    0  501    0  0.00000000000E+00  0.00000000000E+00  0.28067337736E+04  0.28067337736E+04  0.25500000920E-02 0. -1.
       -2   -1    0    0    0  501  0.00000000000E+00  0.00000000000E+00 -0.14298566666E+04  0.14298566666E+04  0.25500000920E-02 0.  1.
    10030    2    1    2    0    0  0.00000000000E+00  0.00000000000E+00  0.13768771070E+04  0.42365904402E+04  0.40066080405E+04 0.  0.
        3    1    3    3  502    0 -0.16518692670E+04 -0.83054354985E+02  0.18836555041E+04  0.25067365576E+04  0.10100000352E+00 0. -1.
       -3    1    3    3    0  502  0.16518692670E+04  0.83054354985E+02 -0.50677839706E+03  0.17298538826E+04  0.10100000352E+00 0.  1.
</event>
<event>
 5   0  0.8329875E-09  0.4101379E+04  0.7818609E-02  0.7984402E-01
        1   -1    0    0  501    0  0.00000000000E+00  0.00000000000E+00  0.25941801327E+04  0.25941801327E+04  0.50400001928E-02 0.  1.
       -1   -1    0    0    0  501  0.00000000000E+00  0.00000000000E+00 -0.16210622711E+04  0.16210622711E+04  0.50400001928E-02 0. -1.
    10030    2    1    2    0    0  0.00000000000E+00  0.00000000000E+00  0.97311786158E+03  0.42152424038E+04  0.41013790547E+04 0.  0.
        1    1    3    3  502    0 -0.18633753839E+03  0.13422716748E+04 -0.10952978669E+04  0.17424386200E+04  0.50400001928E-02 0. -1.
       -1    1    3    3    0  502  0.18633753839E+03 -0.13422716748E+04  0.20684157285E+04  0.24728037838E+04  0.50400001928E-02 0.  1.
</event>
<event>
 5   0  0.2612363E-08  0.3998855E+04  0.7818609E-02  0.8004778E-01
        2   -1    0    0  501    0  0.00000000000E+00  0.00000000000E+00  0.17860645061E+04  0.17860645061E+04  0.25500000920E-02 0.  1.
       -2   -1    0    0    0  501  0.00000000000E+00  0.00000000000E+00 -0.22382787934E+04  0.22382787934E+04  0.25500000920E-02 0. -1.
    10030    2    1    2    0    0  0.00000000000E+00  0.00000000000E+00 -0.45221428721E+03  0.40243432995E+04  0.39988549900E+04 0.  0.
        4    1    3    3  502    0 -0.13638406916E+04 -0.55852112618E+03 -0.15859046543E+04  0.21649717009E+04  0.12699999809E+01 0. -1.
       -4    1    3    3    0  502  0.13638406916E+04  0.55852112618E+03  0.11336903671E+04  0.18593715986E+04  0.12699999809E+01 0.  1.
</event>
<event>
 5   0  0.2746876E-08  0.4008904E+04  0.7818609E-02  0.8002753E-01
        2   -1    0    0  501    0  0.00000000000E+00  0.00000000000E+00  0.15736827358E+04  0.15736827358E+04  0.25500000920E-02 0. -1.
       -2   -1    0    0    0  501  0.00000000000E+00  0.00000000000E+00 -0.25531365964E+04  0.25531365964E+04  0.25500000920E-02 0.  1.
    10030    2    1    2    0    0  0.00000000000E+00  0.00000000000E+00 -0.97945386060E+03  0.41268193322E+04  0.40089035827E+04 0.  0.
        1    1    3    3  502    0  0.11112995873E+04  0.40778426694E+03 -0.21548814748E+04  0.24586152508E+04  0.50400001928E-02 0.  1.
       -1    1    3    3    0  502 -0.11112995873E+04 -0.40778426694E+03  0.11754276142E+04  0.16682040814E+04  0.50400001928E-02 0. -1.
</event>
<event>
 5   0  0.2650452E-08  0.3995657E+04  0.7818609E-02  0.8005423E-01
       -2   -1    0    0    0  501  0.00000000000E+00  0.00000000000E+00  0.17202979564E+04  0.17202979564E+04  0.25500000920E-02 0. -1.
        2   -1    0    0  501    0  0.00000000000E+00  0.00000000000E+00 -0.23201317081E+04  0.23201317081E+04  0.25500000920E-02 0.  1.
    10030    2    1    2    0    0  0.00000000000E+00  0.00000000000E+00 -0.59983375177E+03  0.40404296645E+04  0.39956565598E+04 0.  0.
        3    1    3    3  502    0  0.16279672443E+04  0.10297224723E+04  0.23584273586E+03  0.19406770789E+04  0.10100000352E+00 0. -1.
       -3    1    3    3    0  502 -0.16279672443E+04 -0.10297224723E+04 -0.83567648763E+03  0.20997525856E+04  0.10100000352E+00 0.  1.
</event>
<event>
 5   0  0.8329875E-09  0.4004948E+04  0.7818609E-02  0.8003549E-01
        3   -1    0    0  501    0  0.00000000000E+00  0.00000000000E+00  0.26497102789E+04  0.26497102808E+04  0.10100000352E+00 0.  1.
       -3   -1    0    0    0  501  0.00000000000E+00  0.00000000000E+00 -0.15133357994E+04  0.15133358027E+04  0.10100000352E+00 0. -1.
    10030    2    1    2    0    0  0.00000000000E+00  0.00000000000E+00  0.11363744795E+04  0.41630460835E+04  0.40049476571E+04 0.  0.
        2    1    3    3  502    0 -0.10328034951E+04 -0.50237068551E+03  0.22733210991E+04  0.25469684303E+04  0.25500000920E-02 0.  1.
       -2    1    3    3    0  502  0.10328034951E+04  0.50237068551E+03 -0.11369466197E+04  0.16160776532E+04  0.25500000920E-02 0. -1.
</event>
<event>
 5   0  0.8329875E-09  0.3997530E+04  0.7818609E-02  0.8005045E-01
        1   -1    0    0  501    0  0.00000000000E+00  0.00000000000E+00  0.21553255889E+04  0.21553255889E+04  0.50400001928E-02 0.  1.
       -1   -1    0    0    0  501  0.00000000000E+00  0.00000000000E+00 -0.18535772442E+04  0.18535772442E+04  0.50400001928E-02 0. -1.
    10030    2    1    2    0    0  0.00000000000E+00  0.00000000000E+00  0.30174834475E+03  0.40089028331E+04  0.39975304704E+04 0.  0.
        2    1    3    3  502    0  0.18348575335E+04  0.23709274334E+03  0.90943023615E+03  0.20615475963E+04  0.25500000920E-02 0.  1.
       -2    1    3    3    0  502 -0.18348575335E+04 -0.23709274334E+03 -0.60768189140E+03  0.19473552368E+04  0.25500000920E-02 0. -1.
</event>
<event>
 5   0  0.8329875E-09  0.4003467E+04  0.7818609E-02  0.8003847E-01
       -1   -1    0    0    0  501  0.00000000000E+00  0.00000000000E+00  0.17957268391E+04  0.17957268391E+04  0.50400001928E-02 0.  1.
        1   -1    0    0  501    0  0.00000000000E+00  0.00000000000E+00 -0.22313735112E+04  0.22313735112E+04  0.50400001928E-02 0. -1.
    10030    2    1    2    0    0  0.00000000000E+00  0.00000000000E+00 -0.43564667210E+03  0.40271003502E+04  0.40034671484E+04 0.  0.
        3    1    3    3  502    0  0.13967399668E+04 -0.84774219429E+03  0.94545832667E+03  0.18877078218E+04  0.10100000352E+00 0. -1.
       -3    1    3    3    0  502 -0.13967399668E+04  0.84774219429E+03 -0.13811049988E+04  0.21393925284E+04  0.10100000352E+00 0.  1.
</event>
<event>
 5   0  0.2599332E-08  0.3998339E+04  0.7818609E-02  0.8004882E-01
       -2   -1    0    0    0  501  0.00000000000E+00  0.00000000000E+00  0.25576517580E+04  0.25576517580E+04  0.25500000920E-02 0.  1.
        2   -1    0    0  501    0  0.00000000000E+00  0.00000000000E+00 -0.15626357475E+04  0.15626357475E+04  0.25500000920E-02 0. -1.
    10030    2    1    2    0    0  0.00000000000E+00  0.00000000000E+00  0.99501601055E+03  0.41202875055E+04  0.39983386883E+04 0.  0.
        2    1    3    3  502    0  0.34840700831E+03 -0.14980182488E+04  0.18136592583E+04  0.23779836043E+04  0.25500000920E-02 0.  1.
       -2    1    3    3    0  502 -0.34840700831E+03  0.14980182488E+04 -0.81864324774E+03  0.17423039012E+04  0.25500000920E-02 0. -1.
</event>
<event>
 5   0  0.2612363E-08  0.4006183E+04  0.7818609E-02  0.8003300E-01
        2   -1    0    0  501    0  0.00000000000E+00  0.00000000000E+00  0.25513648670E+04  0.25513648670E+04  0.25500000920E-02 0.  1.
       -2   -1    0    0    0  501  0.00000000000E+00  0.00000000000E+00 -0.15726392591E+04  0.15726392591E+04  0.25500000920E-02 0. -1.
    10030    2    1    2    0    0  0.00000000000E+00  0.00000000000E+00  0.97872560782E+03  0.41240041261E+04  0.40061834976E+04 0.  0.
        4    1    3    3  502    0 -0.69038539193E+03  0.18332232072E+04  0.92003960387E+03  0.21642120512E+04  0.12699999809E+01 0.  1.
       -4    1    3    3    0  502  0.69038539193E+03 -0.18332232072E+04  0.58686003947E+02  0.19597920749E+04  0.12699999809E+01 0. -1.
</event>
<event>
 5   0  0.8329875E-09  0.3982766E+04  0.7818609E-02  0.8008032E-01
        1   -1    0    0  501    0  0.00000000000E+00  0.00000000000E+00  0.20851372980E+04  0.20851372980E+04  0.50400001928E-02 0.  1.
       -1   -1    0    0    0  501  0.00000000000E+00  0.00000000000E+00 -0.19018445825E+04  0.19018445825E+04  0.50400001928E-02 0. -1.
    10030    2    1    2    0    0  0.00000000000E+00  0.00000000000E+00  0.18329271544E+03  0.39869818805E+04  0.39827664124E+04 0.  0.
        2    1    3    3  502    0  0.57300609191E+03  0.15028980374E+04 -0.10837209700E+04  0.19394560147E+04  0.25500000920E-02 0. -1.
       -2    1    3    3    0  502 -0.57300609191E+03 -0.15028980374E+04  0.12670136854E+04  0.20475258658E+04  0.25500000920E-02 0.  1.
</event>
<event>
 5   0  0.8329875E-09  0.3964854E+04  0.7818609E-02  0.8011674E-01
       -1   -1    0    0    0  501  0.00000000000E+00  0.00000000000E+00  0.13261318624E+04  0.13261318624E+04  0.50400001928E-02 0.  1.
        1   -1    0    0  501    0  0.00000000000E+00  0.00000000000E+00 -0.29635191801E+04  0.29635191801E+04  0.50400001928E-02 0. -1.
    10030    2    1    2    0    0  0.00000000000E+00  0.00000000000E+00 -0.16373873177E+04  0.42896510425E+04  0.39648542014E+04 0.  0.
        5    1    3    3  502    0  0.29005752131E+03  0.11503144969E+04  0.89969831757E+03  0.14889042817E+04  0.46999998093E+01 0.  1.
       -5    1    3    3    0  502 -0.29005752131E+03 -0.11503144969E+04 -0.25370856352E+04  0.28007467608E+04  0.46999998093E+01 0. -1.
</event>
<event>
 5   0  0.8329875E-09  0.3983699E+04  0.7818609E-02  0.8007843E-01
        1   -1    0    0  501    0  0.00000000000E+00  0.00000000000E+00  0.21614854107E+04  0.21614854107E+04  0.50400001928E-02 0.  1.
       -1   -1    0    0    0  501  0.00000000000E+00  0.00000000000E+00 -0.18355272556E+04  0.18355272556E+04  0.50400001928E-02 0. -1.
    10030    2    1    2    0    0  0.00000000000E+00  0.00000000000E+00  0.32595815512E+03  0.39970126663E+04  0.39836994786E+04 0.  0.
        2    1    3    3  502    0  0.23253196690E+03  0.77676487932E+03  0.19884081352E+04  0.21473708822E+04  0.25500000920E-02 0.  1.
       -2    1    3    3    0  502 -0.23253196690E+03 -0.77676487932E+03 -0.16624499801E+04  0.18496417842E+04  0.25500000920E-02 0. -1.
</event>
<event>
 5   0  0.2599332E-08  0.3990098E+04  0.7818609E-02  0.8006547E-01
       -2   -1    0    0    0  501  0.00000000000E+00  0.00000000000E+00  0.21382352338E+04  0.21382352338E+04  0.25500000920E-02 0.  1.
        2   -1    0    0  501    0  0.00000000000E+00  0.00000000000E+00 -0.18614513184E+04  0.18614513184E+04  0.25500000920E-02 0. -1.
    10030    2    1    2    0    0  0.00000000000E+00  0.00000000000E+00  0.27678391534E+03  0.39996865522E+04  0.39900981416E+04 0.  0.
        2    1    3    3  502    0  0.34792276752E+03 -0.16967803118E+04  0.11307745811E+04  0.20685175445E+04  0.25500000920E-02 0.  1.
       -2    1    3    3    0  502 -0.34792276752E+03  0.16967803118E+04 -0.85399066580E+03  0.19311690076E+04  0.25500000920E-02 0. -1.
</event>
<event>
 5   0  0.2650452E-08  0.4004507E+04  0.7818609E-02  0.8003638E-01
       -2   -1    0    0    0  501  0.00000000000E+00  0.00000000000E+00  0.17457521440E+04  0.17457521440E+04  0.25500000920E-02 0. -1.
        2   -1    0    0  501    0  0.00000000000E+00  0.00000000000E+00 -0.22964423962E+04  0.22964423962E+04  0.25500000920E-02 0.  1.
    10030    2    1    2    0    0  0.00000000000E+00  0.00000000000E+00 -0.55069025226E+03  0.40421945402E+04  0.40045070791E+04 0.  0.
        3    1    3    3  502    0  0.13615533101E+04  0.39558331131E+03  0.11517159672E+04  0.18266809387E+04  0.10100000352E+00 0. -1.
       -3    1    3    3    0  502 -0.13615533101E+04 -0.39558331131E+03 -0.17024062194E+04  0.22155136015E+04  0.10100000352E+00 0.  1.
</event>
<event>
 5   0  0.2599332E-08  0.3999936E+04  0.7818609E-02  0.8004560E-01
        2   -1    0    0  501    0  0.00000000000E+00  0.00000000000E+00  0.22614939397E+04  0.22614939397E+04  0.25500000920E-02 0. -1.
       -2   -1    0    0    0  501  0.00000000000E+00  0.00000000000E+00 -0.17686853983E+04  0.17686853984E+04  0.25500000920E-02 0.  1.
    10030    2    1    2    0    0  0.00000000000E+00  0.00000000000E+00  0.49280854135E+03  0.40301793380E+04  0.39999356543E+04 0.  0.
        2    1    3    3  502    0  0.10448304857E+04  0.82055465489E+03  0.17526627470E+04  0.21992742872E+04  0.25500000920E-02 0.  1.
       -2    1    3    3    0  502 -0.10448304857E+04 -0.82055465489E+03 -0.12598542057E+04  0.18309050508E+04  0.25500000920E-02 0. -1.
</event>
<event>
 5   0  0.8329875E-09  0.4003918E+04  0.7818609E-02  0.8003757E-01
        1   -1    0    0  501    0  0.00000000000E+00  0.00000000000E+00  0.26285812017E+04  0.26285812017E+04  0.50400001928E-02 0. -1.
       -1   -1    0    0    0  501  0.00000000000E+00  0.00000000000E+00 -0.15247160241E+04  0.15247160242E+04  0.50400001928E-02 0.  1.
    10030    2    1    2    0    0  0.00000000000E+00  0.00000000000E+00  0.11038651775E+04  0.41532972258E+04  0.40039180206E+04 0.  0.
        3    1    3    3  502    0 -0.43392817394E+03  0.69336717617E+03  0.24473386629E+04  0.25804104794E+04  0.10100000352E+00 0. -1.
       -3    1    3    3    0  502  0.43392817394E+03 -0.69336717617E+03 -0.13434734853E+04  0.15728867464E+04  0.10100000352E+00 0.  1.
</event>
<event>
 5   0  0.8329875E-09  0.3998564E+04  0.7818609E-02  0.8004836E-01
        1   -1    0    0  501    0  0.00000000000E+00  0.00000000000E+00  0.14670846991E+04  0.14670846991E+04  0.50400001928E-02 0.  1.
       -1   -1    0    0    0  501  0.00000000000E+00  0.00000000000E+00 -0.27245381803E+04  0.27245381803E+04  0.50400001928E-02 0. -1.
    10030    2    1    2    0    0  0.00000000000E+00  0.00000000000E+00 -0.12574534812E+04  0.41916228793E+04  0.39985638803E+04 0.  0.
        5    1    3    3  502    0 -0.18474104817E+04  0.14477380604E+03 -0.14154421869E+04  0.23318198081E+04  0.46999998093E+01 0. -1.
       -5    1    3    3    0  502  0.18474104817E+04 -0.14477380604E+03  0.15798870566E+03  0.18598030713E+04  0.46999998093E+01 0.  1.
</event>
<event>
 5   0  0.2587493E-08  0.3996266E+04  0.7818609E-02  0.8005300E-01
        2   -1    0    0  501    0  0.00000000000E+00  0.00000000000E+00  0.20805788853E+04  0.20805788853E+04  0.25500000920E-02 0. -1.
       -2   -1    0    0    0  501  0.00000000000E+00  0.00000000000E+00 -0.19189544903E+04  0.19189544903E+04  0.25500000920E-02 0.  1.
    10030    2    1    2    0    0  0.00000000000E+00  0.00000000000E+00  0.16162439501E+03  0.39995333757E+04  0.39962663547E+04 0.  0.
        5    1    3    3  502    0 -0.23995746185E+03  0.70647477865E+03  0.19359261856E+04  0.20747333522E+04  0.46999998093E+01 0. -1.
       -5    1    3    3    0  502  0.23995746185E+03 -0.70647477865E+03 -0.17743017906E+04  0.19248000235E+04  0.46999998093E+01 0.  1.
</event>
<event>
 5   0  0.8329875E-09  0.4009896E+04  0.7818609E-02  0.8002553E-01
        1   -1    0    0  501    0  0.00000000000E+00  0.00000000000E+00  0.29842921128E+04  0.29842921128E+04  0.50400001928E-02 0.  1.
       -1   -1    0    0    0  501  0.00000000000E+00  0.00000000000E+00 -0.13469915798E+04  0.13469915798E+04  0.50400001928E-02 0. -1.
    10030    2    1    2    0    0  0.00000000000E+00  0.00000000000E+00  0.16373005330E+04  0.43312836926E+04  0.40098959326E+04 0.  0.
        5    1    3    3  502    0 -0.19738235914E+04 -0.15104949052E+03  0.47537579695E+03  0.20358781291E+04  0.46999998093E+01 0. -1.
       -5    1    3    3    0  502  0.19738235914E+04  0.15104949052E+03  0.11619247361E+04  0.22954055634E+04  0.46999998093E+01 0.  1.
</event>
<event>
 5   0  0.8329875E-09  0.3998965E+04  0.7818609E-02  0.8004755E-01
        1   -1    0    0  501    0  0.00000000000E+00  0.00000000000E+00  0.31866091402E+04  0.31866091402E+04  0.50400001928E-02 0.  1.
       -1   -1    0    0    0  501  0.00000000000E+00  0.00000000000E+00 -0.12546035756E+04  0.12546035756E+04  0.50400001928E-02 0. -1.
    10030    2    1    2    0    0  0.00000000000E+00  0.00000000000E+00  0.19320055645E+04  0.44412127158E+04  0.39989654769E+04 0.  0.
        2    1    3    3  502    0  0.19105390457E+04 -0.34903644437E+03  0.14939075825E+04  0.24502542214E+04  0.25500000920E-02 0.  1.
       -2    1    3    3    0  502 -0.19105390457E+04  0.34903644437E+03  0.43809798206E+03  0.19909584944E+04  0.25500000920E-02 0. -1.
</event>
<event>
 5   0  0.2587493E-08  0.4004354E+04  0.7818609E-02  0.8003669E-01
       -2   -1    0    0    0  501  0.00000000000E+00  0.00000000000E+00  0.17195548834E+04  0.17195548834E+04  0.25500000920E-02 0. -1.
        2   -1    0    0  501    0  0.00000000000E+00  0.00000000000E+00 -0.23312502407E+04  0.23312502407E+04  0.25500000920E-02 0.  1.
    10030    2    1    2    0    0  0.00000000000E+00  0.00000000000E+00 -0.61169535728E+03  0.40508051241E+04  0.40043539983E+04 0.  0.
        5    1    3    3  502    0 -0.19627681832E+03 -0.83329963983E+03  0.15250585519E+04  0.17489249714E+04  0.46999998093E+01 0. -1.
       -5    1    3    3    0  502  0.19627681832E+03  0.83329963983E+03 -0.21367539091E+04  0.23018801527E+04  0.46999998093E+01 0.  1.
</event>
<event>
 5   0  0.8329875E-09  0.3999671E+04  0.7818609E-02  0.8004613E-01
        1   -1    0    0  501    0  0.00000000000E+00  0.00000000000E+00  0.15195764868E+04  0.15195764868E+04  0.50400001928E-02 0.  1.
       -1   -1    0    0    0  501  0.00000000000E+00  0.00000000000E+00 -0.26318793741E+04  0.26318793741E+04  0.50400001928E-02 0. -1.
    10030    2    1    2    0    0  0.00000000000E+00  0.00000000000E+00 -0.11123028873E+04  0.41514558609E+04  0.39996709930E+04 0.  0.
        1    1    3    3  502    0  0.27471683141E+03 -0.82465132224E+03 -0.24255621355E+04  0.25766006315E+04  0.50400001928E-02 0. -1.
       -1    1    3    3    0  502 -0.27471683141E+03  0.82465132224E+03  0.13132592482E+04  0.15748552295E+04  0.50400001928E-02 0.  1.
</event>
<event>
 5   0  0.2650452E-08  0.4001258E+04  0.7818609E-02  0.8004293E-01
       -2   -1    0    0    0  501  0.00000000000E+00  0.00000000000E+00  0.14282766372E+04  0.14282766372E+04  0.25500000920E-02 0.  1.
        2   -1    0    0  501    0  0.00000000000E+00  0.00000000000E+00 -0.28023395371E+04  0.28023395371E+04  0.25500000920E-02 0. -1.
    10030    2    1    2    0    0  0.00000000000E+00  0.00000000000E+00 -0.13740628999E+04  0.42306161744E+04  0.40012578475E+04 0.  0.
        3    1    3    3  502    0  0.68474657041E+03  0.28680943661E+03 -0.26513114063E+04  0.27532870723E+04  0.10100000352E+00 0. -1.
       -3    1    3    3    0  502 -0.68474657041E+03 -0.28680943661E+03  0.12772485064E+04  0.14773291021E+04  0.10100000352E+00 0.  1.
</event>
<event>
 5   0  0.2612363E-08  0.4004921E+04  0.7818609E-02  0.8003555E-01
        2   -1    0    0  501    0  0.00000000000E+00  0.00000000000E+00  0.21942609024E+04  0.21942609024E+04  0.25500000920E-02 0.  1.
       -2   -1    0    0    0  501  0.00000000000E+00  0.00000000000E+00 -0.18274255295E+04  0.18274255295E+04  0.25500000920E-02 0. -1.
    10030    2    1    2    0    0  0.00000000000E+00  0.00000000000E+00  0.36683537294E+03  0.40216864320E+04  0.40049211685E+04 0.  0.
        4    1    3    3  502    0 -0.63749677791E+03 -0.31202557903E+03 -0.16968749019E+04  0.18393336156E+04  0.12699999809E+01 0. -1.
       -4    1    3    3    0  502  0.63749677791E+03  0.31202557903E+03  0.20637102748E+04  0.21823528164E+04  0.12699999809E+01 0.  1.
</event>
<event>
 5   0  0.2650452E-08  0.3970051E+04  0.7818609E-02  0.8010616E-01
        2   -1    0    0  501    0  0.00000000000E+00  0.00000000000E+00  0.21551545044E+04  0.21551545044E+04  0.25500000920E-02 0.  1.
       -2   -1    0    0    0  501  0.00000000000E+00  0.00000000000E+00 -0.18283263009E+04  0.18283263009E+04  0.25500000920E-02 0. -1.
    10030    2    1    2    0    0  0.00000000000E+00  0.00000000000E+00  0.32682820358E+03  0.39834808053E+04  0.39700507115E+04 0.  0.
        3    1    3    3  502    0  0.26592103444E+03 -0.11494532038E+04  0.17651755264E+04  0.21231583345E+04  0.10100000352E+00 0.  1.
       -3    1    3    3    0  502 -0.26592103444E+03  0.11494532038E+04 -0.14383473228E+04  0.18603224708E+04  0.10100000352E+00 0. -1.
</event>
<event>
 5   0  0.8329875E-09  0.3993406E+04  0.7818609E-02  0.8005878E-01
       -1   -1    0    0    0  501  0.00000000000E+00  0.00000000000E+00  0.31326289824E+04  0.31326289824E+04  0.50400001928E-02 0.  1.
        1   -1    0    0  501    0  0.00000000000E+00  0.00000000000E+00 -0.12726766105E+04  0.12726766105E+04  0.50400001928E-02 0. -1.
    10030    2    1    2    0    0  0.00000000000E+00  0.00000000000E+00  0.18599523718E+04  0.44053055929E+04  0.39934063832E+04 0.  0.
        2    1    3    3  502    0  0.39081633954E+02  0.72197301931E+03 -0.11231927517E+04  0.13357897935E+04  0.25500000920E-02 0. -1.
       -2    1    3    3    0  502 -0.39081633954E+02 -0.72197301931E+03  0.29831451236E+04  0.30695157994E+04  0.25500000920E-02 0.  1.
</event>
<event>
 5   0  0.2612363E-08  0.4000030E+04  0.7818609E-02  0.8004540E-01
        2   -1    0    0  501    0  0.00000000000E+00  0.00000000000E+00  0.31203543572E+04  0.31203543572E+04  0.25500000920E-02 0. -1.
       -2   -1    0    0    0  501  0.00000000000E+00  0.00000000000E+00 -0.12819251555E+04  0.12819251555E+04  0.25500000920E-02 0.  1.
    10030    2    1    2    0    0  0.00000000000E+00  0.00000000000E+00  0.18384292017E+04  0.44022795128E+04  0.40000303722E+04 0.  0.
        4    1    3    3  502    0 -0.17440779869E+04 -0.89523478815E+03  0.13550227635E+04  0.23831369354E+04  0.12699999809E+01 0. -1.
       -4    1    3    3    0  502  0.17440779869E+04  0.89523478815E+03  0.48340643821E+03  0.20191425774E+04  0.12699999809E+01 0.  1.
</event>
<event>
 5   0  0.8329875E-09  0.4007676E+04  0.7818609E-02  0.8003000E-01
       -1   -1    0    0    0  501  0.00000000000E+00  0.00000000000E+00  0.15697011259E+04  0.15697011259E+04  0.50400001928E-02 0.  1.
        1   -1    0    0  501    0  0.00000000000E+00  0.00000000000E+00 -0.25580451155E+04  0.25580451155E+04  0.50400001928E-02 0. -1.
    10030    2    1    2    0    0  0.00000000000E+00  0.00000000000E+00 -0.98834398961E+03  0.41277462414E+04  0.40076757842E+04 0.  0.
        5    1    3    3  502    0 -0.12587185043E+04 -0.15261041730E+04 -0.16526460621E+03  0.19851198201E+04  0.46999998093E+01 0.  1.
       -5    1    3    3    0  502  0.12587185043E+04  0.15261041730E+04 -0.82307938340E+03  0.21426264213E+04  0.46999998093E+01 0. -1.
</event>
<event>
 5   0  0.8329875E-09  0.3991683E+04  0.7818609E-02  0.8006226E-01
       -1   -1    0    0    0  501  0.00000000000E+00  0.00000000000E+00  0.20343143536E+04  0.20343143536E+04  0.50400001928E-02 0. -1.
        1   -1    0    0  501    0  0.00000000000E+00  0.00000000000E+00 -0.19580963961E+04  0.19580963961E+04  0.50400001928E-02 0.  1.
    10030    2    1    2    0    0  0.00000000000E+00  0.00000000000E+00  0.76217957494E+02  0.39924107497E+04  0.39916831559E+04 0.  0.
        2    1    3    3  502    0  0.14431969436E+04  0.69379798502E+03  0.12296323606E+04  0.20189524027E+04  0.25500000920E-02 0. -1.
       -2    1    3    3    0  502 -0.14431969436E+04 -0.69379798502E+03 -0.11534144031E+04  0.19734583470E+04  0.25500000920E-02 0.  1.
</event>
<event>
 5   0  0.8329875E-09  0.3998450E+04  0.7818609E-02  0.8004859E-01
       -1   -1    0    0    0  501  0.00000000000E+00  0.00000000000E+00  0.14433305064E+04  0.14433305064E+04  0.50400001928E-02 0. -1.
        1   -1    0    0  501    0  0.00000000000E+00  0.00000000000E+00 -0.27692200094E+04  0.27692200094E+04  0.50400001928E-02 0.  1.
    10030    2    1    2    0    0  0.00000000000E+00  0.00000000000E+00 -0.13258895030E+04  0.42125505158E+04  0.39984495588E+04 0.  0.
        2    1    3    3  502    0  0.60834838626E+03 -0.96789951875E+03 -0.23908830318E+04  0.26501394131E+04  0.25500000920E-02 0.  1.
       -2    1    3    3    0  502 -0.60834838626E+03  0.96789951875E+03  0.10649935287E+04  0.15624111027E+04  0.25500000920E-02 0. -1.
</event>
<event>
 5   0  0.8329875E-09  0.3996899E+04  0.7818609E-02  0.8005172E-01
        1   -1    0    0  501    0  0.00000000000E+00  0.00000000000E+00  0.31113329582E+04  0.31113329582E+04  0.50400001928E-02 0. -1.
       -1   -1    0    0    0  501  0.00000000000E+00  0.00000000000E+00 -0.12836301449E+04  0.12836301449E+04  0.50400001928E-02 0.  1.
    10030    2    1    2    0    0  0.00000000000E+00  0.00000000000E+00  0.18277028134E+04  0.43949631031E+04  0.39968991861E+04 0.  0.
        3    1    3    3  502    0 -0.19367842504E+04 -0.34510689994E+03  0.13003842352E+04  0.23582262772E+04  0.10100000352E+00 0.  1.
       -3    1    3    3    0  502  0.19367842504E+04  0.34510689994E+03  0.52731857812E+03  0.20367368259E+04  0.10100000352E+00 0. -1.
</event>
<event>
 5   0  0.8329875E-09  0.3999844E+04  0.7818609E-02  0.8004578E-01
        1   -1    0    0  501    0  0.00000000000E+00  0.00000000000E+00  0.18295358396E+04  0.18295358396E+04  0.50400001928E-02 0. -1.
       -1   -1    0    0    0  501  0.00000000000E+00  0.00000000000E+00 -0.21861766882E+04  0.21861766882E+04  0.50400001928E-02 0.  1.
    10030    2    1    2    0    0  0.00000000000E+00  0.00000000000E+00 -0.35664084858E+03  0.40157125278E+04  0.39998442983E+04 0.  0.
        5    1    3    3  502    0  0.27802227280E+03 -0.14256738800E+04  0.12018420752E+04  0.18852821699E+04  0.46999998093E+01 0. -1.
       -5    1    3    3    0  502 -0.27802227280E+03  0.14256738800E+04 -0.15584829238E+04  0.21304303579E+04  0.46999998093E+01 0.  1.
</event>
<event>
 5   0  0.2587493E-08  0.4044832E+04  0.7818609E-02  0.7995563E-01
        2   -1    0    0  501    0  0.00000000000E+00  0.00000000000E+00  0.26161806406E+04  0.26161806406E+04  0.25500000920E-02 0. -1.
       -2   -1    0    0    0  501  0.00000000000E+00  0.00000000000E+00 -0.15634112720E+04  0.15634112720E+04  0.25500000920E-02 0.  1.
    10030    2    1    2    0    0  0.00000000000E+00  0.00000000000E+00  0.10527693686E+04  0.41795919126E+04  0.40448319140E+04 0.  0.
        5    1    3    3  502    0  0.82323769277E+03  0.14866378444E+04 -0.60665618219E+03  0.18044018933E+04  0.46999998093E+01 0.  1.
       -5    1    3    3    0  502 -0.82323769277E+03 -0.14866378444E+04  0.16594255508E+04  0.23751900193E+04  0.46999998093E+01 0. -1.
</event>
<event>
 5   0  0.8329875E-09  0.3999644E+04  0.7818609E-02  0.8004618E-01
       -1   -1    0    0    0  501  0.00000000000E+00  0.00000000000E+00  0.16980185986E+04  0.16980185986E+04  0.50400001928E-02 0. -1.
        1   -1    0    0  501    0  0.00000000000E+00  0.00000000000E+00 -0.23552679831E+04  0.23552679831E+04  0.50400001928E-02 0.  1.
    10030    2    1    2    0    0  0.00000000000E+00  0.00000000000E+00 -0.65724938446E+03  0.40532865818E+04  0.39996444043E+04 0.  0.
        3    1    3    3  502    0 -0.64307099349E+03  0.18688597388E+04 -0.63785944863E+03  0.20767863906E+04  0.10100000352E+00 0.  1.
       -3    1    3    3    0  502  0.64307099349E+03 -0.18688597388E+04 -0.19389935836E+02  0.19765001912E+04  0.10100000352E+00 0. -1.
</event>
<event>
 5   0  0.8329875E-09  0.3994871E+04  0.7818609E-02  0.8005582E-01
       -1   -1    0    0    0  501  0.00000000000E+00  0.00000000000E+00  0.15940724063E+04  0.15940724063E+04  0.50400001928E-02 0.  1.
        1   -1    0    0  501    0  0.00000000000E+00  0.00000000000E+00 -0.25028658660E+04  0.25028658660E+04  0.50400001928E-02 0. -1.
    10030    2    1    2    0    0  0.00000000000E+00  0.00000000000E+00 -0.90879345967E+03  0.40969382724E+04  0.39948714191E+04 0.  0.
        5    1    3    3  502    0 -0.87210689797E+02  0.90851081884E+02  0.15899912427E+04  0.15949777006E+04  0.46999998093E+01 0.  1.
       -5    1    3    3    0  502  0.87210689797E+02 -0.90851081884E+02 -0.24987847024E+04  0.25019605717E+04  0.46999998093E+01 0. -1.
</event>
<event>
 5   0  0.8329875E-09  0.3995146E+04  0.7818609E-02  0.8005526E-01
        1   -1    0    0  501    0  0.00000000000E+00  0.00000000000E+00  0.24917965816E+04  0.24917965816E+04  0.50400001928E-02 0. -1.
       -1   -1    0    0    0  501  0.00000000000E+00  0.00000000000E+00 -0.16013740300E+04  0.16013740300E+04  0.50400001928E-02 0.  1.
    10030    2    1    2    0    0  0.00000000000E+00  0.00000000000E+00  0.89042255161E+03  0.40931706116E+04  0.39951462220E+04 0.  0.
        4    1    3    3  502    0 -0.40962324417E+03 -0.38459227596E+03  0.24091677868E+04  0.24738216303E+04  0.12699999809E+01 0. -1.
       -4    1    3    3    0  502  0.40962324417E+03  0.38459227596E+03 -0.15187452352E+04  0.16193489813E+04  0.12699999809E+01 0.  1.
</event>
<event>
 5   0  0.8329875E-09  0.4001809E+04  0.7818609E-02  0.8004182E-01
        1   -1    0    0  501    0  0.00000000000E+00  0.00000000000E+00  0.24573289645E+04  0.24573289645E+04  0.50400001928E-02 0. -1.
       -1   -1    0    0    0  501  0.00000000000E+00  0.00000000000E+00 -0.16292561130E+04  0.16292561130E+04  0.50400001928E-02 0.  1.
    10030    2    1    2    0    0  0.00000000000E+00  0.00000000000E+00  0.82807285152E+03  0.40865850775E+04  0.40018087096E+04 0.  0.
        2    1    3    3  502    0 -0.28346851513E+03 -0.18644712840E+04  0.10967887136E+04  0.21816399910E+04  0.25500000920E-02 0. -1.
       -2    1    3    3    0  502  0.28346851513E+03  0.18644712840E+04 -0.26871586209E+03  0.19049450865E+04  0.25500000920E-02 0.  1.
</event>
<event>
 5   0  0.2599332E-08  0.3981623E+04  0.7818609E-02  0.8008264E-01
       -2   -1    0    0    0  501  0.00000000000E+00  0.00000000000E+00  0.24077948914E+04  0.24077948914E+04  0.25500000920E-02 0.  1.
        2   -1    0    0  501    0  0.00000000000E+00  0.00000000000E+00 -0.16460413336E+04  0.16460413336E+04  0.25500000920E-02 0. -1.
    10030    2    1    2    0    0  0.00000000000E+00  0.00000000000E+00  0.76175355779E+03  0.40538362250E+04  0.39816227416E+04 0.  0.
        2    1    3    3  502    0 -0.14704543810E+04 -0.39367733800E+03  0.16871552790E+04  0.22723800009E+04  0.25500000920E-02 0.  1.
       -2    1    3    3    0  502  0.14704543810E+04  0.39367733800E+03 -0.92540172119E+03  0.17814562242E+04  0.25500000920E-02 0. -1.
</event>
<event>
 5   0  0.2650452E-08  0.4004298E+04  0.7818609E-02  0.8003680E-01
       -2   -1    0    0    0  501  0.00000000000E+00  0.00000000000E+00  0.13684682735E+04  0.13684682735E+04  0.25500000920E-02 0.  1.
        2   -1    0    0  501    0  0.00000000000E+00  0.00000000000E+00 -0.29292611483E+04  0.29292611483E+04  0.25500000920E-02 0. -1.
    10030    2    1    2    0    0  0.00000000000E+00  0.00000000000E+00 -0.15607928748E+04  0.42977294218E+04  0.40042981638E+04 0.  0.
        3    1    3    3  502    0 -0.14061546201E+04  0.71910762900E+03  0.54031013372E+03  0.16692278600E+04  0.10100000352E+00 0.  1.
       -3    1    3    3    0  502  0.14061546201E+04 -0.71910762900E+03 -0.21011030086E+04  0.26285015618E+04  0.10100000352E+00 0. -1.
</event>
<event>
 5   0  0.2612363E-08  0.3990463E+04  0.7818609E-02  0.8006473E-01
        2   -1    0    0  501    0  0.00000000000E+00  0.00000000000E+00  0.19591138823E+04  0.19591138823E+04  0.25500000920E-02 0.  1.
       -2   -1    0    0    0  501  0.00000000000E+00  0.00000000000E+00 -0.20320148551E+04  0.20320148551E+04  0.25500000920E-02 0. -1.
    10030    2    1    2    0    0  0.00000000000E+00  0.00000000000E+00 -0.72900972827E+02  0.39911287374E+04  0.39904628863E+04 0.  0.
        4    1    3    3  502    0 -0.71379094626E+03  0.16079388416E+04  0.90497277723E+03  0.19783685636E+04  0.12699999809E+01 0.  1.
       -4    1    3    3    0  502  0.71379094626E+03 -0.16079388416E+04 -0.97787375005E+03  0.20127601738E+04  0.12699999809E+01 0. -1.
</event>
<event>
 5   0  0.8329875E-09  0.3997217E+04  0.7818609E-02  0.8005108E-01
        1   -1    0    0  501    0  0.00000000000E+00  0.00000000000E+00  0.24518974444E+04  0.24518974444E+04  0.50400001928E-02 0. -1.
       -1   -1    0    0    0  501  0.00000000000E+00  0.00000000000E+00 -0.16291201760E+04  0.16291201760E+04  0.50400001928E-02 0.  1.
    10030    2    1    2    0    0  0.00000000000E+00  0.00000000000E+00  0.82277726838E+03  0.40810176204E+04  0.39972168298E+04 0.  0.
        5    1    3    3  502    0  0.38638133452E+03  0.11958413075E+04  0.19980239297E+04  0.23603916374E+04  0.46999998093E+01 0. -1.
       -5    1    3    3    0  502 -0.38638133452E+03 -0.11958413075E+04 -0.11752466613E+04  0.17206259830E+04  0.46999998093E+01 0.  1.
</event>
<event>
 5   0  0.2746876E-08  0.3998731E+04  0.7818609E-02  0.8004803E-01
       -2   -1    0    0    0  501  0.00000000000E+00  0.00000000000E+00  0.21840979902E+04  0.21840979902E+04  0.25500000920E-02 0. -1.
        2   -1    0    0  501    0  0.00000000000E+00  0.00000000000E+00 -0.18302574848E+04  0.18302574848E+04  0.25500000920E-02 0.  1.
    10030    2    1    2    0    0  0.00000000000E+00  0.00000000000E+00  0.35384050537E+03  0.40143554751E+04  0.39987306457E+04 0.  0.
        1    1    3    3  502    0  0.11077395601E+04  0.26924786843E+03 -0.14720203735E+04  0.18618338615E+04  0.50400001928E-02 0.  1.
       -1    1    3    3    0  502 -0.11077395601E+04 -0.26924786843E+03  0.18258608789E+04  0.21525216136E+04  0.50400001928E-02 0. -1.
</event>
<event>
 5   0  0.2587493E-08  0.3996293E+04  0.7818609E-02  0.8005295E-01
       -2   -1    0    0    0  501  0.00000000000E+00  0.00000000000E+00  0.15380013269E+04  0.15380013269E+04  0.25500000920E-02 0.  1.
        2   -1    0    0  501    0  0.00000000000E+00  0.00000000000E+00 -0.25959590938E+04  0.25959590938E+04  0.25500000920E-02 0. -1.
    10030    2    1    2    0    0  0.00000000000E+00  0.00000000000E+00 -0.10579577669E+04  0.41339604207E+04  0.39962925473E+04 0.  0.
        5    1    3    3  502    0  0.17239078020E+04 -0.23060601014E+03  0.48853672869E+03  0.18065789401E+04  0.46999998093E+01 0.  1.
       -5    1    3    3    0  502 -0.17239078020E+04  0.23060601014E+03 -0.15464944956E+04  0.23273814806E+04  0.46999998093E+01 0. -1.
</event>
<event>
 5   0  0.8329875E-09  0.3894617E+04  0.7818609E-02  0.8026150E-01
       -1   -1    0    0    0  501  0.00000000000E+00  0.00000000000E+00  0.21355920731E+04  0.21355920731E+04  0.50400001928E-02 0. -1.
        1   -1    0    0  501    0  0.00000000000E+00  0.00000000000E+00 -0.17756244560E+04  0.17756244560E+04  0.50400001928E-02 0.  1.
    10030    2    1    2    0    0  0.00000000000E+00  0.00000000000E+00  0.35996761707E+03  0.39112165291E+04  0.38946165475E+04 0.  0.
        4    1    3    3  502    0  0.46858039526E+03  0.16038881100E+04 -0.82427006674E+03  0.18631820663E+04  0.12699999809E+01 0. -1.
       -4    1    3    3    0  502 -0.46858039526E+03 -0.16038881100E+04  0.11842376838E+04  0.20480344628E+04  0.12699999809E+01 0.  1.
</event>
<event>
 5   0  0.8329875E-09  0.4050441E+04  0.7818609E-02  0.7994448E-01
       -1   -1    0    0    0  501  0.00000000000E+00  0.00000000000E+00  0.18633934192E+04  0.18633934192E+04  0.50400001928E-02 0. -1.
        1   -1    0    0  501    0  0.00000000000E+00  0.00000000000E+00 -0.22011018674E+04  0.22011018674E+04  0.50400001928E-02 0.  1.
    10030    2    1    2    0    0  0.00000000000E+00  0.00000000000E+00 -0.33770844820E+03  0.40644952866E+04  0.40504413264E+04 0.  0.
        2    1    3    3  502    0  0.99127304303E+03  0.13696697947E+04  0.94986879004E+03  0.19392958285E+04  0.25500000920E-02 0.  1.
       -2    1    3    3    0  502 -0.99127304303E+03 -0.13696697947E+04 -0.12875772382E+04  0.21251994581E+04  0.25500000920E-02 0. -1.
</event>
<event>
 5   0  0.8329875E-09  0.4007898E+04  0.7818609E-02  0.8002955E-01
       -1   -1    0    0    0  501  0.00000000000E+00  0.00000000000E+00  0.34966330307E+04  0.34966330307E+04  0.50400001928E-02 0. -1.
        1   -1    0    0  501    0  0.00000000000E+00  0.00000000000E+00 -0.11484796761E+04  0.11484796762E+04  0.50400001928E-02 0.  1.
    10030    2    1    2    0    0  0.00000000000E+00  0.00000000000E+00  0.23481533545E+04  0.46451127068E+04  0.40078981877E+04 0.  0.
        2    1    3    3  502    0 -0.48380651967E+03 -0.80861760695E+03  0.32238445015E+04  0.33587355586E+04  0.25500000920E-02 0. -1.
       -2    1    3    3    0  502  0.48380651967E+03  0.80861760695E+03 -0.87569114694E+03  0.12863771483E+04  0.25500000920E-02 0.  1.
</event>
<event>
 5   0  0.8329875E-09  0.4018285E+04  0.7818609E-02  0.8000868E-01
        1   -1    0    0  501    0  0.00000000000E+00  0.00000000000E+00  0.21390891483E+04  0.21390891483E+04  0.50400001928E-02 0.  1.
       -1   -1    0    0    0  501  0.00000000000E+00  0.00000000000E+00 -0.18870900450E+04  0.18870900450E+04  0.50400001928E-02 0. -1.
    10030    2    1    2    0    0  0.00000000000E+00  0.00000000000E+00  0.25199910332E+03  0.40261791933E+04  0.40182851254E+04 0.  0.
        5    1    3    3  502    0 -0.72623063405E+03  0.58899084301E+03  0.19077817365E+04  0.21246115860E+04  0.46999998093E+01 0.  1.
       -5    1    3    3    0  502  0.72623063405E+03 -0.58899084301E+03 -0.16557826332E+04  0.19015676074E+04  0.46999998093E+01 0. -1.
</event>
<event>
 5   0  0.8329875E-09  0.3991950E+04  0.7818609E-02  0.8006172E-01
       -1   -1    0    0    0  501  0.00000000000E+00  0.00000000000E+00  0.13590455831E+04  0.13590455832E+04  0.50400001928E-02 0.  1.
        1   -1    0    0  501    0  0.00000000000E+00  0.00000000000E+00 -0.29314075171E+04  0.29314075171E+04  0.50400001928E-02 0. -1.
    10030    2    1    2    0    0  0.00000000000E+00  0.00000000000E+00 -0.15723619340E+04  0.42904531003E+04  0.39919501192E+04 0.  0.
        2    1    3    3  502    0  0.21201197021E+03  0.19255266313E+04 -0.26926549228E+03  0.19557877668E+04  0.25500000920E-02 0.  1.
       -2    1    3    3    0  502 -0.21201197021E+03 -0.19255266313E+04 -0.13030964417E+04  0.23346653335E+04  0.25500000920E-02 0. -1.
</event>
<event>
 5   0  0.2599332E-08  0.3995860E+04  0.7818609E-02  0.8005382E-01
       -2   -1    0    0    0  501  0.00000000000E+00  0.00000000000E+00  0.15605719912E+04  0.15605719912E+04  0.25500000920E-02 0.  1.
        2   -1    0    0  501    0  0.00000000000E+00  0.00000000000E+00 -0.25578593184E+04  0.25578593184E+04  0.25500000920E-02 0. -1.
    10030    2    1    2    0    0  0.00000000000E+00  0.00000000000E+00 -0.99728732721E+03  0.41184313096E+04  0.39958596621E+04 0.  0.
        2    1    3    3  502    0  0.75008623926E+03 -0.14494566582E+04  0.68917015684E+03  0.17715838889E+04  0.25500000920E-02 0.  1.
       -2    1    3    3    0  502 -0.75008623926E+03  0.14494566582E+04 -0.16864574840E+04  0.23468474207E+04  0.25500000920E-02 0. -1.
</event>
<event>
 5   0  0.2599332E-08  0.3980662E+04  0.7818609E-02  0.8008459E-01
       -2   -1    0    0    0  501  0.00000000000E+00  0.00000000000E+00  0.33508665095E+04  0.33508665095E+04  0.25500000920E-02 0. -1.
        2   -1    0    0  501    0  0.00000000000E+00  0.00000000000E+00 -0.11822068426E+04  0.11822068426E+04  0.25500000920E-02 0.  1.
    10030    2    1    2    0    0  0.00000000000E+00  0.00000000000E+00  0.21686596669E+04  0.45330733520E+04  0.39806619128E+04 0.  0.
        2    1    3    3  502    0 -0.15648626302E+03 -0.87288517688E+03 -0.94479784537E+03  0.12957852643E+04  0.25500000920E-02 0.  1.
       -2    1    3    3    0  502  0.15648626302E+03  0.87288517688E+03  0.31134575123E+04  0.32372880878E+04  0.25500000920E-02 0. -1.
</event>
<event>
 5   0  0.2650452E-08  0.4000708E+04  0.7818609E-02  0.8004404E-01
        2   -1    0    0  501    0  0.00000000000E+00  0.00000000000E+00  0.25880728593E+04  0.25880728593E+04  0.25500000920E-02 0. -1.
       -2   -1    0    0    0  501  0.00000000000E+00  0.00000000000E+00 -0.15460987022E+04  0.15460987022E+04  0.25500000920E-02 0.  1.
    10030    2    1    2    0    0  0.00000000000E+00  0.00000000000E+00  0.10419741571E+04  0.41341715614E+04  0.40007079818E+04 0.  0.
        3    1    3    3  502    0  0.13687976749E+03 -0.94762297429E+03 -0.12939327900E+04  0.16096544497E+04  0.10100000352E+00 0.  1.
       -3    1    3    3    0  502 -0.13687976749E+03  0.94762297429E+03  0.23359069471E+04  0.25245171118E+04  0.10100000352E+00 0. -1.
</event>
<event>
 5   0  0.8329875E-09  0.4003477E+04  0.7818609E-02  0.8003845E-01
       -1   -1    0    0    0  501  0.00000000000E+00  0.00000000000E+00  0.18620309317E+04  0.18620309317E+04  0.50400001928E-02 0.  1.
        1   -1    0    0  501    0  0.00000000000E+00  0.00000000000E+00 -0.21519286262E+04  0.21519286262E+04  0.50400001928E-02 0. -1.
    10030    2    1    2    0    0  0.00000000000E+00  0.00000000000E+00 -0.28989769453E+03  0.40139595579E+04  0.40034773209E+04 0.  0.
        1    1    3    3  502    0 -0.11720850789E+03  0.49097542472E+03 -0.20870706599E+04  0.21472444298E+04  0.50400001928E-02 0. -1.
       -1    1    3    3    0  502  0.11720850789E+03 -0.49097542472E+03  0.17971729653E+04  0.18667151281E+04  0.50400001928E-02 0.  1.
</event>
<event>
 5   0  0.8329875E-09  0.3997083E+04  0.7818609E-02  0.8005135E-01
       -1   -1    0    0    0  501  0.00000000000E+00  0.00000000000E+00  0.19143421304E+04  0.19143421304E+04  0.50400001928E-02 0.  1.
        1   -1    0    0  501    0  0.00000000000E+00  0.00000000000E+00 -0.20864439368E+04  0.20864439368E+04  0.50400001928E-02 0. -1.
    10030    2    1    2    0    0  0.00000000000E+00  0.00000000000E+00 -0.17210180643E+03  0.40007860672E+04  0.39970827016E+04 0.  0.
        2    1    3    3  502    0  0.10795444517E+03  0.20542291834E+03 -0.20729126785E+04  0.20858618627E+04  0.25500000920E-02 0. -1.
       -2    1    3    3    0  502 -0.10795444517E+03 -0.20542291834E+03  0.19008108721E+04  0.19149242045E+04  0.25500000920E-02 0.  1.
</event>
<event>
 5   0  0.8329875E-09  0.4002292E+04  0.7818609E-02  0.8004084E-01
        1   -1    0    0  501    0  0.00000000000E+00  0.00000000000E+00  0.14137852892E+04  0.14137852892E+04  0.50400001928E-02 0. -1.
       -1   -1    0    0    0  501  0.00000000000E+00  0.00000000000E+00 -0.28325273815E+04  0.28325273816E+04  0.50400001928E-02 0.  1.
    10030    2    1    2    0    0  0.00000000000E+00  0.00000000000E+00 -0.14187420924E+04  0.42463126707E+04  0.40022921149E+04 0.  0.
        2    1    3    3  502    0 -0.10621348192E+04  0.85142888400E+03  0.84686792369E+03  0.16031989268E+04  0.25500000920E-02 0. -1.
       -2    1    3    3    0  502  0.10621348192E+04 -0.85142888400E+03 -0.22656100161E+04  0.26431137440E+04  0.25500000920E-02 0.  1.
</event>
<event>
 5   0  0.2650452E-08  0.3978011E+04  0.7818609E-02  0.8008997E-01
        2   -1    0    0  501    0  0.00000000000E+00  0.00000000000E+00  0.27152013615E+04  0.27152013615E+04  0.25500000920E-02 0. -1.
       -2   -1    0    0    0  501  0.00000000000E+00  0.00000000000E+00 -0.14570344959E+04  0.14570344959E+04  0.25500000920E-02 0.  1.
    10030    2    1    2    0    0  0.00000000000E+00  0.00000000000E+00  0.12581668657E+04  0.41722358574E+04  0.39780105817E+04 0.  0.
        3    1    3    3  502    0  0.90670985069E+01 -0.13713905284E+04 -0.88186055942E+03  0.16304822140E+04  0.10100000352E+00 0.  1.
       -3    1    3    3    0  502 -0.90670985069E+01  0.13713905284E+04  0.21400274251E+04  0.25417536435E+04  0.10100000352E+00 0. -1.
</event>
<event>
 5   0  0.2599332E-08  0.3993200E+04  0.7818609E-02  0.8005920E-01
        2   -1    0    0  501    0  0.00000000000E+00  0.00000000000E+00  0.17234995123E+04  0.17234995123E+04  0.25500000920E-02 0. -1.
       -2   -1    0    0    0  501  0.00000000000E+00  0.00000000000E+00 -0.23129751126E+04  0.23129751126E+04  0.25500000920E-02 0.  1.
    10030    2    1    2    0    0  0.00000000000E+00  0.00000000000E+00 -0.58947560027E+03  0.40364746249E+04  0.39931999592E+04 0.  0.
        2    1    3    3  502    0  0.10245821607E+04  0.15988232947E+04 -0.91819319656E+03  0.21092850158E+04  0.25500000920E-02 0.  1.
       -2    1    3    3    0  502 -0.10245821607E+04 -0.15988232947E+04  0.32871759629E+03  0.19271896092E+04  0.25500000920E-02 0. -1.
</event>
<event>
 5   0  0.2599332E-08  0.4007968E+04  0.7818609E-02  0.8002941E-01
        2   -1    0    0  501    0  0.00000000000E+00  0.00000000000E+00  0.22709030442E+04  0.22709030442E+04  0.25500000920E-02 0.  1.
       -2   -1    0    0    0  501  0.00000000000E+00  0.00000000000E+00 -0.17684379677E+04  0.17684379677E+04  0.25500000920E-02 0. -1.
    10030    2    1    2    0    0  0.00000000000E+00  0.00000000000E+00  0.50246507654E+03  0.40393410119E+04  0.40079676467E+04 0.  0.
        2    1    3    3  502    0  0.28142190821E+03  0.49996474212E+03  0.21863636807E+04  0.22603869532E+04  0.25500000920E-02 0.  1.
       -2    1    3    3    0  502 -0.28142190821E+03 -0.49996474212E+03 -0.16838986042E+04  0.17789540587E+04  0.25500000920E-02 0. -1.
</event>
<event>
 5   0  0.8329875E-09  0.3999304E+04  0.7818609E-02  0.8004687E-01
        1   -1    0    0  501    0  0.00000000000E+00  0.00000000000E+00  0.21638428521E+04  0.21638428521E+04  0.50400001928E-02 0.  1.
       -1   -1    0    0    0  501  0.00000000000E+00  0.00000000000E+00 -0.18479197446E+04  0.18479197446E+04  0.50400001928E-02 0. -1.
    10030    2    1    2    0    0  0.00000000000E+00  0.00000000000E+00  0.31592310750E+03  0.40117625967E+04  0.39993039047E+04 0.  0.
        4    1    3    3  502    0 -0.10513148268E+04  0.91033524108E+03 -0.12833978015E+04  0.18923753977E+04  0.12699999809E+01 0. -1.
       -4    1    3    3    0  502  0.10513148268E+04 -0.91033524108E+03  0.15993209090E+04  0.21193871989E+04  0.12699999809E+01 0.  1.
</event>
<event>
 5   0  0.2746876E-08  0.4001352E+04  0.7818609E-02  0.8004274E-01
       -2   -1    0    0    0  501  0.00000000000E+00  0.00000000000E+00  0.18808624548E+04  0.18808624548E+04  0.25500000920E-02 0.  1.
        2   -1    0    0  501    0  0.00000000000E+00  0.00000000000E+00 -0.21281223501E+04  0.21281223501E+04  0.25500000920E-02 0. -1.
    10030    2    1    2    0    0  0.00000000000E+00  0.00000000000E+00 -0.24725989526E+03  0.40089848049E+04  0.40013524851E+04 0.  0.
        1    1    3    3  502    0 -0.40625743070E+03 -0.17662460161E+04  0.72535601325E+03  0.19521299740E+04  0.50400001928E-02 0.  1.
       -1    1    3    3    0  502  0.40625743070E+03  0.17662460161E+04 -0.97261590850E+03  0.20568548308E+04  0.50400001928E-02 0. -1.
</event>
<event>
 5   0  0.2650452E-08  0.3997135E+04  0.7818609E-02  0.8005125E-01
       -2   -1    0    0    0  501  0.00000000000E+00  0.00000000000E+00  0.14972485500E+04  0.14972485500E+04  0.25500000920E-02 0. -1.
        2   -1    0    0  501    0  0.00000000000E+00  0.00000000000E+00 -0.26677414163E+04  0.26677414163E+04  0.25500000920E-02 0.  1.
    10030    2    1    2    0    0  0.00000000000E+00  0.00000000000E+00 -0.11704928662E+04  0.41649899663E+04  0.39971349576E+04 0.  0.
        3    1    3    3  502    0 -0.13631941224E+04  0.19172900198E+03 -0.20949562426E+04  0.25067708101E+04  0.10100000352E+00 0. -1.
       -3    1    3    3    0  502  0.13631941224E+04 -0.19172900198E+03  0.92446337637E+03  0.16582191562E+04  0.10100000352E+00 0.  1.
</event>
<event>
 5   0  0.8329875E-09  0.3999169E+04  0.7818609E-02  0.8004714E-01
       -1   -1    0    0    0  501  0.00000000000E+00  0.00000000000E+00  0.17439225999E+04  0.17439225999E+04  0.50400001928E-02 0.  1.
        1   -1    0    0  501    0  0.00000000000E+00  0.00000000000E+00 -0.22927273445E+04  0.22927273445E+04  0.50400001928E-02 0. -1.
    10030    2    1    2    0    0  0.00000000000E+00  0.00000000000E+00 -0.54880474459E+03  0.40366499444E+04  0.39991694295E+04 0.  0.
        2    1    3    3  502    0 -0.12892965836E+04 -0.12853999722E+04 -0.11090745108E+04  0.21318032366E+04  0.25500000920E-02 0. -1.
       -2    1    3    3    0  502  0.12892965836E+04  0.12853999722E+04  0.56026976624E+03  0.19048467078E+04  0.25500000920E-02 0.  1.
</event>
<event>
 5   0  0.2650452E-08  0.3999267E+04  0.7818609E-02  0.8004694E-01
       -2   -1    0    0    0  501  0.00000000000E+00  0.00000000000E+00  0.13840308085E+04  0.13840308085E+04  0.25500000920E-02 0. -1.
        2   -1    0    0  501    0  0.00000000000E+00  0.00000000000E+00 -0.28890503539E+04  0.28890503539E+04  0.25500000920E-02 0.  1.
    10030    2    1    2    0    0  0.00000000000E+00  0.00000000000E+00 -0.15050195454E+04  0.42730811624E+04  0.39992672815E+04 0.  0.
        3    1    3    3  502    0  0.19873561544E+04 -0.70646135075E+02 -0.52849006615E+03  0.20576387247E+04  0.10100000352E+00 0. -1.
       -3    1    3    3    0  502 -0.19873561544E+04  0.70646135075E+02 -0.97652947923E+03  0.22154424378E+04  0.10100000352E+00 0.  1.
</event>
<event>
 5   0  0.2599332E-08  0.4002893E+04  0.7818609E-02  0.8003963E-01
       -2   -1    0    0    0  501  0.00000000000E+00  0.00000000000E+00  0.27151047413E+04  0.27151047413E+04  0.25500000920E-02 0.  1.
        2   -1    0    0  501    0  0.00000000000E+00  0.00000000000E+00 -0.14753713071E+04  0.14753713071E+04  0.25500000920E-02 0. -1.
    10030    2    1    2    0    0  0.00000000000E+00  0.00000000000E+00  0.12397334342E+04  0.41904760484E+04  0.40028927695E+04 0.  0.
        2    1    3    3  502    0  0.12357299269E+04  0.34153037550E+03 -0.98907396795E+03  0.16192401810E+04  0.25500000920E-02 0. -1.
       -2    1    3    3    0  502 -0.12357299269E+04 -0.34153037550E+03  0.22288074022E+04  0.25712358674E+04  0.25500000920E-02 0.  1.
</event>
<event>
 5   0  0.2650452E-08  0.4000586E+04  0.7818609E-02  0.8004428E-01
        2   -1    0    0  501    0  0.00000000000E+00  0.00000000000E+00  0.27529824076E+04  0.27529824076E+04  0.25500000920E-02 0.  1.
       -2   -1    0    0    0  501  0.00000000000E+00  0.00000000000E+00 -0.14533957279E+04  0.14533957279E+04  0.25500000920E-02 0. -1.
    10030    2    1    2    0    0  0.00000000000E+00  0.00000000000E+00  0.12995866798E+04  0.42063781355E+04  0.40005863921E+04 0.  0.
        3    1    3    3  502    0  0.10528601760E+04 -0.47774721592E+03 -0.10664768802E+04  0.15729367117E+04  0.10100000352E+00 0. -1.
       -3    1    3    3    0  502 -0.10528601760E+04  0.47774721592E+03  0.23660635600E+04  0.26334414239E+04  0.10100000352E+00 0.  1.
</event>
<event>
 5   0  0.8329875E-09  0.3997557E+04  0.7818609E-02  0.8005039E-01
       -1   -1    0    0    0  501  0.00000000000E+00  0.00000000000E+00  0.15214076852E+04  0.15214076852E+04  0.50400001928E-02 0.  1.
        1   -1    0    0  501    0  0.00000000000E+00  0.00000000000E+00 -0.26259341730E+04  0.26259341730E+04  0.50400001928E-02 0. -1.
    10030    2    1    2    0    0  0.00000000000E+00  0.00000000000E+00 -0.11045264878E+04  0.41473418582E+04  0.39975574701E+04 0.  0.
        5    1    3    3  502    0  0.14292221142E+04  0.74147521359E+03 -0.17809668837E+04  0.24009011797E+04  0.46999998093E+01 0. -1.
       -5    1    3    3    0  502 -0.14292221142E+04 -0.74147521359E+03  0.67644039592E+03  0.17464406784E+04  0.46999998093E+01 0.  1.
</event>
<event>
 5   0  0.8329875E-09  0.4003979E+04  0.7818609E-02  0.8003744E-01
        3   -1    0    0  501    0  0.00000000000E+00  0.00000000000E+00  0.23408590236E+04  0.23408590258E+04  0.10100000352E+00 0. -1.
       -3   -1    0    0    0  501  0.00000000000E+00  0.00000000000E+00 -0.17121761178E+04  0.17121761207E+04  0.10100000352E+00 0.  1.
    10030    2    1    2    0    0  0.00000000000E+00  0.00000000000E+00  0.62868290584E+03  0.40530351465E+04  0.40039794833E+04 0.  0.
        4    1    3    3  502    0 -0.18696739167E+04  0.58678294032E+03 -0.10051697099E+03  0.19621671815E+04  0.12699999809E+01 0.  1.
       -4    1    3    3    0  502  0.18696739167E+04 -0.58678294032E+03  0.72919987684E+03  0.20908679650E+04  0.12699999809E+01 0. -1.
</event>
<event>
 5   0  0.2746876E-08  0.4000472E+04  0.7818609E-02  0.8004451E-01
       -2   -1    0    0    0  501  0.00000000000E+00  0.00000000000E+00  0.16191923392E+04  0.16191923392E+04  0.25500000920E-02 0. -1.
        2   -1    0    0  501    0  0.00000000000E+00  0.00000000000E+00 -0.24709508556E+04  0.24709508556E+04  0.25500000920E-02 0.  1.
    10030    2    1    2    0    0  0.00000000000E+00  0.00000000000E+00 -0.85175851646E+03  0.40901431948E+04  0.40004723200E+04 0.  0.
        1    1    3    3  502    0  0.23111155830E+03  0.18235428041E+04  0.38061363954E+03  0.18771221733E+04  0.50400001928E-02 0. -1.
       -1    1    3    3    0  502 -0.23111155830E+03 -0.18235428041E+04 -0.12323721560E+04  0.22130210215E+04  0.50400001928E-02 0.  1.
</event>
<event>
 5   0  0.8329875E-09  0.4001799E+04  0.7818609E-02  0.8004184E-01
       -1   -1    0    0    0  501  0.00000000000E+00  0.00000000000E+00  0.31487183497E+04  0.31487183497E+04  0.50400001928E-02 0. -1.
        1   -1    0    0  501    0  0.00000000000E+00  0.00000000000E+00 -0.12715011665E+04  0.12715011665E+04  0.50400001928E-02 0.  1.
    10030    2    1    2    0    0  0.00000000000E+00  0.00000000000E+00  0.18772171832E+04  0.44202195162E+04  0.40017991227E+04 0.  0.
        4    1    3    3  502    0 -0.88788622896E+03  0.16012961206E+04  0.47327947112E+02  0.18315929594E+04  0.12699999809E+01 0.  1.
       -4    1    3    3    0  502  0.88788622896E+03 -0.16012961206E+04  0.18298892361E+04  0.25886265568E+04  0.12699999809E+01 0. -1.
</event>
<event>
 5   0  0.2599332E-08  0.3998854E+04  0.7818609E-02  0.8004778E-01
       -2   -1    0    0    0  501  0.00000000000E+00  0.00000000000E+00  0.23072157951E+04  0.23072157951E+04  0.25500000920E-02 0.  1.
        2   -1    0    0  501    0  0.00000000000E+00  0.00000000000E+00 -0.17326980346E+04  0.17326980346E+04  0.25500000920E-02 0. -1.
    10030    2    1    2    0    0  0.00000000000E+00  0.00000000000E+00  0.57451776052E+03  0.40399138298E+04  0.39988539727E+04 0.  0.
        2    1    3    3  502    0 -0.13457149306E+03 -0.18664283877E+04 -0.42427665785E+03  0.19187691616E+04  0.25500000920E-02 0. -1.
       -2    1    3    3    0  502  0.13457149306E+03  0.18664283877E+04  0.99879441837E+03  0.21211446682E+04  0.25500000920E-02 0.  1.
</event>
<event>
 5   0  0.8329875E-09  0.3999510E+04  0.7818609E-02  0.8004645E-01
        1   -1    0    0  501    0  0.00000000000E+00  0.00000000000E+00  0.19539348090E+04  0.19539348090E+04  0.50400001928E-02 0. -1.
       -1   -1    0    0    0  501  0.00000000000E+00  0.00000000000E+00 -0.20466496525E+04  0.20466496525E+04  0.50400001928E-02 0.  1.
    10030    2    1    2    0    0  0.00000000000E+00  0.00000000000E+00 -0.92714843466E+02  0.40005844616E+04  0.39995099690E+04 0.  0.
        1    1    3    3  502    0 -0.17979884237E+04  0.41882252872E+03 -0.81522855963E+03  0.20181110690E+04  0.50400001928E-02 0.  1.
       -1    1    3    3    0  502  0.17979884237E+04 -0.41882252872E+03  0.72251371617E+03  0.19824733926E+04  0.50400001928E-02 0. -1.
</event>
<event>
 5   0  0.2612363E-08  0.3979040E+04  0.7818609E-02  0.8008788E-01
       -2   -1    0    0    0  501  0.00000000000E+00  0.00000000000E+00  0.21470038093E+04  0.21470038093E+04  0.25500000920E-02 0.  1.
        2   -1    0    0  501    0  0.00000000000E+00  0.00000000000E+00 -0.18435878812E+04  0.18435878812E+04  0.25500000920E-02 0. -1.
    10030    2    1    2    0    0  0.00000000000E+00  0.00000000000E+00  0.30341592812E+03  0.39905916905E+04  0.39790401876E+04 0.  0.
        4    1    3    3  502    0  0.17797663367E+04 -0.66780931931E+03 -0.43706627101E+03  0.19505296815E+04  0.12699999809E+01 0. -1.
       -4    1    3    3    0  502 -0.17797663367E+04  0.66780931931E+03  0.74048219913E+03  0.20400620090E+04  0.12699999809E+01 0.  1.
</event>
<event>
 5   0  0.8329875E-09  0.4002646E+04  0.7818609E-02  0.8004013E-01
       -1   -1    0    0    0  501  0.00000000000E+00  0.00000000000E+00  0.15527672832E+04  0.15527672832E+04  0.50400001928E-02 0. -1.
        1   -1    0    0  501    0  0.00000000000E+00  0.00000000000E+00 -0.25794553822E+04  0.25794553822E+04  0.50400001928E-02 0.  1.
    10030    2    1    2    0    0  0.00000000000E+00  0.00000000000E+00 -0.10266880990E+04  0.41322226654E+04  0.40026460878E+04 0.  0.
        4    1    3    3  502    0 -0.19217682000E+04 -0.53658260757E+03 -0.35281621910E+03  0.20262267412E+04  0.12699999809E+01 0. -1.
       -4    1    3    3    0  502  0.19217682000E+04  0.53658260757E+03 -0.67387187990E+03  0.21059959242E+04  0.12699999809E+01 0.  1.
</event>
<event>
 5   0  0.2587493E-08  0.4013462E+04  0.7818609E-02  0.8001836E-01
        2   -1    0    0  501    0  0.00000000000E+00  0.00000000000E+00  0.16616989931E+04  0.16616989931E+04  0.25500000920E-02 0. -1.
       -2   -1    0    0    0  501  0.00000000000E+00  0.00000000000E+00 -0.24234044575E+04  0.24234044575E+04  0.25500000920E-02 0.  1.
    10030    2    1    2    0    0  0.00000000000E+00  0.00000000000E+00 -0.76170546442E+03  0.40851034505E+04  0.40134617211E+04 0.  0.
        5    1    3    3  502    0 -0.19328419178E+04  0.52691854307E+03 -0.49879004174E+03  0.20645422316E+04  0.46999998093E+01 0.  1.
       -5    1    3    3    0  502  0.19328419178E+04 -0.52691854307E+03 -0.26291542268E+03  0.20205612190E+04  0.46999998093E+01 0. -1.
</event>
<event>
 5   0  0.8329875E-09  0.3997330E+04  0.7818609E-02  0.8005085E-01
        1   -1    0    0  501    0  0.00000000000E+00  0.00000000000E+00  0.13651163120E+04  0.13651163120E+04  0.50400001928E-02 0. -1.
       -1   -1    0    0    0  501  0.00000000000E+00  0.00000000000E+00 -0.29262431077E+04  0.29262431077E+04  0.50400001928E-02 0.  1.
    10030    2    1    2    0    0  0.00000000000E+00  0.00000000000E+00 -0.15611267957E+04  0.42913594197E+04  0.39973302086E+04 0.  0.
        4    1    3    3  502    0  0.92351166924E+03  0.98178541383E+01 -0.26834221689E+04  0.28379087975E+04  0.12699999809E+01 0.  1.
       -4    1    3    3    0  502 -0.92351166924E+03 -0.98178541383E+01  0.11222953732E+04  0.14534506222E+04  0.12699999809E+01 0. -1.
</event>
<event>
 5   0  0.8329875E-09  0.4001730E+04  0.7818609E-02  0.8004198E-01
       -1   -1    0    0    0  501  0.00000000000E+00  0.00000000000E+00  0.19719254608E+04  0.19719254608E+04  0.50400001928E-02 0.  1.
        1   -1    0    0  501    0  0.00000000000E+00  0.00000000000E+00 -0.20302295221E+04  0.20302295221E+04  0.50400001928E-02 0. -1.
    10030    2    1    2    0    0  0.00000000000E+00  0.00000000000E+00 -0.58304061365E+02  0.40021549829E+04  0.40017302687E+04 0.  0.
        5    1    3    3  502    0  0.17185961774E+04 -0.41573520670E+03  0.90744648831E+03  0.19874329680E+04  0.46999998093E+01 0. -1.
       -5    1    3    3    0  502 -0.17185961774E+04  0.41573520670E+03 -0.96575054968E+03  0.20147220149E+04  0.46999998093E+01 0.  1.
</event>
<event>
 5   0  0.2746876E-08  0.4003704E+04  0.7818609E-02  0.8003800E-01
       -2   -1    0    0    0  501  0.00000000000E+00  0.00000000000E+00  0.17960642639E+04  0.17960642639E+04  0.25500000920E-02 0. -1.
        2   -1    0    0  501    0  0.00000000000E+00  0.00000000000E+00 -0.22312181126E+04  0.22312181126E+04  0.25500000920E-02 0.  1.
    10030    2    1    2    0    0  0.00000000000E+00  0.00000000000E+00 -0.43515384874E+03  0.40272823764E+04  0.40037038436E+04 0.  0.
        1    1    3    3  502    0 -0.15608190801E+04  0.11235689678E+04  0.34143660102E+03  0.19532389456E+04  0.50400001928E-02 0.  1.
       -1    1    3    3    0  502  0.15608190801E+04 -0.11235689678E+04 -0.77659044976E+03  0.20740434308E+04  0.50400001928E-02 0. -1.
</event>
<event>
 5   0  0.8329875E-09  0.4004018E+04  0.7818609E-02  0.8003737E-01
       -1   -1    0    0    0  501  0.00000000000E+00  0.00000000000E+00  0.31424952577E+04  0.31424952577E+04  0.50400001928E-02 0. -1.
        1   -1    0    0  501    0  0.00000000000E+00  0.00000000000E+00 -0.12754322081E+04  0.12754322081E+04  0.50400001928E-02 0.  1.
    10030    2    1    2    0    0  0.00000000000E+00  0.00000000000E+00  0.18670630496E+04  0.44179274658E+04  0.40040178149E+04 0.  0.
        5    1    3    3  502    0  0.16043335061E+04 -0.11652497677E+04  0.62870361941E+03  0.20801402239E+04  0.46999998093E+01 0.  1.
       -5    1    3    3    0  502 -0.16043335061E+04  0.11652497677E+04  0.12383594302E+04  0.23377872419E+04  0.46999998093E+01 0. -1.
</event>
<event>
 5   0  0.2746876E-08  0.4001262E+04  0.7818609E-02  0.8004292E-01
       -2   -1    0    0    0  501  0.00000000000E+00  0.00000000000E+00  0.14426863936E+04  0.14426863936E+04  0.25500000920E-02 0. -1.
        2   -1    0    0  501    0  0.00000000000E+00  0.00000000000E+00 -0.27743557423E+04  0.27743557423E+04  0.25500000920E-02 0.  1.
    10030    2    1    2    0    0  0.00000000000E+00  0.00000000000E+00 -0.13316693488E+04  0.42170421359E+04  0.40012624410E+04 0.  0.
        1    1    3    3  502    0 -0.22708711595E+03 -0.18827427849E+04 -0.13375732390E+04  0.23206445488E+04  0.50400001928E-02 0.  1.
       -1    1    3    3    0  502  0.22708711595E+03  0.18827427849E+04  0.59038902662E+01  0.18963975871E+04  0.50400001928E-02 0. -1.
</event>
<event>
 5   0  0.8329875E-09  0.3999458E+04  0.7818609E-02  0.8004656E-01
       -1   -1    0    0    0  501  0.00000000000E+00  0.00000000000E+00  0.20140803307E+04  0.20140803307E+04  0.50400001928E-02 0. -1.
        1   -1    0    0  501    0  0.00000000000E+00  0.00000000000E+00 -0.19854803546E+04  0.19854803546E+04  0.50400001928E-02 0.  1.
    10030    2    1    2    0    0  0.00000000000E+00  0.00000000000E+00  0.28599976110E+02  0.39995606852E+04  0.39994584279E+04 0.  0.
        3    1    3    3  502    0 -0.53300795119E+03 -0.12171026608E+04  0.15088215730E+04  0.20104673368E+04  0.10100000352E+00 0. -1.
       -3    1    3    3    0  502  0.53300795119E+03  0.12171026608E+04 -0.14802215968E+04  0.19890933485E+04  0.10100000352E+00 0.  1.
</event>
<event>
 5   0  0.8329875E-09  0.3946180E+04  0.7818609E-02  0.8015493E-01
        1   -1    0    0  501    0  0.00000000000E+00  0.00000000000E+00  0.19366494442E+04  0.19366494442E+04  0.50400001928E-02 0. -1.
       -1   -1    0    0    0  501  0.00000000000E+00  0.00000000000E+00 -0.20102163561E+04  0.20102163561E+04  0.50400001928E-02 0.  1.
    10030    2    1    2    0    0  0.00000000000E+00  0.00000000000E+00 -0.73566911885E+02  0.39468658004E+04  0.39461801220E+04 0.  0.
        5    1    3    3  502    0  0.39050158819E+03  0.15775000518E+04  0.10823678046E+04  0.19525726768E+04  0.46999998093E+01 0. -1.
       -5    1    3    3    0  502 -0.39050158819E+03 -0.15775000518E+04 -0.11559347165E+04  0.19942931235E+04  0.46999998093E+01 0.  1.
</event>
<event>
 5   0  0.2612363E-08  0.3999046E+04  0.7818609E-02  0.8004739E-01
       -2   -1    0    0    0  501  0.00000000000E+00  0.00000000000E+00  0.26925061030E+04  0.26925061030E+04  0.25500000920E-02 0. -1.
        2   -1    0    0  501    0  0.00000000000E+00  0.00000000000E+00 -0.14848962522E+04  0.14848962523E+04  0.25500000920E-02 0.  1.
    10030    2    1    2    0    0  0.00000000000E+00  0.00000000000E+00  0.12076098507E+04  0.41774023552E+04  0.39990459970E+04 0.  0.
        4    1    3    3  502    0 -0.43647592034E+03 -0.16698073219E+04 -0.45083885481E+03  0.17838231435E+04  0.12699999809E+01 0.  1.
       -4    1    3    3    0  502  0.43647592034E+03  0.16698073219E+04  0.16584487056E+04  0.23935792118E+04  0.12699999809E+01 0. -1.
</event>
<event>
 5   0  0.2599332E-08  0.3989212E+04  0.7818609E-02  0.8006726E-01
       -2   -1    0    0    0  501  0.00000000000E+00  0.00000000000E+00  0.15189249365E+04  0.15189249365E+04  0.25500000920E-02 0.  1.
        2   -1    0    0  501    0  0.00000000000E+00  0.00000000000E+00 -0.26192555014E+04  0.26192555014E+04  0.25500000920E-02 0. -1.
    10030    2    1    2    0    0  0.00000000000E+00  0.00000000000E+00 -0.11003305649E+04  0.41381804379E+04  0.39892116996E+04 0.  0.
        2    1    3    3  502    0  0.18411542221E+04 -0.72586525857E+03 -0.29244610180E+03  0.20005634121E+04  0.25500000920E-02 0.  1.
       -2    1    3    3    0  502 -0.18411542221E+04  0.72586525857E+03 -0.80788446311E+03  0.21376170258E+04  0.25500000920E-02 0. -1.
</event>
<event>
 5   0  0.8329875E-09  0.3998853E+04  0.7818609E-02  0.8004778E-01
        1   -1    0    0  501    0  0.00000000000E+00  0.00000000000E+00  0.16358201585E+04  0.16358201585E+04  0.50400001928E-02 0.  1.
       -1   -1    0    0    0  501  0.00000000000E+00  0.00000000000E+00 -0.24438538539E+04  0.24438538539E+04  0.50400001928E-02 0. -1.
    10030    2    1    2    0    0  0.00000000000E+00  0.00000000000E+00 -0.80803369545E+03  0.40796740124E+04  0.39988525347E+04 0.  0.
        4    1    3    3  502    0  0.14031418159E+04  0.13902057062E+04 -0.87545888811E+02  0.19771557239E+04  0.12699999809E+01 0.  1.
       -4    1    3    3    0  502 -0.14031418159E+04 -0.13902057062E+04 -0.72048780663E+03  0.21025182885E+04  0.12699999809E+01 0. -1.
</event>
<event>
 5   0  0.2587493E-08  0.3988017E+04  0.7818609E-02  0.8006968E-01
       -2   -1    0    0    0  501  0.00000000000E+00  0.00000000000E+00  0.19102122270E+04  0.19102122270E+04  0.25500000920E-02 0.  1.
        2   -1    0    0  501    0  0.00000000000E+00  0.00000000000E+00 -0.20814811514E+04  0.20814811514E+04  0.25500000920E-02 0. -1.
    10030    2    1    2    0    0  0.00000000000E+00  0.00000000000E+00 -0.17126892443E+03  0.39916933784E+04  0.39880174251E+04 0.  0.
        5    1    3    3  502    0  0.13246186888E+04 -0.14017401765E+04  0.42134842300E+03  0.19740939128E+04  0.46999998093E+01 0. -1.
       -5    1    3    3    0  502 -0.13246186888E+04  0.14017401765E+04 -0.59261734743E+03  0.20175994656E+04  0.46999998093E+01 0.  1.
</event>
<event>
 5   0  0.8329875E-09  0.4004194E+04  0.7818609E-02  0.8003701E-01
        1   -1    0    0  501    0  0.00000000000E+00  0.00000000000E+00  0.13066019337E+04  0.13066019337E+04  0.50400001928E-02 0.  1.
       -1   -1    0    0    0  501  0.00000000000E+00  0.00000000000E+00 -0.30677993846E+04  0.30677993846E+04  0.50400001928E-02 0. -1.
    10030    2    1    2    0    0  0.00000000000E+00  0.00000000000E+00 -0.17611974509E+04  0.43744013183E+04  0.40041941053E+04 0.  0.
        1    1    3    3  502    0  0.42202598730E+03  0.80735795519E+03 -0.28282529793E+04  0.29713545256E+04  0.50400001928E-02 0. -1.
       -1    1    3    3    0  502 -0.42202598730E+03 -0.80735795519E+03  0.10670555285E+04  0.14030467927E+04  0.50400001928E-02 0.  1.
</event>
<event>
 5   0  0.2612363E-08  0.3994065E+04  0.7818609E-02  0.8005745E-01
       -2   -1    0    0    0  501  0.00000000000E+00  0.00000000000E+00  0.15123288570E+04  0.15123288571E+04  0.25500000920E-02 0. -1.
        2   -1    0    0  501    0  0.00000000000E+00  0.00000000000E+00 -0.26370842980E+04  0.26370842980E+04  0.25500000920E-02 0.  1.
    10030    2    1    2    0    0  0.00000000000E+00  0.00000000000E+00 -0.11247554410E+04  0.41494131551E+04  0.39940649381E+04 0.  0.
        4    1    3    3  502    0  0.93241065339E+03 -0.17389325693E+04 -0.24240325574E+03  0.19879731030E+04  0.12699999809E+01 0.  1.
       -4    1    3    3    0  502 -0.93241065339E+03  0.17389325693E+04 -0.88235218523E+03  0.21614400521E+04  0.12699999809E+01 0. -1.
</event>
<event>
 5   0  0.8329875E-09  0.3996384E+04  0.7818609E-02  0.8005276E-01
       -1   -1    0    0    0  501  0.00000000000E+00  0.00000000000E+00  0.14387933619E+04  0.14387933619E+04  0.50400001928E-02 0.  1.
        1   -1    0    0  501    0  0.00000000000E+00  0.00000000000E+00 -0.27750829794E+04  0.27750829794E+04  0.50400001928E-02 0. -1.
    10030    2    1    2    0    0  0.00000000000E+00  0.00000000000E+00 -0.13362896175E+04  0.42138763413E+04  0.39963838502E+04 0.  0.
        2    1    3    3  502    0 -0.72706859187E+03 -0.15845104345E+04  0.36145359588E+03  0.17804355524E+04  0.25500000920E-02 0.  1.
       -2    1    3    3    0  502  0.72706859187E+03  0.15845104345E+04 -0.16977432134E+04  0.24334407889E+04  0.25500000920E-02 0. -1.
</event>
<event>
 5   0  0.8329875E-09  0.4003944E+04  0.7818609E-02  0.8003751E-01
        1   -1    0    0  501    0  0.00000000000E+00  0.00000000000E+00  0.18834753627E+04  0.18834753627E+04  0.50400001928E-02 0.  1.
       -1   -1    0    0    0  501  0.00000000000E+00  0.00000000000E+00 -0.21279232438E+04  0.21279232438E+04  0.50400001928E-02 0. -1.
    10030    2    1    2    0    0  0.00000000000E+00  0.00000000000E+00 -0.24444788109E+03  0.40113986065E+04  0.40039435577E+04 0.  0.
        2    1    3    3  502    0 -0.12636550422E+04  0.25022837859E+03  0.14130956127E+04  0.19121395132E+04  0.25500000920E-02 0.  1.
       -2    1    3    3    0  502  0.12636550422E+04 -0.25022837859E+03 -0.16575434938E+04  0.20992590933E+04  0.25500000920E-02 0. -1.
</event>
<event>
 5   0  0.2599332E-08  0.3994357E+04  0.7818609E-02  0.8005686E-01
       -2   -1    0    0    0  501  0.00000000000E+00  0.00000000000E+00  0.20808861776E+04  0.20808861776E+04  0.25500000920E-02 0. -1.
        2   -1    0    0  501    0  0.00000000000E+00  0.00000000000E+00 -0.19168377063E+04  0.19168377063E+04  0.25500000920E-02 0.  1.
    10030    2    1    2    0    0  0.00000000000E+00  0.00000000000E+00  0.16404847129E+03  0.39977238839E+04  0.39943565628E+04 0.  0.
        2    1    3    3  502    0 -0.63095285395E+03  0.80027316668E+03 -0.16370332569E+04  0.19283196129E+04  0.25500000920E-02 0.  1.
       -2    1    3    3    0  502  0.63095285395E+03 -0.80027316668E+03  0.18010817282E+04  0.20694042710E+04  0.25500000920E-02 0. -1.
</event>
<event>
 5   0  0.8329875E-09  0.4007027E+04  0.7818609E-02  0.8003130E-01
        3   -1    0    0  501    0  0.00000000000E+00  0.00000000000E+00  0.21813011405E+04  0.21813011428E+04  0.10100000352E+00 0. -1.
       -3   -1    0    0    0  501  0.00000000000E+00  0.00000000000E+00 -0.18402168239E+04  0.18402168267E+04  0.10100000352E+00 0.  1.
    10030    2    1    2    0    0  0.00000000000E+00  0.00000000000E+00  0.34108431658E+03  0.40215179695E+04  0.40070273605E+04 0.  0.
        3    1    3    3  502    0  0.17730826836E+03 -0.30473715049E+03  0.21499228879E+04  0.21786398020E+04  0.10100000352E+00 0. -1.
       -3    1    3    3    0  502 -0.17730826836E+03  0.30473715049E+03 -0.18088385713E+04  0.18428781675E+04  0.10100000352E+00 0.  1.
</event>
<event>
 5   0  0.8329875E-09  0.4016509E+04  0.7818609E-02  0.8001224E-01
        1   -1    0    0  501    0  0.00000000000E+00  0.00000000000E+00  0.21318956599E+04  0.21318956599E+04  0.50400001928E-02 0.  1.
       -1   -1    0    0    0  501  0.00000000000E+00  0.00000000000E+00 -0.18917839774E+04  0.18917839774E+04  0.50400001928E-02 0. -1.
    10030    2    1    2    0    0  0.00000000000E+00  0.00000000000E+00  0.24011168253E+03  0.40236796373E+04  0.40165089573E+04 0.  0.
        1    1    3    3  502    0 -0.11257417668E+04  0.82723567953E+03  0.15653625227E+04  0.20980879921E+04  0.50400001928E-02 0.  1.
       -1    1    3    3    0  502  0.11257417668E+04 -0.82723567953E+03 -0.13252508401E+04  0.19255916453E+04  0.50400001928E-02 0. -1.
</event>
<event>
 5   0  0.8329875E-09  0.4001318E+04  0.7818609E-02  0.8004281E-01
       -1   -1    0    0    0  501  0.00000000000E+00  0.00000000000E+00  0.18271127626E+04  0.18271127626E+04  0.50400001928E-02 0.  1.
        1   -1    0    0  501    0  0.00000000000E+00  0.00000000000E+00 -0.21906887995E+04  0.21906887995E+04  0.50400001928E-02 0. -1.
    10030    2    1    2    0    0  0.00000000000E+00  0.00000000000E+00 -0.36357603692E+03  0.40178015622E+04  0.40013175153E+04 0.  0.
        5    1    3    3  502    0  0.29386682997E+03 -0.12618775693E+04  0.13489332505E+04  0.18703838424E+04  0.46999998093E+01 0.  1.
       -5    1    3    3    0  502 -0.29386682997E+03  0.12618775693E+04 -0.17125092874E+04  0.21474177198E+04  0.46999998093E+01 0. -1.
</event>
<event>
 5   0  0.2599332E-08  0.4008560E+04  0.7818609E-02  0.8002822E-01
        2   -1    0    0  501    0  0.00000000000E+00  0.00000000000E+00  0.22866890213E+04  0.22866890213E+04  0.25500000920E-02 0. -1.
       -2   -1    0    0    0  501  0.00000000000E+00  0.00000000000E+00 -0.17567491878E+04  0.17567491878E+04  0.25500000920E-02 0.  1.
    10030    2    1    2    0    0  0.00000000000E+00  0.00000000000E+00  0.52993983346E+03  0.40434382091E+04  0.40085603805E+04 0.  0.
        2    1    3    3  502    0  0.69473503708E+03  0.12047222032E+04  0.17208319688E+04  0.22125268413E+04  0.25500000920E-02 0. -1.
       -2    1    3    3    0  502 -0.69473503708E+03 -0.12047222032E+04 -0.11908921353E+04  0.18309113678E+04  0.25500000920E-02 0.  1.
</event>
<event>
 5   0  0.2599332E-08  0.3990863E+04  0.7818609E-02  0.8006392E-01
       -2   -1    0    0    0  501  0.00000000000E+00  0.00000000000E+00  0.25399288863E+04  0.25399288863E+04  0.25500000920E-02 0.  1.
        2   -1    0    0  501    0  0.00000000000E+00  0.00000000000E+00 -0.15676604214E+04  0.15676604214E+04  0.25500000920E-02 0. -1.
    10030    2    1    2    0    0  0.00000000000E+00  0.00000000000E+00  0.97226846488E+03  0.41075893077E+04  0.39908625575E+04 0.  0.
        2    1    3    3  502    0 -0.97480737692E+03  0.34032887186E+03  0.22436111833E+04  0.24697903363E+04  0.25500000920E-02 0.  1.
       -2    1    3    3    0  502  0.97480737692E+03 -0.34032887186E+03 -0.12713427184E+04  0.16377989714E+04  0.25500000920E-02 0. -1.
</event>
<event>
 5   0  0.8329875E-09  0.4001150E+04  0.7818609E-02  0.8004315E-01
        1   -1    0    0  501    0  0.00000000000E+00  0.00000000000E+00  0.19462748083E+04  0.19462748083E+04  0.50400001928E-02 0. -1.
       -1   -1    0    0    0  501  0.00000000000E+00  0.00000000000E+00 -0.20563898434E+04  0.20563898434E+04  0.50400001928E-02 0.  1.
    10030    2    1    2    0    0  0.00000000000E+00  0.00000000000E+00 -0.11011503511E+03  0.40026646517E+04  0.40011497089E+04 0.  0.
        1    1    3    3  502    0 -0.15941974984E+04 -0.95104993834E+03  0.69110564691E+03  0.19808050546E+04  0.50400001928E-02 0. -1.
       -1    1    3    3    0  502  0.15941974984E+04  0.95104993834E+03 -0.80122068202E+03  0.20218595971E+04  0.50400001928E-02 0.  1.
</event>
<event>
 5   0  0.2650452E-08  0.3999265E+04  0.7818609E-02  0.8004695E-01
        2   -1    0    0  501    0  0.00000000000E+00  0.00000000000E+00  0.26499393160E+04  0.26499393160E+04  0.25500000920E-02 0.  1.
       -2   -1    0    0    0  501  0.00000000000E+00  0.00000000000E+00 -0.15089138395E+04  0.15089138395E+04  0.25500000920E-02 0. -1.
    10030    2    1    2    0    0  0.00000000000E+00  0.00000000000E+00  0.11410254765E+04  0.41588531554E+04  0.39992649863E+04 0.  0.
        3    1    3    3  502    0  0.16653229211E+04 -0.14328856577E+03 -0.57087317815E+03  0.17662752448E+04  0.10100000352E+00 0. -1.
       -3    1    3    3    0  502 -0.16653229211E+04  0.14328856577E+03  0.17118986547E+04  0.23925779107E+04  0.10100000352E+00 0.  1.
</event>
<event>
 5   0  0.2650452E-08  0.3998887E+04  0.7818609E-02  0.8004771E-01
       -2   -1    0    0    0  501  0.00000000000E+00  0.00000000000E+00  0.23709793563E+04  0.23709793563E+04  0.25500000920E-02 0.  1.
        2   -1    0    0  501    0  0.00000000000E+00  0.00000000000E+00 -0.16861279828E+04  0.16861279828E+04  0.25500000920E-02 0. -1.
    10030    2    1    2    0    0  0.00000000000E+00  0.00000000000E+00  0.68485137342E+03  0.40571073391E+04  0.39988871649E+04 0.  0.
        3    1    3    3  502    0  0.18034026552E+04 -0.23325274591E+03  0.11858573165E+04  0.21709273515E+04  0.10100000352E+00 0.  1.
       -3    1    3    3    0  502 -0.18034026552E+04  0.23325274591E+03 -0.50100594308E+03  0.18861799876E+04  0.10100000352E+00 0. -1.
</event>
<event>
 5   0  0.2612363E-08  0.4007923E+04  0.7818609E-02  0.8002950E-01
        2   -1    0    0  501    0  0.00000000000E+00  0.00000000000E+00  0.30612721742E+04  0.30612721742E+04  0.25500000920E-02 0.  1.
       -2   -1    0    0    0  501  0.00000000000E+00  0.00000000000E+00 -0.13118279419E+04  0.13118279419E+04  0.25500000920E-02 0. -1.
    10030    2    1    2    0    0  0.00000000000E+00  0.00000000000E+00  0.17494442323E+04  0.43731001161E+04  0.40079233405E+04 0.  0.
        4    1    3    3  502    0  0.37865843056E+03  0.16238947790E+04  0.20875009236E+04  0.26717182073E+04  0.12699999809E+01 0.  1.
       -4    1    3    3    0  502 -0.37865843056E+03 -0.16238947790E+04 -0.33805669124E+03  0.17013819088E+04  0.12699999809E+01 0. -1.
</event>
<event>
 5   0  0.8329875E-09  0.3996982E+04  0.7818609E-02  0.8005156E-01
        1   -1    0    0  501    0  0.00000000000E+00  0.00000000000E+00  0.22120125395E+04  0.22120125395E+04  0.50400001928E-02 0.  1.
       -1   -1    0    0    0  501  0.00000000000E+00  0.00000000000E+00 -0.18055800382E+04  0.18055800382E+04  0.50400001928E-02 0. -1.
    10030    2    1    2    0    0  0.00000000000E+00  0.00000000000E+00  0.40643250132E+03  0.40175925777E+04  0.39969817040E+04 0.  0.
        4    1    3    3  502    0 -0.31367096656E+03  0.79582078172E+01 -0.17806663338E+04  0.18081003881E+04  0.12699999809E+01 0. -1.
       -4    1    3    3    0  502  0.31367096656E+03 -0.79582078172E+01  0.21870988351E+04  0.22094921896E+04  0.12699999809E+01 0.  1.
</event>
<event>
 5   0  0.8329875E-09  0.4017392E+04  0.7818609E-02  0.8001047E-01
       -1   -1    0    0    0  501  0.00000000000E+00  0.00000000000E+00  0.16976940660E+04  0.16976940660E+04  0.50400001928E-02 0. -1.
        1   -1    0    0  501    0  0.00000000000E+00  0.00000000000E+00 -0.23766709122E+04  0.23766709122E+04  0.50400001928E-02 0.  1.
    10030    2    1    2    0    0  0.00000000000E+00  0.00000000000E+00 -0.67897684620E+03  0.40743649782E+04  0.40173922410E+04 0.  0.
        4    1    3    3  502    0  0.52196601994E+03 -0.53584164377E+03  0.15511602110E+04  0.17221133547E+04  0.12699999809E+01 0. -1.
       -4    1    3    3    0  502 -0.52196601994E+03  0.53584164377E+03 -0.22301370573E+04  0.23522516235E+04  0.12699999809E+01 0.  1.
</event>
<event>
 5   0  0.2587493E-08  0.3992274E+04  0.7818609E-02  0.8006107E-01
       -2   -1    0    0    0  501  0.00000000000E+00  0.00000000000E+00  0.31573763415E+04  0.31573763415E+04  0.25500000920E-02 0. -1.
        2   -1    0    0  501    0  0.00000000000E+00  0.00000000000E+00 -0.12619855392E+04  0.12619855392E+04  0.25500000920E-02 0.  1.
    10030    2    1    2    0    0  0.00000000000E+00  0.00000000000E+00  0.18953908023E+04  0.44193618807E+04  0.39922741813E+04 0.  0.
        5    1    3    3  502    0 -0.11813980835E+04 -0.59136047917E+03  0.26041483584E+04  0.29201060615E+04  0.46999998093E+01 0. -1.
       -5    1    3    3    0  502  0.11813980835E+04  0.59136047917E+03 -0.70875755611E+03  0.14992558192E+04  0.46999998093E+01 0.  1.
</event>
<event>
 5   0  0.8329875E-09  0.3995859E+04  0.7818609E-02  0.8005382E-01
       -1   -1    0    0    0  501  0.00000000000E+00  0.00000000000E+00  0.34534709229E+04  0.34534709229E+04  0.50400001928E-02 0. -1.
        1   -1    0    0  501    0  0.00000000000E+00  0.00000000000E+00 -0.11558581968E+04  0.11558581968E+04  0.50400001928E-02 0.  1.
    10030    2    1    2    0    0  0.00000000000E+00  0.00000000000E+00  0.22976127261E+04  0.46093291197E+04  0.39958591936E+04 0.  0.
        4    1    3    3  502    0 -0.16183755180E+04 -0.90539456111E+03  0.29112054785E+03  0.18771338297E+04  0.12699999809E+01 0.  1.
       -4    1    3    3    0  502  0.16183755180E+04  0.90539456111E+03  0.20064921782E+04  0.27321952900E+04  0.12699999809E+01 0. -1.
</event>
<event>
 5   0  0.2650452E-08  0.4002181E+04  0.7818609E-02  0.8004107E-01
       -2   -1    0    0    0  501  0.00000000000E+00  0.00000000000E+00  0.21650710602E+04  0.21650710602E+04  0.25500000920E-02 0.  1.
        2   -1    0    0  501    0  0.00000000000E+00  0.00000000000E+00 -0.18495296199E+04  0.18495296199E+04  0.25500000920E-02 0. -1.
    10030    2    1    2    0    0  0.00000000000E+00  0.00000000000E+00  0.31554144036E+03  0.40146006801E+04  0.40021809329E+04 0.  0.
        3    1    3    3  502    0 -0.14381037529E+04  0.11784326488E+04 -0.58446951386E+03  0.19489613990E+04  0.10100000352E+00 0. -1.
       -3    1    3    3    0  502  0.14381037529E+04 -0.11784326488E+04  0.90001095422E+03  0.20656392811E+04  0.10100000352E+00 0.  1.
</event>
<event>
 5   0  0.2650452E-08  0.3981991E+04  0.7818609E-02  0.8008189E-01
        2   -1    0    0  501    0  0.00000000000E+00  0.00000000000E+00  0.24550856675E+04  0.24550856675E+04  0.25500000920E-02 0. -1.
       -2   -1    0    0    0  501  0.00000000000E+00  0.00000000000E+00 -0.16146330993E+04  0.16146330993E+04  0.25500000920E-02 0.  1.
    10030    2    1    2    0    0  0.00000000000E+00  0.00000000000E+00  0.84045256822E+03  0.40697187668E+04  0.39819907485E+04 0.  0.
        3    1    3    3  502    0 -0.14382479035E+03  0.98470333278E+02 -0.16068201568E+04  0.16162465787E+04  0.10100000352E+00 0.  1.
       -3    1    3    3    0  502  0.14382479035E+03 -0.98470333278E+02  0.24472727250E+04  0.24534721880E+04  0.10100000352E+00 0. -1.
</event>
<event>
 5   0  0.8329875E-09  0.4017087E+04  0.7818609E-02  0.8001108E-01
        1   -1    0    0  501    0  0.00000000000E+00  0.00000000000E+00  0.21313630418E+04  0.21313630418E+04  0.50400001928E-02 0. -1.
       -1   -1    0    0    0  501  0.00000000000E+00  0.00000000000E+00 -0.18928017227E+04  0.18928017227E+04  0.50400001928E-02 0.  1.
    10030    2    1    2    0    0  0.00000000000E+00  0.00000000000E+00  0.23856131909E+03  0.40241647645E+04  0.40170873215E+04 0.  0.
        4    1    3    3  502    0  0.19720677541E+04 -0.34093276941E+03  0.28975581470E+03  0.20221885236E+04  0.12699999809E+01 0.  1.
       -4    1    3    3    0  502 -0.19720677541E+04  0.34093276941E+03 -0.51194495606E+02  0.20019762409E+04  0.12699999809E+01 0. -1.
</event>
<event>
 5   0  0.8329875E-09  0.4012830E+04  0.7818609E-02  0.8001963E-01
       -1   -1    0    0    0  501  0.00000000000E+00  0.00000000000E+00  0.22513533109E+04  0.22513533110E+04  0.50400001928E-02 0.  1.
        1   -1    0    0  501    0  0.00000000000E+00  0.00000000000E+00 -0.17881246251E+04  0.17881246251E+04  0.50400001928E-02 0. -1.
    10030    2    1    2    0    0  0.00000000000E+00  0.00000000000E+00  0.46322868581E+03  0.40394779361E+04  0.40128295729E+04 0.  0.
        3    1    3    3  502    0 -0.10922883845E+04 -0.22845730146E+03 -0.14469161277E+04  0.18272528408E+04  0.10100000352E+00 0. -1.
       -3    1    3    3    0  502  0.10922883845E+04  0.22845730146E+03  0.19101448135E+04  0.22122250953E+04  0.10100000352E+00 0.  1.
</event>
<event>
 5   0  0.8329875E-09  0.3973090E+04  0.7818609E-02  0.8009997E-01
        1   -1    0    0  501    0  0.00000000000E+00  0.00000000000E+00  0.28300695234E+04  0.28300695234E+04  0.50400001928E-02 0.  1.
       -1   -1    0    0    0  501  0.00000000000E+00  0.00000000000E+00 -0.13944394722E+04  0.13944394722E+04  0.50400001928E-02 0. -1.
    10030    2    1    2    0    0  0.00000000000E+00  0.00000000000E+00  0.14356300512E+04  0.42245089956E+04  0.39730898065E+04 0.  0.
        4    1    3    3  502    0  0.11064735457E+04 -0.15540994553E+04  0.13068093006E+04  0.23124145359E+04  0.12699999809E+01 0.  1.
       -4    1    3    3    0  502 -0.11064735457E+04  0.15540994553E+04  0.12882075056E+03  0.19120944598E+04  0.12699999809E+01 0. -1.
</event>
<event>
 5   0  0.2587493E-08  0.4002515E+04  0.7818609E-02  0.8004039E-01
       -2   -1    0    0    0  501  0.00000000000E+00  0.00000000000E+00  0.21141940336E+04  0.21141940336E+04  0.25500000920E-02 0. -1.
        2   -1    0    0  501    0  0.00000000000E+00  0.00000000000E+00 -0.18943537652E+04  0.18943537652E+04  0.25500000920E-02 0.  1.
    10030    2    1    2    0    0  0.00000000000E+00  0.00000000000E+00  0.21984026836E+03  0.40085477988E+04  0.40025149234E+04 0.  0.
        5    1    3    3  502    0 -0.14439661585E+04  0.13855714367E+04  0.12270122619E+03  0.20049748512E+04  0.46999998093E+01 0. -1.
       -5    1    3    3    0  502  0.14439661585E+04 -0.13855714367E+04  0.97139042175E+02  0.20035729476E+04  0.46999998093E+01 0.  1.
</event>
<event>
 5   0  0.8329875E-09  0.4003237E+04  0.7818609E-02  0.8003894E-01
       -1   -1    0    0    0  501  0.00000000000E+00  0.00000000000E+00  0.21777365037E+04  0.21777365037E+04  0.50400001928E-02 0.  1.
        1   -1    0    0  501    0  0.00000000000E+00  0.00000000000E+00 -0.18397435777E+04  0.18397435777E+04  0.50400001928E-02 0. -1.
    10030    2    1    2    0    0  0.00000000000E+00  0.00000000000E+00  0.33799292606E+03  0.40174800814E+04  0.40032370635E+04 0.  0.
        4    1    3    3  502    0  0.29606121632E+03 -0.33010013884E+03 -0.17898335463E+04  0.18439425375E+04  0.12699999809E+01 0. -1.
       -4    1    3    3    0  502 -0.29606121632E+03  0.33010013884E+03  0.21278264723E+04  0.21735375439E+04  0.12699999809E+01 0.  1.
</event>
<event>
 5   0  0.8329875E-09  0.4011234E+04  0.7818609E-02  0.8002284E-01
        1   -1    0    0  501    0  0.00000000000E+00  0.00000000000E+00  0.14735312515E+04  0.14735312515E+04  0.50400001928E-02 0.  1.
       -1   -1    0    0    0  501  0.00000000000E+00  0.00000000000E+00 -0.27298372004E+04  0.27298372004E+04  0.50400001928E-02 0. -1.
    10030    2    1    2    0    0  0.00000000000E+00  0.00000000000E+00 -0.12563059490E+04  0.42033684519E+04  0.40112344366E+04 0.  0.
        2    1    3    3  502    0 -0.12037990401E+04  0.13305333391E+04  0.31090094035E+03  0.18210190801E+04  0.25500000920E-02 0.  1.
       -2    1    3    3    0  502  0.12037990401E+04 -0.13305333391E+04 -0.15672068893E+04  0.23823493718E+04  0.25500000920E-02 0. -1.
</event>
<event>
 5   0  0.8329875E-09  0.3998395E+04  0.7818609E-02  0.8004870E-01
        3   -1    0    0  501    0  0.00000000000E+00  0.00000000000E+00  0.18836191626E+04  0.18836191653E+04  0.10100000352E+00 0.  1.
       -3   -1    0    0    0  501  0.00000000000E+00  0.00000000000E+00 -0.21218680864E+04  0.21218680888E+04  0.10100000352E+00 0. -1.
    10030    2    1    2    0    0  0.00000000000E+00  0.00000000000E+00 -0.23824892377E+03  0.40054872541E+04  0.39983953772E+04 0.  0.
        1    1    3    3  502    0 -0.58393296708E+03  0.22828462773E+03 -0.20208328464E+04  0.21158584486E+04  0.50400001928E-02 0. -1.
       -1    1    3    3    0  502  0.58393296708E+03 -0.22828462773E+03  0.17825839226E+04  0.18896288055E+04  0.50400001928E-02 0.  1.
</event>
<event>
 5   0  0.2599332E-08  0.3996910E+04  0.7818609E-02  0.8005170E-01
        2   -1    0    0  501    0  0.00000000000E+00  0.00000000000E+00  0.14083111140E+04  0.14083111140E+04  0.25500000920E-02 0.  1.
       -2   -1    0    0    0  501  0.00000000000E+00  0.00000000000E+00 -0.28358945165E+04  0.28358945165E+04  0.25500000920E-02 0. -1.
    10030    2    1    2    0    0  0.00000000000E+00  0.00000000000E+00 -0.14275834025E+04  0.42442056304E+04  0.39969096891E+04 0.  0.
        2    1    3    3  502    0  0.15537428906E+04 -0.12561973873E+04 -0.75722368164E+03  0.21367116207E+04  0.25500000920E-02 0.  1.
       -2    1    3    3    0  502 -0.15537428906E+04  0.12561973873E+04 -0.67035972084E+03  0.21074940098E+04  0.25500000920E-02 0. -1.
</event>
<event>
 5   0  0.2612363E-08  0.4001175E+04  0.7818609E-02  0.8004310E-01
        2   -1    0    0  501    0  0.00000000000E+00  0.00000000000E+00  0.21449822881E+04  0.21449822881E+04  0.25500000920E-02 0.  1.
       -2   -1    0    0    0  501  0.00000000000E+00  0.00000000000E+00 -0.18659129263E+04  0.18659129263E+04  0.25500000920E-02 0. -1.
    10030    2    1    2    0    0  0.00000000000E+00  0.00000000000E+00  0.27906936180E+03  0.40108952143E+04  0.40011749164E+04 0.  0.
        4    1    3    3  502    0  0.76932910550E+02  0.12231575766E+04 -0.14455452945E+04  0.18951611914E+04  0.12699999809E+01 0. -1.
       -4    1    3    3    0  502 -0.76932910550E+02 -0.12231575766E+04  0.17246146563E+04  0.21157340229E+04  0.12699999809E+01 0.  1.
</event>
<event>
 5   0  0.2650452E-08  0.3994755E+04  0.7818609E-02  0.8005606E-01
        2   -1    0    0  501    0  0.00000000000E+00  0.00000000000E+00  0.23311562778E+04  0.23311562778E+04  0.25500000920E-02 0.  1.
       -2   -1    0    0    0  501  0.00000000000E+00  0.00000000000E+00 -0.17113893859E+04  0.17113893859E+04  0.25500000920E-02 0. -1.
    10030    2    1    2    0    0  0.00000000000E+00  0.00000000000E+00  0.61976689188E+03  0.40425456637E+04  0.39947546161E+04 0.  0.
        3    1    3    3  502    0  0.19369479627E+04 -0.43751142079E+03  0.92058584799E+02  0.19878778752E+04  0.10100000352E+00 0. -1.
       -3    1    3    3    0  502 -0.19369479627E+04  0.43751142079E+03  0.52770830708E+03  0.20546677885E+04  0.10100000352E+00 0.  1.
</event>
<event>
 5   0  0.8329875E-09  0.3923342E+04  0.7818609E-02  0.8020192E-01
       -1   -1    0    0    0  501  0.00000000000E+00  0.00000000000E+00  0.21531026777E+04  0.21531026777E+04  0.50400001928E-02 0. -1.
        1   -1    0    0  501    0  0.00000000000E+00  0.00000000000E+00 -0.17872594593E+04  0.17872594593E+04  0.50400001928E-02 0.  1.
    10030    2    1    2    0    0  0.00000000000E+00  0.00000000000E+00  0.36584321833E+03  0.39403621370E+04  0.39233420078E+04 0.  0.
        1    1    3    3  502    0 -0.12632066146E+04  0.11343350587E+04 -0.80406545772E+03  0.18785441802E+04  0.50400001928E-02 0.  1.
       -1    1    3    3    0  502  0.12632066146E+04 -0.11343350587E+04  0.11699086760E+04  0.20618179568E+04  0.50400001928E-02 0. -1.
</event>
<event>
 5   0  0.8329875E-09  0.3971461E+04  0.7818609E-02  0.8010329E-01
        1   -1    0    0  501    0  0.00000000000E+00  0.00000000000E+00  0.24588835721E+04  0.24588835721E+04  0.50400001928E-02 0.  1.
       -1   -1    0    0    0  501  0.00000000000E+00  0.00000000000E+00 -0.16036243280E+04  0.16036243280E+04  0.50400001928E-02 0. -1.
    10030    2    1    2    0    0  0.00000000000E+00  0.00000000000E+00  0.85525924408E+03  0.40625079001E+04  0.39714609483E+04 0.  0.
        3    1    3    3  502    0 -0.11506684017E+04 -0.45107949906E+03  0.20174855950E+04  0.23659582881E+04  0.10100000352E+00 0.  1.
       -3    1    3    3    0  502  0.11506684017E+04  0.45107949906E+03 -0.11622263509E+04  0.16965496120E+04  0.10100000352E+00 0. -1.
</event>
<event>
 5   0  0.8329875E-09  0.4003055E+04  0.7818609E-02  0.8003931E-01
       -3   -1    0    0    0  501  0.00000000000E+00  0.00000000000E+00  0.30283711299E+04  0.30283711316E+04  0.10100000352E+00 0. -1.
        3   -1    0    0  501    0  0.00000000000E+00  0.00000000000E+00 -0.13228605007E+04  0.13228605045E+04  0.10100000352E+00 0.  1.
    10030    2    1    2    0    0  0.00000000000E+00  0.00000000000E+00  0.17055106293E+04  0.43512316361E+04  0.40030551138E+04 0.  0.
        2    1    3    3  502    0 -0.15797683942E+04 -0.11386465785E+04  0.13555084708E+04  0.23726751620E+04  0.25500000920E-02 0.  1.
       -2    1    3    3    0  502  0.15797683942E+04  0.11386465785E+04  0.35000215849E+03  0.19785564741E+04  0.25500000920E-02 0. -1.
</event>
<event>
 5   0  0.8329875E-09  0.4004346E+04  0.7818609E-02  0.8003670E-01
        1   -1    0    0  501    0  0.00000000000E+00  0.00000000000E+00  0.18842622839E+04  0.18842622839E+04  0.50400001928E-02 0.  1.
       -1   -1    0    0    0  501  0.00000000000E+00  0.00000000000E+00 -0.21274622481E+04  0.21274622481E+04  0.50400001928E-02 0. -1.
    10030    2    1    2    0    0  0.00000000000E+00  0.00000000000E+00 -0.24319996420E+03  0.40117245320E+04  0.40043460762E+04 0.  0.
        5    1    3    3  502    0 -0.19415847766E+04 -0.40551307400E+03  0.15181769090E+03  0.19892870581E+04  0.46999998093E+01 0. -1.
       -5    1    3    3    0  502  0.19415847766E+04  0.40551307400E+03 -0.39501765510E+03  0.20224374739E+04  0.46999998093E+01 0.  1.
</event>
<event>
 5   0  0.2599332E-08  0.3999482E+04  0.7818609E-02  0.8004651E-01
       -2   -1    0    0    0  501  0.00000000000E+00  0.00000000000E+00  0.12752053666E+04  0.12752053666E+04  0.25500000920E-02 0. -1.
        2   -1    0    0  501    0  0.00000000000E+00  0.00000000000E+00 -0.31359365292E+04  0.31359365292E+04  0.25500000920E-02 0.  1.
    10030    2    1    2    0    0  0.00000000000E+00  0.00000000000E+00 -0.18607311627E+04  0.44111418958E+04  0.39994815120E+04 0.  0.
        2    1    3    3  502    0  0.30493911075E+03 -0.22518193861E+02  0.12492699826E+04  0.12861455671E+04  0.25500000920E-02 0. -1.
       -2    1    3    3    0  502 -0.30493911075E+03  0.22518193861E+02 -0.31100011453E+04  0.31249963286E+04  0.25500000920E-02 0.  1.
</event>
<event>
 5   0  0.2599332E-08  0.4007206E+04  0.7818609E-02  0.8003094E-01
        2   -1    0    0  501    0  0.00000000000E+00  0.00000000000E+00  0.23513383712E+04  0.23513383712E+04  0.25500000920E-02 0.  1.
       -2   -1    0    0    0  501  0.00000000000E+00  0.00000000000E+00 -0.17072940250E+04  0.17072940250E+04  0.25500000920E-02 0. -1.
    10030    2    1    2    0    0  0.00000000000E+00  0.00000000000E+00  0.64404434625E+03  0.40586323962E+04  0.40072064842E+04 0.  0.
        2    1    3    3  502    0 -0.96416081478E+03 -0.42405093854E+03  0.20483016807E+04  0.23032509742E+04  0.25500000920E-02 0.  1.
       -2    1    3    3    0  502  0.96416081478E+03  0.42405093854E+03 -0.14042573344E+04  0.17553814219E+04  0.25500000920E-02 0. -1.
</event>
<event>
 5   0  0.8329875E-09  0.4002979E+04  0.7818609E-02  0.8003946E-01
        1   -1    0    0  501    0  0.00000000000E+00  0.00000000000E+00  0.19449740089E+04  0.19449740089E+04  0.50400001928E-02 0. -1.
       -1   -1    0    0    0  501  0.00000000000E+00  0.00000000000E+00 -0.20596467388E+04  0.20596467388E+04  0.50400001928E-02 0.  1.
    10030    2    1    2    0    0  0.00000000000E+00  0.00000000000E+00 -0.11467272990E+03  0.40046207476E+04  0.40029785782E+04 0.  0.
        3    1    3    3  502    0  0.19517683730E+03  0.16918722408E+04  0.99449102218E+03  0.19721911876E+04  0.10100000352E+00 0. -1.
       -3    1    3    3    0  502 -0.19517683730E+03 -0.16918722408E+04 -0.11091637521E+04  0.20324295600E+04  0.10100000352E+00 0.  1.
</event>
<event>
 5   0  0.8329875E-09  0.3988884E+04  0.7818609E-02  0.8006793E-01
       -1   -1    0    0    0  501  0.00000000000E+00  0.00000000000E+00  0.20902973905E+04  0.20902973905E+04  0.50400001928E-02 0.  1.
        1   -1    0    0  501    0  0.00000000000E+00  0.00000000000E+00 -0.19029820118E+04  0.19029820118E+04  0.50400001928E-02 0. -1.
    10030    2    1    2    0    0  0.00000000000E+00  0.00000000000E+00  0.18731537868E+03  0.39932794024E+04  0.39888837203E+04 0.  0.
        1    1    3    3  502    0  0.68024282226E+03 -0.11363631231E+04 -0.13992088994E+04  0.19266128280E+04  0.50400001928E-02 0. -1.
       -1    1    3    3    0  502 -0.68024282226E+03  0.11363631231E+04  0.15865242781E+04  0.20666665744E+04  0.50400001928E-02 0.  1.
</event>
<event>
 5   0  0.2746876E-08  0.3999515E+04  0.7818609E-02  0.8004644E-01
        2   -1    0    0  501    0  0.00000000000E+00  0.00000000000E+00  0.22006679256E+04  0.22006679256E+04  0.25500000920E-02 0.  1.
       -2   -1    0    0    0  501  0.00000000000E+00  0.00000000000E+00 -0.18171892985E+04  0.18171892985E+04  0.25500000920E-02 0. -1.
    10030    2    1    2    0    0  0.00000000000E+00  0.00000000000E+00  0.38347862714E+03  0.40178572241E+04  0.39995150726E+04 0.  0.
        1    1    3    3  502    0 -0.10342503561E+04  0.15866290336E+04  0.83652764852E+03  0.20704695110E+04  0.50400001928E-02 0.  1.
       -1    1    3    3    0  502  0.10342503561E+04 -0.15866290336E+04 -0.45304902139E+03  0.19473877131E+04  0.50400001928E-02 0. -1.
</event>
<event>
 5   0  0.2587493E-08  0.4004412E+04  0.7818609E-02  0.8003657E-01
        2   -1    0    0  501    0  0.00000000000E+00  0.00000000000E+00  0.13224425127E+04  0.13224425127E+04  0.25500000920E-02 0. -1.
       -2   -1    0    0    0  501  0.00000000000E+00  0.00000000000E+00 -0.30313822121E+04  0.30313822121E+04  0.25500000920E-02 0.  1.
    10030    2    1    2    0    0  0.00000000000E+00  0.00000000000E+00 -0.17089396994E+04  0.43538247249E+04  0.40044119217E+04 0.  0.
        5    1    3    3  502    0 -0.13699503176E+04 -0.11241364314E+04  0.15869965222E+03  0.17792285572E+04  0.46999998093E+01 0. -1.
       -5    1    3    3    0  502  0.13699503176E+04  0.11241364314E+04 -0.18676393516E+04  0.25745961677E+04  0.46999998093E+01 0.  1.
</event>
<event>
 5   0  0.8329875E-09  0.3996706E+04  0.7818609E-02  0.8005211E-01
       -1   -1    0    0    0  501  0.00000000000E+00  0.00000000000E+00  0.15083531911E+04  0.15083531911E+04  0.50400001928E-02 0. -1.
        1   -1    0    0  501    0  0.00000000000E+00  0.00000000000E+00 -0.26475334856E+04  0.26475334856E+04  0.50400001928E-02 0.  1.
    10030    2    1    2    0    0  0.00000000000E+00  0.00000000000E+00 -0.11391802945E+04  0.41558866768E+04  0.39967064349E+04 0.  0.
        2    1    3    3  502    0  0.92016662853E+03  0.14761814893E+04  0.45325229669E+03  0.17975694863E+04  0.25500000920E-02 0. -1.
       -2    1    3    3    0  502 -0.92016662853E+03 -0.14761814893E+04 -0.15924325912E+04  0.23583171905E+04  0.25500000920E-02 0.  1.
</event>
<event>
 5   0  0.8329875E-09  0.4000975E+04  0.7818609E-02  0.8004350E-01
       -1   -1    0    0    0  501  0.00000000000E+00  0.00000000000E+00  0.19355280233E+04  0.19355280233E+04  0.50400001928E-02 0. -1.
        1   -1    0    0  501    0  0.00000000000E+00  0.00000000000E+00 -0.20676272693E+04  0.20676272694E+04  0.50400001928E-02 0.  1.
    10030    2    1    2    0    0  0.00000000000E+00  0.00000000000E+00 -0.13209924603E+03  0.40031552927E+04  0.40009751419E+04 0.  0.
        2    1    3    3  502    0  0.16504766719E+04  0.62047170976E+03 -0.10114942179E+04  0.20327761658E+04  0.25500000920E-02 0.  1.
       -2    1    3    3    0  502 -0.16504766719E+04 -0.62047170976E+03  0.87939497187E+03  0.19703791269E+04  0.25500000920E-02 0. -1.
</event>
<event>
 5   0  0.8329875E-09  0.4051289E+04  0.7818609E-02  0.7994279E-01
        1   -1    0    0  501    0  0.00000000000E+00  0.00000000000E+00  0.28406939801E+04  0.28406939801E+04  0.50400001928E-02 0.  1.
       -1   -1    0    0    0  501  0.00000000000E+00  0.00000000000E+00 -0.14444481181E+04  0.14444481181E+04  0.50400001928E-02 0. -1.
    10030    2    1    2    0    0  0.00000000000E+00  0.00000000000E+00  0.13962458620E+04  0.42851420982E+04  0.40512887202E+04 0.  0.
        3    1    3    3  502    0  0.17531943932E+04  0.10122630344E+04  0.62432422325E+03  0.21185249059E+04  0.10100000352E+00 0. -1.
       -3    1    3    3    0  502 -0.17531943932E+04 -0.10122630344E+04  0.77192163880E+03  0.21666171923E+04  0.10100000352E+00 0.  1.
</event>
<event>
 5   0  0.2650452E-08  0.3997959E+04  0.7818609E-02  0.8004958E-01
        2   -1    0    0  501    0  0.00000000000E+00  0.00000000000E+00  0.21107266493E+04  0.21107266493E+04  0.25500000920E-02 0.  1.
       -2   -1    0    0    0  501  0.00000000000E+00  0.00000000000E+00 -0.18931481733E+04  0.18931481733E+04  0.25500000920E-02 0. -1.
    10030    2    1    2    0    0  0.00000000000E+00  0.00000000000E+00  0.21757847606E+03  0.40038748226E+04  0.39979586293E+04 0.  0.
        3    1    3    3  502    0 -0.52739210817E+03 -0.15567528823E+04 -0.10305657377E+04  0.19400226087E+04  0.10100000352E+00 0. -1.
       -3    1    3    3    0  502  0.52739210817E+03  0.15567528823E+04  0.12481442137E+04  0.20638522139E+04  0.10100000352E+00 0.  1.
</event>
<event>
 5   0  0.8329875E-09  0.4062659E+04  0.7818609E-02  0.7992024E-01
        1   -1    0    0  501    0  0.00000000000E+00  0.00000000000E+00  0.17021192634E+04  0.17021192634E+04  0.50400001928E-02 0.  1.
       -1   -1    0    0    0  501  0.00000000000E+00  0.00000000000E+00 -0.24242133599E+04  0.24242133599E+04  0.50400001928E-02 0. -1.
    10030    2    1    2    0    0  0.00000000000E+00  0.00000000000E+00 -0.72209409649E+03  0.41263326233E+04  0.40626593549E+04 0.  0.
        5    1    3    3  502    0  0.12894103947E+04  0.86458372400E+03  0.96952076100E+03  0.18303214957E+04  0.46999998093E+01 0.  1.
       -5    1    3    3    0  502 -0.12894103947E+04 -0.86458372400E+03 -0.16916148575E+04  0.22960111276E+04  0.46999998093E+01 0. -1.
</event>
<event>
 5   0  0.8329875E-09  0.3996047E+04  0.7818609E-02  0.8005345E-01
        1   -1    0    0  501    0  0.00000000000E+00  0.00000000000E+00  0.23366773780E+04  0.23366773780E+04  0.50400001928E-02 0. -1.
       -1   -1    0    0    0  501  0.00000000000E+00  0.00000000000E+00 -0.17084502095E+04  0.17084502095E+04  0.50400001928E-02 0.  1.
    10030    2    1    2    0    0  0.00000000000E+00  0.00000000000E+00  0.62822716848E+03  0.40451275876E+04  0.39960465243E+04 0.  0.
        2    1    3    3  502    0 -0.87520252624E+03  0.25202971809E+02 -0.15039079379E+04  0.17402165777E+04  0.25500000920E-02 0.  1.
       -2    1    3    3    0  502  0.87520252624E+03 -0.25202971809E+02  0.21321351063E+04  0.23049110099E+04  0.25500000920E-02 0. -1.
</event>
<event>
 5   0  0.2650452E-08  0.3999175E+04  0.7818609E-02  0.8004713E-01
       -2   -1    0    0    0  501  0.00000000000E+00  0.00000000000E+00  0.21497791497E+04  0.21497791497E+04  0.25500000920E-02 0.  1.
        2   -1    0    0  501    0  0.00000000000E+00  0.00000000000E+00 -0.18598884836E+04  0.18598884836E+04  0.25500000920E-02 0. -1.
    10030    2    1    2    0    0  0.00000000000E+00  0.00000000000E+00  0.28989066606E+03  0.40096676333E+04  0.39991746563E+04 0.  0.
        3    1    3    3  502    0 -0.19845451630E+04 -0.10140751936E+03  0.36834486114E+03  0.20209851399E+04  0.10100000352E+00 0. -1.
       -3    1    3    3    0  502  0.19845451630E+04  0.10140751936E+03 -0.78454195080E+02  0.19886824934E+04  0.10100000352E+00 0.  1.
</event>
<event>
 5   0  0.2587493E-08  0.4007118E+04  0.7818609E-02  0.8003112E-01
       -2   -1    0    0    0  501  0.00000000000E+00  0.00000000000E+00  0.25031690919E+04  0.25031690919E+04  0.25500000920E-02 0.  1.
        2   -1    0    0  501    0  0.00000000000E+00  0.00000000000E+00 -0.16036662148E+04  0.16036662148E+04  0.25500000920E-02 0. -1.
    10030    2    1    2    0    0  0.00000000000E+00  0.00000000000E+00  0.89950287711E+03  0.41068353067E+04  0.40071175189E+04 0.  0.
        5    1    3    3  502    0  0.60188840002E+03  0.16979782856E+04  0.13483984950E+04  0.22502445413E+04  0.46999998093E+01 0.  1.
       -5    1    3    3    0  502 -0.60188840002E+03 -0.16979782856E+04 -0.44889561786E+03  0.18565907654E+04  0.46999998093E+01 0. -1.
</event>
<event>
 5   0  0.2587493E-08  0.4009859E+04  0.7818609E-02  0.8002561E-01
       -2   -1    0    0    0  501  0.00000000000E+00  0.00000000000E+00  0.23990081480E+04  0.23990081480E+04  0.25500000920E-02 0.  1.
        2   -1    0    0  501    0  0.00000000000E+00  0.00000000000E+00 -0.16755852913E+04  0.16755852913E+04  0.25500000920E-02 0. -1.
    10030    2    1    2    0    0  0.00000000000E+00  0.00000000000E+00  0.72342285675E+03  0.40745934393E+04  0.40098592326E+04 0.  0.
        5    1    3    3  502    0  0.17317860453E+03  0.14955734658E+04  0.17070910841E+04  0.22761618748E+04  0.46999998093E+01 0.  1.
       -5    1    3    3    0  502 -0.17317860453E+03 -0.14955734658E+04 -0.98366822739E+03  0.17984315645E+04  0.46999998093E+01 0. -1.
</event>
<event>
 5   0  0.2587493E-08  0.4001998E+04  0.7818609E-02  0.8004144E-01
        2   -1    0    0  501    0  0.00000000000E+00  0.00000000000E+00  0.20245710583E+04  0.20245710583E+04  0.25500000920E-02 0.  1.
       -2   -1    0    0    0  501  0.00000000000E+00  0.00000000000E+00 -0.19777016237E+04  0.19777016237E+04  0.25500000920E-02 0. -1.
    10030    2    1    2    0    0  0.00000000000E+00  0.00000000000E+00  0.46869434664E+02  0.40022726820E+04  0.40019982355E+04 0.  0.
        5    1    3    3  502    0 -0.89582256991E+03  0.13776842155E+04 -0.11183368391E+04  0.19877653911E+04  0.46999998093E+01 0. -1.
       -5    1    3    3    0  502  0.89582256991E+03 -0.13776842155E+04  0.11652062738E+04  0.20145072909E+04  0.46999998093E+01 0.  1.
</event>
<event>
 5   0  0.2599332E-08  0.3998377E+04  0.7818609E-02  0.8004874E-01
       -2   -1    0    0    0  501  0.00000000000E+00  0.00000000000E+00  0.19488967280E+04  0.19488967280E+04  0.25500000920E-02 0.  1.
        2   -1    0    0  501    0  0.00000000000E+00  0.00000000000E+00 -0.20507782720E+04  0.20507782720E+04  0.25500000920E-02 0. -1.
    10030    2    1    2    0    0  0.00000000000E+00  0.00000000000E+00 -0.10188154396E+03  0.39996750000E+04  0.39983772029E+04 0.  0.
        2    1    3    3  502    0 -0.13612934064E+03 -0.14000540647E+04 -0.14719906483E+04  0.20360351299E+04  0.25500000920E-02 0.  1.
       -2    1    3    3    0  502  0.13612934064E+03  0.14000540647E+04  0.13701091044E+04  0.19636398701E+04  0.25500000920E-02 0. -1.
</event>
<event>
 5   0  0.2612363E-08  0.4008366E+04  0.7818609E-02  0.8002861E-01
        2   -1    0    0  501    0  0.00000000000E+00  0.00000000000E+00  0.22525301685E+04  0.22525301685E+04  0.25500000920E-02 0. -1.
       -2   -1    0    0    0  501  0.00000000000E+00  0.00000000000E+00 -0.17832163281E+04  0.17832163281E+04  0.25500000920E-02 0.  1.
    10030    2    1    2    0    0  0.00000000000E+00  0.00000000000E+00  0.46931384044E+03  0.40357464966E+04  0.40083655402E+04 0.  0.
        4    1    3    3  502    0  0.10075616935E+04  0.71082112615E+03  0.18254178757E+04  0.22028616101E+04  0.12699999809E+01 0. -1.
       -4    1    3    3    0  502 -0.10075616935E+04 -0.71082112615E+03 -0.13561040353E+04  0.18328848864E+04  0.12699999809E+01 0.  1.
</event>
<event>
 5   0  0.2650452E-08  0.3999749E+04  0.7818609E-02  0.8004597E-01
       -2   -1    0    0    0  501  0.00000000000E+00  0.00000000000E+00  0.18700185548E+04  0.18700185548E+04  0.25500000920E-02 0. -1.
        2   -1    0    0  501    0  0.00000000000E+00  0.00000000000E+00 -0.21387472691E+04  0.21387472691E+04  0.25500000920E-02 0.  1.
    10030    2    1    2    0    0  0.00000000000E+00  0.00000000000E+00 -0.26872871436E+03  0.40087658239E+04  0.39997485307E+04 0.  0.
        3    1    3    3  502    0  0.10792328072E+04 -0.79223369485E+03  0.13546226651E+04  0.19045682593E+04  0.10100000352E+00 0. -1.
       -3    1    3    3    0  502 -0.10792328072E+04  0.79223369485E+03 -0.16233513794E+04  0.21041975646E+04  0.10100000352E+00 0.  1.
</event>
<event>
 5   0  0.2587493E-08  0.3997433E+04  0.7818609E-02  0.8005065E-01
       -2   -1    0    0    0  501  0.00000000000E+00  0.00000000000E+00  0.12243207884E+04  0.12243207884E+04  0.25500000920E-02 0. -1.
        2   -1    0    0  501    0  0.00000000000E+00  0.00000000000E+00 -0.32629262280E+04  0.32629262280E+04  0.25500000920E-02 0.  1.
    10030    2    1    2    0    0  0.00000000000E+00  0.00000000000E+00 -0.20386054396E+04  0.44872470164E+04  0.39974333825E+04 0.  0.
        5    1    3    3  502    0 -0.12725155988E+04 -0.11033203537E+04  0.18878092312E+03  0.16947778848E+04  0.46999998093E+01 0. -1.
       -5    1    3    3    0  502  0.12725155988E+04  0.11033203537E+04 -0.22273863627E+04  0.27924691316E+04  0.46999998093E+01 0.  1.
</event>
<event>
 5   0  0.2612363E-08  0.4015424E+04  0.7818609E-02  0.8001442E-01
       -2   -1    0    0    0  501  0.00000000000E+00  0.00000000000E+00  0.33212170859E+04  0.33212170859E+04  0.25500000920E-02 0. -1.
        2   -1    0    0  501    0  0.00000000000E+00  0.00000000000E+00 -0.12136835968E+04  0.12136835968E+04  0.25500000920E-02 0.  1.
    10030    2    1    2    0    0  0.00000000000E+00  0.00000000000E+00  0.21075334891E+04  0.45349006828E+04  0.40154236134E+04 0.  0.
        4    1    3    3  502    0  0.10259085473E+04 -0.97292710542E+03  0.26635968746E+04  0.30155970260E+04  0.12699999809E+01 0. -1.
       -4    1    3    3    0  502 -0.10259085473E+04  0.97292710542E+03 -0.55606338546E+03  0.15193036568E+04  0.12699999809E+01 0.  1.
</event>
<event>
 5   0  0.2746876E-08  0.3997606E+04  0.7818609E-02  0.8005030E-01
       -2   -1    0    0    0  501  0.00000000000E+00  0.00000000000E+00  0.22734667681E+04  0.22734667681E+04  0.25500000920E-02 0. -1.
        2   -1    0    0  501    0  0.00000000000E+00  0.00000000000E+00 -0.17573222287E+04  0.17573222287E+04  0.25500000920E-02 0.  1.
    10030    2    1    2    0    0  0.00000000000E+00  0.00000000000E+00  0.51614453941E+03  0.40307889967E+04  0.39976061275E+04 0.  0.
        1    1    3    3  502    0  0.97144861837E+03 -0.13804617831E+04 -0.82124592908E+03  0.18771872652E+04  0.50400001928E-02 0.  1.
       -1    1    3    3    0  502 -0.97144861837E+03  0.13804617831E+04  0.13373904685E+04  0.21536017315E+04  0.50400001928E-02 0. -1.
</event>
<event>
 5   0  0.8329875E-09  0.4003627E+04  0.7818609E-02  0.8003815E-01
       -1   -1    0    0    0  501  0.00000000000E+00  0.00000000000E+00  0.21056624621E+04  0.21056624621E+04  0.50400001928E-02 0.  1.
        1   -1    0    0  501    0  0.00000000000E+00  0.00000000000E+00 -0.19030863441E+04  0.19030863441E+04  0.50400001928E-02 0. -1.
    10030    2    1    2    0    0  0.00000000000E+00  0.00000000000E+00  0.20257611801E+03  0.40087488062E+04  0.40036270939E+04 0.  0.
        2    1    3    3  502    0  0.16546071115E+03  0.34415697199E+03 -0.18662795134E+04  0.19049463222E+04  0.25500000920E-02 0. -1.
       -2    1    3    3    0  502 -0.16546071115E+03 -0.34415697199E+03  0.20688556314E+04  0.21038024840E+04  0.25500000920E-02 0.  1.
</event>
<event>
 5   0  0.2650452E-08  0.3999795E+04  0.7818609E-02  0.8004588E-01
        2   -1    0    0  501    0  0.00000000000E+00  0.00000000000E+00  0.23843221283E+04  0.23843221283E+04  0.25500000920E-02 0.  1.
       -2   -1    0    0    0  501  0.00000000000E+00  0.00000000000E+00 -0.16774535667E+04  0.16774535667E+04  0.25500000920E-02 0. -1.
    10030    2    1    2    0    0  0.00000000000E+00  0.00000000000E+00  0.70686856163E+03  0.40617756949E+04  0.39997948238E+04 0.  0.
        3    1    3    3  502    0  0.19238163079E+04 -0.47239685535E+03  0.74659498035E+02  0.19823728273E+04  0.10100000352E+00 0. -1.
       -3    1    3    3    0  502 -0.19238163079E+04  0.47239685535E+03  0.63220906360E+03  0.20794028676E+04  0.10100000352E+00 0.  1.
</event>
<event>
 5   0  0.8329875E-09  0.3992172E+04  0.7818609E-02  0.8006128E-01
       -1   -1    0    0    0  501  0.00000000000E+00  0.00000000000E+00  0.11856888519E+04  0.11856888519E+04  0.50400001928E-02 0. -1.
        1   -1    0    0  501    0  0.00000000000E+00  0.00000000000E+00 -0.33603753375E+04  0.33603753375E+04  0.50400001928E-02 0.  1.
    10030    2    1    2    0    0  0.00000000000E+00  0.00000000000E+00 -0.21746864856E+04  0.45460641894E+04  0.39921721285E+04 0.  0.
        4    1    3    3  502    0  0.42309106486E+03  0.80540473004E+03 -0.31105545801E+04  0.32408693643E+04  0.12699999809E+01 0.  1.
       -4    1    3    3    0  502 -0.42309106486E+03 -0.80540473004E+03  0.93586809443E+03  0.13051948251E+04  0.12699999809E+01 0. -1.
</event>
<event>
 5   0  0.8329875E-09  0.3988947E+04  0.7818609E-02  0.8006780E-01
       -1   -1    0    0    0  501  0.00000000000E+00  0.00000000000E+00  0.24889306742E+04  0.24889306742E+04  0.50400001928E-02 0. -1.
        1   -1    0    0  501    0  0.00000000000E+00  0.00000000000E+00 -0.15982465411E+04  0.15982465411E+04  0.50400001928E-02 0.  1.
    10030    2    1    2    0    0  0.00000000000E+00  0.00000000000E+00  0.89068413315E+03  0.40871772153E+04  0.39889471499E+04 0.  0.
        1    1    3    3  502    0 -0.15558589608E+04  0.63109319258E+03 -0.65771344973E+03  0.18032090022E+04  0.50400001928E-02 0.  1.
       -1    1    3    3    0  502  0.15558589608E+04 -0.63109319258E+03  0.15483975829E+04  0.22839682131E+04  0.50400001928E-02 0. -1.
</event>
<event>
 5   0  0.8329875E-09  0.4000147E+04  0.7818609E-02  0.8004517E-01
       -3   -1    0    0    0  501  0.00000000000E+00  0.00000000000E+00  0.16806486681E+04  0.16806486712E+04  0.10100000352E+00 0. -1.
        3   -1    0    0  501    0  0.00000000000E+00  0.00000000000E+00 -0.23802079330E+04  0.23802079351E+04  0.10100000352E+00 0.  1.
    10030    2    1    2    0    0  0.00000000000E+00  0.00000000000E+00 -0.69955926485E+03  0.40608566063E+04  0.40001466488E+04 0.  0.
        4    1    3    3  502    0 -0.97512217329E+03 -0.35354190301E+03 -0.20858320878E+04  0.23294961347E+04  0.12699999809E+01 0.  1.
       -4    1    3    3    0  502  0.97512217329E+03  0.35354190301E+03  0.13862728230E+04  0.17313604716E+04  0.12699999809E+01 0. -1.
</event>
<event>
 5   0  0.2612363E-08  0.4001247E+04  0.7818609E-02  0.8004295E-01
       -2   -1    0    0    0  501  0.00000000000E+00  0.00000000000E+00  0.16193597411E+04  0.16193597411E+04  0.25500000920E-02 0. -1.
        2   -1    0    0  501    0  0.00000000000E+00  0.00000000000E+00 -0.24716527958E+04  0.24716527958E+04  0.25500000920E-02 0.  1.
    10030    2    1    2    0    0  0.00000000000E+00  0.00000000000E+00 -0.85229305475E+03  0.40910125369E+04  0.40012473212E+04 0.  0.
        4    1    3    3  502    0  0.93076588440E+03 -0.12951791732E+04  0.80870660732E+03  0.17882455681E+04  0.12699999809E+01 0. -1.
       -4    1    3    3    0  502 -0.93076588440E+03  0.12951791732E+04 -0.16609996621E+04  0.23027669688E+04  0.12699999809E+01 0.  1.
</event>
<event>
 5   0  0.8329875E-09  0.4000977E+04  0.7818609E-02  0.8004350E-01
        1   -1    0    0  501    0  0.00000000000E+00  0.00000000000E+00  0.18703869658E+04  0.18703869658E+04  0.50400001928E-02 0. -1.
       -1   -1    0    0    0  501  0.00000000000E+00  0.00000000000E+00 -0.21396393547E+04  0.21396393547E+04  0.50400001928E-02 0.  1.
    10030    2    1    2    0    0  0.00000000000E+00  0.00000000000E+00 -0.26925238891E+03  0.40100263206E+04  0.40009766611E+04 0.  0.
        2    1    3    3  502    0  0.82953840251E+03 -0.86562590528E+03 -0.17396575513E+04  0.21127826592E+04  0.25500000920E-02 0.  1.
       -2    1    3    3    0  502 -0.82953840251E+03  0.86562590528E+03  0.14704051624E+04  0.18972436614E+04  0.25500000920E-02 0. -1.
</event>
<event>
 5   0  0.2599332E-08  0.3999600E+04  0.7818609E-02  0.8004627E-01
       -2   -1    0    0    0  501  0.00000000000E+00  0.00000000000E+00  0.16908935146E+04  0.16908935146E+04  0.25500000920E-02 0. -1.
        2   -1    0    0  501    0  0.00000000000E+00  0.00000000000E+00 -0.23651402597E+04  0.23651402597E+04  0.25500000920E-02 0.  1.
    10030    2    1    2    0    0  0.00000000000E+00  0.00000000000E+00 -0.67424674508E+03  0.40560337743E+04  0.39996001431E+04 0.  0.
        2    1    3    3  502    0  0.16800068728E+03 -0.37653535803E+03 -0.23215674046E+04  0.23578970124E+04  0.25500000920E-02 0.  1.
       -2    1    3    3    0  502 -0.16800068728E+03  0.37653535803E+03  0.16473206595E+04  0.16981367619E+04  0.25500000920E-02 0. -1.
</event>
<event>
 5   0  0.2746876E-08  0.4001448E+04  0.7818609E-02  0.8004254E-01
       -2   -1    0    0    0  501  0.00000000000E+00  0.00000000000E+00  0.13933419200E+04  0.13933419200E+04  0.25500000920E-02 0. -1.
        2   -1    0    0  501    0  0.00000000000E+00  0.00000000000E+00 -0.28728751541E+04  0.28728751541E+04  0.25500000920E-02 0.  1.
    10030    2    1    2    0    0  0.00000000000E+00  0.00000000000E+00 -0.14795332340E+04  0.42662170741E+04  0.40014484293E+04 0.  0.
        1    1    3    3  502    0 -0.18236291862E+03  0.17547085514E+04 -0.17459487275E+04  0.24820546516E+04  0.50400001928E-02 0.  1.
       -1    1    3    3    0  502  0.18236291862E+03 -0.17547085514E+04  0.26641549351E+03  0.17841624225E+04  0.50400001928E-02 0. -1.
</event>
<event>
 5   0  0.2587493E-08  0.4002587E+04  0.7818609E-02  0.8004025E-01
       -2   -1    0    0    0  501  0.00000000000E+00  0.00000000000E+00  0.16133701493E+04  0.16133701493E+04  0.25500000920E-02 0.  1.
        2   -1    0    0  501    0  0.00000000000E+00  0.00000000000E+00 -0.24824899344E+04  0.24824899344E+04  0.25500000920E-02 0. -1.
    10030    2    1    2    0    0  0.00000000000E+00  0.00000000000E+00 -0.86911978515E+03  0.40958600837E+04  0.40025867416E+04 0.  0.
        5    1    3    3  502    0 -0.11189231522E+04 -0.85730271586E+01 -0.21324696645E+04  0.24082174897E+04  0.46999998093E+01 0. -1.
       -5    1    3    3    0  502  0.11189231522E+04  0.85730271586E+01  0.12633498794E+04  0.16876425940E+04  0.46999998093E+01 0.  1.
</event>
<event>
 5   0  0.8329875E-09  0.4001759E+04  0.7818609E-02  0.8004192E-01
       -1   -1    0    0    0  501  0.00000000000E+00  0.00000000000E+00  0.17254286782E+04  0.17254286782E+04  0.50400001928E-02 0.  1.
        1   -1    0    0  501    0  0.00000000000E+00  0.00000000000E+00 -0.23203033620E+04  0.23203033620E+04  0.50400001928E-02 0. -1.
    10030    2    1    2    0    0  0.00000000000E+00  0.00000000000E+00 -0.59487468381E+03  0.40457320402E+04  0.40017585949E+04 0.  0.
        2    1    3    3  502    0  0.14657557294E+04 -0.29335829601E+03 -0.16420973205E+04  0.22205815810E+04  0.25500000920E-02 0. -1.
       -2    1    3    3    0  502 -0.14657557294E+04  0.29335829601E+03  0.10472226367E+04  0.18251504592E+04  0.25500000920E-02 0.  1.
</event>
<event>
 5   0  0.8329875E-09  0.3999361E+04  0.7818609E-02  0.8004675E-01
        1   -1    0    0  501    0  0.00000000000E+00  0.00000000000E+00  0.12755538564E+04  0.12755538564E+04  0.50400001928E-02 0.  1.
       -1   -1    0    0    0  501  0.00000000000E+00  0.00000000000E+00 -0.31348912849E+04  0.31348912849E+04  0.50400001928E-02 0. -1.
    10030    2    1    2    0    0  0.00000000000E+00  0.00000000000E+00 -0.18593374285E+04  0.44104451413E+04  0.39993612830E+04 0.  0.
        4    1    3    3  502    0  0.26864179310E+03  0.26207774758E+03 -0.30957036780E+04  0.31183707338E+04  0.12699999809E+01 0. -1.
       -4    1    3    3    0  502 -0.26864179310E+03 -0.26207774758E+03  0.12363662495E+04  0.12920744075E+04  0.12699999809E+01 0.  1.
</event>
<event>
 5   0  0.2612363E-08  0.4004971E+04  0.7818609E-02  0.8003545E-01
       -2   -1    0    0    0  501  0.00000000000E+00  0.00000000000E+00  0.18983780443E+04  0.18983780443E+04  0.25500000920E-02 0.  1.
        2   -1    0    0  501    0  0.00000000000E+00  0.00000000000E+00 -0.21123018318E+04  0.21123018318E+04  0.25500000920E-02 0. -1.
    10030    2    1    2    0    0  0.00000000000E+00  0.00000000000E+00 -0.21392378751E+03  0.40106798761E+04  0.40049706218E+04 0.  0.
        4    1    3    3  502    0 -0.15065984068E+04 -0.83888113802E+03 -0.11264433369E+04  0.20597175843E+04  0.12699999809E+01 0. -1.
       -4    1    3    3    0  502  0.15065984068E+04  0.83888113802E+03  0.91251954940E+03  0.19509622918E+04  0.12699999809E+01 0.  1.
</event>
<event>
 5   0  0.2650452E-08  0.4006401E+04  0.7818609E-02  0.8003256E-01
        2   -1    0    0  501    0  0.00000000000E+00  0.00000000000E+00  0.16463505037E+04  0.16463505037E+04  0.25500000920E-02 0.  1.
       -2   -1    0    0    0  501  0.00000000000E+00  0.00000000000E+00 -0.24373990479E+04  0.24373990479E+04  0.25500000920E-02 0. -1.
    10030    2    1    2    0    0  0.00000000000E+00  0.00000000000E+00 -0.79104854424E+03  0.40837495517E+04  0.40064014528E+04 0.  0.
        3    1    3    3  502    0 -0.11190314800E+03  0.19715867712E+04 -0.73837562587E+03  0.21082872874E+04  0.10100000352E+00 0. -1.
       -3    1    3    3    0  502  0.11190314800E+03 -0.19715867712E+04 -0.52672918371E+02  0.19754622643E+04  0.10100000352E+00 0.  1.
</event>
<event>
 5   0  0.8329875E-09  0.3982898E+04  0.7818609E-02  0.8008005E-01
        1   -1    0    0  501    0  0.00000000000E+00  0.00000000000E+00  0.28329551369E+04  0.28329551369E+04  0.50400001928E-02 0.  1.
       -1   -1    0    0    0  501  0.00000000000E+00  0.00000000000E+00 -0.13999054273E+04  0.13999054273E+04  0.50400001928E-02 0. -1.
    10030    2    1    2    0    0  0.00000000000E+00  0.00000000000E+00  0.14330497096E+04  0.42328605642E+04  0.39828980762E+04 0.  0.
        1    1    3    3  502    0 -0.62090457700E+03  0.15871697259E+04 -0.37829175721E+03  0.17457762990E+04  0.50400001928E-02 0. -1.
       -1    1    3    3    0  502  0.62090457700E+03 -0.15871697259E+04  0.18113414668E+04  0.24870842652E+04  0.50400001928E-02 0.  1.
</event>
<event>
 5   0  0.8329875E-09  0.4107908E+04  0.7818609E-02  0.7983125E-01
        1   -1    0    0  501    0  0.00000000000E+00  0.00000000000E+00  0.28160242381E+04  0.28160242381E+04  0.50400001928E-02 0. -1.
       -1   -1    0    0    0  501  0.00000000000E+00  0.00000000000E+00 -0.14981148656E+04  0.14981148656E+04  0.50400001928E-02 0.  1.
    10030    2    1    2    0    0  0.00000000000E+00  0.00000000000E+00  0.13179093725E+04  0.43141391037E+04  0.41079083597E+04 0.  0.
        3    1    3    3  502    0 -0.94386653600E+03  0.12306762551E+04  0.20731382812E+04  0.25890829314E+04  0.10100000352E+00 0. -1.
       -3    1    3    3    0  502  0.94386653600E+03 -0.12306762551E+04 -0.75522890868E+03  0.17250561723E+04  0.10100000352E+00 0.  1.
</event>
<event>
 5   0  0.8329875E-09  0.4001556E+04  0.7818609E-02  0.8004233E-01
       -1   -1    0    0    0  501  0.00000000000E+00  0.00000000000E+00  0.21081625570E+04  0.21081625571E+04  0.50400001928E-02 0.  1.
        1   -1    0    0  501    0  0.00000000000E+00  0.00000000000E+00 -0.18988638139E+04  0.18988638139E+04  0.50400001928E-02 0. -1.
    10030    2    1    2    0    0  0.00000000000E+00  0.00000000000E+00  0.20929874314E+03  0.40070263710E+04  0.40015564939E+04 0.  0.
        2    1    3    3  502    0 -0.59979083168E+03 -0.16649632384E+04 -0.83004069229E+03  0.19546915813E+04  0.25500000920E-02 0. -1.
       -2    1    3    3    0  502  0.59979083168E+03  0.16649632384E+04  0.10393394354E+04  0.20523347897E+04  0.25500000920E-02 0.  1.
</event>
<event>
 5   0  0.8329875E-09  0.4002417E+04  0.7818609E-02  0.8004059E-01
        1   -1    0    0  501    0  0.00000000000E+00  0.00000000000E+00  0.22668502839E+04  0.22668502839E+04  0.50400001928E-02 0.  1.
       -1   -1    0    0    0  501  0.00000000000E+00  0.00000000000E+00 -0.17666958712E+04  0.17666958712E+04  0.50400001928E-02 0. -1.
    10030    2    1    2    0    0  0.00000000000E+00  0.00000000000E+00  0.50015441262E+03  0.40335461551E+04  0.40024167885E+04 0.  0.
        2    1    3    3  502    0 -0.19662504692E+04  0.45288764594E+02 -0.12245043668E+03  0.19705801403E+04  0.25500000920E-02 0. -1.
       -2    1    3    3    0  502  0.19662504692E+04 -0.45288764594E+02  0.62260484931E+03  0.20629660148E+04  0.25500000920E-02 0.  1.
</event>
<event>
 5   0  0.2587493E-08  0.3996341E+04  0.7818609E-02  0.8005285E-01
        2   -1    0    0  501    0  0.00000000000E+00  0.00000000000E+00  0.24233792397E+04  0.24233792397E+04  0.25500000920E-02 0.  1.
       -2   -1    0    0    0  501  0.00000000000E+00  0.00000000000E+00 -0.16475696330E+04  0.16475696330E+04  0.25500000920E-02 0. -1.
    10030    2    1    2    0    0  0.00000000000E+00  0.00000000000E+00  0.77580960663E+03  0.40709488727E+04  0.39963413491E+04 0.  0.
        5    1    3    3  502    0  0.14019862706E+04  0.10319991426E+04 -0.61126157529E+03  0.18450611201E+04  0.46999998093E+01 0. -1.
       -5    1    3    3    0  502 -0.14019862706E+04 -0.10319991426E+04  0.13870711819E+04  0.22258877526E+04  0.46999998093E+01 0.  1.
</event>
<event>
 5   0  0.8329875E-09  0.4002388E+04  0.7818609E-02  0.8004065E-01
        3   -1    0    0  501    0  0.00000000000E+00  0.00000000000E+00  0.18467129532E+04  0.18467129559E+04  0.10100000352E+00 0.  1.
       -3   -1    0    0    0  501  0.00000000000E+00  0.00000000000E+00 -0.21685973080E+04  0.21685973104E+04  0.10100000352E+00 0. -1.
    10030    2    1    2    0    0  0.00000000000E+00  0.00000000000E+00 -0.32188435486E+03  0.40153102663E+04  0.40023876620E+04 0.  0.
        4    1    3    3  502    0 -0.66413112280E+02  0.17796222975E+04 -0.10767470959E+04  0.20810699519E+04  0.12699999809E+01 0. -1.
       -4    1    3    3    0  502  0.66413112280E+02 -0.17796222975E+04  0.75486274101E+03  0.19342403144E+04  0.12699999809E+01 0.  1.
</event>
<event>
 5   0  0.8329875E-09  0.4004755E+04  0.7818609E-02  0.8003588E-01
       -1   -1    0    0    0  501  0.00000000000E+00  0.00000000000E+00  0.21815354171E+04  0.21815354171E+04  0.50400001928E-02 0. -1.
        1   -1    0    0  501    0  0.00000000000E+00  0.00000000000E+00 -0.18379327233E+04  0.18379327234E+04  0.50400001928E-02 0.  1.
    10030    2    1    2    0    0  0.00000000000E+00  0.00000000000E+00  0.34360269378E+03  0.40194681405E+04  0.40047548391E+04 0.  0.
        3    1    3    3  502    0  0.13672044538E+04 -0.52244237055E+03  0.15433214511E+04  0.21269779408E+04  0.10100000352E+00 0. -1.
       -3    1    3    3    0  502 -0.13672044538E+04  0.52244237055E+03 -0.11997187573E+04  0.18924901997E+04  0.10100000352E+00 0.  1.
</event>
<event>
 5   0  0.8329875E-09  0.3995742E+04  0.7818609E-02  0.8005406E-01
       -1   -1    0    0    0  501  0.00000000000E+00  0.00000000000E+00  0.15517878253E+04  0.15517878253E+04  0.50400001928E-02 0. -1.
        1   -1    0    0  501    0  0.00000000000E+00  0.00000000000E+00 -0.25721875108E+04  0.25721875108E+04  0.50400001928E-02 0.  1.
    10030    2    1    2    0    0  0.00000000000E+00  0.00000000000E+00 -0.10203996855E+04  0.41239753362E+04  0.39957423660E+04 0.  0.
        5    1    3    3  502    0 -0.16722060025E+04 -0.22723010460E+03 -0.16138926166E+04  0.23350755669E+04  0.46999998093E+01 0.  1.
       -5    1    3    3    0  502  0.16722060025E+04  0.22723010460E+03  0.59349293112E+03  0.17888997693E+04  0.46999998093E+01 0. -1.
</event>
<event>
 5   0  0.8329875E-09  0.3999873E+04  0.7818609E-02  0.8004572E-01
        1   -1    0    0  501    0  0.00000000000E+00  0.00000000000E+00  0.28722382813E+04  0.28722382813E+04  0.50400001928E-02 0.  1.
       -1   -1    0    0    0  501  0.00000000000E+00  0.00000000000E+00 -0.13925537405E+04  0.13925537405E+04  0.50400001928E-02 0. -1.
    10030    2    1    2    0    0  0.00000000000E+00  0.00000000000E+00  0.14796845407E+04  0.42647920218E+04  0.39998730791E+04 0.  0.
        1    1    3    3  502    0  0.44516208265E+03  0.19021495202E+03  0.28088252878E+04  0.28502369209E+04  0.50400001928E-02 0.  1.
       -1    1    3    3    0  502 -0.44516208265E+03 -0.19021495202E+03 -0.13291407471E+04  0.14145551009E+04  0.50400001928E-02 0. -1.
</event>
<event>
 5   0  0.2599332E-08  0.3998128E+04  0.7818609E-02  0.8004924E-01
        2   -1    0    0  501    0  0.00000000000E+00  0.00000000000E+00  0.26395592243E+04  0.26395592243E+04  0.25500000920E-02 0.  1.
       -2   -1    0    0    0  501  0.00000000000E+00  0.00000000000E+00 -0.15139863601E+04  0.15139863601E+04  0.25500000920E-02 0. -1.
    10030    2    1    2    0    0  0.00000000000E+00  0.00000000000E+00  0.11255728642E+04  0.41535455844E+04  0.39981278930E+04 0.  0.
        2    1    3    3  502    0  0.15616287571E+04 -0.12480262273E+04  0.56104092944E+03  0.20762997769E+04  0.25500000920E-02 0. -1.
       -2    1    3    3    0  502 -0.15616287571E+04  0.12480262273E+04  0.56453193479E+03  0.20772458074E+04  0.25500000920E-02 0.  1.
</event>
<event>
 5   0  0.2746876E-08  0.4001419E+04  0.7818609E-02  0.8004260E-01
        2   -1    0    0  501    0  0.00000000000E+00  0.00000000000E+00  0.21815412636E+04  0.21815412636E+04  0.25500000920E-02 0.  1.
       -2   -1    0    0    0  501  0.00000000000E+00  0.00000000000E+00 -0.18348670767E+04  0.18348670767E+04  0.25500000920E-02 0. -1.
    10030    2    1    2    0    0  0.00000000000E+00  0.00000000000E+00  0.34667418690E+03  0.40164083404E+04  0.40014188689E+04 0.  0.
        1    1    3    3  502    0  0.95044233044E+03  0.60425955508E+02 -0.15927557941E+04  0.18557647856E+04  0.50400001928E-02 0. -1.
       -1    1    3    3    0  502 -0.95044233044E+03 -0.60425955508E+02  0.19394299810E+04  0.21606435548E+04  0.50400001928E-02 0.  1.
</event>
<event>
 5   0  0.8329875E-09  0.3995619E+04  0.7818609E-02  0.8005431E-01
       -1   -1    0    0    0  501  0.00000000000E+00  0.00000000000E+00  0.25128539965E+04  0.25128539965E+04  0.50400001928E-02 0. -1.
        1   -1    0    0  501    0  0.00000000000E+00  0.00000000000E+00 -0.15883307930E+04  0.15883307930E+04  0.50400001928E-02 0.  1.
    10030    2    1    2    0    0  0.00000000000E+00  0.00000000000E+00  0.92452320358E+03  0.41011847895E+04  0.39956192916E+04 0.  0.
        2    1    3    3  502    0  0.13959905533E+04  0.43711025101E+02  0.19284781712E+04  0.23811191351E+04  0.25500000920E-02 0. -1.
       -2    1    3    3    0  502 -0.13959905533E+04 -0.43711025101E+02 -0.10039549676E+04  0.17200656544E+04  0.25500000920E-02 0.  1.
</event>
<event>
 5   0  0.8329875E-09  0.4003654E+04  0.7818609E-02  0.8003810E-01
        1   -1    0    0  501    0  0.00000000000E+00  0.00000000000E+00  0.26292756240E+04  0.26292756240E+04  0.50400001928E-02 0.  1.
       -1   -1    0    0    0  501  0.00000000000E+00  0.00000000000E+00 -0.15241125141E+04  0.15241125141E+04  0.50400001928E-02 0. -1.
    10030    2    1    2    0    0  0.00000000000E+00  0.00000000000E+00  0.11051631099E+04  0.41533881381E+04  0.40036542716E+04 0.  0.
        3    1    3    3  502    0 -0.18281866921E+04  0.58523070963E+03 -0.36593946591E+02  0.19199220536E+04  0.10100000352E+00 0. -1.
       -3    1    3    3    0  502  0.18281866921E+04 -0.58523070963E+03  0.11417570565E+04  0.22334660845E+04  0.10100000352E+00 0.  1.
</event>
<event>
 5   0  0.2599332E-08  0.3998885E+04  0.7818609E-02  0.8004771E-01
       -2   -1    0    0    0  501  0.00000000000E+00  0.00000000000E+00  0.27783606448E+04  0.27783606448E+04  0.25500000920E-02 0.  1.
        2   -1    0    0  501    0  0.00000000000E+00  0.00000000000E+00 -0.14388956035E+04  0.14388956035E+04  0.25500000920E-02 0. -1.
    10030    2    1    2    0    0  0.00000000000E+00  0.00000000000E+00  0.13394650413E+04  0.42172562483E+04  0.39988853030E+04 0.  0.
        2    1    3    3  502    0  0.19859892093E+04 -0.22222983057E+03  0.60112883847E+03  0.20868385461E+04  0.25500000920E-02 0.  1.
       -2    1    3    3    0  502 -0.19859892093E+04  0.22222983057E+03  0.73833620284E+03  0.21304177021E+04  0.25500000920E-02 0. -1.
</event>
<event>
 5   0  0.2746876E-08  0.3999074E+04  0.7818609E-02  0.8004733E-01
        2   -1    0    0  501    0  0.00000000000E+00  0.00000000000E+00  0.22338647162E+04  0.22338647162E+04  0.25500000920E-02 0. -1.
       -2   -1    0    0    0  501  0.00000000000E+00  0.00000000000E+00 -0.17897893474E+04  0.17897893474E+04  0.25500000920E-02 0.  1.
    10030    2    1    2    0    0  0.00000000000E+00  0.00000000000E+00  0.44407536878E+03  0.40236540635E+04  0.39990735290E+04 0.  0.
        1    1    3    3  502    0  0.16316384946E+02  0.14476993935E+03 -0.17844422503E+04  0.17903794861E+04  0.50400001928E-02 0.  1.
       -1    1    3    3    0  502 -0.16316384946E+02 -0.14476993935E+03  0.22285176190E+04  0.22332745774E+04  0.50400001928E-02 0. -1.
</event>
<event>
 5   0  0.8329875E-09  0.3980928E+04  0.7818609E-02  0.8008405E-01
       -1   -1    0    0    0  501  0.00000000000E+00  0.00000000000E+00  0.29036843599E+04  0.29036843599E+04  0.50400001928E-02 0.  1.
        1   -1    0    0  501    0  0.00000000000E+00  0.00000000000E+00 -0.13644549796E+04  0.13644549796E+04  0.50400001928E-02 0. -1.
    10030    2    1    2    0    0  0.00000000000E+00  0.00000000000E+00  0.15392293803E+04  0.42681393395E+04  0.39809278235E+04 0.  0.
        1    1    3    3  502    0 -0.12355434407E+04 -0.15537957730E+04  0.61388490011E+03  0.20779084601E+04  0.50400001928E-02 0. -1.
       -1    1    3    3    0  502  0.12355434407E+04  0.15537957730E+04  0.92534448020E+03  0.21902308794E+04  0.50400001928E-02 0.  1.
</event>
<event>
 5   0  0.2599332E-08  0.4020815E+04  0.7818609E-02  0.8000361E-01
        2   -1    0    0  501    0  0.00000000000E+00  0.00000000000E+00  0.26131173302E+04  0.26131173302E+04  0.25500000920E-02 0.  1.
       -2   -1    0    0    0  501  0.00000000000E+00  0.00000000000E+00 -0.15467116300E+04  0.15467116300E+04  0.25500000920E-02 0. -1.
    10030    2    1    2    0    0  0.00000000000E+00  0.00000000000E+00  0.10664057002E+04  0.41598289603E+04  0.40208153230E+04 0.  0.
        2    1    3    3  502    0 -0.17543750121E+04  0.72364625081E+02  0.15461716338E+04  0.23395971968E+04  0.25500000920E-02 0.  1.
       -2    1    3    3    0  502  0.17543750121E+04 -0.72364625081E+02 -0.47976593357E+03  0.18202317635E+04  0.25500000920E-02 0. -1.
</event>
<event>
 5   0  0.8329875E-09  0.4007063E+04  0.7818609E-02  0.8003123E-01
       -1   -1    0    0    0  501  0.00000000000E+00  0.00000000000E+00  0.30850563186E+04  0.30850563186E+04  0.50400001928E-02 0.  1.
        1   -1    0    0  501    0  0.00000000000E+00  0.00000000000E+00 -0.13011558470E+04  0.13011558471E+04  0.50400001928E-02 0. -1.
    10030    2    1    2    0    0  0.00000000000E+00  0.00000000000E+00  0.17839004716E+04  0.43862121657E+04  0.40070632974E+04 0.  0.
        4    1    3    3  502    0  0.16105062811E+04 -0.11893252533E+04  0.97611801890E+03  0.22273376572E+04  0.12699999809E+01 0. -1.
       -4    1    3    3    0  502 -0.16105062811E+04  0.11893252533E+04  0.80778245265E+03  0.21588745084E+04  0.12699999809E+01 0.  1.
</event>
<event>
 5   0  0.8329875E-09  0.4002151E+04  0.7818609E-02  0.8004113E-01
        1   -1    0    0  501    0  0.00000000000E+00  0.00000000000E+00  0.19196567737E+04  0.19196567737E+04  0.50400001928E-02 0.  1.
       -1   -1    0    0    0  501  0.00000000000E+00  0.00000000000E+00 -0.20859475750E+04  0.20859475750E+04  0.50400001928E-02 0. -1.
    10030    2    1    2    0    0  0.00000000000E+00  0.00000000000E+00 -0.16629080135E+03  0.40056043487E+04  0.40021511176E+04 0.  0.
        3    1    3    3  502    0  0.77592615804E+03 -0.15805288376E+04  0.86855390143E+03  0.19632928205E+04  0.10100000352E+00 0.  1.
       -3    1    3    3    0  502 -0.77592615804E+03  0.15805288376E+04 -0.10348447028E+04  0.20423115282E+04  0.10100000352E+00 0. -1.
</event>
<event>
 5   0  0.2587493E-08  0.3997775E+04  0.7818609E-02  0.8004996E-01
        2   -1    0    0  501    0  0.00000000000E+00  0.00000000000E+00  0.15586223438E+04  0.15586223438E+04  0.25500000920E-02 0.  1.
       -2   -1    0    0    0  501  0.00000000000E+00  0.00000000000E+00 -0.25635142498E+04  0.25635142498E+04  0.25500000920E-02 0. -1.
    10030    2    1    2    0    0  0.00000000000E+00  0.00000000000E+00 -0.10048919060E+04  0.41221365936E+04  0.39977746752E+04 0.  0.
        5    1    3    3  502    0 -0.15031464329E+03 -0.37756615444E+02 -0.25573039332E+04  0.25620003027E+04  0.46999998093E+01 0. -1.
       -5    1    3    3    0  502  0.15031464329E+03  0.37756615444E+02  0.15524120272E+04  0.15601362909E+04  0.46999998093E+01 0.  1.
</event>
<event>
 5   0  0.2599332E-08  0.3940425E+04  0.7818609E-02  0.8016674E-01
       -2   -1    0    0    0  501  0.00000000000E+00  0.00000000000E+00  0.24864404213E+04  0.24864404213E+04  0.25500000920E-02 0. -1.
        2   -1    0    0  501    0  0.00000000000E+00  0.00000000000E+00 -0.15611622160E+04  0.15611622160E+04  0.25500000920E-02 0.  1.
    10030    2    1    2    0    0  0.00000000000E+00  0.00000000000E+00  0.92527820533E+03  0.40476026373E+04  0.39404247680E+04 0.  0.
        2    1    3    3  502    0 -0.15003501892E+04 -0.72404188114E+03  0.15431287967E+04  0.22708002597E+04  0.25500000920E-02 0. -1.
       -2    1    3    3    0  502  0.15003501892E+04  0.72404188114E+03 -0.61785059142E+03  0.17768023777E+04  0.25500000920E-02 0.  1.
</event>
<event>
 5   0  0.8329875E-09  0.4000534E+04  0.7818609E-02  0.8004439E-01
        3   -1    0    0  501    0  0.00000000000E+00  0.00000000000E+00  0.26594887989E+04  0.26594888008E+04  0.10100000352E+00 0.  1.
       -3   -1    0    0    0  501  0.00000000000E+00  0.00000000000E+00 -0.15044503063E+04  0.15044503097E+04  0.10100000352E+00 0. -1.
    10030    2    1    2    0    0  0.00000000000E+00  0.00000000000E+00  0.11550384926E+04  0.41639391105E+04  0.40005343389E+04 0.  0.
        3    1    3    3  502    0  0.56525919842E+03 -0.98890430183E+03 -0.11339106621E+04  0.16072346062E+04  0.10100000352E+00 0. -1.
       -3    1    3    3    0  502 -0.56525919842E+03  0.98890430183E+03  0.22889491547E+04  0.25567045043E+04  0.10100000352E+00 0.  1.
</event>
<event>
 5   0  0.8329875E-09  0.3993152E+04  0.7818609E-02  0.8005929E-01
        1   -1    0    0  501    0  0.00000000000E+00  0.00000000000E+00  0.21300223752E+04  0.21300223752E+04  0.50400001928E-02 0. -1.
       -1   -1    0    0    0  501  0.00000000000E+00  0.00000000000E+00 -0.18714899409E+04  0.18714899409E+04  0.50400001928E-02 0.  1.
    10030    2    1    2    0    0  0.00000000000E+00  0.00000000000E+00  0.25853243434E+03  0.40015123161E+04  0.39931518624E+04 0.  0.
        2    1    3    3  502    0 -0.12697109188E+04  0.14898614206E+04 -0.26457391801E+03  0.19753106662E+04  0.25500000920E-02 0. -1.
       -2    1    3    3    0  502  0.12697109188E+04 -0.14898614206E+04  0.52310635235E+03  0.20262016499E+04  0.25500000920E-02 0.  1.
</event>
<event>
 5   0  0.8329875E-09  0.3998298E+04  0.7818609E-02  0.8004890E-01
        1   -1    0    0  501    0  0.00000000000E+00  0.00000000000E+00  0.18819654046E+04  0.18819654046E+04  0.50400001928E-02 0. -1.
       -1   -1    0    0    0  501  0.00000000000E+00  0.00000000000E+00 -0.21236294731E+04  0.21236294731E+04  0.50400001928E-02 0.  1.
    10030    2    1    2    0    0  0.00000000000E+00  0.00000000000E+00 -0.24166406845E+03  0.40055948777E+04  0.39982982383E+04 0.  0.
        1    1    3    3  502    0 -0.17079668264E+04 -0.69009423164E+03  0.65725545712E+03  0.19558541522E+04  0.50400001928E-02 0. -1.
       -1    1    3    3    0  502  0.17079668264E+04  0.69009423164E+03 -0.89891952557E+03  0.20497407256E+04  0.50400001928E-02 0.  1.
</event>
<event>
 5   0  0.2599332E-08  0.3999828E+04  0.7818609E-02  0.8004581E-01
       -2   -1    0    0    0  501  0.00000000000E+00  0.00000000000E+00  0.20485897799E+04  0.20485897799E+04  0.25500000920E-02 0.  1.
        2   -1    0    0  501    0  0.00000000000E+00  0.00000000000E+00 -0.19523950539E+04  0.19523950539E+04  0.25500000920E-02 0. -1.
    10030    2    1    2    0    0  0.00000000000E+00  0.00000000000E+00  0.96194726037E+02  0.40009848338E+04  0.39998282732E+04 0.  0.
        2    1    3    3  502    0  0.61614651762E+03  0.18683875206E+04 -0.31137835671E+03  0.19918496277E+04  0.25500000920E-02 0. -1.
       -2    1    3    3    0  502 -0.61614651762E+03 -0.18683875206E+04  0.40757308275E+03  0.20091352061E+04  0.25500000920E-02 0.  1.
</event>
<event>
 5   0  0.8329875E-09  0.3995448E+04  0.7818609E-02  0.8005466E-01
       -1   -1    0    0    0  501  0.00000000000E+00  0.00000000000E+00  0.17952354561E+04  0.17952354561E+04  0.50400001928E-02 0.  1.
        1   -1    0    0  501    0  0.00000000000E+00  0.00000000000E+00 -0.22230512023E+04  0.22230512023E+04  0.50400001928E-02 0. -1.
    10030    2    1    2    0    0  0.00000000000E+00  0.00000000000E+00 -0.42781574618E+03  0.40182866585E+04  0.39954475790E+04 0.  0.
        1    1    3    3  502    0  0.98486774843E+03  0.64335814161E+03  0.14099505892E+04  0.18362556587E+04  0.50400001928E-02 0.  1.
       -1    1    3    3    0  502 -0.98486774843E+03 -0.64335814161E+03 -0.18377663354E+04  0.21820309997E+04  0.50400001928E-02 0. -1.
</event>
<event>
 5   0  0.2587493E-08  0.4004760E+04  0.7818609E-02  0.8003587E-01
       -2   -1    0    0    0  501  0.00000000000E+00  0.00000000000E+00  0.17870865141E+04  0.17870865141E+04  0.25500000920E-02 0.  1.
        2   -1    0    0  501    0  0.00000000000E+00  0.00000000000E+00 -0.22436107077E+04  0.22436107077E+04  0.25500000920E-02 0. -1.
    10030    2    1    2    0    0  0.00000000000E+00  0.00000000000E+00 -0.45652419353E+03  0.40306972218E+04  0.40047603867E+04 0.  0.
        5    1    3    3  502    0  0.70772973809E+03  0.54260166655E+02  0.16562099545E+04  0.18019098344E+04  0.46999998093E+01 0.  1.
       -5    1    3    3    0  502 -0.70772973809E+03 -0.54260166655E+02 -0.21127341481E+04  0.22287873874E+04  0.46999998093E+01 0. -1.
</event>
<event>
 5   0  0.8329875E-09  0.4008619E+04  0.7818609E-02  0.8002810E-01
       -1   -1    0    0    0  501  0.00000000000E+00  0.00000000000E+00  0.25057671859E+04  0.25057671859E+04  0.50400001928E-02 0.  1.
        1   -1    0    0  501    0  0.00000000000E+00  0.00000000000E+00 -0.16032043856E+04  0.16032043856E+04  0.50400001928E-02 0. -1.
    10030    2    1    2    0    0  0.00000000000E+00  0.00000000000E+00  0.90256280030E+03  0.41089715715E+04  0.40086191845E+04 0.  0.
        3    1    3    3  502    0 -0.61798198906E+03  0.13789787735E+04 -0.89840981274E+03  0.17580171781E+04  0.10100000352E+00 0. -1.
       -3    1    3    3    0  502  0.61798198906E+03 -0.13789787735E+04  0.18009726130E+04  0.23509543934E+04  0.10100000352E+00 0.  1.
</event>
<event>
 5   0  0.8329875E-09  0.4002605E+04  0.7818609E-02  0.8004021E-01
       -1   -1    0    0    0  501  0.00000000000E+00  0.00000000000E+00  0.18774661944E+04  0.18774661944E+04  0.50400001928E-02 0. -1.
        1   -1    0    0  501    0  0.00000000000E+00  0.00000000000E+00 -0.21333073672E+04  0.21333073672E+04  0.50400001928E-02 0.  1.
    10030    2    1    2    0    0  0.00000000000E+00  0.00000000000E+00 -0.25584117276E+03  0.40107735616E+04  0.40026053836E+04 0.  0.
        5    1    3    3  502    0  0.17898483684E+04 -0.24291318538E+03 -0.99143691359E+03  0.20604691799E+04  0.46999998093E+01 0.  1.
       -5    1    3    3    0  502 -0.17898483684E+04  0.24291318538E+03  0.73559574083E+03  0.19503043818E+04  0.46999998093E+01 0. -1.
</event>
<event>
 5   0  0.2599332E-08  0.4004105E+04  0.7818609E-02  0.8003719E-01
        2   -1    0    0  501    0  0.00000000000E+00  0.00000000000E+00  0.20427399954E+04  0.20427399954E+04  0.25500000920E-02 0.  1.
       -2   -1    0    0    0  501  0.00000000000E+00  0.00000000000E+00 -0.19621753720E+04  0.19621753720E+04  0.25500000920E-02 0. -1.
    10030    2    1    2    0    0  0.00000000000E+00  0.00000000000E+00  0.80564623360E+02  0.40049153674E+04  0.40041049489E+04 0.  0.
        2    1    3    3  502    0  0.74862319864E+03 -0.17511693170E+04 -0.57724319905E+03  0.19900352713E+04  0.25500000920E-02 0. -1.
       -2    1    3    3    0  502 -0.74862319864E+03  0.17511693170E+04  0.65780782241E+03  0.20148800961E+04  0.25500000920E-02 0.  1.
</event>
<event>
 5   0  0.8329875E-09  0.3994849E+04  0.7818609E-02  0.8005587E-01
        1   -1    0    0  501    0  0.00000000000E+00  0.00000000000E+00  0.12740823988E+04  0.12740823988E+04  0.50400001928E-02 0.  1.
       -1   -1    0    0    0  501  0.00000000000E+00  0.00000000000E+00 -0.31314335625E+04  0.31314335625E+04  0.50400001928E-02 0. -1.
    10030    2    1    2    0    0  0.00000000000E+00  0.00000000000E+00 -0.18573511637E+04  0.44055159613E+04  0.39948488758E+04 0.  0.
        1    1    3    3  502    0 -0.49841349518E+03 -0.89108359232E+03 -0.28219149723E+04  0.30009415341E+04  0.50400001928E-02 0. -1.
       -1    1    3    3    0  502  0.49841349518E+03  0.89108359232E+03  0.96456380858E+03  0.14045744272E+04  0.50400001928E-02 0.  1.
</event>
<event>
 5   0  0.2599332E-08  0.3991450E+04  0.7818609E-02  0.8006274E-01
       -2   -1    0    0    0  501  0.00000000000E+00  0.00000000000E+00  0.12649989342E+04  0.12649989342E+04  0.25500000920E-02 0. -1.
        2   -1    0    0  501    0  0.00000000000E+00  0.00000000000E+00 -0.31485549576E+04  0.31485549576E+04  0.25500000920E-02 0.  1.
    10030    2    1    2    0    0  0.00000000000E+00  0.00000000000E+00 -0.18835560234E+04  0.44135538918E+04  0.39914501954E+04 0.  0.
        2    1    3    3  502    0  0.17286463626E+04 -0.49862478784E+03 -0.18968774646E+04  0.26143811967E+04  0.25500000920E-02 0.  1.
       -2    1    3    3    0  502 -0.17286463626E+04  0.49862478784E+03  0.13321441238E+02  0.17991726951E+04  0.25500000920E-02 0. -1.
</event>
<event>
 5   0  0.8329875E-09  0.4000624E+04  0.7818609E-02  0.8004421E-01
        1   -1    0    0  501    0  0.00000000000E+00  0.00000000000E+00  0.21899108347E+04  0.21899108347E+04  0.50400001928E-02 0.  1.
       -1   -1    0    0    0  501  0.00000000000E+00  0.00000000000E+00 -0.18271281238E+04  0.18271281238E+04  0.50400001928E-02 0. -1.
    10030    2    1    2    0    0  0.00000000000E+00  0.00000000000E+00  0.36278271095E+03  0.40170389585E+04  0.40006237887E+04 0.  0.
        2    1    3    3  502    0  0.15407996341E+04  0.11153673681E+04  0.80291400916E+03  0.20646497970E+04  0.25500000920E-02 0.  1.
       -2    1    3    3    0  502 -0.15407996341E+04 -0.11153673681E+04 -0.44013129820E+03  0.19523891615E+04  0.25500000920E-02 0. -1.
</event>
<event>
 5   0  0.8329875E-09  0.4002546E+04  0.7818609E-02  0.8004033E-01
        1   -1    0    0  501    0  0.00000000000E+00  0.00000000000E+00  0.17190510349E+04  0.17190510349E+04  0.50400001928E-02 0. -1.
       -1   -1    0    0    0  501  0.00000000000E+00  0.00000000000E+00 -0.23298278546E+04  0.23298278546E+04  0.50400001928E-02 0.  1.
    10030    2    1    2    0    0  0.00000000000E+00  0.00000000000E+00 -0.61077681971E+03  0.40488788896E+04  0.40025456823E+04 0.  0.
        2    1    3    3  502    0 -0.18977683965E+04  0.24982360826E+03 -0.89623558446E+03  0.21135692430E+04  0.25500000920E-02 0.  1.
       -2    1    3    3    0  502  0.18977683965E+04 -0.24982360826E+03  0.28545876475E+03  0.19353096466E+04  0.25500000920E-02 0. -1.
</event>
<event>
 5   0  0.8329875E-09  0.3998795E+04  0.7818609E-02  0.8004790E-01
        1   -1    0    0  501    0  0.00000000000E+00  0.00000000000E+00  0.14463429043E+04  0.14463429043E+04  0.50400001928E-02 0. -1.
       -1   -1    0    0    0  501  0.00000000000E+00  0.00000000000E+00 -0.27639298604E+04  0.27639298604E+04  0.50400001928E-02 0.  1.
    10030    2    1    2    0    0  0.00000000000E+00  0.00000000000E+00 -0.13175869561E+04  0.42102727647E+04  0.39987949893E+04 0.  0.
        4    1    3    3  502    0 -0.76113147887E+03  0.11425598129E+04 -0.21892211990E+04  0.25840772290E+04  0.12699999809E+01 0.  1.
       -4    1    3    3    0  502  0.76113147887E+03 -0.11425598129E+04  0.87163424292E+03  0.16261955358E+04  0.12699999809E+01 0. -1.
</event>
<event>
 5   0  0.8329875E-09  0.4023934E+04  0.7818609E-02  0.7999736E-01
       -1   -1    0    0    0  501  0.00000000000E+00  0.00000000000E+00  0.18615759182E+04  0.18615759182E+04  0.50400001928E-02 0.  1.
        1   -1    0    0  501    0  0.00000000000E+00  0.00000000000E+00 -0.21745076236E+04  0.21745076236E+04  0.50400001928E-02 0. -1.
    10030    2    1    2    0    0  0.00000000000E+00  0.00000000000E+00 -0.31293170542E+03  0.40360835418E+04  0.40239339091E+04 0.  0.
        4    1    3    3  502    0  0.17595379452E+03  0.19190795544E+04  0.42336551362E+03  0.19730854125E+04  0.12699999809E+01 0.  1.
       -4    1    3    3    0  502 -0.17595379452E+03 -0.19190795544E+04 -0.73629721904E+03  0.20629981293E+04  0.12699999809E+01 0. -1.
</event>
<event>
 5   0  0.8329875E-09  0.3994816E+04  0.7818609E-02  0.8005593E-01
        1   -1    0    0  501    0  0.00000000000E+00  0.00000000000E+00  0.26388637435E+04  0.26388637435E+04  0.50400001928E-02 0.  1.
       -1   -1    0    0    0  501  0.00000000000E+00  0.00000000000E+00 -0.15118775936E+04  0.15118775936E+04  0.50400001928E-02 0. -1.
    10030    2    1    2    0    0  0.00000000000E+00  0.00000000000E+00  0.11269861500E+04  0.41507413371E+04  0.39948161241E+04 0.  0.
        5    1    3    3  502    0  0.28938271263E+03 -0.18555886097E+04 -0.14325136883E+03  0.18834793568E+04  0.46999998093E+01 0.  1.
       -5    1    3    3    0  502 -0.28938271263E+03  0.18555886097E+04  0.12702375188E+04  0.22672619803E+04  0.46999998093E+01 0. -1.
</event>
<event>
 5   0  0.8329875E-09  0.3999243E+04  0.7818609E-02  0.8004699E-01
       -1   -1    0    0    0  501  0.00000000000E+00  0.00000000000E+00  0.14417814997E+04  0.14417814997E+04  0.50400001928E-02 0.  1.
        1   -1    0    0  501    0  0.00000000000E+00  0.00000000000E+00 -0.27732957702E+04  0.27732957702E+04  0.50400001928E-02 0. -1.
    10030    2    1    2    0    0  0.00000000000E+00  0.00000000000E+00 -0.13315142705E+04  0.42150772698E+04  0.39992431957E+04 0.  0.
        3    1    3    3  502    0 -0.11749927345E+04  0.10805869444E+04 -0.19349956482E+04  0.25084824574E+04  0.10100000352E+00 0. -1.
       -3    1    3    3    0  502  0.11749927345E+04 -0.10805869444E+04  0.60348137768E+03  0.17065948124E+04  0.10100000352E+00 0.  1.
</event>
<event>
 5   0  0.2587493E-08  0.3996812E+04  0.7818609E-02  0.8005190E-01
       -2   -1    0    0    0  501  0.00000000000E+00  0.00000000000E+00  0.13138378894E+04  0.13138378894E+04  0.25500000920E-02 0. -1.
        2   -1    0    0  501    0  0.00000000000E+00  0.00000000000E+00 -0.30396641774E+04  0.30396641774E+04  0.25500000920E-02 0.  1.
    10030    2    1    2    0    0  0.00000000000E+00  0.00000000000E+00 -0.17258262880E+04  0.43535020669E+04  0.39968117131E+04 0.  0.
        5    1    3    3  502    0  0.18713554789E+04 -0.75217274479E+02 -0.10358064153E+03  0.18757345244E+04  0.46999998093E+01 0. -1.
       -5    1    3    3    0  502 -0.18713554789E+04  0.75217274479E+02 -0.16222456464E+04  0.24777675424E+04  0.46999998093E+01 0.  1.
</event>
<event>
 5   0  0.8329875E-09  0.3999867E+04  0.7818609E-02  0.8004573E-01
        1   -1    0    0  501    0  0.00000000000E+00  0.00000000000E+00  0.12110379532E+04  0.12110379532E+04  0.50400001928E-02 0.  1.
       -1   -1    0    0    0  501  0.00000000000E+00  0.00000000000E+00 -0.33027324861E+04  0.33027324861E+04  0.50400001928E-02 0. -1.
    10030    2    1    2    0    0  0.00000000000E+00  0.00000000000E+00 -0.20916945329E+04  0.45137704393E+04  0.39998671928E+04 0.  0.
        5    1    3    3  502    0  0.46417328849E+03 -0.14543574460E+04  0.41207731650E+03  0.15812786685E+04  0.46999998093E+01 0.  1.
       -5    1    3    3    0  502 -0.46417328849E+03  0.14543574460E+04 -0.25037718494E+04  0.29324917709E+04  0.46999998093E+01 0. -1.
</event>
<event>
 5   0  0.2746876E-08  0.4043732E+04  0.7818609E-02  0.7995782E-01
       -2   -1    0    0    0  501  0.00000000000E+00  0.00000000000E+00  0.18267774441E+04  0.18267774441E+04  0.25500000920E-02 0.  1.
        2   -1    0    0  501    0  0.00000000000E+00  0.00000000000E+00 -0.22377885983E+04  0.22377885983E+04  0.25500000920E-02 0. -1.
    10030    2    1    2    0    0  0.00000000000E+00  0.00000000000E+00 -0.41101115418E+03  0.40645660424E+04  0.40437318092E+04 0.  0.
        1    1    3    3  502    0 -0.15933279337E+04  0.11430756484E+04 -0.70061411363E+03  0.20823486688E+04  0.50400001928E-02 0. -1.
       -1    1    3    3    0  502  0.15933279337E+04 -0.11430756484E+04  0.28960295945E+03  0.19822173736E+04  0.50400001928E-02 0.  1.
</event>
<event>
 5   0  0.8329875E-09  0.4011608E+04  0.7818609E-02  0.8002209E-01
        1   -1    0    0  501    0  0.00000000000E+00  0.00000000000E+00  0.25725747015E+04  0.25725747015E+04  0.50400001928E-02 0.  1.
       -1   -1    0    0    0  501  0.00000000000E+00  0.00000000000E+00 -0.15639004253E+04  0.15639004253E+04  0.50400001928E-02 0. -1.
    10030    2    1    2    0    0  0.00000000000E+00  0.00000000000E+00  0.10086742762E+04  0.41364751269E+04  0.40116084903E+04 0.  0.
        3    1    3    3  502    0  0.73319312567E+03  0.15068909469E+04 -0.63222331107E+03  0.17910887221E+04  0.10100000352E+00 0. -1.
       -3    1    3    3    0  502 -0.73319312567E+03 -0.15068909469E+04  0.16408975873E+04  0.23453864047E+04  0.10100000352E+00 0.  1.
</event>
<event>
 5   0  0.8329875E-09  0.3992423E+04  0.7818609E-02  0.8006077E-01
        1   -1    0    0  501    0  0.00000000000E+00  0.00000000000E+00  0.23005364094E+04  0.23005364094E+04  0.50400001928E-02 0. -1.
       -1   -1    0    0    0  501  0.00000000000E+00  0.00000000000E+00 -0.17321441962E+04  0.17321441962E+04  0.50400001928E-02 0.  1.
    10030    2    1    2    0    0  0.00000000000E+00  0.00000000000E+00  0.56839221316E+03  0.40326806056E+04  0.39924232189E+04 0.  0.
        4    1    3    3  502    0  0.50739143306E+03 -0.19022586718E+04  0.61740892757E+03  0.20633054834E+04  0.12699999809E+01 0. -1.
       -4    1    3    3    0  502 -0.50739143306E+03  0.19022586718E+04 -0.49016714416E+02  0.19693751222E+04  0.12699999809E+01 0.  1.
</event>
<event>
 5   0  0.2746876E-08  0.3935853E+04  0.7818609E-02  0.8017614E-01
       -2   -1    0    0    0  501  0.00000000000E+00  0.00000000000E+00  0.16362691778E+04  0.16362691779E+04  0.25500000920E-02 0.  1.
        2   -1    0    0  501    0  0.00000000000E+00  0.00000000000E+00 -0.23668073158E+04  0.23668073158E+04  0.25500000920E-02 0. -1.
    10030    2    1    2    0    0  0.00000000000E+00  0.00000000000E+00 -0.73053813792E+03  0.40030764936E+04  0.39358525687E+04 0.  0.
        1    1    3    3  502    0  0.30958250515E+03 -0.73361346456E+03 -0.21956466322E+04  0.23355714882E+04  0.50400001928E-02 0. -1.
       -1    1    3    3    0  502 -0.30958250515E+03  0.73361346456E+03  0.14651084943E+04  0.16675050054E+04  0.50400001928E-02 0.  1.
</event>
<event>
 5   0  0.2650452E-08  0.3995444E+04  0.7818609E-02  0.8005466E-01
        2   -1    0    0  501    0  0.00000000000E+00  0.00000000000E+00  0.25696288934E+04  0.25696288934E+04  0.25500000920E-02 0. -1.
       -2   -1    0    0    0  501  0.00000000000E+00  0.00000000000E+00 -0.15531006613E+04  0.15531006613E+04  0.25500000920E-02 0.  1.
    10030    2    1    2    0    0  0.00000000000E+00  0.00000000000E+00  0.10165282321E+04  0.41227295547E+04  0.39954435717E+04 0.  0.
        3    1    3    3  502    0 -0.61736197796E+03  0.95805311678E+03  0.22012313752E+04  0.24787942964E+04  0.10100000352E+00 0. -1.
       -3    1    3    3    0  502  0.61736197796E+03 -0.95805311678E+03 -0.11847031431E+04  0.16439352584E+04  0.10100000352E+00 0.  1.
</event>
<event>
 5   0  0.2746876E-08  0.4000426E+04  0.7818609E-02  0.8004461E-01
        2   -1    0    0  501    0  0.00000000000E+00  0.00000000000E+00  0.27787583024E+04  0.27787583024E+04  0.25500000920E-02 0. -1.
       -2   -1    0    0    0  501  0.00000000000E+00  0.00000000000E+00 -0.14397987017E+04  0.14397987017E+04  0.25500000920E-02 0.  1.
    10030    2    1    2    0    0  0.00000000000E+00  0.00000000000E+00  0.13389596008E+04  0.42185570041E+04  0.40004262753E+04 0.  0.
        1    1    3    3  502    0 -0.12800305807E+04 -0.14138470620E+04  0.13051861686E+04  0.23110501373E+04  0.50400001928E-02 0. -1.
       -1    1    3    3    0  502  0.12800305807E+04  0.14138470620E+04  0.33773432175E+02  0.19075068668E+04  0.50400001928E-02 0.  1.
</event>
<event>
 5   0  0.2650452E-08  0.3998260E+04  0.7818609E-02  0.8004898E-01
        2   -1    0    0  501    0  0.00000000000E+00  0.00000000000E+00  0.21760225636E+04  0.21760225636E+04  0.25500000920E-02 0. -1.
       -2   -1    0    0    0  501  0.00000000000E+00  0.00000000000E+00 -0.18366171848E+04  0.18366171848E+04  0.25500000920E-02 0.  1.
    10030    2    1    2    0    0  0.00000000000E+00  0.00000000000E+00  0.33940537877E+03  0.40126397485E+04  0.39982598389E+04 0.  0.
        3    1    3    3  502    0 -0.69615782630E+03  0.18178670445E+04 -0.28717532400E+03  0.19676752749E+04  0.10100000352E+00 0. -1.
       -3    1    3    3    0  502  0.69615782630E+03 -0.18178670445E+04  0.62658070277E+03  0.20449644735E+04  0.10100000352E+00 0.  1.
</event>
<event>
 5   0  0.2599332E-08  0.3997753E+04  0.7818609E-02  0.8005000E-01
       -2   -1    0    0    0  501  0.00000000000E+00  0.00000000000E+00  0.30577078319E+04  0.30577078319E+04  0.25500000920E-02 0.  1.
        2   -1    0    0  501    0  0.00000000000E+00  0.00000000000E+00 -0.13066999057E+04  0.13066999057E+04  0.25500000920E-02 0. -1.
    10030    2    1    2    0    0  0.00000000000E+00  0.00000000000E+00  0.17510079262E+04  0.43644077377E+04  0.39977526366E+04 0.  0.
        2    1    3    3  502    0  0.12440124740E+04  0.14622774796E+04  0.26797241666E+03  0.19384611626E+04  0.25500000920E-02 0. -1.
       -2    1    3    3    0  502 -0.12440124740E+04 -0.14622774796E+04  0.14830355095E+04  0.24259465751E+04  0.25500000920E-02 0.  1.
</event>
<event>
 5   0  0.2746876E-08  0.3996249E+04  0.7818609E-02  0.8005304E-01
       -2   -1    0    0    0  501  0.00000000000E+00  0.00000000000E+00  0.26394449098E+04  0.26394449098E+04  0.25500000920E-02 0.  1.
        2   -1    0    0  501    0  0.00000000000E+00  0.00000000000E+00 -0.15126291029E+04  0.15126291029E+04  0.25500000920E-02 0. -1.
    10030    2    1    2    0    0  0.00000000000E+00  0.00000000000E+00  0.11268158069E+04  0.41520740127E+04  0.39962488341E+04 0.  0.
        1    1    3    3  502    0 -0.12117938310E+04 -0.12922589287E+04  0.15236328066E+04  0.23366288445E+04  0.50400001928E-02 0.  1.
       -1    1    3    3    0  502  0.12117938310E+04  0.12922589287E+04 -0.39681699979E+03  0.18154451682E+04  0.50400001928E-02 0. -1.
</event>
<event>
 5   0  0.8329875E-09  0.4005304E+04  0.7818609E-02  0.8003477E-01
        1   -1    0    0  501    0  0.00000000000E+00  0.00000000000E+00  0.17109390825E+04  0.17109390825E+04  0.50400001928E-02 0.  1.
       -1   -1    0    0    0  501  0.00000000000E+00  0.00000000000E+00 -0.23441013360E+04  0.23441013360E+04  0.50400001928E-02 0. -1.
    10030    2    1    2    0    0  0.00000000000E+00  0.00000000000E+00 -0.63316225347E+03  0.40550404186E+04  0.40053037783E+04 0.  0.
        5    1    3    3  502    0  0.17859012547E+04  0.37327588609E+03 -0.11525551575E+04  0.21580508937E+04  0.46999998093E+01 0. -1.
       -5    1    3    3    0  502 -0.17859012547E+04 -0.37327588609E+03  0.51939290406E+03  0.18969895249E+04  0.46999998093E+01 0.  1.
</event>
<event>
 5   0  0.8329875E-09  0.4009036E+04  0.7818609E-02  0.8002726E-01
       -1   -1    0    0    0  501  0.00000000000E+00  0.00000000000E+00  0.18760982195E+04  0.18760982195E+04  0.50400001928E-02 0.  1.
        1   -1    0    0  501    0  0.00000000000E+00  0.00000000000E+00 -0.21417280558E+04  0.21417280558E+04  0.50400001928E-02 0. -1.
    10030    2    1    2    0    0  0.00000000000E+00  0.00000000000E+00 -0.26562983631E+03  0.40178262752E+04  0.40090358901E+04 0.  0.
        5    1    3    3  502    0 -0.11701416172E+04 -0.16272633363E+04 -0.16208051966E+03  0.20108479691E+04  0.46999998093E+01 0. -1.
       -5    1    3    3    0  502  0.11701416172E+04  0.16272633363E+04 -0.10354931665E+03  0.20069783061E+04  0.46999998093E+01 0.  1.
</event>
<event>
 5   0  0.2599332E-08  0.4003531E+04  0.7818609E-02  0.8003835E-01
        2   -1    0    0  501    0  0.00000000000E+00  0.00000000000E+00  0.15117767575E+04  0.15117767575E+04  0.25500000920E-02 0.  1.
       -2   -1    0    0    0  501  0.00000000000E+00  0.00000000000E+00 -0.26505670376E+04  0.26505670376E+04  0.25500000920E-02 0. -1.
    10030    2    1    2    0    0  0.00000000000E+00  0.00000000000E+00 -0.11387902801E+04  0.41623437951E+04  0.40035312622E+04 0.  0.
        2    1    3    3  502    0 -0.15023918714E+04  0.14739829663E+02 -0.19446159335E+04  0.24574233918E+04  0.25500000920E-02 0. -1.
       -2    1    3    3    0  502  0.15023918714E+04 -0.14739829663E+02  0.80582565343E+03  0.17049204033E+04  0.25500000920E-02 0.  1.
</event>
<event>
 5   0  0.8329875E-09  0.3997945E+04  0.7818609E-02  0.8004961E-01
       -1   -1    0    0    0  501  0.00000000000E+00  0.00000000000E+00  0.18632344889E+04  0.18632344889E+04  0.50400001928E-02 0. -1.
        1   -1    0    0  501    0  0.00000000000E+00  0.00000000000E+00 -0.21445992078E+04  0.21445992078E+04  0.50400001928E-02 0.  1.
    10030    2    1    2    0    0  0.00000000000E+00  0.00000000000E+00 -0.28136471890E+03  0.40078336967E+04  0.39979450766E+04 0.  0.
        3    1    3    3  502    0  0.17735777347E+04 -0.14714026271E+03 -0.10532432084E+04  0.20679819883E+04  0.10100000352E+00 0.  1.
       -3    1    3    3    0  502 -0.17735777347E+04  0.14714026271E+03  0.77187848952E+03  0.19398517084E+04  0.10100000352E+00 0. -1.
</event>
<event>
 5   0  0.8329875E-09  0.4001738E+04  0.7818609E-02  0.8004196E-01
       -1   -1    0    0    0  501  0.00000000000E+00  0.00000000000E+00  0.19838063779E+04  0.19838063779E+04  0.50400001928E-02 0.  1.
        1   -1    0    0  501    0  0.00000000000E+00  0.00000000000E+00 -0.20180783881E+04  0.20180783881E+04  0.50400001928E-02 0. -1.
    10030    2    1    2    0    0  0.00000000000E+00  0.00000000000E+00 -0.34272010182E+02  0.40018847660E+04  0.40017380112E+04 0.  0.
        5    1    3    3  502    0  0.85468967189E+02  0.12788893043E+04  0.15193421212E+04  0.19877840346E+04  0.46999998093E+01 0.  1.
       -5    1    3    3    0  502 -0.85468967189E+02 -0.12788893043E+04 -0.15536141314E+04  0.20141007314E+04  0.46999998093E+01 0. -1.
</event>
<event>
 5   0  0.2587493E-08  0.4004651E+04  0.7818609E-02  0.8003609E-01
       -2   -1    0    0    0  501  0.00000000000E+00  0.00000000000E+00  0.19352281550E+04  0.19352281550E+04  0.25500000920E-02 0. -1.
        2   -1    0    0  501    0  0.00000000000E+00  0.00000000000E+00 -0.20717487996E+04  0.20717487996E+04  0.25500000920E-02 0.  1.
    10030    2    1    2    0    0  0.00000000000E+00  0.00000000000E+00 -0.13652064456E+03  0.40069769546E+04  0.40046506001E+04 0.  0.
        5    1    3    3  502    0  0.34936960791E+03 -0.65305677873E+03 -0.19296480271E+04  0.20669073220E+04  0.46999998093E+01 0.  1.
       -5    1    3    3    0  502 -0.34936960791E+03  0.65305677873E+03  0.17931273826E+04  0.19400696326E+04  0.46999998093E+01 0. -1.
</event>
<event>
 5   0  0.2650452E-08  0.4003951E+04  0.7818609E-02  0.8003750E-01
        2   -1    0    0  501    0  0.00000000000E+00  0.00000000000E+00  0.12155285197E+04  0.12155285197E+04  0.25500000920E-02 0. -1.
       -2   -1    0    0    0  501  0.00000000000E+00  0.00000000000E+00 -0.32972539731E+04  0.32972539731E+04  0.25500000920E-02 0.  1.
    10030    2    1    2    0    0  0.00000000000E+00  0.00000000000E+00 -0.20817254534E+04  0.45127824929E+04  0.40039511691E+04 0.  0.
        3    1    3    3  502    0 -0.79772382894E+03  0.87321944238E+03  0.77965631876E+03  0.14165943270E+04  0.10100000352E+00 0. -1.
       -3    1    3    3    0  502  0.79772382894E+03 -0.87321944238E+03 -0.28613817722E+04  0.30961881658E+04  0.10100000352E+00 0.  1.
</event>
<event>
 5   0  0.8329875E-09  0.3995929E+04  0.7818609E-02  0.8005368E-01
        3   -1    0    0  501    0  0.00000000000E+00  0.00000000000E+00  0.18179725909E+04  0.18179725937E+04  0.10100000352E+00 0.  1.
       -3   -1    0    0    0  501  0.00000000000E+00  0.00000000000E+00 -0.21957772465E+04  0.21957772488E+04  0.10100000352E+00 0. -1.
    10030    2    1    2    0    0  0.00000000000E+00  0.00000000000E+00 -0.37780465559E+03  0.40137498425E+04  0.39959293588E+04 0.  0.
        5    1    3    3  502    0 -0.17671243016E+04 -0.50754147748E+03  0.59657878131E+03  0.19329394665E+04  0.46999998093E+01 0.  1.
       -5    1    3    3    0  502  0.17671243016E+04  0.50754147748E+03 -0.97438343690E+03  0.20808103760E+04  0.46999998093E+01 0. -1.
</event>
<event>
 5   0  0.2599332E-08  0.4002912E+04  0.7818609E-02  0.8003959E-01
       -2   -1    0    0    0  501  0.00000000000E+00  0.00000000000E+00  0.19003203832E+04  0.19003203832E+04  0.25500000920E-02 0.  1.
        2   -1    0    0  501    0  0.00000000000E+00  0.00000000000E+00 -0.21079743944E+04  0.21079743944E+04  0.25500000920E-02 0. -1.
    10030    2    1    2    0    0  0.00000000000E+00  0.00000000000E+00 -0.20765401125E+03  0.40082947776E+04  0.40029122943E+04 0.  0.
        2    1    3    3  502    0 -0.12249689818E+04 -0.12332712061E+04  0.88963599304E+03  0.19526799723E+04  0.25500000920E-02 0.  1.
       -2    1    3    3    0  502  0.12249689818E+04  0.12332712061E+04 -0.10972900043E+04  0.20556148053E+04  0.25500000920E-02 0. -1.
</event>
<event>
 5   0  0.8329875E-09  0.4015220E+04  0.7818609E-02  0.8001483E-01
        1   -1    0    0  501    0  0.00000000000E+00  0.00000000000E+00  0.13672957170E+04  0.13672957170E+04  0.50400001928E-02 0.  1.
       -1   -1    0    0    0  501  0.00000000000E+00  0.00000000000E+00 -0.29477886172E+04  0.29477886172E+04  0.50400001928E-02 0. -1.
    10030    2    1    2    0    0  0.00000000000E+00  0.00000000000E+00 -0.15804929002E+04  0.43150843342E+04  0.40152204179E+04 0.  0.
        3    1    3    3  502    0  0.10079517219E+04 -0.16622593520E+04 -0.13291175784E+04  0.23549153646E+04  0.10100000352E+00 0. -1.
       -3    1    3    3    0  502 -0.10079517219E+04  0.16622593520E+04 -0.25137532172E+03  0.19601689696E+04  0.10100000352E+00 0.  1.
</event>
<event>
 5   0  0.2746876E-08  0.4001327E+04  0.7818609E-02  0.8004279E-01
        2   -1    0    0  501    0  0.00000000000E+00  0.00000000000E+00  0.15398627400E+04  0.15398627400E+04  0.25500000920E-02 0.  1.
       -2   -1    0    0    0  501  0.00000000000E+00  0.00000000000E+00 -0.25993574974E+04  0.25993574974E+04  0.25500000920E-02 0. -1.
    10030    2    1    2    0    0  0.00000000000E+00  0.00000000000E+00 -0.10594947575E+04  0.41392202374E+04  0.40013266591E+04 0.  0.
        1    1    3    3  502    0 -0.25592558357E+03 -0.17101481410E+04 -0.15706799362E+04  0.23360522320E+04  0.50400001928E-02 0. -1.
       -1    1    3    3    0  502  0.25592558357E+03  0.17101481410E+04  0.51118517872E+03  0.18031680054E+04  0.50400001928E-02 0.  1.
</event>
<event>
 5   0  0.8329875E-09  0.4001216E+04  0.7818609E-02  0.8004301E-01
       -1   -1    0    0    0  501  0.00000000000E+00  0.00000000000E+00  0.27959484626E+04  0.27959484626E+04  0.50400001928E-02 0.  1.
        1   -1    0    0  501    0  0.00000000000E+00  0.00000000000E+00 -0.14315116032E+04  0.14315116032E+04  0.50400001928E-02 0. -1.
    10030    2    1    2    0    0  0.00000000000E+00  0.00000000000E+00  0.13644368594E+04  0.42274600658E+04  0.40012161482E+04 0.  0.
        2    1    3    3  502    0  0.89084699796E+03  0.12333204591E+04 -0.69037181488E+03  0.16707186991E+04  0.25500000920E-02 0. -1.
       -2    1    3    3    0  502 -0.89084699796E+03 -0.12333204591E+04  0.20548086742E+04  0.25567413667E+04  0.25500000920E-02 0.  1.
</event>
<event>
 5   0  0.8329875E-09  0.4002722E+04  0.7818609E-02  0.8003998E-01
       -1   -1    0    0    0  501  0.00000000000E+00  0.00000000000E+00  0.19634663328E+04  0.19634663328E+04  0.50400001928E-02 0.  1.
        1   -1    0    0  501    0  0.00000000000E+00  0.00000000000E+00 -0.20399871401E+04  0.20399871401E+04  0.50400001928E-02 0. -1.
    10030    2    1    2    0    0  0.00000000000E+00  0.00000000000E+00 -0.76520807218E+02  0.40034534729E+04  0.40027221082E+04 0.  0.
        5    1    3    3  502    0 -0.61327579618E+03 -0.45179150470E+02  0.18666283781E+04  0.19653172644E+04  0.46999998093E+01 0.  1.
       -5    1    3    3    0  502  0.61327579618E+03  0.45179150470E+02 -0.19431491853E+04  0.20381362085E+04  0.46999998093E+01 0. -1.
</event>
<event>
 5   0  0.8329875E-09  0.4006129E+04  0.7818609E-02  0.8003311E-01
        1   -1    0    0  501    0  0.00000000000E+00  0.00000000000E+00  0.21448321855E+04  0.21448321855E+04  0.50400001928E-02 0. -1.
       -1   -1    0    0    0  501  0.00000000000E+00  0.00000000000E+00 -0.18706675888E+04  0.18706675888E+04  0.50400001928E-02 0.  1.
    10030    2    1    2    0    0  0.00000000000E+00  0.00000000000E+00  0.27416459668E+03  0.40154997742E+04  0.40061293303E+04 0.  0.
        5    1    3    3  502    0 -0.10363024228E+03  0.91630782496E+03  0.19194109661E+04  0.21294411953E+04  0.46999998093E+01 0. -1.
       -5    1    3    3    0  502  0.10363024228E+03 -0.91630782496E+03 -0.16452463694E+04  0.18860585790E+04  0.46999998093E+01 0.  1.
</event>
<event>
 5   0  0.8329875E-09  0.4000328E+04  0.7818609E-02  0.8004480E-01
        1   -1    0    0  501    0  0.00000000000E+00  0.00000000000E+00  0.16742423115E+04  0.16742423115E+04  0.50400001928E-02 0. -1.
       -1   -1    0    0    0  501  0.00000000000E+00  0.00000000000E+00 -0.23895325559E+04  0.23895325559E+04  0.50400001928E-02 0.  1.
    10030    2    1    2    0    0  0.00000000000E+00  0.00000000000E+00 -0.71529024434E+03  0.40637748674E+04  0.40003282415E+04 0.  0.
        2    1    3    3  502    0 -0.32049980319E+03  0.19195021507E+04 -0.82697687139E+03  0.21144974287E+04  0.25500000920E-02 0. -1.
       -2    1    3    3    0  502  0.32049980319E+03 -0.19195021507E+04  0.11168662705E+03  0.19492774387E+04  0.25500000920E-02 0.  1.
</event>
<event>
 5   0  0.2612363E-08  0.3994277E+04  0.7818609E-02  0.8005702E-01
        2   -1    0    0  501    0  0.00000000000E+00  0.00000000000E+00  0.21673179924E+04  0.21673179924E+04  0.25500000920E-02 0.  1.
       -2   -1    0    0    0  501  0.00000000000E+00  0.00000000000E+00 -0.18403214997E+04  0.18403214997E+04  0.25500000920E-02 0. -1.
    10030    2    1    2    0    0  0.00000000000E+00  0.00000000000E+00  0.32699649276E+03  0.40076394921E+04  0.39942768547E+04 0.  0.
        4    1    3    3  502    0 -0.12657655601E+04 -0.84162394601E+03 -0.11362376927E+04  0.18977700142E+04  0.12699999809E+01 0. -1.
       -4    1    3    3    0  502  0.12657655601E+04  0.84162394601E+03  0.14632341854E+04  0.21098694779E+04  0.12699999809E+01 0.  1.
</event>
<event>
 5   0  0.8329875E-09  0.4008595E+04  0.7818609E-02  0.8002815E-01
        1   -1    0    0  501    0  0.00000000000E+00  0.00000000000E+00  0.13131194085E+04  0.13131194085E+04  0.50400001928E-02 0.  1.
       -1   -1    0    0    0  501  0.00000000000E+00  0.00000000000E+00 -0.30592864658E+04  0.30592864658E+04  0.50400001928E-02 0. -1.
    10030    2    1    2    0    0  0.00000000000E+00  0.00000000000E+00 -0.17461670573E+04  0.43724058743E+04  0.40085949829E+04 0.  0.
        4    1    3    3  502    0 -0.73579430119E+03  0.14142830561E+04  0.45191414636E+03  0.16570509422E+04  0.12699999809E+01 0.  1.
       -4    1    3    3    0  502  0.73579430119E+03 -0.14142830561E+04 -0.21980812037E+04  0.27153549321E+04  0.12699999809E+01 0. -1.
</event>
<event>
 5   0  0.8329875E-09  0.4000987E+04  0.7818609E-02  0.8004348E-01
        1   -1    0    0  501    0  0.00000000000E+00  0.00000000000E+00  0.21136831607E+04  0.21136831607E+04  0.50400001928E-02 0. -1.
       -1   -1    0    0    0  501  0.00000000000E+00  0.00000000000E+00 -0.18933648385E+04  0.18933648385E+04  0.50400001928E-02 0.  1.
    10030    2    1    2    0    0  0.00000000000E+00  0.00000000000E+00  0.22031832218E+03  0.40070479992E+04  0.40009865664E+04 0.  0.
        5    1    3    3  502    0 -0.47987018910E+02  0.11191411836E+04  0.17701295504E+04  0.20947936552E+04  0.46999998093E+01 0. -1.
       -5    1    3    3    0  502  0.47987018910E+02 -0.11191411836E+04 -0.15498112282E+04  0.19122543439E+04  0.46999998093E+01 0.  1.
</event>
<event>
 5   0  0.8329875E-09  0.4009770E+04  0.7818609E-02  0.8002578E-01
       -1   -1    0    0    0  501  0.00000000000E+00  0.00000000000E+00  0.14813571089E+04  0.14813571089E+04  0.50400001928E-02 0. -1.
        1   -1    0    0  501    0  0.00000000000E+00  0.00000000000E+00 -0.27134340536E+04  0.27134340536E+04  0.50400001928E-02 0.  1.
    10030    2    1    2    0    0  0.00000000000E+00  0.00000000000E+00 -0.12320769447E+04  0.41947911626E+04  0.40097704797E+04 0.  0.
        2    1    3    3  502    0  0.22439294565E+03  0.75508486555E+03 -0.25447630386E+04  0.26638926913E+04  0.25500000920E-02 0.  1.
       -2    1    3    3    0  502 -0.22439294565E+03 -0.75508486555E+03  0.13126860939E+04  0.15308984712E+04  0.25500000920E-02 0. -1.
</event>
<event>
 5   0  0.2746876E-08  0.3998858E+04  0.7818609E-02  0.8004777E-01
       -2   -1    0    0    0  501  0.00000000000E+00  0.00000000000E+00  0.15705004594E+04  0.15705004594E+04  0.25500000920E-02 0.  1.
        2   -1    0    0  501    0  0.00000000000E+00  0.00000000000E+00 -0.25455051753E+04  0.25455051753E+04  0.25500000920E-02 0. -1.
    10030    2    1    2    0    0  0.00000000000E+00  0.00000000000E+00 -0.97500471593E+03  0.41160056348E+04  0.39988583608E+04 0.  0.
        1    1    3    3  502    0 -0.50949890861E+03  0.10440176410E+04 -0.21624901485E+04  0.24547760825E+04  0.50400001928E-02 0. -1.
       -1    1    3    3    0  502  0.50949890861E+03 -0.10440176410E+04  0.11874854326E+04  0.16612295523E+04  0.50400001928E-02 0.  1.
</event>
<event>
 5   0  0.2650452E-08  0.4003012E+04  0.7818609E-02  0.8003939E-01
        2   -1    0    0  501    0  0.00000000000E+00  0.00000000000E+00  0.23380347163E+04  0.23380347163E+04  0.25500000920E-02 0. -1.
       -2   -1    0    0    0  501  0.00000000000E+00  0.00000000000E+00 -0.17134162921E+04  0.17134162921E+04  0.25500000920E-02 0.  1.
    10030    2    1    2    0    0  0.00000000000E+00  0.00000000000E+00  0.62461842413E+03  0.40514510084E+04  0.40030122530E+04 0.  0.
        3    1    3    3  502    0  0.37786269257E+03  0.72177477105E+01  0.23015939772E+04  0.23324165916E+04  0.10100000352E+00 0. -1.
       -3    1    3    3    0  502 -0.37786269257E+03 -0.72177477105E+01 -0.16769755531E+04  0.17190344168E+04  0.10100000352E+00 0.  1.
</event>
<event>
 5   0  0.2650452E-08  0.3995720E+04  0.7818609E-02  0.8005411E-01
       -2   -1    0    0    0  501  0.00000000000E+00  0.00000000000E+00  0.12786209780E+04  0.12786209780E+04  0.25500000920E-02 0. -1.
        2   -1    0    0  501    0  0.00000000000E+00  0.00000000000E+00 -0.31216789289E+04  0.31216789289E+04  0.25500000920E-02 0.  1.
    10030    2    1    2    0    0  0.00000000000E+00  0.00000000000E+00 -0.18430579509E+04  0.44002999069E+04  0.39957197925E+04 0.  0.
        3    1    3    3  502    0  0.13930068015E+04 -0.14231068511E+04 -0.74483666823E+03  0.21261426884E+04  0.10100000352E+00 0.  1.
       -3    1    3    3    0  502 -0.13930068015E+04  0.14231068511E+04 -0.10982212826E+04  0.22741572185E+04  0.10100000352E+00 0. -1.
</event>
<event>
 5   0  0.8329875E-09  0.3999170E+04  0.7818609E-02  0.8004714E-01
       -1   -1    0    0    0  501  0.00000000000E+00  0.00000000000E+00  0.18417404410E+04  0.18417404410E+04  0.50400001928E-02 0. -1.
        1   -1    0    0  501    0  0.00000000000E+00  0.00000000000E+00 -0.21709576285E+04  0.21709576285E+04  0.50400001928E-02 0.  1.
    10030    2    1    2    0    0  0.00000000000E+00  0.00000000000E+00 -0.32921718754E+03  0.40126980695E+04  0.39991701440E+04 0.  0.
        4    1    3    3  502    0 -0.97630416710E+03  0.17423858335E+04 -0.26116627272E+03  0.20142709982E+04  0.12699999809E+01 0. -1.
       -4    1    3    3    0  502  0.97630416710E+03 -0.17423858335E+04 -0.68050914819E+02  0.19984270713E+04  0.12699999809E+01 0.  1.
</event>
<event>
 5   0  0.2746876E-08  0.4001173E+04  0.7818609E-02  0.8004310E-01
       -2   -1    0    0    0  501  0.00000000000E+00  0.00000000000E+00  0.18398232623E+04  0.18398232623E+04  0.25500000920E-02 0.  1.
        2   -1    0    0  501    0  0.00000000000E+00  0.00000000000E+00 -0.21753975897E+04  0.21753975897E+04  0.25500000920E-02 0. -1.
    10030    2    1    2    0    0  0.00000000000E+00  0.00000000000E+00 -0.33557432741E+03  0.40152208520E+04  0.40011733731E+04 0.  0.
        1    1    3    3  502    0 -0.17388148083E+04 -0.92263695208E+03  0.19069411223E+03  0.19776501530E+04  0.50400001928E-02 0.  1.
       -1    1    3    3    0  502  0.17388148083E+04  0.92263695208E+03 -0.52626843965E+03  0.20375706991E+04  0.50400001928E-02 0. -1.
</event>
<event>
 5   0  0.8329875E-09  0.4009136E+04  0.7818609E-02  0.8002706E-01
       -1   -1    0    0    0  501  0.00000000000E+00  0.00000000000E+00  0.30161525114E+04  0.30161525114E+04  0.50400001928E-02 0. -1.
        1   -1    0    0  501    0  0.00000000000E+00  0.00000000000E+00 -0.13322579588E+04  0.13322579588E+04  0.50400001928E-02 0.  1.
    10030    2    1    2    0    0  0.00000000000E+00  0.00000000000E+00  0.16838945525E+04  0.43484104702E+04  0.40091361605E+04 0.  0.
        2    1    3    3  502    0 -0.30561195982E+03 -0.85653119188E+03 -0.10956345897E+04  0.14238888674E+04  0.25500000920E-02 0.  1.
       -2    1    3    3    0  502  0.30561195982E+03  0.85653119188E+03  0.27795291422E+04  0.29245216028E+04  0.25500000920E-02 0. -1.
</event>
<event>
 5   0  0.8329875E-09  0.3989642E+04  0.7818609E-02  0.8006639E-01
        1   -1    0    0  501    0  0.00000000000E+00  0.00000000000E+00  0.18784468429E+04  0.18784468429E+04  0.50400001928E-02 0. -1.
       -1   -1    0    0    0  501  0.00000000000E+00  0.00000000000E+00 -0.21184045387E+04  0.21184045387E+04  0.50400001928E-02 0.  1.
    10030    2    1    2    0    0  0.00000000000E+00  0.00000000000E+00 -0.23995769579E+03  0.39968513817E+04  0.39896417473E+04 0.  0.
        3    1    3    3  502    0  0.13391456460E+04  0.11893656700E+04 -0.99986467872E+03  0.20512511167E+04  0.10100000352E+00 0.  1.
       -3    1    3    3    0  502 -0.13391456460E+04 -0.11893656700E+04  0.75990698293E+03  0.19456002649E+04  0.10100000352E+00 0. -1.
</event>
<event>
 5   0  0.8329875E-09  0.4001410E+04  0.7818609E-02  0.8004262E-01
        3   -1    0    0  501    0  0.00000000000E+00  0.00000000000E+00  0.21316919233E+04  0.21316919257E+04  0.10100000352E+00 0.  1.
       -3   -1    0    0    0  501  0.00000000000E+00  0.00000000000E+00 -0.18777672687E+04  0.18777672714E+04  0.10100000352E+00 0. -1.
    10030    2    1    2    0    0  0.00000000000E+00  0.00000000000E+00  0.25392465465E+03  0.40094591971E+04  0.40014104167E+04 0.  0.
        2    1    3    3  502    0 -0.17847638728E+04 -0.62370666620E+02 -0.77682156607E+03  0.19474917014E+04  0.25500000920E-02 0. -1.
       -2    1    3    3    0  502  0.17847638728E+04  0.62370666620E+02  0.10307462207E+04  0.20619674956E+04  0.25500000920E-02 0.  1.
</event>
<event>
 5   0  0.2599332E-08  0.3990781E+04  0.7818609E-02  0.8006409E-01
        2   -1    0    0  501    0  0.00000000000E+00  0.00000000000E+00  0.20036569629E+04  0.20036569629E+04  0.25500000920E-02 0. -1.
       -2   -1    0    0    0  501  0.00000000000E+00  0.00000000000E+00 -0.19871581807E+04  0.19871581807E+04  0.25500000920E-02 0.  1.
    10030    2    1    2    0    0  0.00000000000E+00  0.00000000000E+00  0.16498782120E+02  0.39908151436E+04  0.39907810389E+04 0.  0.
        2    1    3    3  502    0 -0.13113319825E+04 -0.14945055679E+04  0.17690688569E+03  0.19961048337E+04  0.25500000920E-02 0. -1.
       -2    1    3    3    0  502  0.13113319825E+04  0.14945055679E+04 -0.16040810357E+03  0.19947103099E+04  0.25500000920E-02 0.  1.
</event>
<event>
 5   0  0.2746876E-08  0.3997668E+04  0.7818609E-02  0.8005017E-01
        2   -1    0    0  501    0  0.00000000000E+00  0.00000000000E+00  0.15779435719E+04  0.15779435719E+04  0.25500000920E-02 0. -1.
       -2   -1    0    0    0  501  0.00000000000E+00  0.00000000000E+00 -0.25319898632E+04  0.25319898632E+04  0.25500000920E-02 0.  1.
    10030    2    1    2    0    0  0.00000000000E+00  0.00000000000E+00 -0.95404629132E+03  0.41099334350E+04  0.39976678845E+04 0.  0.
        1    1    3    3  502    0  0.53298565118E+03  0.68831518274E+03 -0.23268539264E+04  0.24843712867E+04  0.50400001928E-02 0.  1.
       -1    1    3    3    0  502 -0.53298565118E+03 -0.68831518274E+03  0.13728076351E+04  0.16255621484E+04  0.50400001928E-02 0. -1.
</event>
<event>
 5   0  0.2650452E-08  0.3998920E+04  0.7818609E-02  0.8004764E-01
        2   -1    0    0  501    0  0.00000000000E+00  0.00000000000E+00  0.16816319643E+04  0.16816319643E+04  0.25500000920E-02 0. -1.
       -2   -1    0    0    0  501  0.00000000000E+00  0.00000000000E+00 -0.23773577125E+04  0.23773577125E+04  0.25500000920E-02 0.  1.
    10030    2    1    2    0    0  0.00000000000E+00  0.00000000000E+00 -0.69572574818E+03  0.40589896768E+04  0.39989202142E+04 0.  0.
        3    1    3    3  502    0 -0.37698115840E+03 -0.63912286505E+03 -0.22324293621E+04  0.23525164606E+04  0.10100000352E+00 0.  1.
       -3    1    3    3    0  502  0.37698115840E+03  0.63912286505E+03  0.15367036139E+04  0.17064732162E+04  0.10100000352E+00 0. -1.
</event>
<event>
 5   0  0.8329875E-09  0.4002516E+04  0.7818609E-02  0.8004039E-01
       -4   -1    0    0    0  501  0.00000000000E+00  0.00000000000E+00  0.19717920689E+04  0.19717924779E+04  0.12699999809E+01 0.  1.
        4   -1    0    0  501    0  0.00000000000E+00  0.00000000000E+00 -0.20311637353E+04  0.20311641323E+04  0.12699999809E+01 0. -1.
    10030    2    1    2    0    0  0.00000000000E+00  0.00000000000E+00 -0.59371666405E+02  0.40029566102E+04  0.40025162871E+04 0.  0.
        4    1    3    3  502    0 -0.47259354840E+03  0.15672654721E+04  0.11216865869E+04  0.19844012029E+04  0.12699999809E+01 0.  1.
       -4    1    3    3    0  502  0.47259354840E+03 -0.15672654721E+04 -0.11810582533E+04  0.20185554073E+04  0.12699999809E+01 0. -1.
</event>
<event>
 5   0  0.2612363E-08  0.4007611E+04  0.7818609E-02  0.8003013E-01
       -2   -1    0    0    0  501  0.00000000000E+00  0.00000000000E+00  0.20493354442E+04  0.20493354442E+04  0.25500000920E-02 0. -1.
        2   -1    0    0  501    0  0.00000000000E+00  0.00000000000E+00 -0.19592866789E+04  0.19592866789E+04  0.25500000920E-02 0.  1.
    10030    2    1    2    0    0  0.00000000000E+00  0.00000000000E+00  0.90048765309E+02  0.40086221231E+04  0.40076105781E+04 0.  0.
        4    1    3    3  502    0 -0.14758409376E+04 -0.65281783920E+03  0.12331610653E+04  0.20310010907E+04  0.12699999809E+01 0. -1.
       -4    1    3    3    0  502  0.14758409376E+04  0.65281783920E+03 -0.11431123000E+04  0.19776210324E+04  0.12699999809E+01 0.  1.
</event>
<event>
 5   0  0.2746876E-08  0.4022767E+04  0.7818609E-02  0.7999969E-01
        2   -1    0    0  501    0  0.00000000000E+00  0.00000000000E+00  0.21831309135E+04  0.21831309135E+04  0.25500000920E-02 0.  1.
       -2   -1    0    0    0  501  0.00000000000E+00  0.00000000000E+00 -0.18531479547E+04  0.18531479547E+04  0.25500000920E-02 0. -1.
    10030    2    1    2    0    0  0.00000000000E+00  0.00000000000E+00  0.32998295884E+03  0.40362788682E+04  0.40227674988E+04 0.  0.
        1    1    3    3  502    0  0.58193264514E+03  0.48933364228E+03  0.20333875633E+04  0.21708887580E+04  0.50400001928E-02 0.  1.
       -1    1    3    3    0  502 -0.58193264514E+03 -0.48933364228E+03 -0.17034046045E+04  0.18653901103E+04  0.50400001928E-02 0. -1.
</event>
<event>
 5   0  0.8329875E-09  0.4013526E+04  0.7818609E-02  0.8001824E-01
       -1   -1    0    0    0  501  0.00000000000E+00  0.00000000000E+00  0.18267486405E+04  0.18267486405E+04  0.50400001928E-02 0.  1.
        1   -1    0    0  501    0  0.00000000000E+00  0.00000000000E+00 -0.22045161079E+04  0.22045161079E+04  0.50400001928E-02 0. -1.
    10030    2    1    2    0    0  0.00000000000E+00  0.00000000000E+00 -0.37776746731E+03  0.40312647484E+04  0.40135255340E+04 0.  0.
        1    1    3    3  502    0  0.85579459662E+03  0.15117829767E+04  0.82015819722E+03  0.19210756436E+04  0.50400001928E-02 0.  1.
       -1    1    3    3    0  502 -0.85579459662E+03 -0.15117829767E+04 -0.11979256645E+04  0.21101891048E+04  0.50400001928E-02 0. -1.
</event>
<event>
 5   0  0.8329875E-09  0.3997442E+04  0.7818609E-02  0.8005063E-01
        1   -1    0    0  501    0  0.00000000000E+00  0.00000000000E+00  0.13181481438E+04  0.13181481438E+04  0.50400001928E-02 0.  1.
       -1   -1    0    0    0  501  0.00000000000E+00  0.00000000000E+00 -0.30306797002E+04  0.30306797002E+04  0.50400001928E-02 0. -1.
    10030    2    1    2    0    0  0.00000000000E+00  0.00000000000E+00 -0.17125315564E+04  0.43488278439E+04  0.39974415924E+04 0.  0.
        5    1    3    3  502    0  0.23145805938E+03 -0.19207105652E+04 -0.30996867815E+03  0.19592867529E+04  0.46999998093E+01 0.  1.
       -5    1    3    3    0  502 -0.23145805938E+03  0.19207105652E+04 -0.14025628782E+04  0.23895410911E+04  0.46999998093E+01 0. -1.
</event>
<event>
 5   0  0.2587493E-08  0.3998601E+04  0.7818609E-02  0.8004829E-01
        2   -1    0    0  501    0  0.00000000000E+00  0.00000000000E+00  0.18579937428E+04  0.18579937428E+04  0.25500000920E-02 0.  1.
       -2   -1    0    0    0  501  0.00000000000E+00  0.00000000000E+00 -0.21513543885E+04  0.21513543885E+04  0.25500000920E-02 0. -1.
    10030    2    1    2    0    0  0.00000000000E+00  0.00000000000E+00 -0.29336064567E+03  0.40093481313E+04  0.39986012516E+04 0.  0.
        5    1    3    3  502    0 -0.11783769499E+04 -0.15939247653E+04 -0.40817332271E+03  0.20238072895E+04  0.46999998093E+01 0. -1.
       -5    1    3    3    0  502  0.11783769499E+04  0.15939247653E+04  0.11481267705E+03  0.19855408418E+04  0.46999998093E+01 0.  1.
</event>
<event>
 5   0  0.2587493E-08  0.3954223E+04  0.7818609E-02  0.8013845E-01
       -2   -1    0    0    0  501  0.00000000000E+00  0.00000000000E+00  0.14106515342E+04  0.14106515342E+04  0.25500000920E-02 0. -1.
        2   -1    0    0  501    0  0.00000000000E+00  0.00000000000E+00 -0.27710391388E+04  0.27710391388E+04  0.25500000920E-02 0.  1.
    10030    2    1    2    0    0  0.00000000000E+00  0.00000000000E+00 -0.13603876046E+04  0.41816906730E+04  0.39542233687E+04 0.  0.
        5    1    3    3  502    0 -0.58809892830E+03 -0.16243825197E+04 -0.16969972816E+04  0.24216318431E+04  0.46999998093E+01 0.  1.
       -5    1    3    3    0  502  0.58809892830E+03  0.16243825197E+04  0.33660967700E+03  0.17600588299E+04  0.46999998093E+01 0. -1.
</event>
<event>
 5   0  0.2587493E-08  0.3997493E+04  0.7818609E-02  0.8005052E-01
       -2   -1    0    0    0  501  0.00000000000E+00  0.00000000000E+00  0.21538738286E+04  0.21538738286E+04  0.25500000920E-02 0.  1.
        2   -1    0    0  501    0  0.00000000000E+00  0.00000000000E+00 -0.18547922723E+04  0.18547922723E+04  0.25500000920E-02 0. -1.
    10030    2    1    2    0    0  0.00000000000E+00  0.00000000000E+00  0.29908155637E+03  0.40086661009E+04  0.39974934810E+04 0.  0.
        5    1    3    3  502    0  0.13487229574E+04  0.30868461533E+03 -0.12969284407E+04  0.18964137939E+04  0.46999998093E+01 0. -1.
       -5    1    3    3    0  502 -0.13487229574E+04 -0.30868461533E+03  0.15960099971E+04  0.21122523070E+04  0.46999998093E+01 0.  1.
</event>
<event>
 5   0  0.2612363E-08  0.3999224E+04  0.7818609E-02  0.8004703E-01
        2   -1    0    0  501    0  0.00000000000E+00  0.00000000000E+00  0.29976168276E+04  0.29976168276E+04  0.25500000920E-02 0.  1.
       -2   -1    0    0    0  501  0.00000000000E+00  0.00000000000E+00 -0.13338754951E+04  0.13338754951E+04  0.25500000920E-02 0. -1.
    10030    2    1    2    0    0  0.00000000000E+00  0.00000000000E+00  0.16637413325E+04  0.43314923227E+04  0.39992237397E+04 0.  0.
        4    1    3    3  502    0 -0.26186784319E+03 -0.12922276726E+03  0.29743979258E+04  0.29886983663E+04  0.12699999809E+01 0.  1.
       -4    1    3    3    0  502  0.26186784319E+03  0.12922276726E+03 -0.13106565933E+04  0.13427939564E+04  0.12699999809E+01 0. -1.
</event>
<event>
 5   0  0.2612363E-08  0.3968998E+04  0.7818609E-02  0.8010830E-01
       -2   -1    0    0    0  501  0.00000000000E+00  0.00000000000E+00  0.14394054087E+04  0.14394054087E+04  0.25500000920E-02 0.  1.
        2   -1    0    0  501    0  0.00000000000E+00  0.00000000000E+00 -0.27360159771E+04  0.27360159771E+04  0.25500000920E-02 0. -1.
    10030    2    1    2    0    0  0.00000000000E+00  0.00000000000E+00 -0.12966105684E+04  0.41754213859E+04  0.39689979571E+04 0.  0.
        4    1    3    3  502    0 -0.12833339488E+04  0.15131301092E+04 -0.60460154153E+03  0.20741391921E+04  0.12699999809E+01 0. -1.
       -4    1    3    3    0  502  0.12833339488E+04 -0.15131301092E+04 -0.69200902689E+03  0.21012821937E+04  0.12699999809E+01 0.  1.
</event>
<event>
 5   0  0.8329875E-09  0.3999832E+04  0.7818609E-02  0.8004580E-01
       -1   -1    0    0    0  501  0.00000000000E+00  0.00000000000E+00  0.28933732231E+04  0.28933732231E+04  0.50400001928E-02 0. -1.
        1   -1    0    0  501    0  0.00000000000E+00  0.00000000000E+00 -0.13823532686E+04  0.13823532686E+04  0.50400001928E-02 0.  1.
    10030    2    1    2    0    0  0.00000000000E+00  0.00000000000E+00  0.15110199545E+04  0.42757264917E+04  0.39998319626E+04 0.  0.
        5    1    3    3  502    0 -0.15574714876E+04 -0.96117121439E+03 -0.10637571251E+03  0.18332772350E+04  0.46999998093E+01 0.  1.
       -5    1    3    3    0  502  0.15574714876E+04  0.96117121439E+03  0.16173956670E+04  0.24424492567E+04  0.46999998093E+01 0. -1.
</event>
<event>
 5   0  0.2650452E-08  0.4013096E+04  0.7818609E-02  0.8001910E-01
        2   -1    0    0  501    0  0.00000000000E+00  0.00000000000E+00  0.20920356330E+04  0.20920356330E+04  0.25500000920E-02 0.  1.
       -2   -1    0    0    0  501  0.00000000000E+00  0.00000000000E+00 -0.19245534255E+04  0.19245534255E+04  0.25500000920E-02 0. -1.
    10030    2    1    2    0    0  0.00000000000E+00  0.00000000000E+00  0.16748220750E+03  0.40165890586E+04  0.40130957347E+04 0.  0.
        3    1    3    3  502    0 -0.69751928004E+03  0.14312918945E+03  0.19613312374E+04  0.20865855707E+04  0.10100000352E+00 0.  1.
       -3    1    3    3    0  502  0.69751928004E+03 -0.14312918945E+03 -0.17938490299E+04  0.19300034879E+04  0.10100000352E+00 0. -1.
</event>
<event>
 5   0  0.2599332E-08  0.4005671E+04  0.7818609E-02  0.8003404E-01
        2   -1    0    0  501    0  0.00000000000E+00  0.00000000000E+00  0.27514685738E+04  0.27514685738E+04  0.25500000920E-02 0.  1.
       -2   -1    0    0    0  501  0.00000000000E+00  0.00000000000E+00 -0.14578940790E+04  0.14578940790E+04  0.25500000920E-02 0. -1.
    10030    2    1    2    0    0  0.00000000000E+00  0.00000000000E+00  0.12935744948E+04  0.42093626528E+04  0.40056708514E+04 0.  0.
        2    1    3    3  502    0  0.10226617548E+02  0.10517849469E+04  0.24378618355E+04  0.26550944403E+04  0.25500000920E-02 0.  1.
       -2    1    3    3    0  502 -0.10226617548E+02 -0.10517849469E+04 -0.11442873407E+04  0.15542682125E+04  0.25500000920E-02 0. -1.
</event>
<event>
 5   0  0.8329875E-09  0.3996003E+04  0.7818609E-02  0.8005353E-01
       -1   -1    0    0    0  501  0.00000000000E+00  0.00000000000E+00  0.15502401461E+04  0.15502401461E+04  0.50400001928E-02 0. -1.
        1   -1    0    0  501    0  0.00000000000E+00  0.00000000000E+00 -0.25750919167E+04  0.25750919167E+04  0.50400001928E-02 0.  1.
    10030    2    1    2    0    0  0.00000000000E+00  0.00000000000E+00 -0.10248517706E+04  0.41253320628E+04  0.39960034380E+04 0.  0.
        3    1    3    3  502    0  0.14404316074E+03  0.88830871310E+03  0.13291717619E+04  0.16051599250E+04  0.10100000352E+00 0. -1.
       -3    1    3    3    0  502 -0.14404316074E+03 -0.88830871310E+03 -0.23540235325E+04  0.25201721378E+04  0.10100000352E+00 0.  1.
</event>
<event>
 5   0  0.2587493E-08  0.4031104E+04  0.7818609E-02  0.7998301E-01
       -2   -1    0    0    0  501  0.00000000000E+00  0.00000000000E+00  0.17391681968E+04  0.17391681968E+04  0.25500000920E-02 0. -1.
        2   -1    0    0  501    0  0.00000000000E+00  0.00000000000E+00 -0.23358580652E+04  0.23358580652E+04  0.25500000920E-02 0.  1.
    10030    2    1    2    0    0  0.00000000000E+00  0.00000000000E+00 -0.59668986841E+03  0.40750262619E+04  0.40311040964E+04 0.  0.
        5    1    3    3  502    0  0.10246956479E+04  0.81885775527E+02  0.14542468398E+04  0.17808880965E+04  0.46999998093E+01 0. -1.
       -5    1    3    3    0  502 -0.10246956479E+04 -0.81885775527E+02 -0.20509367082E+04  0.22941381654E+04  0.46999998093E+01 0.  1.
</event>
<event>
 5   0  0.2599332E-08  0.4004336E+04  0.7818609E-02  0.8003672E-01
       -2   -1    0    0    0  501  0.00000000000E+00  0.00000000000E+00  0.15654648851E+04  0.15654648851E+04  0.25500000920E-02 0.  1.
        2   -1    0    0  501    0  0.00000000000E+00  0.00000000000E+00 -0.25606936564E+04  0.25606936564E+04  0.25500000920E-02 0. -1.
    10030    2    1    2    0    0  0.00000000000E+00  0.00000000000E+00 -0.99522877135E+03  0.41261585415E+04  0.40043356505E+04 0.  0.
        2    1    3    3  502    0 -0.16723719769E+04  0.16554256545E+03  0.62381681721E+03  0.17925902464E+04  0.25500000920E-02 0.  1.
       -2    1    3    3    0  502  0.16723719769E+04 -0.16554256545E+03 -0.16190455886E+04  0.23335682951E+04  0.25500000920E-02 0. -1.
</event>
<event>
 5   0  0.8329875E-09  0.4040559E+04  0.7818609E-02  0.7996414E-01
        1   -1    0    0  501    0  0.00000000000E+00  0.00000000000E+00  0.16120718589E+04  0.16120718589E+04  0.50400001928E-02 0.  1.
       -1   -1    0    0    0  501  0.00000000000E+00  0.00000000000E+00 -0.25318531996E+04  0.25318531996E+04  0.50400001928E-02 0. -1.
    10030    2    1    2    0    0  0.00000000000E+00  0.00000000000E+00 -0.91978134069E+03  0.41439250584E+04  0.40405590177E+04 0.  0.
        1    1    3    3  502    0 -0.11425017097E+04 -0.14952680853E+04 -0.12138103688E+04  0.22393017695E+04  0.50400001928E-02 0.  1.
       -1    1    3    3    0  502  0.11425017097E+04  0.14952680853E+04  0.29402902815E+03  0.19046232889E+04  0.50400001928E-02 0. -1.
</event>
<event>
 5   0  0.2587493E-08  0.3998009E+04  0.7818609E-02  0.8004948E-01
        2   -1    0    0  501    0  0.00000000000E+00  0.00000000000E+00  0.23168232252E+04  0.23168232252E+04  0.25500000920E-02 0. -1.
       -2   -1    0    0    0  501  0.00000000000E+00  0.00000000000E+00 -0.17247834722E+04  0.17247834722E+04  0.25500000920E-02 0.  1.
    10030    2    1    2    0    0  0.00000000000E+00  0.00000000000E+00  0.59203975293E+03  0.40416066974E+04  0.39980087078E+04 0.  0.
        5    1    3    3  502    0  0.80215263632E+03 -0.14773934272E+04 -0.79737375431E+03  0.18606362312E+04  0.46999998093E+01 0.  1.
       -5    1    3    3    0  502 -0.80215263632E+03  0.14773934272E+04  0.13894135072E+04  0.21809704663E+04  0.46999998093E+01 0. -1.
</event>
<event>
 5   0  0.2587493E-08  0.3996444E+04  0.7818609E-02  0.8005264E-01
        2   -1    0    0  501    0  0.00000000000E+00  0.00000000000E+00  0.17845504495E+04  0.17845504495E+04  0.25500000920E-02 0.  1.
       -2   -1    0    0    0  501  0.00000000000E+00  0.00000000000E+00 -0.22374771222E+04  0.22374771222E+04  0.25500000920E-02 0. -1.
    10030    2    1    2    0    0  0.00000000000E+00  0.00000000000E+00 -0.45292667271E+03  0.40220275716E+04  0.39964438212E+04 0.  0.
        5    1    3    3  502    0 -0.15954566857E+03 -0.21758894618E+03  0.17661277520E+04  0.17866250576E+04  0.46999998093E+01 0.  1.
       -5    1    3    3    0  502  0.15954566857E+03  0.21758894618E+03 -0.22190544247E+04  0.22354025141E+04  0.46999998093E+01 0. -1.
</event>
<event>
 5   0  0.2650452E-08  0.4003428E+04  0.7818609E-02  0.8003855E-01
        2   -1    0    0  501    0  0.00000000000E+00  0.00000000000E+00  0.21710426874E+04  0.21710426874E+04  0.25500000920E-02 0. -1.
       -2   -1    0    0    0  501  0.00000000000E+00  0.00000000000E+00 -0.18455917017E+04  0.18455917017E+04  0.25500000920E-02 0.  1.
    10030    2    1    2    0    0  0.00000000000E+00  0.00000000000E+00  0.32545098566E+03  0.40166343890E+04  0.40034277152E+04 0.  0.
        3    1    3    3  502    0  0.18829403314E+04  0.44116016422E+03  0.68092888352E+03  0.20503050351E+04  0.10100000352E+00 0. -1.
       -3    1    3    3    0  502 -0.18829403314E+04 -0.44116016422E+03 -0.35547789786E+03  0.19663293540E+04  0.10100000352E+00 0.  1.
</event>
<event>
 5   0  0.8329875E-09  0.4010455E+04  0.7818609E-02  0.8002441E-01
        1   -1    0    0  501    0  0.00000000000E+00  0.00000000000E+00  0.18755312876E+04  0.18755312876E+04  0.50400001928E-02 0. -1.
       -1   -1    0    0    0  501  0.00000000000E+00  0.00000000000E+00 -0.21438920225E+04  0.21438920225E+04  0.50400001928E-02 0.  1.
    10030    2    1    2    0    0  0.00000000000E+00  0.00000000000E+00 -0.26836073491E+03  0.40194233100E+04  0.40104546203E+04 0.  0.
        2    1    3    3  502    0 -0.73230430035E+03 -0.97331254807E+03  0.14622816428E+04  0.19031223049E+04  0.25500000920E-02 0. -1.
       -2    1    3    3    0  502  0.73230430035E+03  0.97331254807E+03 -0.17306423777E+04  0.21163010051E+04  0.25500000920E-02 0.  1.
</event>
<event>
 5   0  0.8329875E-09  0.4004287E+04  0.7818609E-02  0.8003682E-01
        1   -1    0    0  501    0  0.00000000000E+00  0.00000000000E+00  0.16460922830E+04  0.16460922830E+04  0.50400001928E-02 0.  1.
       -1   -1    0    0    0  501  0.00000000000E+00  0.00000000000E+00 -0.24352093374E+04  0.24352093374E+04  0.50400001928E-02 0. -1.
    10030    2    1    2    0    0  0.00000000000E+00  0.00000000000E+00 -0.78911705437E+03  0.40813016205E+04  0.40042873513E+04 0.  0.
        5    1    3    3  502    0 -0.45847211414E+03 -0.17837604221E+04  0.40575632672E+03  0.18859104458E+04  0.46999998093E+01 0.  1.
       -5    1    3    3    0  502  0.45847211414E+03  0.17837604221E+04 -0.11948733811E+04  0.21953911747E+04  0.46999998093E+01 0. -1.
</event>
<event>
 5   0  0.2599332E-08  0.3989716E+04  0.7818609E-02  0.8006624E-01
        2   -1    0    0  501    0  0.00000000000E+00  0.00000000000E+00  0.17545087459E+04  0.17545087459E+04  0.25500000920E-02 0. -1.
       -2   -1    0    0    0  501  0.00000000000E+00  0.00000000000E+00 -0.22681325610E+04  0.22681325610E+04  0.25500000920E-02 0.  1.
    10030    2    1    2    0    0  0.00000000000E+00  0.00000000000E+00 -0.51362381509E+03  0.40226413070E+04  0.39897159875E+04 0.  0.
        2    1    3    3  502    0  0.14256571260E+04 -0.11041466608E+04 -0.11169762156E+04  0.21211492064E+04  0.25500000920E-02 0.  1.
       -2    1    3    3    0  502 -0.14256571260E+04  0.11041466608E+04  0.60335240052E+03  0.19014921006E+04  0.25500000920E-02 0. -1.
</event>
<event>
 5   0  0.2746876E-08  0.3994551E+04  0.7818609E-02  0.8005647E-01
       -2   -1    0    0    0  501  0.00000000000E+00  0.00000000000E+00  0.22311034139E+04  0.22311034139E+04  0.25500000920E-02 0.  1.
        2   -1    0    0  501    0  0.00000000000E+00  0.00000000000E+00 -0.17879540248E+04  0.17879540248E+04  0.25500000920E-02 0. -1.
    10030    2    1    2    0    0  0.00000000000E+00  0.00000000000E+00  0.44314938912E+03  0.40190574387E+04  0.39945514535E+04 0.  0.
        1    1    3    3  502    0  0.55469437844E+03  0.15047113254E+04 -0.97621957330E+03  0.18774575046E+04  0.50400001928E-02 0.  1.
       -1    1    3    3    0  502 -0.55469437844E+03 -0.15047113254E+04  0.14193689624E+04  0.21415999341E+04  0.50400001928E-02 0. -1.
</event>
<event>
 5   0  0.8329875E-09  0.3993641E+04  0.7818609E-02  0.8005831E-01
        1   -1    0    0  501    0  0.00000000000E+00  0.00000000000E+00  0.18009453837E+04  0.18009453837E+04  0.50400001928E-02 0. -1.
       -1   -1    0    0    0  501  0.00000000000E+00  0.00000000000E+00 -0.22139994316E+04  0.22139994316E+04  0.50400001928E-02 0.  1.
    10030    2    1    2    0    0  0.00000000000E+00  0.00000000000E+00 -0.41305404794E+03  0.40149448154E+04  0.39936409733E+04 0.  0.
        4    1    3    3  502    0 -0.15513864560E+04 -0.10122235193E+04  0.54303327447E+03  0.19303582929E+04  0.12699999809E+01 0.  1.
       -4    1    3    3    0  502  0.15513864560E+04  0.10122235193E+04 -0.95608732241E+03  0.20845865225E+04  0.12699999809E+01 0. -1.
</event>
<event>
 5   0  0.8329875E-09  0.4000083E+04  0.7818609E-02  0.8004530E-01
       -1   -1    0    0    0  501  0.00000000000E+00  0.00000000000E+00  0.30431565308E+04  0.30431565308E+04  0.50400001928E-02 0. -1.
        1   -1    0    0  501    0  0.00000000000E+00  0.00000000000E+00 -0.13144791004E+04  0.13144791004E+04  0.50400001928E-02 0.  1.
    10030    2    1    2    0    0  0.00000000000E+00  0.00000000000E+00  0.17286774304E+04  0.43576356312E+04  0.40000828286E+04 0.  0.
        3    1    3    3  502    0 -0.90762346578E+03  0.83541166931E+03 -0.85070025702E+03  0.14984605268E+04  0.10100000352E+00 0.  1.
       -3    1    3    3    0  502  0.90762346578E+03 -0.83541166931E+03  0.25793776874E+04  0.28591751044E+04  0.10100000352E+00 0. -1.
</event>
<event>
 5   0  0.2599332E-08  0.3996689E+04  0.7818609E-02  0.8005215E-01
       -2   -1    0    0    0  501  0.00000000000E+00  0.00000000000E+00  0.26699274846E+04  0.26699274846E+04  0.25500000920E-02 0. -1.
        2   -1    0    0  501    0  0.00000000000E+00  0.00000000000E+00 -0.14956890880E+04  0.14956890881E+04  0.25500000920E-02 0.  1.
    10030    2    1    2    0    0  0.00000000000E+00  0.00000000000E+00  0.11742383965E+04  0.41656165726E+04  0.39966893322E+04 0.  0.
        2    1    3    3  502    0  0.89288801234E+03 -0.45775701036E+03  0.23883392436E+04  0.25905510660E+04  0.25500000920E-02 0. -1.
       -2    1    3    3    0  502 -0.89288801234E+03  0.45775701036E+03 -0.12141008471E+04  0.15750655066E+04  0.25500000920E-02 0.  1.
</event>
<event>
 5   0  0.8329875E-09  0.3984655E+04  0.7818609E-02  0.8007649E-01
       -1   -1    0    0    0  501  0.00000000000E+00  0.00000000000E+00  0.23439490462E+04  0.23439490462E+04  0.50400001928E-02 0. -1.
        1   -1    0    0  501    0  0.00000000000E+00  0.00000000000E+00 -0.16934538195E+04  0.16934538195E+04  0.50400001928E-02 0.  1.
    10030    2    1    2    0    0  0.00000000000E+00  0.00000000000E+00  0.65049522669E+03  0.40374028658E+04  0.39846553001E+04 0.  0.
        3    1    3    3  502    0  0.16854376360E+04 -0.10533144837E+04  0.18485649105E+03  0.19960820020E+04  0.10100000352E+00 0.  1.
       -3    1    3    3    0  502 -0.16854376360E+04  0.10533144837E+04  0.46563873564E+03  0.20413208637E+04  0.10100000352E+00 0. -1.
</event>
<event>
 5   0  0.8329875E-09  0.4002329E+04  0.7818609E-02  0.8004077E-01
        1   -1    0    0  501    0  0.00000000000E+00  0.00000000000E+00  0.23658787533E+04  0.23658787533E+04  0.50400001928E-02 0. -1.
       -1   -1    0    0    0  501  0.00000000000E+00  0.00000000000E+00 -0.16926732159E+04  0.16926732159E+04  0.50400001928E-02 0.  1.
    10030    2    1    2    0    0  0.00000000000E+00  0.00000000000E+00  0.67320553744E+03  0.40585519692E+04  0.40023291208E+04 0.  0.
        1    1    3    3  502    0  0.23122087611E+03 -0.66626458044E+03 -0.15624805897E+04  0.17142687006E+04  0.50400001928E-02 0.  1.
       -1    1    3    3    0  502 -0.23122087611E+03  0.66626458044E+03  0.22356861271E+04  0.23442832686E+04  0.50400001928E-02 0. -1.
</event>
<event>
 5   0  0.8329875E-09  0.4004347E+04  0.7818609E-02  0.8003670E-01
       -1   -1    0    0    0  501  0.00000000000E+00  0.00000000000E+00  0.15585540636E+04  0.15585540636E+04  0.50400001928E-02 0.  1.
        1   -1    0    0  501    0  0.00000000000E+00  0.00000000000E+00 -0.25720627987E+04  0.25720627987E+04  0.50400001928E-02 0. -1.
    10030    2    1    2    0    0  0.00000000000E+00  0.00000000000E+00 -0.10135087351E+04  0.41306168623E+04  0.40043471012E+04 0.  0.
        2    1    3    3  502    0  0.11705127430E+04 -0.15818824942E+04 -0.12599897189E+03  0.19718843901E+04  0.25500000920E-02 0.  1.
       -2    1    3    3    0  502 -0.11705127430E+04  0.15818824942E+04 -0.88750976317E+03  0.21587324722E+04  0.25500000920E-02 0. -1.
</event>
<event>
 5   0  0.2612363E-08  0.3997056E+04  0.7818609E-02  0.8005141E-01
       -2   -1    0    0    0  501  0.00000000000E+00  0.00000000000E+00  0.16228838028E+04  0.16228838028E+04  0.25500000920E-02 0. -1.
        2   -1    0    0  501    0  0.00000000000E+00  0.00000000000E+00 -0.24611215946E+04  0.24611215946E+04  0.25500000920E-02 0.  1.
    10030    2    1    2    0    0  0.00000000000E+00  0.00000000000E+00 -0.83823779186E+03  0.40840053974E+04  0.39970561030E+04 0.  0.
        4    1    3    3  502    0 -0.40332992365E+03 -0.17574454749E+03 -0.24110273698E+04  0.24508398079E+04  0.12699999809E+01 0.  1.
       -4    1    3    3    0  502  0.40332992365E+03  0.17574454749E+03  0.15727895779E+04  0.16331655895E+04  0.12699999809E+01 0. -1.
</event>
<event>
 5   0  0.2587493E-08  0.3963253E+04  0.7818609E-02  0.8012001E-01
        2   -1    0    0  501    0  0.00000000000E+00  0.00000000000E+00  0.27058438142E+04  0.27058438142E+04  0.25500000920E-02 0. -1.
       -2   -1    0    0    0  501  0.00000000000E+00  0.00000000000E+00 -0.14512452842E+04  0.14512452842E+04  0.25500000920E-02 0.  1.
    10030    2    1    2    0    0  0.00000000000E+00  0.00000000000E+00  0.12545985300E+04  0.41570890984E+04  0.39632527425E+04 0.  0.
        5    1    3    3  502    0  0.18097237320E+04  0.57623034415E+03  0.34244201092E+02  0.18995620945E+04  0.46999998093E+01 0.  1.
       -5    1    3    3    0  502 -0.18097237320E+04 -0.57623034415E+03  0.12203543289E+04  0.22575270039E+04  0.46999998093E+01 0. -1.
</event>
<event>
 5   0  0.2612363E-08  0.3998103E+04  0.7818609E-02  0.8004929E-01
        2   -1    0    0  501    0  0.00000000000E+00  0.00000000000E+00  0.17976988055E+04  0.17976988055E+04  0.25500000920E-02 0.  1.
       -2   -1    0    0    0  501  0.00000000000E+00  0.00000000000E+00 -0.22229570643E+04  0.22229570643E+04  0.25500000920E-02 0. -1.
    10030    2    1    2    0    0  0.00000000000E+00  0.00000000000E+00 -0.42525825884E+03  0.40206558698E+04  0.39981031798E+04 0.  0.
        4    1    3    3  502    0 -0.19542453972E+02 -0.11410677359E+04 -0.18631637007E+04  0.21849023030E+04  0.12699999809E+01 0. -1.
       -4    1    3    3    0  502  0.19542453972E+02  0.11410677359E+04  0.14379054418E+04  0.18357535668E+04  0.12699999809E+01 0.  1.
</event>
<event>
 5   0  0.2746876E-08  0.4002200E+04  0.7818609E-02  0.8004103E-01
       -2   -1    0    0    0  501  0.00000000000E+00  0.00000000000E+00  0.14925645910E+04  0.14925645910E+04  0.25500000920E-02 0. -1.
        2   -1    0    0  501    0  0.00000000000E+00  0.00000000000E+00 -0.26829001523E+04  0.26829001523E+04  0.25500000920E-02 0.  1.
    10030    2    1    2    0    0  0.00000000000E+00  0.00000000000E+00 -0.11903355613E+04  0.41754647433E+04  0.40022002791E+04 0.  0.
        1    1    3    3  502    0 -0.73800028306E+03  0.10059856762E+03  0.13425597929E+04  0.15353277459E+04  0.50400001928E-02 0. -1.
       -1    1    3    3    0  502  0.73800028306E+03 -0.10059856762E+03 -0.25328953543E+04  0.26401369974E+04  0.50400001928E-02 0.  1.
</event>
<event>
 5   0  0.2587493E-08  0.4027167E+04  0.7818609E-02  0.7999088E-01
        2   -1    0    0  501    0  0.00000000000E+00  0.00000000000E+00  0.24028431127E+04  0.24028431127E+04  0.25500000920E-02 0.  1.
       -2   -1    0    0    0  501  0.00000000000E+00  0.00000000000E+00 -0.16873835291E+04  0.16873835291E+04  0.25500000920E-02 0. -1.
    10030    2    1    2    0    0  0.00000000000E+00  0.00000000000E+00  0.71545958358E+03  0.40902266418E+04  0.40271666920E+04 0.  0.
        5    1    3    3  502    0  0.89035146313E+03 -0.13764569883E+04  0.15452846034E+04  0.22528395780E+04  0.46999998093E+01 0.  1.
       -5    1    3    3    0  502 -0.89035146313E+03  0.13764569883E+04 -0.82982501981E+03  0.18373870638E+04  0.46999998093E+01 0. -1.
</event>
<event>
 5   0  0.2650452E-08  0.4002734E+04  0.7818609E-02  0.8003995E-01
       -2   -1    0    0    0  501  0.00000000000E+00  0.00000000000E+00  0.11036547557E+04  0.11036547557E+04  0.25500000920E-02 0.  1.
        2   -1    0    0  501    0  0.00000000000E+00  0.00000000000E+00 -0.36292774947E+04  0.36292774947E+04  0.25500000920E-02 0. -1.
    10030    2    1    2    0    0  0.00000000000E+00  0.00000000000E+00 -0.25256227390E+04  0.47329322504E+04  0.40027337492E+04 0.  0.
        3    1    3    3  502    0 -0.14161738854E+03  0.19946975232E+04 -0.13588404571E+04  0.24177098858E+04  0.10100000352E+00 0.  1.
       -3    1    3    3    0  502  0.14161738854E+03 -0.19946975232E+04 -0.11667822819E+04  0.23152223646E+04  0.10100000352E+00 0. -1.
</event>
<event>
 5   0  0.2612363E-08  0.3999551E+04  0.7818609E-02  0.8004637E-01
       -2   -1    0    0    0  501  0.00000000000E+00  0.00000000000E+00  0.13084263685E+04  0.13084263685E+04  0.25500000920E-02 0. -1.
        2   -1    0    0  501    0  0.00000000000E+00  0.00000000000E+00 -0.30564210061E+04  0.30564210061E+04  0.25500000920E-02 0.  1.
    10030    2    1    2    0    0  0.00000000000E+00  0.00000000000E+00 -0.17479946376E+04  0.43648473746E+04  0.39995508936E+04 0.  0.
        4    1    3    3  502    0  0.96652391676E+03  0.27005124235E+03 -0.27617231768E+04  0.29384030822E+04  0.12699999809E+01 0.  1.
       -4    1    3    3    0  502 -0.96652391676E+03 -0.27005124235E+03  0.10137285392E+04  0.14264442924E+04  0.12699999809E+01 0. -1.
</event>
<event>
 5   0  0.8329875E-09  0.4001108E+04  0.7818609E-02  0.8004323E-01
        1   -1    0    0  501    0  0.00000000000E+00  0.00000000000E+00  0.25295724856E+04  0.25295724856E+04  0.50400001928E-02 0.  1.
       -1   -1    0    0    0  501  0.00000000000E+00  0.00000000000E+00 -0.15821712071E+04  0.15821712071E+04  0.50400001928E-02 0. -1.
    10030    2    1    2    0    0  0.00000000000E+00  0.00000000000E+00  0.94740127856E+03  0.41117436927E+04  0.40011082229E+04 0.  0.
        3    1    3    3  502    0  0.24109800182E+03 -0.71711524700E+03 -0.14294900347E+04  0.16173510112E+04  0.10100000352E+00 0. -1.
       -3    1    3    3    0  502 -0.24109800182E+03  0.71711524700E+03  0.23768913133E+04  0.24943926815E+04  0.10100000352E+00 0.  1.
</event>
<event>
 5   0  0.8329875E-09  0.3991427E+04  0.7818609E-02  0.8006278E-01
       -1   -1    0    0    0  501  0.00000000000E+00  0.00000000000E+00  0.15371013635E+04  0.15371013635E+04  0.50400001928E-02 0.  1.
        1   -1    0    0  501    0  0.00000000000E+00  0.00000000000E+00 -0.25911576873E+04  0.25911576873E+04  0.50400001928E-02 0. -1.
    10030    2    1    2    0    0  0.00000000000E+00  0.00000000000E+00 -0.10540563239E+04  0.41282590508E+04  0.39914268196E+04 0.  0.
        2    1    3    3  502    0  0.17889581554E+04 -0.60429599704E+03 -0.11951829025E+04  0.22347275235E+04  0.25500000920E-02 0. -1.
       -2    1    3    3    0  502 -0.17889581554E+04  0.60429599704E+03  0.14112657862E+03  0.18935315273E+04  0.25500000920E-02 0.  1.
</event>
<event>
 5   0  0.8329875E-09  0.4013642E+04  0.7818609E-02  0.8001800E-01
       -1   -1    0    0    0  501  0.00000000000E+00  0.00000000000E+00  0.18154050721E+04  0.18154050721E+04  0.50400001928E-02 0.  1.
        1   -1    0    0  501    0  0.00000000000E+00  0.00000000000E+00 -0.22184197363E+04  0.22184197363E+04  0.50400001928E-02 0. -1.
    10030    2    1    2    0    0  0.00000000000E+00  0.00000000000E+00 -0.40301466422E+03  0.40338248084E+04  0.40136419578E+04 0.  0.
        5    1    3    3  502    0 -0.13223597094E+04  0.13573509706E+04  0.46232258724E+03  0.19505899423E+04  0.46999998093E+01 0.  1.
       -5    1    3    3    0  502  0.13223597094E+04 -0.13573509706E+04 -0.86533725146E+03  0.20832348661E+04  0.46999998093E+01 0. -1.
</event>
<event>
 5   0  0.2612363E-08  0.3976995E+04  0.7818609E-02  0.8009204E-01
        2   -1    0    0  501    0  0.00000000000E+00  0.00000000000E+00  0.16944897008E+04  0.16944897008E+04  0.25500000920E-02 0.  1.
       -2   -1    0    0    0  501  0.00000000000E+00  0.00000000000E+00 -0.23335181762E+04  0.23335181762E+04  0.25500000920E-02 0. -1.
    10030    2    1    2    0    0  0.00000000000E+00  0.00000000000E+00 -0.63902847532E+03  0.40280078770E+04  0.39769951050E+04 0.  0.
        4    1    3    3  502    0 -0.39682521143E+03  0.98293215312E+02  0.16514660564E+04  0.17013152421E+04  0.12699999809E+01 0.  1.
       -4    1    3    3    0  502  0.39682521143E+03 -0.98293215312E+02 -0.22904945317E+04  0.23266926349E+04  0.12699999809E+01 0. -1.
</event>
<event>
 5   0  0.8329875E-09  0.4022676E+04  0.7818609E-02  0.7999988E-01
        1   -1    0    0  501    0  0.00000000000E+00  0.00000000000E+00  0.29751515239E+04  0.29751515239E+04  0.50400001928E-02 0.  1.
       -1   -1    0    0    0  501  0.00000000000E+00  0.00000000000E+00 -0.13597563832E+04  0.13597563832E+04  0.50400001928E-02 0. -1.
    10030    2    1    2    0    0  0.00000000000E+00  0.00000000000E+00  0.16153951407E+04  0.43349079071E+04  0.40226763606E+04 0.  0.
        1    1    3    3  502    0  0.40946624477E+03 -0.31105476862E+03  0.29031208934E+04  0.29483094472E+04  0.50400001928E-02 0.  1.
       -1    1    3    3    0  502 -0.40946624477E+03  0.31105476862E+03 -0.12877257527E+04  0.13865984599E+04  0.50400001928E-02 0. -1.
</event>
<event>
 5   0  0.8329875E-09  0.3887515E+04  0.7818609E-02  0.8027631E-01
        1   -1    0    0  501    0  0.00000000000E+00  0.00000000000E+00  0.29500547810E+04  0.29500547810E+04  0.50400001928E-02 0.  1.
       -1   -1    0    0    0  501  0.00000000000E+00  0.00000000000E+00 -0.12807196027E+04  0.12807196027E+04  0.50400001928E-02 0. -1.
    10030    2    1    2    0    0  0.00000000000E+00  0.00000000000E+00  0.16693351783E+04  0.42307743837E+04  0.38875148808E+04 0.  0.
        5    1    3    3  502    0  0.92127380408E+03 -0.17101095516E+04  0.91124229550E+03  0.21456012471E+04  0.46999998093E+01 0. -1.
       -5    1    3    3    0  502 -0.92127380408E+03  0.17101095516E+04  0.75809288278E+03  0.20851731366E+04  0.46999998093E+01 0.  1.
</event>
<event>
 5   0  0.8329875E-09  0.4010290E+04  0.7818609E-02  0.8002474E-01
        1   -1    0    0  501    0  0.00000000000E+00  0.00000000000E+00  0.22655643407E+04  0.22655643407E+04  0.50400001928E-02 0. -1.
       -1   -1    0    0    0  501  0.00000000000E+00  0.00000000000E+00 -0.17746596833E+04  0.17746596833E+04  0.50400001928E-02 0.  1.
    10030    2    1    2    0    0  0.00000000000E+00  0.00000000000E+00  0.49090465738E+03  0.40402240240E+04  0.40102896132E+04 0.  0.
        1    1    3    3  502    0 -0.10433309133E+04 -0.44293509773E+03  0.19118468108E+04  0.22225861341E+04  0.50400001928E-02 0. -1.
       -1    1    3    3    0  502  0.10433309133E+04  0.44293509773E+03 -0.14209421534E+04  0.18176378899E+04  0.50400001928E-02 0.  1.
</event>
<event>
 5   0  0.8329875E-09  0.4002058E+04  0.7818609E-02  0.8004132E-01
       -1   -1    0    0    0  501  0.00000000000E+00  0.00000000000E+00  0.19389897753E+04  0.19389897753E+04  0.50400001928E-02 0.  1.
        1   -1    0    0  501    0  0.00000000000E+00  0.00000000000E+00 -0.20650531328E+04  0.20650531328E+04  0.50400001928E-02 0. -1.
    10030    2    1    2    0    0  0.00000000000E+00  0.00000000000E+00 -0.12606335753E+03  0.40040429081E+04  0.40020579256E+04 0.  0.
        2    1    3    3  502    0  0.58530676032E+03  0.18048130484E+04  0.57303734853E+03  0.19819954456E+04  0.25500000920E-02 0.  1.
       -2    1    3    3    0  502 -0.58530676032E+03 -0.18048130484E+04 -0.69910070605E+03  0.20220474625E+04  0.25500000920E-02 0. -1.
</event>
<event>
 5   0  0.2587493E-08  0.3996638E+04  0.7818609E-02  0.8005225E-01
        2   -1    0    0  501    0  0.00000000000E+00  0.00000000000E+00  0.23432050414E+04  0.23432050414E+04  0.25500000920E-02 0. -1.
       -2   -1    0    0    0  501  0.00000000000E+00  0.00000000000E+00 -0.17041951280E+04  0.17041951280E+04  0.25500000920E-02 0.  1.
    10030    2    1    2    0    0  0.00000000000E+00  0.00000000000E+00  0.63900991335E+03  0.40474001694E+04  0.39966378947E+04 0.  0.
        5    1    3    3  502    0  0.84514131390E+03  0.12387421280E+04  0.16570799879E+04  0.22348785373E+04  0.46999998093E+01 0. -1.
       -5    1    3    3    0  502 -0.84514131390E+03 -0.12387421280E+04 -0.10180700746E+04  0.18125216321E+04  0.46999998093E+01 0.  1.
</event>
<event>
 5   0  0.2612363E-08  0.4005019E+04  0.7818609E-02  0.8003535E-01
       -2   -1    0    0    0  501  0.00000000000E+00  0.00000000000E+00  0.28291357482E+04  0.28291357482E+04  0.25500000920E-02 0.  1.
        2   -1    0    0  501    0  0.00000000000E+00  0.00000000000E+00 -0.14174096483E+04  0.14174096483E+04  0.25500000920E-02 0. -1.
    10030    2    1    2    0    0  0.00000000000E+00  0.00000000000E+00  0.14117260999E+04  0.42465453965E+04  0.40050190042E+04 0.  0.
        4    1    3    3  502    0  0.25586599737E+03  0.16735948856E+03 -0.13925158928E+04  0.14256853551E+04  0.12699999809E+01 0. -1.
       -4    1    3    3    0  502 -0.25586599737E+03 -0.16735948856E+03  0.28042419927E+04  0.28208600414E+04  0.12699999809E+01 0.  1.
</event>
<event>
 5   0  0.8329875E-09  0.3997533E+04  0.7818609E-02  0.8005044E-01
        1   -1    0    0  501    0  0.00000000000E+00  0.00000000000E+00  0.25280752244E+04  0.25280752244E+04  0.50400001928E-02 0.  1.
       -1   -1    0    0    0  501  0.00000000000E+00  0.00000000000E+00 -0.15802805329E+04  0.15802805329E+04  0.50400001928E-02 0. -1.
    10030    2    1    2    0    0  0.00000000000E+00  0.00000000000E+00  0.94779469149E+03  0.41083557573E+04  0.39975332709E+04 0.  0.
        5    1    3    3  502    0  0.32976426151E+03 -0.16286318411E+04 -0.66768927309E+03  0.17908146742E+04  0.46999998093E+01 0. -1.
       -5    1    3    3    0  502 -0.32976426151E+03  0.16286318411E+04  0.16154839646E+04  0.23175410831E+04  0.46999998093E+01 0.  1.
</event>
<event>
 5   0  0.8329875E-09  0.4000738E+04  0.7818609E-02  0.8004398E-01
       -1   -1    0    0    0  501  0.00000000000E+00  0.00000000000E+00  0.21802941543E+04  0.21802941543E+04  0.50400001928E-02 0.  1.
        1   -1    0    0  501    0  0.00000000000E+00  0.00000000000E+00 -0.18352922617E+04  0.18352922617E+04  0.50400001928E-02 0. -1.
    10030    2    1    2    0    0  0.00000000000E+00  0.00000000000E+00  0.34500189258E+03  0.40155864159E+04  0.40007384266E+04 0.  0.
        2    1    3    3  502    0 -0.13418372665E+04 -0.14565672785E+04  0.45525820354E+03  0.20320864939E+04  0.25500000920E-02 0.  1.
       -2    1    3    3    0  502  0.13418372665E+04  0.14565672785E+04 -0.11025631096E+03  0.19834999221E+04  0.25500000920E-02 0. -1.
</event>
<event>
 5   0  0.2612363E-08  0.3983149E+04  0.7818609E-02  0.8007955E-01
       -2   -1    0    0    0  501  0.00000000000E+00  0.00000000000E+00  0.21857196253E+04  0.21857196253E+04  0.25500000920E-02 0.  1.
        2   -1    0    0  501    0  0.00000000000E+00  0.00000000000E+00 -0.18146738925E+04  0.18146738925E+04  0.25500000920E-02 0. -1.
    10030    2    1    2    0    0  0.00000000000E+00  0.00000000000E+00  0.37104573281E+03  0.40003935178E+04  0.39831486743E+04 0.  0.
        4    1    3    3  502    0 -0.17905174441E+04 -0.82032955914E+03 -0.11151667253E+03  0.19726456560E+04  0.12699999809E+01 0.  1.
       -4    1    3    3    0  502  0.17905174441E+04  0.82032955914E+03  0.48256240534E+03  0.20277478618E+04  0.12699999809E+01 0. -1.
</event>
<event>
 5   0  0.8329875E-09  0.4004629E+04  0.7818609E-02  0.8003613E-01
       -1   -1    0    0    0  501  0.00000000000E+00  0.00000000000E+00  0.22806627979E+04  0.22806627979E+04  0.50400001928E-02 0. -1.
        1   -1    0    0  501    0  0.00000000000E+00  0.00000000000E+00 -0.17579380688E+04  0.17579380688E+04  0.50400001928E-02 0.  1.
    10030    2    1    2    0    0  0.00000000000E+00  0.00000000000E+00  0.52272472911E+03  0.40386008668E+04  0.40046292985E+04 0.  0.
        1    1    3    3  502    0  0.66975321868E+02 -0.19397728555E+04  0.75753145570E+03  0.20835206577E+04  0.50400001928E-02 0. -1.
       -1    1    3    3    0  502 -0.66975321868E+02  0.19397728555E+04 -0.23480672659E+03  0.19550802090E+04  0.50400001928E-02 0.  1.
</event>
<event>
 5   0  0.2612363E-08  0.3985633E+04  0.7818609E-02  0.8007451E-01
        2   -1    0    0  501    0  0.00000000000E+00  0.00000000000E+00  0.18098586750E+04  0.18098586750E+04  0.25500000920E-02 0. -1.
       -2   -1    0    0    0  501  0.00000000000E+00  0.00000000000E+00 -0.21942699615E+04  0.21942699615E+04  0.25500000920E-02 0.  1.
    10030    2    1    2    0    0  0.00000000000E+00  0.00000000000E+00 -0.38441128647E+03  0.40041286365E+04  0.39856334629E+04 0.  0.
        4    1    3    3  502    0 -0.14282686572E+04 -0.12052853824E+04 -0.88726344437E+03  0.20687924601E+04  0.12699999809E+01 0.  1.
       -4    1    3    3    0  502  0.14282686572E+04  0.12052853824E+04  0.50285215790E+03  0.19353361764E+04  0.12699999809E+01 0. -1.
</event>
<event>
 5   0  0.8329875E-09  0.3991803E+04  0.7818609E-02  0.8006202E-01
       -1   -1    0    0    0  501  0.00000000000E+00  0.00000000000E+00  0.19432082078E+04  0.19432082078E+04  0.50400001928E-02 0. -1.
        1   -1    0    0  501    0  0.00000000000E+00  0.00000000000E+00 -0.20500236658E+04  0.20500236658E+04  0.50400001928E-02 0.  1.
    10030    2    1    2    0    0  0.00000000000E+00  0.00000000000E+00 -0.10681545805E+03  0.39932318736E+04  0.39918030080E+04 0.  0.
        1    1    3    3  502    0  0.56009774495E+02  0.71855939242E+03  0.18084833936E+04  0.19468119787E+04  0.50400001928E-02 0. -1.
       -1    1    3    3    0  502 -0.56009774495E+02 -0.71855939242E+03 -0.19152988517E+04  0.20464198950E+04  0.50400001928E-02 0.  1.
</event>
<event>
 5   0  0.8329875E-09  0.4008341E+04  0.7818609E-02  0.8002866E-01
       -1   -1    0    0    0  501  0.00000000000E+00  0.00000000000E+00  0.30709552748E+04  0.30709552748E+04  0.50400001928E-02 0.  1.
        1   -1    0    0  501    0  0.00000000000E+00  0.00000000000E+00 -0.13079640351E+04  0.13079640351E+04  0.50400001928E-02 0. -1.
    10030    2    1    2    0    0  0.00000000000E+00  0.00000000000E+00  0.17629912397E+04  0.43789193098E+04  0.40083408302E+04 0.  0.
        1    1    3    3  502    0 -0.11717755650E+04 -0.23032744636E+03  0.26398308238E+04  0.28973807975E+04  0.50400001928E-02 0.  1.
       -1    1    3    3    0  502  0.11717755650E+04  0.23032744636E+03 -0.87683958414E+03  0.14815385123E+04  0.50400001928E-02 0. -1.
</event>
<event>
 5   0  0.2650452E-08  0.4001790E+04  0.7818609E-02  0.8004185E-01
        2   -1    0    0  501    0  0.00000000000E+00  0.00000000000E+00  0.24515446644E+04  0.24515446644E+04  0.25500000920E-02 0. -1.
       -2   -1    0    0    0  501  0.00000000000E+00  0.00000000000E+00 -0.16330852925E+04  0.16330852925E+04  0.25500000920E-02 0.  1.
    10030    2    1    2    0    0  0.00000000000E+00  0.00000000000E+00  0.81845937190E+03  0.40846299568E+04  0.40017903669E+04 0.  0.
        3    1    3    3  502    0  0.39325096814E+03 -0.19067329633E+04 -0.62180000678E+02  0.19478560727E+04  0.10100000352E+00 0.  1.
       -3    1    3    3    0  502 -0.39325096814E+03  0.19067329633E+04  0.88063937258E+03  0.21367738842E+04  0.10100000352E+00 0. -1.
</event>
<event>
 5   0  0.8329875E-09  0.3999984E+04  0.7818609E-02  0.8004550E-01
        3   -1    0    0  501    0  0.00000000000E+00  0.00000000000E+00  0.22520816072E+04  0.22520816094E+04  0.10100000352E+00 0.  1.
       -3   -1    0    0    0  501  0.00000000000E+00  0.00000000000E+00 -0.17761206260E+04  0.17761206289E+04  0.10100000352E+00 0. -1.
    10030    2    1    2    0    0  0.00000000000E+00  0.00000000000E+00  0.47596098115E+03  0.40282022383E+04  0.39999843021E+04 0.  0.
        5    1    3    3  502    0 -0.12668083344E+03 -0.17371333941E+04 -0.75194233957E+03  0.18971346379E+04  0.46999998093E+01 0.  1.
       -5    1    3    3    0  502  0.12668083344E+03  0.17371333941E+04  0.12279033207E+04  0.21310676004E+04  0.46999998093E+01 0. -1.
</event>
<event>
 5   0  0.2650452E-08  0.3991659E+04  0.7818609E-02  0.8006231E-01
       -2   -1    0    0    0  501  0.00000000000E+00  0.00000000000E+00  0.15715390317E+04  0.15715390317E+04  0.25500000920E-02 0.  1.
        2   -1    0    0  501    0  0.00000000000E+00  0.00000000000E+00 -0.25346718578E+04  0.25346718578E+04  0.25500000920E-02 0. -1.
    10030    2    1    2    0    0  0.00000000000E+00  0.00000000000E+00 -0.96313282609E+03  0.41062108895E+04  0.39916591824E+04 0.  0.
        3    1    3    3  502    0  0.19472793270E+03  0.19473621928E+04 -0.78929758365E+02  0.19586649522E+04  0.10100000352E+00 0.  1.
       -3    1    3    3    0  502 -0.19472793270E+03 -0.19473621928E+04 -0.88420306772E+03  0.21475459374E+04  0.10100000352E+00 0. -1.
</event>
<event>
 5   0  0.2612363E-08  0.3998595E+04  0.7818609E-02  0.8004830E-01
       -2   -1    0    0    0  501  0.00000000000E+00  0.00000000000E+00  0.15237998815E+04  0.15237998815E+04  0.25500000920E-02 0.  1.
        2   -1    0    0  501    0  0.00000000000E+00  0.00000000000E+00 -0.26231724157E+04  0.26231724157E+04  0.25500000920E-02 0. -1.
    10030    2    1    2    0    0  0.00000000000E+00  0.00000000000E+00 -0.10993725342E+04  0.41469722972E+04  0.39985946612E+04 0.  0.
        4    1    3    3  502    0  0.19261600530E+04  0.15362123397E+03 -0.17319538222E+02  0.19323544221E+04  0.12699999809E+01 0.  1.
       -4    1    3    3    0  502 -0.19261600530E+04 -0.15362123397E+03 -0.10820529960E+04  0.22146178750E+04  0.12699999809E+01 0. -1.
</event>
<event>
 5   0  0.2650452E-08  0.3999573E+04  0.7818609E-02  0.8004633E-01
       -2   -1    0    0    0  501  0.00000000000E+00  0.00000000000E+00  0.16999373721E+04  0.16999373721E+04  0.25500000920E-02 0. -1.
        2   -1    0    0  501    0  0.00000000000E+00  0.00000000000E+00 -0.23525256821E+04  0.23525256821E+04  0.25500000920E-02 0.  1.
    10030    2    1    2    0    0  0.00000000000E+00  0.00000000000E+00 -0.65258831002E+03  0.40524630542E+04  0.39995731402E+04 0.  0.
        3    1    3    3  502    0  0.18950722807E+04  0.23138426544E+03  0.27681555703E+03  0.19291097662E+04  0.10100000352E+00 0.  1.
       -3    1    3    3    0  502 -0.18950722807E+04 -0.23138426544E+03 -0.92940386705E+03  0.21233532880E+04  0.10100000352E+00 0. -1.
</event>
<event>
 5   0  0.2746876E-08  0.3989895E+04  0.7818609E-02  0.8006588E-01
       -2   -1    0    0    0  501  0.00000000000E+00  0.00000000000E+00  0.17249295142E+04  0.17249295142E+04  0.25500000920E-02 0.  1.
        2   -1    0    0  501    0  0.00000000000E+00  0.00000000000E+00 -0.23072342820E+04  0.23072342820E+04  0.25500000920E-02 0. -1.
    10030    2    1    2    0    0  0.00000000000E+00  0.00000000000E+00 -0.58230476784E+03  0.40321637962E+04  0.39898954920E+04 0.  0.
        1    1    3    3  502    0  0.19619179184E+04 -0.35782003931E+03 -0.23903659502E+03  0.20085555986E+04  0.50400001928E-02 0.  1.
       -1    1    3    3    0  502 -0.19619179184E+04  0.35782003931E+03 -0.34326817282E+03  0.20236081976E+04  0.50400001928E-02 0. -1.
</event>
<event>
 5   0  0.8329875E-09  0.3996625E+04  0.7818609E-02  0.8005228E-01
       -1   -1    0    0    0  501  0.00000000000E+00  0.00000000000E+00  0.18673667379E+04  0.18673667379E+04  0.50400001928E-02 0. -1.
        1   -1    0    0  501    0  0.00000000000E+00  0.00000000000E+00 -0.21384402001E+04  0.21384402001E+04  0.50400001928E-02 0.  1.
    10030    2    1    2    0    0  0.00000000000E+00  0.00000000000E+00 -0.27107346217E+03  0.40058069380E+04  0.39966246262E+04 0.  0.
        2    1    3    3  502    0 -0.21176070695E+03  0.16140915688E+04 -0.12971290316E+04  0.20815085669E+04  0.25500000920E-02 0.  1.
       -2    1    3    3    0  502  0.21176070695E+03 -0.16140915688E+04  0.10260555695E+04  0.19242983711E+04  0.25500000920E-02 0. -1.
</event>
<event>
 5   0  0.8329875E-09  0.3992705E+04  0.7818609E-02  0.8006020E-01
        1   -1    0    0  501    0  0.00000000000E+00  0.00000000000E+00  0.17913349205E+04  0.17913349205E+04  0.50400001928E-02 0.  1.
       -1   -1    0    0    0  501  0.00000000000E+00  0.00000000000E+00 -0.22248342051E+04  0.22248342051E+04  0.50400001928E-02 0. -1.
    10030    2    1    2    0    0  0.00000000000E+00  0.00000000000E+00 -0.43349928462E+03  0.40161691256E+04  0.39927049497E+04 0.  0.
        4    1    3    3  502    0  0.10808730646E+04 -0.56200519955E+03 -0.18075891893E+04  0.21797974026E+04  0.12699999809E+01 0. -1.
       -4    1    3    3    0  502 -0.10808730646E+04  0.56200519955E+03  0.13740899047E+04  0.18363717230E+04  0.12699999809E+01 0.  1.
</event>
<event>
 5   0  0.2587493E-08  0.3996049E+04  0.7818609E-02  0.8005344E-01
       -2   -1    0    0    0  501  0.00000000000E+00  0.00000000000E+00  0.20296879958E+04  0.20296879958E+04  0.25500000920E-02 0. -1.
        2   -1    0    0  501    0  0.00000000000E+00  0.00000000000E+00 -0.19668546150E+04  0.19668546150E+04  0.25500000920E-02 0.  1.
    10030    2    1    2    0    0  0.00000000000E+00  0.00000000000E+00  0.62833380832E+02  0.39965426108E+04  0.39960486491E+04 0.  0.
        5    1    3    3  502    0 -0.14488421335E+03  0.18609036233E+04  0.74433394381E+03  0.20094797437E+04  0.46999998093E+01 0. -1.
       -5    1    3    3    0  502  0.14488421335E+03 -0.18609036233E+04 -0.68150056298E+03  0.19870628671E+04  0.46999998093E+01 0.  1.
</event>
<event>
 5   0  0.8329875E-09  0.3983018E+04  0.7818609E-02  0.8007981E-01
       -1   -1    0    0    0  501  0.00000000000E+00  0.00000000000E+00  0.26951143849E+04  0.26951143849E+04  0.50400001928E-02 0.  1.
        1   -1    0    0  501    0  0.00000000000E+00  0.00000000000E+00 -0.14715917760E+04  0.14715917760E+04  0.50400001928E-02 0. -1.
    10030    2    1    2    0    0  0.00000000000E+00  0.00000000000E+00  0.12235226089E+04  0.41667061610E+04  0.39830180338E+04 0.  0.
        1    1    3    3  502    0 -0.44195883027E+01 -0.67461343005E+03  0.25719375000E+04  0.26589443989E+04  0.50400001928E-02 0.  1.
       -1    1    3    3    0  502  0.44195883027E+01  0.67461343005E+03 -0.13484148911E+04  0.15077617621E+04  0.50400001928E-02 0. -1.
</event>
<event>
 5   0  0.8329875E-09  0.4001118E+04  0.7818609E-02  0.8004321E-01
       -1   -1    0    0    0  501  0.00000000000E+00  0.00000000000E+00  0.20643826959E+04  0.20643826959E+04  0.50400001928E-02 0.  1.
        1   -1    0    0  501    0  0.00000000000E+00  0.00000000000E+00 -0.19387088944E+04  0.19387088944E+04  0.50400001928E-02 0. -1.
    10030    2    1    2    0    0  0.00000000000E+00  0.00000000000E+00  0.12567380148E+03  0.40030915904E+04  0.40011183907E+04 0.  0.
        4    1    3    3  502    0  0.19387883114E+04  0.48670072081E+03  0.14323680283E+03  0.20040698847E+04  0.12699999809E+01 0.  1.
       -4    1    3    3    0  502 -0.19387883114E+04 -0.48670072081E+03 -0.17563001345E+02  0.19990217057E+04  0.12699999809E+01 0. -1.
</event>
<event>
 5   0  0.8329875E-09  0.3989151E+04  0.7818609E-02  0.8006739E-01
       -1   -1    0    0    0  501  0.00000000000E+00  0.00000000000E+00  0.24895285668E+04  0.24895285668E+04  0.50400001928E-02 0.  1.
        1   -1    0    0  501    0  0.00000000000E+00  0.00000000000E+00 -0.15980262116E+04  0.15980262117E+04  0.50400001928E-02 0. -1.
    10030    2    1    2    0    0  0.00000000000E+00  0.00000000000E+00  0.89150235513E+03  0.40875547784E+04  0.39891512402E+04 0.  0.
        5    1    3    3  502    0 -0.85458674080E+02 -0.83766249379E+03  0.22984820679E+04  0.24478610142E+04  0.46999998093E+01 0.  1.
       -5    1    3    3    0  502  0.85458674080E+02  0.83766249379E+03 -0.14069797127E+04  0.16396937643E+04  0.46999998093E+01 0. -1.
</event>
<event>
 5   0  0.2612363E-08  0.3992029E+04  0.7818609E-02  0.8006156E-01
       -2   -1    0    0    0  501  0.00000000000E+00  0.00000000000E+00  0.25635533504E+04  0.25635533504E+04  0.25500000920E-02 0. -1.
        2   -1    0    0  501    0  0.00000000000E+00  0.00000000000E+00 -0.15541219550E+04  0.15541219550E+04  0.25500000920E-02 0.  1.
    10030    2    1    2    0    0  0.00000000000E+00  0.00000000000E+00  0.10094313954E+04  0.41176753054E+04  0.39920293309E+04 0.  0.
        4    1    3    3  502    0 -0.17787392694E+03  0.47401974455E+03 -0.14867880481E+04  0.15706285891E+04  0.12699999809E+01 0.  1.
       -4    1    3    3    0  502  0.17787392694E+03 -0.47401974455E+03  0.24962194435E+04  0.25470467163E+04  0.12699999809E+01 0. -1.
</event>
<event>
 5   0  0.8329875E-09  0.3993338E+04  0.7818609E-02  0.8005892E-01
       -1   -1    0    0    0  501  0.00000000000E+00  0.00000000000E+00  0.21775615206E+04  0.21775615207E+04  0.50400001928E-02 0.  1.
        1   -1    0    0  501    0  0.00000000000E+00  0.00000000000E+00 -0.18308031896E+04  0.18308031896E+04  0.50400001928E-02 0. -1.
    10030    2    1    2    0    0  0.00000000000E+00  0.00000000000E+00  0.34675833103E+03  0.40083647103E+04  0.39933377406E+04 0.  0.
        1    1    3    3  502    0 -0.96594355659E+03  0.10163742310E+04  0.16002144424E+04  0.21276159883E+04  0.50400001928E-02 0. -1.
       -1    1    3    3    0  502  0.96594355659E+03 -0.10163742310E+04 -0.12534561114E+04  0.18807487220E+04  0.50400001928E-02 0.  1.
</event>
<event>
 5   0  0.2599332E-08  0.4003725E+04  0.7818609E-02  0.8003795E-01
        2   -1    0    0  501    0  0.00000000000E+00  0.00000000000E+00  0.26767911072E+04  0.26767911072E+04  0.25500000920E-02 0.  1.
       -2   -1    0    0    0  501  0.00000000000E+00  0.00000000000E+00 -0.14971111944E+04  0.14971111944E+04  0.25500000920E-02 0. -1.
    10030    2    1    2    0    0  0.00000000000E+00  0.00000000000E+00  0.11796799128E+04  0.41739023015E+04  0.40037252311E+04 0.  0.
        2    1    3    3  502    0  0.57536058714E+02 -0.37465692255E+03  0.26390381725E+04  0.26661209056E+04  0.25500000920E-02 0.  1.
       -2    1    3    3    0  502 -0.57536058714E+02  0.37465692255E+03 -0.14593582597E+04  0.15077813959E+04  0.25500000920E-02 0. -1.
</event>
<event>
 5   0  0.2587493E-08  0.4018141E+04  0.7818609E-02  0.8000897E-01
        2   -1    0    0  501    0  0.00000000000E+00  0.00000000000E+00  0.22470334402E+04  0.22470334402E+04  0.25500000920E-02 0.  1.
       -2   -1    0    0    0  501  0.00000000000E+00  0.00000000000E+00 -0.17963083462E+04  0.17963083462E+04  0.25500000920E-02 0. -1.
    10030    2    1    2    0    0  0.00000000000E+00  0.00000000000E+00  0.45072509398E+03  0.40433417864E+04  0.40181413230E+04 0.  0.
        5    1    3    3  502    0  0.10267996621E+04  0.81374225327E+03 -0.13072948647E+04  0.18508203462E+04  0.46999998093E+01 0. -1.
       -5    1    3    3    0  502 -0.10267996621E+04 -0.81374225327E+03  0.17580199586E+04  0.21925214402E+04  0.46999998093E+01 0.  1.
</event>
<event>
 5   0  0.8329875E-09  0.4000491E+04  0.7818609E-02  0.8004447E-01
       -1   -1    0    0    0  501  0.00000000000E+00  0.00000000000E+00  0.23819104610E+04  0.23819104610E+04  0.50400001928E-02 0.  1.
        1   -1    0    0  501    0  0.00000000000E+00  0.00000000000E+00 -0.16797366412E+04  0.16797366413E+04  0.50400001928E-02 0. -1.
    10030    2    1    2    0    0  0.00000000000E+00  0.00000000000E+00  0.70217381976E+03  0.40616471023E+04  0.40004911086E+04 0.  0.
        3    1    3    3  502    0 -0.85752725969E+03 -0.15817170505E+04 -0.53623014498E+03  0.18774249938E+04  0.10100000352E+00 0. -1.
       -3    1    3    3    0  502  0.85752725969E+03  0.15817170505E+04  0.12384039647E+04  0.21842221084E+04  0.10100000352E+00 0.  1.
</event>
<event>
 5   0  0.8329875E-09  0.3997705E+04  0.7818609E-02  0.8005010E-01
       -1   -1    0    0    0  501  0.00000000000E+00  0.00000000000E+00  0.22134398002E+04  0.22134398002E+04  0.50400001928E-02 0. -1.
        1   -1    0    0  501    0  0.00000000000E+00  0.00000000000E+00 -0.18050685113E+04  0.18050685113E+04  0.50400001928E-02 0.  1.
    10030    2    1    2    0    0  0.00000000000E+00  0.00000000000E+00  0.40837128894E+03  0.40185083115E+04  0.39977045839E+04 0.  0.
        5    1    3    3  502    0 -0.87379665915E+03  0.55802935111E+03 -0.15136461023E+04  0.18346836161E+04  0.46999998093E+01 0.  1.
       -5    1    3    3    0  502  0.87379665915E+03 -0.55802935111E+03  0.19220173912E+04  0.21838246954E+04  0.46999998093E+01 0. -1.
</event>
<event>
 5   0  0.2599332E-08  0.4001516E+04  0.7818609E-02  0.8004241E-01
       -2   -1    0    0    0  501  0.00000000000E+00  0.00000000000E+00  0.27450970430E+04  0.27450970430E+04  0.25500000920E-02 0. -1.
        2   -1    0    0  501    0  0.00000000000E+00  0.00000000000E+00 -0.14582484072E+04  0.14582484072E+04  0.25500000920E-02 0.  1.
    10030    2    1    2    0    0  0.00000000000E+00  0.00000000000E+00  0.12868486358E+04  0.42033454502E+04  0.40015164078E+04 0.  0.
        2    1    3    3  502    0 -0.88674600633E+03 -0.66290969386E+03  0.23939931548E+04  0.26376070532E+04  0.25500000920E-02 0. -1.
       -2    1    3    3    0  502  0.88674600633E+03  0.66290969386E+03 -0.11071445190E+04  0.15657383970E+04  0.25500000920E-02 0.  1.
</event>
<event>
 5   0  0.8329875E-09  0.4007989E+04  0.7818609E-02  0.8002937E-01
       -1   -1    0    0    0  501  0.00000000000E+00  0.00000000000E+00  0.15201579735E+04  0.15201579735E+04  0.50400001928E-02 0.  1.
        1   -1    0    0  501    0  0.00000000000E+00  0.00000000000E+00 -0.26418264402E+04  0.26418264402E+04  0.50400001928E-02 0. -1.
    10030    2    1    2    0    0  0.00000000000E+00  0.00000000000E+00 -0.11216684667E+04  0.41619844137E+04  0.40079887862E+04 0.  0.
        4    1    3    3  502    0  0.80955614623E+02  0.12513120944E+04  0.10624478648E+04  0.16435123508E+04  0.12699999809E+01 0.  1.
       -4    1    3    3    0  502 -0.80955614623E+02 -0.12513120944E+04 -0.21841163315E+04  0.25184720629E+04  0.12699999809E+01 0. -1.
</event>
<event>
 5   0  0.2650452E-08  0.3993852E+04  0.7818609E-02  0.8005788E-01
       -2   -1    0    0    0  501  0.00000000000E+00  0.00000000000E+00  0.19520510999E+04  0.19520510999E+04  0.25500000920E-02 0.  1.
        2   -1    0    0  501    0  0.00000000000E+00  0.00000000000E+00 -0.20428320362E+04  0.20428320362E+04  0.25500000920E-02 0. -1.
    10030    2    1    2    0    0  0.00000000000E+00  0.00000000000E+00 -0.90780936314E+02  0.39948831361E+04  0.39938515361E+04 0.  0.
        3    1    3    3  502    0  0.80918243979E+03  0.10368522352E+03 -0.18685476499E+04  0.20388715449E+04  0.10100000352E+00 0. -1.
       -3    1    3    3    0  502 -0.80918243979E+03 -0.10368522352E+03  0.17777667136E+04  0.19560115911E+04  0.10100000352E+00 0.  1.
</event>
<event>
 5   0  0.2587493E-08  0.4001951E+04  0.7818609E-02  0.8004153E-01
        2   -1    0    0  501    0  0.00000000000E+00  0.00000000000E+00  0.22466503296E+04  0.22466503296E+04  0.25500000920E-02 0.  1.
       -2   -1    0    0    0  501  0.00000000000E+00  0.00000000000E+00 -0.17821656136E+04  0.17821656136E+04  0.25500000920E-02 0. -1.
    10030    2    1    2    0    0  0.00000000000E+00  0.00000000000E+00  0.46448471598E+03  0.40288159432E+04  0.40019510058E+04 0.  0.
        5    1    3    3  502    0 -0.94866538731E+03  0.37371387721E+03  0.19655006181E+04  0.22142364031E+04  0.46999998093E+01 0.  1.
       -5    1    3    3    0  502  0.94866538731E+03 -0.37371387721E+03 -0.15010159021E+04  0.18145795401E+04  0.46999998093E+01 0. -1.
</event>
<event>
 5   0  0.2612363E-08  0.3983226E+04  0.7818609E-02  0.8007939E-01
        2   -1    0    0  501    0  0.00000000000E+00  0.00000000000E+00  0.21573795570E+04  0.21573795570E+04  0.25500000920E-02 0. -1.
       -2   -1    0    0    0  501  0.00000000000E+00  0.00000000000E+00 -0.18385837614E+04  0.18385837614E+04  0.25500000920E-02 0.  1.
    10030    2    1    2    0    0  0.00000000000E+00  0.00000000000E+00  0.31879579560E+03  0.39959633184E+04  0.39832263409E+04 0.  0.
        4    1    3    3  502    0 -0.51971934757E+03 -0.30731167014E+03  0.20633530696E+04  0.21498781746E+04  0.12699999809E+01 0. -1.
       -4    1    3    3    0  502  0.51971934757E+03  0.30731167014E+03 -0.17445572740E+04  0.18460851438E+04  0.12699999809E+01 0.  1.
</event>
<event>
 5   0  0.8329875E-09  0.3994841E+04  0.7818609E-02  0.8005588E-01
       -1   -1    0    0    0  501  0.00000000000E+00  0.00000000000E+00  0.20675889996E+04  0.20675889997E+04  0.50400001928E-02 0. -1.
        1   -1    0    0  501    0  0.00000000000E+00  0.00000000000E+00 -0.19296329480E+04  0.19296329480E+04  0.50400001928E-02 0.  1.
    10030    2    1    2    0    0  0.00000000000E+00  0.00000000000E+00  0.13795605161E+03  0.39972219477E+04  0.39948406009E+04 0.  0.
        1    1    3    3  502    0 -0.51395747706E+02  0.17255052734E+04  0.10744043003E+04  0.20333112334E+04  0.50400001928E-02 0. -1.
       -1    1    3    3    0  502  0.51395747706E+02 -0.17255052734E+04 -0.93644824866E+03  0.19639107143E+04  0.50400001928E-02 0.  1.
</event>
<event>
 5   0  0.2746876E-08  0.4001408E+04  0.7818609E-02  0.8004263E-01
        2   -1    0    0  501    0  0.00000000000E+00  0.00000000000E+00  0.22598353932E+04  0.22598353932E+04  0.25500000920E-02 0. -1.
       -2   -1    0    0    0  501  0.00000000000E+00  0.00000000000E+00 -0.17712869583E+04  0.17712869583E+04  0.25500000920E-02 0.  1.
    10030    2    1    2    0    0  0.00000000000E+00  0.00000000000E+00  0.48854843494E+03  0.40311223516E+04  0.40014082321E+04 0.  0.
        1    1    3    3  502    0  0.15307198681E+04 -0.99752627089E+03 -0.57704361361E+03  0.19160222618E+04  0.50400001928E-02 0.  1.
       -1    1    3    3    0  502 -0.15307198681E+04  0.99752627089E+03  0.10655920485E+04  0.21151000897E+04  0.50400001928E-02 0. -1.
</event>
<event>
 5   0  0.8329875E-09  0.3998123E+04  0.7818609E-02  0.8004925E-01
        1   -1    0    0  501    0  0.00000000000E+00  0.00000000000E+00  0.21063728393E+04  0.21063728393E+04  0.50400001928E-02 0. -1.
       -1   -1    0    0    0  501  0.00000000000E+00  0.00000000000E+00 -0.18972173881E+04  0.18972173881E+04  0.50400001928E-02 0.  1.
    10030    2    1    2    0    0  0.00000000000E+00  0.00000000000E+00  0.20915545123E+03  0.40035902274E+04  0.39981231479E+04 0.  0.
        1    1    3    3  502    0 -0.30486664691E+03  0.77690009722E+03  0.19235774753E+04  0.20968232489E+04  0.50400001928E-02 0. -1.
       -1    1    3    3    0  502  0.30486664691E+03 -0.77690009722E+03 -0.17144220241E+04  0.19067669785E+04  0.50400001928E-02 0.  1.
</event>
<event>
 5   0  0.2612363E-08  0.4042755E+04  0.7818609E-02  0.7995977E-01
       -2   -1    0    0    0  501  0.00000000000E+00  0.00000000000E+00  0.12362375968E+04  0.12362375968E+04  0.25500000920E-02 0.  1.
        2   -1    0    0  501    0  0.00000000000E+00  0.00000000000E+00 -0.33051630725E+04  0.33051630725E+04  0.25500000920E-02 0. -1.
    10030    2    1    2    0    0  0.00000000000E+00  0.00000000000E+00 -0.20689254757E+04  0.45414006693E+04  0.40427549289E+04 0.  0.
        4    1    3    3  502    0  0.75742039877E+03  0.32540535290E+03 -0.31077508075E+04  0.32152279855E+04  0.12699999809E+01 0. -1.
       -4    1    3    3    0  502 -0.75742039877E+03 -0.32540535290E+03  0.10388253318E+04  0.13261726838E+04  0.12699999809E+01 0.  1.
</event>
<event>
 5   0  0.8329875E-09  0.3999584E+04  0.7818609E-02  0.8004631E-01
        1   -1    0    0  501    0  0.00000000000E+00  0.00000000000E+00  0.18366401807E+04  0.18366401807E+04  0.50400001928E-02 0.  1.
       -1   -1    0    0    0  501  0.00000000000E+00  0.00000000000E+00 -0.21774365955E+04  0.21774365955E+04  0.50400001928E-02 0. -1.
    10030    2    1    2    0    0  0.00000000000E+00  0.00000000000E+00 -0.34079641483E+03  0.40140767762E+04  0.39995837494E+04 0.  0.
        1    1    3    3  502    0  0.28146818381E+02 -0.19201618811E+04 -0.73041088648E+03  0.20545836454E+04  0.50400001928E-02 0. -1.
       -1    1    3    3    0  502 -0.28146818381E+02  0.19201618811E+04  0.38961447164E+03  0.19594931307E+04  0.50400001928E-02 0.  1.
</event>
<event>
 5   0  0.2587493E-08  0.4001940E+04  0.7818609E-02  0.8004155E-01
        2   -1    0    0  501    0  0.00000000000E+00  0.00000000000E+00  0.22799259157E+04  0.22799259157E+04  0.25500000920E-02 0. -1.
       -2   -1    0    0    0  501  0.00000000000E+00  0.00000000000E+00 -0.17561447906E+04  0.17561447906E+04  0.25500000920E-02 0.  1.
    10030    2    1    2    0    0  0.00000000000E+00  0.00000000000E+00  0.52378112511E+03  0.40360707063E+04  0.40019395396E+04 0.  0.
        5    1    3    3  502    0 -0.98420210184E+03 -0.68374724230E+03  0.18779594307E+04  0.22277607102E+04  0.46999998093E+01 0. -1.
       -5    1    3    3    0  502  0.98420210184E+03  0.68374724230E+03 -0.13541783056E+04  0.18083099961E+04  0.46999998093E+01 0.  1.
</event>
<event>
 5   0  0.2587493E-08  0.3993608E+04  0.7818609E-02  0.8005837E-01
        2   -1    0    0  501    0  0.00000000000E+00  0.00000000000E+00  0.23418860384E+04  0.23418860384E+04  0.25500000920E-02 0.  1.
       -2   -1    0    0    0  501  0.00000000000E+00  0.00000000000E+00 -0.17025704027E+04  0.17025704027E+04  0.25500000920E-02 0. -1.
    10030    2    1    2    0    0  0.00000000000E+00  0.00000000000E+00  0.63931563579E+03  0.40444564411E+04  0.39936078202E+04 0.  0.
        5    1    3    3  502    0  0.35860451151E+03  0.43273256755E+03  0.22601307508E+04  0.23289628102E+04  0.46999998093E+01 0.  1.
       -5    1    3    3    0  502 -0.35860451151E+03 -0.43273256755E+03 -0.16208151150E+04  0.17154936309E+04  0.46999998093E+01 0. -1.
</event>
<event>
 5   0  0.2599332E-08  0.4001874E+04  0.7818609E-02  0.8004169E-01
        2   -1    0    0  501    0  0.00000000000E+00  0.00000000000E+00  0.15802362237E+04  0.15802362237E+04  0.25500000920E-02 0.  1.
       -2   -1    0    0    0  501  0.00000000000E+00  0.00000000000E+00 -0.25336392605E+04  0.25336392605E+04  0.25500000920E-02 0. -1.
    10030    2    1    2    0    0  0.00000000000E+00  0.00000000000E+00 -0.95340303685E+03  0.41138754842E+04  0.40018738297E+04 0.  0.
        2    1    3    3  502    0 -0.19545428015E+02  0.11750451761E+03 -0.25299911187E+04  0.25327937927E+04  0.25500000920E-02 0. -1.
       -2    1    3    3    0  502  0.19545428015E+02 -0.11750451761E+03  0.15765880819E+04  0.15810816915E+04  0.25500000920E-02 0.  1.
</event>
<event>
 5   0  0.2599332E-08  0.4001731E+04  0.7818609E-02  0.8004197E-01
        2   -1    0    0  501    0  0.00000000000E+00  0.00000000000E+00  0.22790329279E+04  0.22790329279E+04  0.25500000920E-02 0.  1.
       -2   -1    0    0    0  501  0.00000000000E+00  0.00000000000E+00 -0.17566498741E+04  0.17566498741E+04  0.25500000920E-02 0. -1.
    10030    2    1    2    0    0  0.00000000000E+00  0.00000000000E+00  0.52238305378E+03  0.40356828019E+04  0.40017310783E+04 0.  0.
        2    1    3    3  502    0 -0.24547658914E+03 -0.16781101259E+04 -0.80948945518E+03  0.18792513213E+04  0.25500000920E-02 0. -1.
       -2    1    3    3    0  502  0.24547658914E+03  0.16781101259E+04  0.13318725090E+04  0.21564314806E+04  0.25500000920E-02 0.  1.
</event>
<event>
 5   0  0.2746876E-08  0.4001155E+04  0.7818609E-02  0.8004314E-01
        2   -1    0    0  501    0  0.00000000000E+00  0.00000000000E+00  0.19776913401E+04  0.19776913401E+04  0.25500000920E-02 0.  1.
       -2   -1    0    0    0  501  0.00000000000E+00  0.00000000000E+00 -0.20237286973E+04  0.20237286973E+04  0.25500000920E-02 0. -1.
    10030    2    1    2    0    0  0.00000000000E+00  0.00000000000E+00 -0.46037357241E+02  0.40014200374E+04  0.40011551928E+04 0.  0.
        1    1    3    3  502    0 -0.77393840504E+03  0.43124853833E+03  0.17707986764E+04  0.19800716929E+04  0.50400001928E-02 0.  1.
       -1    1    3    3    0  502  0.77393840504E+03 -0.43124853833E+03 -0.18168360336E+04  0.20213483445E+04  0.50400001928E-02 0. -1.
</event>
<event>
 5   0  0.8329875E-09  0.3995653E+04  0.7818609E-02  0.8005424E-01
        1   -1    0    0  501    0  0.00000000000E+00  0.00000000000E+00  0.13945142808E+04  0.13945142808E+04  0.50400001928E-02 0.  1.
       -1   -1    0    0    0  501  0.00000000000E+00  0.00000000000E+00 -0.28621510073E+04  0.28621510073E+04  0.50400001928E-02 0. -1.
    10030    2    1    2    0    0  0.00000000000E+00  0.00000000000E+00 -0.14676367265E+04  0.42566652881E+04  0.39956528646E+04 0.  0.
        5    1    3    3  502    0  0.33565624978E+03  0.14314884736E+04  0.70711429589E+03  0.16315198698E+04  0.46999998093E+01 0.  1.
       -5    1    3    3    0  502 -0.33565624978E+03 -0.14314884736E+04 -0.21747510224E+04  0.26251454184E+04  0.46999998093E+01 0. -1.
</event>
<event>
 5   0  0.8329875E-09  0.4015838E+04  0.7818609E-02  0.8001359E-01
       -1   -1    0    0    0  501  0.00000000000E+00  0.00000000000E+00  0.15104716721E+04  0.15104716721E+04  0.50400001928E-02 0.  1.
        1   -1    0    0  501    0  0.00000000000E+00  0.00000000000E+00 -0.26691918252E+04  0.26691918252E+04  0.50400001928E-02 0. -1.
    10030    2    1    2    0    0  0.00000000000E+00  0.00000000000E+00 -0.11587201531E+04  0.41796634973E+04  0.40158379645E+04 0.  0.
        3    1    3    3  502    0 -0.89369396422E+03  0.84129777144E+03 -0.22332966722E+04  0.25483494419E+04  0.10100000352E+00 0. -1.
       -3    1    3    3    0  502  0.89369396422E+03 -0.84129777144E+03  0.10745765190E+04  0.16313140554E+04  0.10100000352E+00 0.  1.
</event>
<event>
 5   0  0.2650452E-08  0.3998543E+04  0.7818609E-02  0.8004841E-01
       -2   -1    0    0    0  501  0.00000000000E+00  0.00000000000E+00  0.14181270970E+04  0.14181270970E+04  0.25500000920E-02 0.  1.
        2   -1    0    0  501    0  0.00000000000E+00  0.00000000000E+00 -0.28185669395E+04  0.28185669395E+04  0.25500000920E-02 0. -1.
    10030    2    1    2    0    0  0.00000000000E+00  0.00000000000E+00 -0.14004398426E+04  0.42366940365E+04  0.39985428103E+04 0.  0.
        3    1    3    3  502    0  0.17795989118E+04  0.55660621416E+03 -0.14645019954E+04  0.23709805713E+04  0.10100000352E+00 0. -1.
       -3    1    3    3    0  502 -0.17795989118E+04 -0.55660621416E+03  0.64062152812E+02  0.18657134652E+04  0.10100000352E+00 0.  1.
</event>
<event>
 5   0  0.8329875E-09  0.3992712E+04  0.7818609E-02  0.8006018E-01
       -1   -1    0    0    0  501  0.00000000000E+00  0.00000000000E+00  0.24200805482E+04  0.24200805482E+04  0.50400001928E-02 0. -1.
        1   -1    0    0  501    0  0.00000000000E+00  0.00000000000E+00 -0.16468199981E+04  0.16468199981E+04  0.50400001928E-02 0.  1.
    10030    2    1    2    0    0  0.00000000000E+00  0.00000000000E+00  0.77326055010E+03  0.40669005462E+04  0.39927118823E+04 0.  0.
        1    1    3    3  502    0  0.62301584441E+03 -0.56500519213E+03  0.22308126160E+04  0.23840940706E+04  0.50400001928E-02 0. -1.
       -1    1    3    3    0  502 -0.62301584441E+03  0.56500519213E+03 -0.14575520659E+04  0.16828064756E+04  0.50400001928E-02 0.  1.
</event>
<event>
 5   0  0.2599332E-08  0.3972279E+04  0.7818609E-02  0.8010162E-01
       -2   -1    0    0    0  501  0.00000000000E+00  0.00000000000E+00  0.26160414206E+04  0.26160414206E+04  0.25500000920E-02 0.  1.
        2   -1    0    0  501    0  0.00000000000E+00  0.00000000000E+00 -0.15079081377E+04  0.15079081377E+04  0.25500000920E-02 0. -1.
    10030    2    1    2    0    0  0.00000000000E+00  0.00000000000E+00  0.11081332830E+04  0.41239495583E+04  0.39722790167E+04 0.  0.
        2    1    3    3  502    0 -0.95587844880E+03 -0.16383945272E+04 -0.57236639429E+02  0.18977134316E+04  0.25500000920E-02 0. -1.
       -2    1    3    3    0  502  0.95587844880E+03  0.16383945272E+04  0.11653699224E+04  0.22262361267E+04  0.25500000920E-02 0.  1.
</event>
<event>
 5   0  0.8329875E-09  0.3993205E+04  0.7818609E-02  0.8005919E-01
       -1   -1    0    0    0  501  0.00000000000E+00  0.00000000000E+00  0.19438101395E+04  0.19438101395E+04  0.50400001928E-02 0.  1.
        1   -1    0    0  501    0  0.00000000000E+00  0.00000000000E+00 -0.20508285500E+04  0.20508285500E+04  0.50400001928E-02 0. -1.
    10030    2    1    2    0    0  0.00000000000E+00  0.00000000000E+00 -0.10701841053E+03  0.39946386895E+04  0.39932048932E+04 0.  0.
        4    1    3    3  502    0  0.19948383647E+04  0.83582094815E+02 -0.60836379531E+02  0.19975156435E+04  0.12699999809E+01 0. -1.
       -4    1    3    3    0  502 -0.19948383647E+04 -0.83582094815E+02 -0.46182030996E+02  0.19971230460E+04  0.12699999809E+01 0.  1.
</event>
<event>
 5   0  0.8329875E-09  0.3954207E+04  0.7818609E-02  0.8013849E-01
        1   -1    0    0  501    0  0.00000000000E+00  0.00000000000E+00  0.26170825375E+04  0.26170825375E+04  0.50400001928E-02 0.  1.
       -1   -1    0    0    0  501  0.00000000000E+00  0.00000000000E+00 -0.14936242953E+04  0.14936242953E+04  0.50400001928E-02 0. -1.
    10030    2    1    2    0    0  0.00000000000E+00  0.00000000000E+00  0.11234582422E+04  0.41107068329E+04  0.39542069045E+04 0.  0.
        1    1    3    3  502    0 -0.51452290598E+03  0.19089798924E+04  0.56183570420E+03  0.20553825456E+04  0.50400001928E-02 0.  1.
       -1    1    3    3    0  502  0.51452290598E+03 -0.19089798924E+04  0.56162253804E+03  0.20553242872E+04  0.50400001928E-02 0. -1.
</event>
<event>
 5   0  0.8329875E-09  0.4009428E+04  0.7818609E-02  0.8002647E-01
        1   -1    0    0  501    0  0.00000000000E+00  0.00000000000E+00  0.19603404692E+04  0.19603404693E+04  0.50400001928E-02 0.  1.
       -1   -1    0    0    0  501  0.00000000000E+00  0.00000000000E+00 -0.20500918702E+04  0.20500918702E+04  0.50400001928E-02 0. -1.
    10030    2    1    2    0    0  0.00000000000E+00  0.00000000000E+00 -0.89751400994E+02  0.40104323395E+04  0.40094279188E+04 0.  0.
        2    1    3    3  502    0 -0.93889986637E+03  0.76863461101E+03  0.15513141344E+04  0.19694942670E+04  0.25500000920E-02 0.  1.
       -2    1    3    3    0  502  0.93889986637E+03 -0.76863461101E+03 -0.16410655354E+04  0.20409380725E+04  0.25500000920E-02 0. -1.
</event>
<event>
 5   0  0.8329875E-09  0.4002905E+04  0.7818609E-02  0.8003961E-01
       -1   -1    0    0    0  501  0.00000000000E+00  0.00000000000E+00  0.15665071047E+04  0.15665071047E+04  0.50400001928E-02 0. -1.
        1   -1    0    0  501    0  0.00000000000E+00  0.00000000000E+00 -0.25571614381E+04  0.25571614381E+04  0.50400001928E-02 0.  1.
    10030    2    1    2    0    0  0.00000000000E+00  0.00000000000E+00 -0.99065433346E+03  0.41236685428E+04  0.40029047256E+04 0.  0.
        5    1    3    3  502    0  0.16766602732E+04  0.10903513184E+04 -0.41732084296E+03  0.20430943310E+04  0.46999998093E+01 0.  1.
       -5    1    3    3    0  502 -0.16766602732E+04 -0.10903513184E+04 -0.57333349050E+03  0.20805742118E+04  0.46999998093E+01 0. -1.
</event>
<event>
 5   0  0.2612363E-08  0.4001416E+04  0.7818609E-02  0.8004261E-01
       -2   -1    0    0    0  501  0.00000000000E+00  0.00000000000E+00  0.22560349025E+04  0.22560349025E+04  0.25500000920E-02 0. -1.
        2   -1    0    0  501    0  0.00000000000E+00  0.00000000000E+00 -0.17742776058E+04  0.17742776058E+04  0.25500000920E-02 0.  1.
    10030    2    1    2    0    0  0.00000000000E+00  0.00000000000E+00  0.48175729671E+03  0.40303125084E+04  0.40014158522E+04 0.  0.
        4    1    3    3  502    0 -0.74699084748E+03  0.19115767421E+03 -0.16186101211E+04  0.17928850827E+04  0.12699999809E+01 0.  1.
       -4    1    3    3    0  502  0.74699084748E+03 -0.19115767421E+03  0.21003674178E+04  0.22374274257E+04  0.12699999809E+01 0. -1.
</event>
<event>
 5   0  0.2612363E-08  0.4010590E+04  0.7818609E-02  0.8002414E-01
        2   -1    0    0  501    0  0.00000000000E+00  0.00000000000E+00  0.22080139213E+04  0.22080139214E+04  0.25500000920E-02 0. -1.
       -2   -1    0    0    0  501  0.00000000000E+00  0.00000000000E+00 -0.18211877793E+04  0.18211877793E+04  0.25500000920E-02 0.  1.
    10030    2    1    2    0    0  0.00000000000E+00  0.00000000000E+00  0.38682614202E+03  0.40292017007E+04  0.40105899666E+04 0.  0.
        4    1    3    3  502    0 -0.11140325066E+04  0.27320467979E+03  0.18458857382E+04  0.21732475685E+04  0.12699999809E+01 0. -1.
       -4    1    3    3    0  502  0.11140325066E+04 -0.27320467979E+03 -0.14590595961E+04  0.18559541322E+04  0.12699999809E+01 0.  1.
</event>
<event>
 5   0  0.8329875E-09  0.3999714E+04  0.7818609E-02  0.8004604E-01
       -1   -1    0    0    0  501  0.00000000000E+00  0.00000000000E+00  0.20467730983E+04  0.20467730983E+04  0.50400001928E-02 0.  1.
        1   -1    0    0  501    0  0.00000000000E+00  0.00000000000E+00 -0.19540160917E+04  0.19540160917E+04  0.50400001928E-02 0. -1.
    10030    2    1    2    0    0  0.00000000000E+00  0.00000000000E+00  0.92757006593E+02  0.40007891899E+04  0.39997137748E+04 0.  0.
        2    1    3    3  502    0 -0.73546022149E+02 -0.19379750972E+04 -0.44188292433E+03  0.19890744113E+04  0.25500000920E-02 0. -1.
       -2    1    3    3    0  502  0.73546022149E+02  0.19379750972E+04  0.53463993092E+03  0.20117147786E+04  0.25500000920E-02 0.  1.
</event>
<event>
 5   0  0.2612363E-08  0.3997701E+04  0.7818609E-02  0.8005010E-01
       -2   -1    0    0    0  501  0.00000000000E+00  0.00000000000E+00  0.24736790648E+04  0.24736790648E+04  0.25500000920E-02 0. -1.
        2   -1    0    0  501    0  0.00000000000E+00  0.00000000000E+00 -0.16151667152E+04  0.16151667152E+04  0.25500000920E-02 0.  1.
    10030    2    1    2    0    0  0.00000000000E+00  0.00000000000E+00  0.85851234957E+03  0.40888457800E+04  0.39977013843E+04 0.  0.
        4    1    3    3  502    0 -0.15085372784E+04  0.11678610625E+04  0.10393610805E+04  0.21725232450E+04  0.12699999809E+01 0.  1.
       -4    1    3    3    0  502  0.15085372784E+04 -0.11678610625E+04 -0.18084873089E+03  0.19163225350E+04  0.12699999809E+01 0. -1.
</event>
<event>
 5   0  0.2746876E-08  0.3993665E+04  0.7818609E-02  0.8005826E-01
        2   -1    0    0  501    0  0.00000000000E+00  0.00000000000E+00  0.23356398212E+04  0.23356398212E+04  0.25500000920E-02 0. -1.
       -2   -1    0    0    0  501  0.00000000000E+00  0.00000000000E+00 -0.17071720799E+04  0.17071720799E+04  0.25500000920E-02 0.  1.
    10030    2    1    2    0    0  0.00000000000E+00  0.00000000000E+00  0.62846774128E+03  0.40428119011E+04  0.39936645285E+04 0.  0.
        1    1    3    3  502    0  0.13138276901E+04 -0.10555959355E+04 -0.76988577301E+03  0.18528761648E+04  0.50400001928E-02 0.  1.
       -1    1    3    3    0  502 -0.13138276901E+04  0.10555959355E+04  0.13983535143E+04  0.21899357364E+04  0.50400001928E-02 0. -1.
</event>
<event>
 5   0  0.2612363E-08  0.4004376E+04  0.7818609E-02  0.8003664E-01
        2   -1    0    0  501    0  0.00000000000E+00  0.00000000000E+00  0.16232243076E+04  0.16232243076E+04  0.25500000920E-02 0.  1.
       -2   -1    0    0    0  501  0.00000000000E+00  0.00000000000E+00 -0.24696256661E+04  0.24696256661E+04  0.25500000920E-02 0. -1.
    10030    2    1    2    0    0  0.00000000000E+00  0.00000000000E+00 -0.84640135848E+03  0.40928499737E+04  0.40043758125E+04 0.  0.
        4    1    3    3  502    0 -0.18574190958E+04  0.37141269170E+03 -0.10862254378E+04  0.21835385043E+04  0.12699999809E+01 0. -1.
       -4    1    3    3    0  502  0.18574190958E+04 -0.37141269170E+03  0.23982407933E+03  0.19093114694E+04  0.12699999809E+01 0.  1.
</event>
<event>
 5   0  0.8329875E-09  0.4002826E+04  0.7818609E-02  0.8003977E-01
       -1   -1    0    0    0  501  0.00000000000E+00  0.00000000000E+00  0.22946914783E+04  0.22946914783E+04  0.50400001928E-02 0.  1.
        1   -1    0    0  501    0  0.00000000000E+00  0.00000000000E+00 -0.17456180506E+04  0.17456180507E+04  0.50400001928E-02 0. -1.
    10030    2    1    2    0    0  0.00000000000E+00  0.00000000000E+00  0.54907342762E+03  0.40403095289E+04  0.40028264340E+04 0.  0.
        5    1    3    3  502    0  0.11503381842E+04 -0.83084661987E+03 -0.11500794180E+04  0.18265510673E+04  0.46999998093E+01 0. -1.
       -5    1    3    3    0  502 -0.11503381842E+04  0.83084661987E+03  0.16991528456E+04  0.22137584616E+04  0.46999998093E+01 0.  1.
</event>
<event>
 5   0  0.2587493E-08  0.3996789E+04  0.7818609E-02  0.8005195E-01
        2   -1    0    0  501    0  0.00000000000E+00  0.00000000000E+00  0.27394117224E+04  0.27394117224E+04  0.25500000920E-02 0.  1.
       -2   -1    0    0    0  501  0.00000000000E+00  0.00000000000E+00 -0.14578243610E+04  0.14578243610E+04  0.25500000920E-02 0. -1.
    10030    2    1    2    0    0  0.00000000000E+00  0.00000000000E+00  0.12815873614E+04  0.41972360834E+04  0.39967892833E+04 0.  0.
        5    1    3    3  502    0  0.88795182972E+03 -0.17161775209E+04  0.10548875819E+03  0.19351676163E+04  0.46999998093E+01 0.  1.
       -5    1    3    3    0  502 -0.88795182972E+03  0.17161775209E+04  0.11760986032E+04  0.22620684671E+04  0.46999998093E+01 0. -1.
</event>
<event>
 5   0  0.8329875E-09  0.4001570E+04  0.7818609E-02  0.8004230E-01
        1   -1    0    0  501    0  0.00000000000E+00  0.00000000000E+00  0.19231126335E+04  0.19231126335E+04  0.50400001928E-02 0.  1.
       -1   -1    0    0    0  501  0.00000000000E+00  0.00000000000E+00 -0.20815941330E+04  0.20815941330E+04  0.50400001928E-02 0. -1.
    10030    2    1    2    0    0  0.00000000000E+00  0.00000000000E+00 -0.15848149953E+03  0.40047067665E+04  0.40015696795E+04 0.  0.
        5    1    3    3  502    0 -0.15092547609E+04 -0.32729151299E+03 -0.13523025519E+04  0.20527332875E+04  0.46999998093E+01 0. -1.
       -5    1    3    3    0  502  0.15092547609E+04  0.32729151299E+03  0.11938210523E+04  0.19519734790E+04  0.46999998093E+01 0.  1.
</event>
<event>
 5   0  0.8329875E-09  0.4024554E+04  0.7818609E-02  0.7999612E-01
       -1   -1    0    0    0  501  0.00000000000E+00  0.00000000000E+00  0.21818436155E+04  0.21818436155E+04  0.50400001928E-02 0.  1.
        1   -1    0    0  501    0  0.00000000000E+00  0.00000000000E+00 -0.18558882532E+04  0.18558882532E+04  0.50400001928E-02 0. -1.
    10030    2    1    2    0    0  0.00000000000E+00  0.00000000000E+00  0.32595536231E+03  0.40377318687E+04  0.40245536082E+04 0.  0.
        3    1    3    3  502    0 -0.25363232598E+03 -0.46223538975E+03  0.21113116399E+04  0.21761497566E+04  0.10100000352E+00 0.  1.
       -3    1    3    3    0  502  0.25363232598E+03  0.46223538975E+03 -0.17853562775E+04  0.18615821122E+04  0.10100000352E+00 0. -1.
</event>
<event>
 5   0  0.2650452E-08  0.4004235E+04  0.7818609E-02  0.8003693E-01
        2   -1    0    0  501    0  0.00000000000E+00  0.00000000000E+00  0.24191232269E+04  0.24191232269E+04  0.25500000920E-02 0.  1.
       -2   -1    0    0    0  501  0.00000000000E+00  0.00000000000E+00 -0.16569946515E+04  0.16569946515E+04  0.25500000920E-02 0. -1.
    10030    2    1    2    0    0  0.00000000000E+00  0.00000000000E+00  0.76212857547E+03  0.40761178784E+04  0.40042348824E+04 0.  0.
        3    1    3    3  502    0  0.15239092417E+04 -0.10480367768E+04 -0.39937600265E+03  0.18921367985E+04  0.10100000352E+00 0. -1.
       -3    1    3    3    0  502 -0.15239092417E+04  0.10480367768E+04  0.11615045781E+04  0.21839810799E+04  0.10100000352E+00 0.  1.
</event>
<event>
 5   0  0.8329875E-09  0.3998853E+04  0.7818609E-02  0.8004778E-01
        1   -1    0    0  501    0  0.00000000000E+00  0.00000000000E+00  0.28700681486E+04  0.28700681486E+04  0.50400001928E-02 0.  1.
       -1   -1    0    0    0  501  0.00000000000E+00  0.00000000000E+00 -0.13928959316E+04  0.13928959317E+04  0.50400001928E-02 0. -1.
    10030    2    1    2    0    0  0.00000000000E+00  0.00000000000E+00  0.14771722170E+04  0.42629640803E+04  0.39988529594E+04 0.  0.
        1    1    3    3  502    0 -0.13010457534E+04  0.15160997302E+04  0.65311732298E+03  0.21018660000E+04  0.50400001928E-02 0. -1.
       -1    1    3    3    0  502  0.13010457534E+04 -0.15160997302E+04  0.82405489400E+03  0.21610980803E+04  0.50400001928E-02 0.  1.
</event>
<event>
 5   0  0.8329875E-09  0.4001671E+04  0.7818609E-02  0.8004210E-01
        1   -1    0    0  501    0  0.00000000000E+00  0.00000000000E+00  0.13111144709E+04  0.13111144709E+04  0.50400001928E-02 0. -1.
       -1   -1    0    0    0  501  0.00000000000E+00  0.00000000000E+00 -0.30533887374E+04  0.30533887374E+04  0.50400001928E-02 0.  1.
    10030    2    1    2    0    0  0.00000000000E+00  0.00000000000E+00 -0.17422742665E+04  0.43645032083E+04  0.40016707305E+04 0.  0.
        4    1    3    3  502    0 -0.17204697360E+04  0.98605883036E+03 -0.58049363487E+03  0.20662290779E+04  0.12699999809E+01 0.  1.
       -4    1    3    3    0  502  0.17204697360E+04 -0.98605883036E+03 -0.11617806317E+04  0.22982741304E+04  0.12699999809E+01 0. -1.
</event>
<event>
 5   0  0.8329875E-09  0.4003595E+04  0.7818609E-02  0.8003822E-01
       -1   -1    0    0    0  501  0.00000000000E+00  0.00000000000E+00  0.17416924360E+04  0.17416924360E+04  0.50400001928E-02 0.  1.
        1   -1    0    0  501    0  0.00000000000E+00  0.00000000000E+00 -0.23007469100E+04  0.23007469100E+04  0.50400001928E-02 0. -1.
    10030    2    1    2    0    0  0.00000000000E+00  0.00000000000E+00 -0.55905447393E+03  0.40424393460E+04  0.40035951296E+04 0.  0.
        5    1    3    3  502    0  0.18175745564E+04 -0.25750636174E+03 -0.10855736953E+04  0.21326929297E+04  0.46999998093E+01 0.  1.
       -5    1    3    3    0  502 -0.18175745564E+04  0.25750636174E+03  0.52651922139E+03  0.19097464163E+04  0.46999998093E+01 0. -1.
</event>
<event>
 5   0  0.8329875E-09  0.3983968E+04  0.7818609E-02  0.8007789E-01
        1   -1    0    0  501    0  0.00000000000E+00  0.00000000000E+00  0.22115992643E+04  0.22115992643E+04  0.50400001928E-02 0.  1.
       -1   -1    0    0    0  501  0.00000000000E+00  0.00000000000E+00 -0.17941770361E+04  0.17941770361E+04  0.50400001928E-02 0. -1.
    10030    2    1    2    0    0  0.00000000000E+00  0.00000000000E+00  0.41742222818E+03  0.40057763004E+04  0.39839681791E+04 0.  0.
        1    1    3    3  502    0  0.18559799648E+04  0.59416483952E+03  0.62365296771E+03  0.20461271980E+04  0.50400001928E-02 0.  1.
       -1    1    3    3    0  502 -0.18559799648E+04 -0.59416483952E+03 -0.20623073953E+03  0.19596491024E+04  0.50400001928E-02 0. -1.
</event>
<event>
 5   0  0.8329875E-09  0.4004596E+04  0.7818609E-02  0.8003620E-01
       -1   -1    0    0    0  501  0.00000000000E+00  0.00000000000E+00  0.20977610099E+04  0.20977610099E+04  0.50400001928E-02 0.  1.
        1   -1    0    0  501    0  0.00000000000E+00  0.00000000000E+00 -0.19111790464E+04  0.19111790464E+04  0.50400001928E-02 0. -1.
    10030    2    1    2    0    0  0.00000000000E+00  0.00000000000E+00  0.18658196344E+03  0.40089400563E+04  0.40045958031E+04 0.  0.
        1    1    3    3  502    0 -0.12606429525E+04 -0.37186146776E+03 -0.14188758113E+04  0.19340915627E+04  0.50400001928E-02 0. -1.
       -1    1    3    3    0  502  0.12606429525E+04  0.37186146776E+03  0.16054577748E+04  0.20748484936E+04  0.50400001928E-02 0.  1.
</event>
<event>
 5   0  0.2612363E-08  0.3999320E+04  0.7818609E-02  0.8004684E-01
       -2   -1    0    0    0  501  0.00000000000E+00  0.00000000000E+00  0.13036102083E+04  0.13036102083E+04  0.25500000920E-02 0. -1.
        2   -1    0    0  501    0  0.00000000000E+00  0.00000000000E+00 -0.30673584010E+04  0.30673584010E+04  0.25500000920E-02 0.  1.
    10030    2    1    2    0    0  0.00000000000E+00  0.00000000000E+00 -0.17637481927E+04  0.43709686093E+04  0.39993198041E+04 0.  0.
        4    1    3    3  502    0  0.15797217116E+04 -0.31172876590E+02  0.45764089954E+03  0.16449708934E+04  0.12699999809E+01 0. -1.
       -4    1    3    3    0  502 -0.15797217116E+04  0.31172876590E+02 -0.22213890923E+04  0.27259977158E+04  0.12699999809E+01 0.  1.
</event>
<event>
 5   0  0.8329875E-09  0.4023710E+04  0.7818609E-02  0.7999781E-01
       -1   -1    0    0    0  501  0.00000000000E+00  0.00000000000E+00  0.24421050439E+04  0.24421050439E+04  0.50400001928E-02 0. -1.
        1   -1    0    0  501    0  0.00000000000E+00  0.00000000000E+00 -0.16574060282E+04  0.16574060282E+04  0.50400001928E-02 0.  1.
    10030    2    1    2    0    0  0.00000000000E+00  0.00000000000E+00  0.78469901567E+03  0.40995110721E+04  0.40237095428E+04 0.  0.
        4    1    3    3  502    0  0.72200572039E+03  0.24261089513E+03 -0.15048271394E+04  0.16866115851E+04  0.12699999809E+01 0.  1.
       -4    1    3    3    0  502 -0.72200572039E+03 -0.24261089513E+03  0.22895261550E+04  0.24128994870E+04  0.12699999809E+01 0. -1.
</event>
<event>
 5   0  0.8329875E-09  0.3980793E+04  0.7818609E-02  0.8008432E-01
       -1   -1    0    0    0  501  0.00000000000E+00  0.00000000000E+00  0.17983310463E+04  0.17983310463E+04  0.50400001928E-02 0.  1.
        1   -1    0    0  501    0  0.00000000000E+00  0.00000000000E+00 -0.22029748104E+04  0.22029748104E+04  0.50400001928E-02 0. -1.
    10030    2    1    2    0    0  0.00000000000E+00  0.00000000000E+00 -0.40464376408E+03  0.40013058568E+04  0.39807928838E+04 0.  0.
        1    1    3    3  502    0  0.10184196089E+04  0.89392320813E+03 -0.16677097333E+04  0.21488445631E+04  0.50400001928E-02 0. -1.
       -1    1    3    3    0  502 -0.10184196089E+04 -0.89392320813E+03  0.12630659692E+04  0.18524612937E+04  0.50400001928E-02 0.  1.
</event>
<event>
 5   0  0.8329875E-09  0.4002267E+04  0.7818609E-02  0.8004089E-01
        1   -1    0    0  501    0  0.00000000000E+00  0.00000000000E+00  0.28336624002E+04  0.28336624002E+04  0.50400001928E-02 0. -1.
       -1   -1    0    0    0  501  0.00000000000E+00  0.00000000000E+00 -0.14132011966E+04  0.14132011966E+04  0.50400001928E-02 0.  1.
    10030    2    1    2    0    0  0.00000000000E+00  0.00000000000E+00  0.14204612036E+04  0.42468635968E+04  0.40022669050E+04 0.  0.
        3    1    3    3  502    0  0.16610168463E+04  0.88743820703E+03  0.14283563183E+04  0.23636254605E+04  0.10100000352E+00 0. -1.
       -3    1    3    3    0  502 -0.16610168463E+04 -0.88743820703E+03 -0.78951147537E+01  0.18832381363E+04  0.10100000352E+00 0.  1.
</event>
<event>
 5   0  0.8329875E-09  0.4020283E+04  0.7818609E-02  0.8000467E-01
        1   -1    0    0  501    0  0.00000000000E+00  0.00000000000E+00  0.17481644336E+04  0.17481644336E+04  0.50400001928E-02 0. -1.
       -1   -1    0    0    0  501  0.00000000000E+00  0.00000000000E+00 -0.23113784570E+04  0.23113784571E+04  0.50400001928E-02 0.  1.
    10030    2    1    2    0    0  0.00000000000E+00  0.00000000000E+00 -0.56321402346E+03  0.40595428906E+04  0.40202833787E+04 0.  0.
        5    1    3    3  502    0 -0.12730785042E+04 -0.53939165211E+03 -0.17549565054E+04  0.22341814291E+04  0.46999998093E+01 0.  1.
       -5    1    3    3    0  502  0.12730785042E+04  0.53939165211E+03  0.11917424819E+04  0.18253614616E+04  0.46999998093E+01 0. -1.
</event>
<event>
 5   0  0.2612363E-08  0.3915863E+04  0.7818609E-02  0.8021738E-01
        2   -1    0    0  501    0  0.00000000000E+00  0.00000000000E+00  0.29141846826E+04  0.29141846826E+04  0.25500000920E-02 0.  1.
       -2   -1    0    0    0  501  0.00000000000E+00  0.00000000000E+00 -0.13154605795E+04  0.13154605795E+04  0.25500000920E-02 0. -1.
    10030    2    1    2    0    0  0.00000000000E+00  0.00000000000E+00  0.15987241031E+04  0.42296452620E+04  0.39158626489E+04 0.  0.
        4    1    3    3  502    0  0.60449106731E+03  0.64669446519E+03 -0.10869658051E+04  0.14018271848E+04  0.12699999809E+01 0. -1.
       -4    1    3    3    0  502 -0.60449106731E+03 -0.64669446519E+03  0.26856899082E+04  0.28278180772E+04  0.12699999809E+01 0.  1.
</event>
<event>
 5   0  0.8329875E-09  0.4032713E+04  0.7818609E-02  0.7997980E-01
        1   -1    0    0  501    0  0.00000000000E+00  0.00000000000E+00  0.13284134717E+04  0.13284134717E+04  0.50400001928E-02 0. -1.
       -1   -1    0    0    0  501  0.00000000000E+00  0.00000000000E+00 -0.30605629957E+04  0.30605629957E+04  0.50400001928E-02 0.  1.
    10030    2    1    2    0    0  0.00000000000E+00  0.00000000000E+00 -0.17321495240E+04  0.43889764675E+04  0.40327127915E+04 0.  0.
        2    1    3    3  502    0  0.25883116959E+03 -0.39700715296E+03 -0.29990848554E+04  0.30363000879E+04  0.25500000920E-02 0.  1.
       -2    1    3    3    0  502 -0.25883116959E+03  0.39700715296E+03  0.12669353314E+04  0.13526763796E+04  0.25500000920E-02 0. -1.
</event>
<event>
 5   0  0.8329875E-09  0.4025088E+04  0.7818609E-02  0.7999505E-01
       -1   -1    0    0    0  501  0.00000000000E+00  0.00000000000E+00  0.18572611369E+04  0.18572611369E+04  0.50400001928E-02 0.  1.
        1   -1    0    0  501    0  0.00000000000E+00  0.00000000000E+00 -0.21808097743E+04  0.21808097743E+04  0.50400001928E-02 0. -1.
    10030    2    1    2    0    0  0.00000000000E+00  0.00000000000E+00 -0.32354863747E+03  0.40380709112E+04  0.40250879448E+04 0.  0.
        4    1    3    3  502    0  0.19413539789E+04  0.51802161619E+03 -0.27672996164E+03  0.20282462254E+04  0.12699999809E+01 0. -1.
       -4    1    3    3    0  502 -0.19413539789E+04 -0.51802161619E+03 -0.46818675831E+02  0.20098246858E+04  0.12699999809E+01 0.  1.
</event>
<event>
 5   0  0.2612363E-08  0.4001679E+04  0.7818609E-02  0.8004208E-01
       -2   -1    0    0    0  501  0.00000000000E+00  0.00000000000E+00  0.19862149324E+04  0.19862149324E+04  0.25500000920E-02 0. -1.
        2   -1    0    0  501    0  0.00000000000E+00  0.00000000000E+00 -0.20155714358E+04  0.20155714358E+04  0.25500000920E-02 0.  1.
    10030    2    1    2    0    0  0.00000000000E+00  0.00000000000E+00 -0.29356503362E+02  0.40017863682E+04  0.40016786893E+04 0.  0.
        4    1    3    3  502    0 -0.71142780362E+02 -0.29676634641E+02 -0.20140855647E+04  0.20155605356E+04  0.12699999809E+01 0.  1.
       -4    1    3    3    0  502  0.71142780362E+02  0.29676634641E+02  0.19847290614E+04  0.19862258325E+04  0.12699999809E+01 0. -1.
</event>
<event>
 5   0  0.2587493E-08  0.3956448E+04  0.7818609E-02  0.8013390E-01
        2   -1    0    0  501    0  0.00000000000E+00  0.00000000000E+00  0.21738593067E+04  0.21738593067E+04  0.25500000920E-02 0. -1.
       -2   -1    0    0    0  501  0.00000000000E+00  0.00000000000E+00 -0.18001951602E+04  0.18001951602E+04  0.25500000920E-02 0.  1.
    10030    2    1    2    0    0  0.00000000000E+00  0.00000000000E+00  0.37366414646E+03  0.39740544669E+04  0.39564484088E+04 0.  0.
        5    1    3    3  502    0 -0.19230178989E+04 -0.48492222263E+02 -0.27674044241E+03  0.19434393990E+04  0.46999998093E+01 0.  1.
       -5    1    3    3    0  502  0.19230178989E+04  0.48492222263E+02  0.65040458886E+03  0.20306150679E+04  0.46999998093E+01 0. -1.
</event>
<event>
 5   0  0.8329875E-09  0.4009237E+04  0.7818609E-02  0.8002686E-01
       -1   -1    0    0    0  501  0.00000000000E+00  0.00000000000E+00  0.17765291362E+04  0.17765291362E+04  0.50400001928E-02 0.  1.
        1   -1    0    0  501    0  0.00000000000E+00  0.00000000000E+00 -0.22619928928E+04  0.22619928928E+04  0.50400001928E-02 0. -1.
    10030    2    1    2    0    0  0.00000000000E+00  0.00000000000E+00 -0.48546375651E+03  0.40385220290E+04  0.40092374736E+04 0.  0.
        4    1    3    3  502    0  0.21468903086E+03  0.71272181235E+03  0.16321617247E+04  0.17938832934E+04  0.12699999809E+01 0.  1.
       -4    1    3    3    0  502 -0.21468903086E+03 -0.71272181235E+03 -0.21176254812E+04  0.22446387356E+04  0.12699999809E+01 0. -1.
</event>
<event>
 5   0  0.2612363E-08  0.4004640E+04  0.7818609E-02  0.8003611E-01
        2   -1    0    0  501    0  0.00000000000E+00  0.00000000000E+00  0.18181964101E+04  0.18181964101E+04  0.25500000920E-02 0. -1.
       -2   -1    0    0    0  501  0.00000000000E+00  0.00000000000E+00 -0.22050891289E+04  0.22050891289E+04  0.25500000920E-02 0.  1.
    10030    2    1    2    0    0  0.00000000000E+00  0.00000000000E+00 -0.38689271879E+03  0.40232855390E+04  0.40046398780E+04 0.  0.
        4    1    3    3  502    0 -0.10976425127E+04 -0.29920207983E+02  0.14887358291E+04  0.18498784517E+04  0.12699999809E+01 0. -1.
       -4    1    3    3    0  502  0.10976425127E+04  0.29920207983E+02 -0.18756285479E+04  0.21734070873E+04  0.12699999809E+01 0.  1.
</event>
<event>
 5   0  0.2650452E-08  0.3998835E+04  0.7818609E-02  0.8004782E-01
        2   -1    0    0  501    0  0.00000000000E+00  0.00000000000E+00  0.15502249918E+04  0.15502249918E+04  0.25500000920E-02 0. -1.
       -2   -1    0    0    0  501  0.00000000000E+00  0.00000000000E+00 -0.25787683863E+04  0.25787683863E+04  0.25500000920E-02 0.  1.
    10030    2    1    2    0    0  0.00000000000E+00  0.00000000000E+00 -0.10285433945E+04  0.41289933781E+04  0.39988354307E+04 0.  0.
        3    1    3    3  502    0  0.19695312271E+04 -0.28564159113E+02 -0.86866624518E+03  0.21527773274E+04  0.10100000352E+00 0. -1.
       -3    1    3    3    0  502 -0.19695312271E+04  0.28564159113E+02 -0.15987714930E+03  0.19762160506E+04  0.10100000352E+00 0.  1.
</event>
<event>
 5   0  0.8329875E-09  0.3997641E+04  0.7818609E-02  0.8005023E-01
        1   -1    0    0  501    0  0.00000000000E+00  0.00000000000E+00  0.11964721289E+04  0.11964721290E+04  0.50400001928E-02 0. -1.
       -1   -1    0    0    0  501  0.00000000000E+00  0.00000000000E+00 -0.33392201666E+04  0.33392201666E+04  0.50400001928E-02 0.  1.
    10030    2    1    2    0    0  0.00000000000E+00  0.00000000000E+00 -0.21427480377E+04  0.45356922956E+04  0.39976412354E+04 0.  0.
        5    1    3    3  502    0 -0.73400482122E+03  0.54480371304E+03  0.94542137770E+03  0.13150733191E+04  0.46999998093E+01 0. -1.
       -5    1    3    3    0  502  0.73400482122E+03 -0.54480371304E+03 -0.30881694154E+04  0.32206189764E+04  0.46999998093E+01 0.  1.
</event>
<event>
 5   0  0.2599332E-08  0.3999525E+04  0.7818609E-02  0.8004642E-01
        2   -1    0    0  501    0  0.00000000000E+00  0.00000000000E+00  0.23622468183E+04  0.23622468183E+04  0.25500000920E-02 0. -1.
       -2   -1    0    0    0  501  0.00000000000E+00  0.00000000000E+00 -0.16929006037E+04  0.16929006037E+04  0.25500000920E-02 0.  1.
    10030    2    1    2    0    0  0.00000000000E+00  0.00000000000E+00  0.66934621453E+03  0.40551474220E+04  0.39995245041E+04 0.  0.
        2    1    3    3  502    0  0.11440791973E+04 -0.12676968686E+04 -0.72051005549E+03  0.18534042463E+04  0.25500000920E-02 0. -1.
       -2    1    3    3    0  502 -0.11440791973E+04  0.12676968686E+04  0.13898562700E+04  0.22017431757E+04  0.25500000920E-02 0.  1.
</event>
<event>
 5   0  0.2599332E-08  0.4003825E+04  0.7818609E-02  0.8003775E-01
       -2   -1    0    0    0  501  0.00000000000E+00  0.00000000000E+00  0.16859037309E+04  0.16859037310E+04  0.25500000920E-02 0. -1.
        2   -1    0    0  501    0  0.00000000000E+00  0.00000000000E+00 -0.23771544348E+04  0.23771544348E+04  0.25500000920E-02 0.  1.
    10030    2    1    2    0    0  0.00000000000E+00  0.00000000000E+00 -0.69125070383E+03  0.40630581657E+04  0.40038249366E+04 0.  0.
        2    1    3    3  502    0 -0.98613556885E+03  0.78679972235E+03 -0.19230138898E+04  0.22998912112E+04  0.25500000920E-02 0. -1.
       -2    1    3    3    0  502  0.98613556885E+03 -0.78679972235E+03  0.12317631859E+04  0.17631669545E+04  0.25500000920E-02 0.  1.
</event>
<event>
 5   0  0.8329875E-09  0.3997230E+04  0.7818609E-02  0.8005106E-01
        1   -1    0    0  501    0  0.00000000000E+00  0.00000000000E+00  0.22095818771E+04  0.22095818771E+04  0.50400001928E-02 0. -1.
       -1   -1    0    0    0  501  0.00000000000E+00  0.00000000000E+00 -0.18077904664E+04  0.18077904664E+04  0.50400001928E-02 0.  1.
    10030    2    1    2    0    0  0.00000000000E+00  0.00000000000E+00  0.40179141065E+03  0.40173723435E+04  0.39972295667E+04 0.  0.
        3    1    3    3  502    0 -0.12180463116E+04  0.11293299631E+04  0.13179993852E+04  0.21204116044E+04  0.10100000352E+00 0. -1.
       -3    1    3    3    0  502  0.12180463116E+04 -0.11293299631E+04 -0.91620797452E+03  0.18969607391E+04  0.10100000352E+00 0.  1.
</event>
<event>
 5   0  0.2650452E-08  0.4062762E+04  0.7818609E-02  0.7992004E-01
        2   -1    0    0  501    0  0.00000000000E+00  0.00000000000E+00  0.32961503612E+04  0.32961503612E+04  0.25500000920E-02 0. -1.
       -2   -1    0    0    0  501  0.00000000000E+00  0.00000000000E+00 -0.12519178204E+04  0.12519178205E+04  0.25500000920E-02 0.  1.
    10030    2    1    2    0    0  0.00000000000E+00  0.00000000000E+00  0.20442325407E+04  0.45480681816E+04  0.40627622997E+04 0.  0.
        3    1    3    3  502    0 -0.39704174181E+03 -0.12858242902E+04  0.27255691054E+04  0.30396896566E+04  0.10100000352E+00 0. -1.
       -3    1    3    3    0  502  0.39704174181E+03  0.12858242902E+04 -0.68133656467E+03  0.15083785250E+04  0.10100000352E+00 0.  1.
</event>
<event>
 5   0  0.8329875E-09  0.4001023E+04  0.7818609E-02  0.8004340E-01
        1   -1    0    0  501    0  0.00000000000E+00  0.00000000000E+00  0.23783335797E+04  0.23783335797E+04  0.50400001928E-02 0. -1.
       -1   -1    0    0    0  501  0.00000000000E+00  0.00000000000E+00 -0.16827104813E+04  0.16827104813E+04  0.50400001928E-02 0.  1.
    10030    2    1    2    0    0  0.00000000000E+00  0.00000000000E+00  0.69562309837E+03  0.40610440610E+04  0.40010232904E+04 0.  0.
        4    1    3    3  502    0 -0.11224971042E+04  0.41062674147E+03 -0.12804452473E+04  0.17516151729E+04  0.12699999809E+01 0.  1.
       -4    1    3    3    0  502  0.11224971042E+04 -0.41062674147E+03  0.19760683457E+04  0.23094288881E+04  0.12699999809E+01 0. -1.
</event>
<event>
 5   0  0.8329875E-09  0.4011864E+04  0.7818609E-02  0.8002157E-01
       -1   -1    0    0    0  501  0.00000000000E+00  0.00000000000E+00  0.13070656918E+04  0.13070656918E+04  0.50400001928E-02 0. -1.
        1   -1    0    0  501    0  0.00000000000E+00  0.00000000000E+00 -0.30784707929E+04  0.30784707929E+04  0.50400001928E-02 0.  1.
    10030    2    1    2    0    0  0.00000000000E+00  0.00000000000E+00 -0.17714051011E+04  0.43855364848E+04  0.40118641835E+04 0.  0.
        3    1    3    3  502    0 -0.11398210526E+04  0.14235911655E+04 -0.17989567597E+04  0.25616497168E+04  0.10100000352E+00 0. -1.
       -3    1    3    3    0  502  0.11398210526E+04 -0.14235911655E+04  0.27551658606E+02  0.18238867680E+04  0.10100000352E+00 0.  1.
</event>
<event>
 5   0  0.2599332E-08  0.4000941E+04  0.7818609E-02  0.8004357E-01
       -2   -1    0    0    0  501  0.00000000000E+00  0.00000000000E+00  0.14664562115E+04  0.14664562115E+04  0.25500000920E-02 0. -1.
        2   -1    0    0  501    0  0.00000000000E+00  0.00000000000E+00 -0.27289479452E+04  0.27289479452E+04  0.25500000920E-02 0.  1.
    10030    2    1    2    0    0  0.00000000000E+00  0.00000000000E+00 -0.12624917337E+04  0.41954041567E+04  0.40009412218E+04 0.  0.
        2    1    3    3  502    0  0.10823529918E+04  0.39303590074E+03 -0.23465770729E+04  0.26138839258E+04  0.25500000920E-02 0.  1.
       -2    1    3    3    0  502 -0.10823529918E+04 -0.39303590074E+03  0.10840853392E+04  0.15815202309E+04  0.25500000920E-02 0. -1.
</event>
<event>
 5   0  0.8329875E-09  0.4000138E+04  0.7818609E-02  0.8004519E-01
       -1   -1    0    0    0  501  0.00000000000E+00  0.00000000000E+00  0.23735706486E+04  0.23735706486E+04  0.50400001928E-02 0.  1.
        1   -1    0    0  501    0  0.00000000000E+00  0.00000000000E+00 -0.16853408392E+04  0.16853408393E+04  0.50400001928E-02 0. -1.
    10030    2    1    2    0    0  0.00000000000E+00  0.00000000000E+00  0.68822980935E+03  0.40589114879E+04  0.40001377721E+04 0.  0.
        5    1    3    3  502    0  0.61064982971E+02  0.97147987084E+03  0.21169990246E+04  0.23300663149E+04  0.46999998093E+01 0.  1.
       -5    1    3    3    0  502 -0.61064982971E+02 -0.97147987084E+03 -0.14287692153E+04  0.17288451730E+04  0.46999998093E+01 0. -1.
</event>
<event>
 5   0  0.2612363E-08  0.3990745E+04  0.7818609E-02  0.8006416E-01
        2   -1    0    0  501    0  0.00000000000E+00  0.00000000000E+00  0.14800855464E+04  0.14800855464E+04  0.25500000920E-02 0. -1.
       -2   -1    0    0    0  501  0.00000000000E+00  0.00000000000E+00 -0.26900549678E+04  0.26900549678E+04  0.25500000920E-02 0.  1.
    10030    2    1    2    0    0  0.00000000000E+00  0.00000000000E+00 -0.12099694214E+04  0.41701405141E+04  0.39907450316E+04 0.  0.
        4    1    3    3  502    0 -0.13950512836E+04 -0.13208534683E+04 -0.11683760687E+04  0.22485386853E+04  0.12699999809E+01 0. -1.
       -4    1    3    3    0  502  0.13950512836E+04  0.13208534683E+04 -0.41593352696E+02  0.19216018288E+04  0.12699999809E+01 0.  1.
</event>
<event>
 5   0  0.2650452E-08  0.4002078E+04  0.7818609E-02  0.8004128E-01
       -2   -1    0    0    0  501  0.00000000000E+00  0.00000000000E+00  0.15978802212E+04  0.15978802212E+04  0.25500000920E-02 0. -1.
        2   -1    0    0  501    0  0.00000000000E+00  0.00000000000E+00 -0.25059180414E+04  0.25059180414E+04  0.25500000920E-02 0.  1.
    10030    2    1    2    0    0  0.00000000000E+00  0.00000000000E+00 -0.90803782020E+03  0.41037982626E+04  0.40020778974E+04 0.  0.
        3    1    3    3  502    0 -0.87206707032E+03  0.20661059263E+03  0.13805799895E+04  0.16459617340E+04  0.10100000352E+00 0. -1.
       -3    1    3    3    0  502  0.87206707032E+03 -0.20661059263E+03 -0.22886178097E+04  0.24578365286E+04  0.10100000352E+00 0.  1.
</event>
<event>
 5   0  0.2587493E-08  0.3996398E+04  0.7818609E-02  0.8005274E-01
        2   -1    0    0  501    0  0.00000000000E+00  0.00000000000E+00  0.21186978935E+04  0.21186978935E+04  0.25500000920E-02 0. -1.
       -2   -1    0    0    0  501  0.00000000000E+00  0.00000000000E+00 -0.18845533652E+04  0.18845533652E+04  0.25500000920E-02 0.  1.
    10030    2    1    2    0    0  0.00000000000E+00  0.00000000000E+00  0.23414452823E+03  0.40032512587E+04  0.39963980007E+04 0.  0.
        5    1    3    3  502    0 -0.14453947169E+04 -0.12090400470E+04  0.78291766310E+03  0.20405699890E+04  0.46999998093E+01 0.  1.
       -5    1    3    3    0  502  0.14453947169E+04  0.12090400470E+04 -0.54877313488E+03  0.19626812697E+04  0.46999998093E+01 0. -1.
</event>
<event>
 5   0  0.8329875E-09  0.4005778E+04  0.7818609E-02  0.8003382E-01
        1   -1    0    0  501    0  0.00000000000E+00  0.00000000000E+00  0.12572924457E+04  0.12572924457E+04  0.50400001928E-02 0. -1.
       -1   -1    0    0    0  501  0.00000000000E+00  0.00000000000E+00 -0.31906373067E+04  0.31906373067E+04  0.50400001928E-02 0.  1.
    10030    2    1    2    0    0  0.00000000000E+00  0.00000000000E+00 -0.19333448610E+04  0.44479297524E+04  0.40057779183E+04 0.  0.
        4    1    3    3  502    0  0.80637559291E+03 -0.68914687700E+03  0.91979419154E+03  0.14039900223E+04  0.12699999809E+01 0. -1.
       -4    1    3    3    0  502 -0.80637559291E+03  0.68914687700E+03 -0.28531390525E+04  0.30439397302E+04  0.12699999809E+01 0.  1.
</event>
<event>
 5   0  0.8329875E-09  0.3994590E+04  0.7818609E-02  0.8005639E-01
       -1   -1    0    0    0  501  0.00000000000E+00  0.00000000000E+00  0.26392673533E+04  0.26392673534E+04  0.50400001928E-02 0. -1.
        1   -1    0    0  501    0  0.00000000000E+00  0.00000000000E+00 -0.15114749475E+04  0.15114749476E+04  0.50400001928E-02 0.  1.
    10030    2    1    2    0    0  0.00000000000E+00  0.00000000000E+00  0.11277924058E+04  0.41507423009E+04  0.39945895832E+04 0.  0.
        3    1    3    3  502    0  0.63647166113E+03 -0.33173948365E+03 -0.13728421996E+04  0.15491426583E+04  0.10100000352E+00 0.  1.
       -3    1    3    3    0  502 -0.63647166113E+03  0.33173948365E+03  0.25006346054E+04  0.26015996426E+04  0.10100000352E+00 0. -1.
</event>
<event>
 5   0  0.8329875E-09  0.3999911E+04  0.7818609E-02  0.8004564E-01
       -1   -1    0    0    0  501  0.00000000000E+00  0.00000000000E+00  0.31773888948E+04  0.31773888948E+04  0.50400001928E-02 0.  1.
        1   -1    0    0  501    0  0.00000000000E+00  0.00000000000E+00 -0.12588393460E+04  0.12588393460E+04  0.50400001928E-02 0. -1.
    10030    2    1    2    0    0  0.00000000000E+00  0.00000000000E+00  0.19185495488E+04  0.44362282408E+04  0.39999110781E+04 0.  0.
        5    1    3    3  502    0  0.19587077214E+03  0.60387829787E+02  0.31657030291E+04  0.31723350718E+04  0.46999998093E+01 0.  1.
       -5    1    3    3    0  502 -0.19587077214E+03 -0.60387829787E+02 -0.12471534802E+04  0.12638931690E+04  0.46999998093E+01 0. -1.
</event>
<event>
 5   0  0.2612363E-08  0.3876994E+04  0.7818609E-02  0.8029831E-01
       -2   -1    0    0    0  501  0.00000000000E+00  0.00000000000E+00  0.20485653350E+04  0.20485653350E+04  0.25500000920E-02 0.  1.
        2   -1    0    0  501    0  0.00000000000E+00  0.00000000000E+00 -0.18343425007E+04  0.18343425007E+04  0.25500000920E-02 0. -1.
    10030    2    1    2    0    0  0.00000000000E+00  0.00000000000E+00  0.21422283426E+03  0.38829078357E+04  0.38769939177E+04 0.  0.
        4    1    3    3  502    0  0.17162868655E+04  0.74830373991E+03  0.61004248064E+03  0.19692009885E+04  0.12699999809E+01 0.  1.
       -4    1    3    3    0  502 -0.17162868655E+04 -0.74830373991E+03 -0.39581964638E+03  0.19137068473E+04  0.12699999809E+01 0. -1.
</event>
<event>
 5   0  0.2612363E-08  0.3999876E+04  0.7818609E-02  0.8004572E-01
       -2   -1    0    0    0  501  0.00000000000E+00  0.00000000000E+00  0.27905751355E+04  0.27905751355E+04  0.25500000920E-02 0.  1.
        2   -1    0    0  501    0  0.00000000000E+00  0.00000000000E+00 -0.14333070634E+04  0.14333070634E+04  0.25500000920E-02 0. -1.
    10030    2    1    2    0    0  0.00000000000E+00  0.00000000000E+00  0.13572680721E+04  0.42238821990E+04  0.39998755245E+04 0.  0.
        4    1    3    3  502    0  0.79321345025E+03 -0.15570581205E+04 -0.34853319844E+03  0.17818795053E+04  0.12699999809E+01 0. -1.
       -4    1    3    3    0  502 -0.79321345025E+03  0.15570581205E+04  0.17058012706E+04  0.24420026936E+04  0.12699999809E+01 0.  1.
</event>
<event>
 5   0  0.2587493E-08  0.4000708E+04  0.7818609E-02  0.8004404E-01
       -2   -1    0    0    0  501  0.00000000000E+00  0.00000000000E+00  0.16069460414E+04  0.16069460414E+04  0.25500000920E-02 0.  1.
        2   -1    0    0  501    0  0.00000000000E+00  0.00000000000E+00 -0.24900752188E+04  0.24900752188E+04  0.25500000920E-02 0. -1.
    10030    2    1    2    0    0  0.00000000000E+00  0.00000000000E+00 -0.88312917736E+03  0.40970212602E+04  0.40007081951E+04 0.  0.
        5    1    3    3  502    0 -0.11212124507E+04 -0.25356882713E+03 -0.21180397043E+04  0.24098814885E+04  0.46999998093E+01 0. -1.
       -5    1    3    3    0  502  0.11212124507E+04  0.25356882713E+03  0.12349105269E+04  0.16871397717E+04  0.46999998093E+01 0.  1.
</event>
<event>
 5   0  0.2612363E-08  0.3973657E+04  0.7818609E-02  0.8009882E-01
       -2   -1    0    0    0  501  0.00000000000E+00  0.00000000000E+00  0.28029067615E+04  0.28029067615E+04  0.25500000920E-02 0. -1.
        2   -1    0    0  501    0  0.00000000000E+00  0.00000000000E+00 -0.14083546115E+04  0.14083546115E+04  0.25500000920E-02 0.  1.
    10030    2    1    2    0    0  0.00000000000E+00  0.00000000000E+00  0.13945521499E+04  0.42112613730E+04  0.39736565847E+04 0.  0.
        4    1    3    3  502    0 -0.90725167632E+03  0.63055633116E+03 -0.10527590636E+04  0.15261094816E+04  0.12699999809E+01 0.  1.
       -4    1    3    3    0  502  0.90725167632E+03 -0.63055633116E+03  0.24473112136E+04  0.26851518914E+04  0.12699999809E+01 0. -1.
</event>
<event>
 5   0  0.2599332E-08  0.4003395E+04  0.7818609E-02  0.8003862E-01
        2   -1    0    0  501    0  0.00000000000E+00  0.00000000000E+00  0.25878844320E+04  0.25878844320E+04  0.25500000920E-02 0.  1.
       -2   -1    0    0    0  501  0.00000000000E+00  0.00000000000E+00 -0.15482892040E+04  0.15482892040E+04  0.25500000920E-02 0. -1.
    10030    2    1    2    0    0  0.00000000000E+00  0.00000000000E+00  0.10395952281E+04  0.41361736360E+04  0.40033953226E+04 0.  0.
        2    1    3    3  502    0  0.35998951147E+03  0.41846447500E+02  0.25537058322E+04  0.25792939055E+04  0.25500000920E-02 0.  1.
       -2    1    3    3    0  502 -0.35998951147E+03 -0.41846447500E+02 -0.15141106042E+04  0.15568797305E+04  0.25500000920E-02 0. -1.
</event>
<event>
 5   0  0.2587493E-08  0.4001007E+04  0.7818609E-02  0.8004343E-01
        2   -1    0    0  501    0  0.00000000000E+00  0.00000000000E+00  0.17347336653E+04  0.17347336653E+04  0.25500000920E-02 0. -1.
       -2   -1    0    0    0  501  0.00000000000E+00  0.00000000000E+00 -0.23069911066E+04  0.23069911066E+04  0.25500000920E-02 0.  1.
    10030    2    1    2    0    0  0.00000000000E+00  0.00000000000E+00 -0.57225744127E+03  0.40417247719E+04  0.40010074423E+04 0.  0.
        5    1    3    3  502    0 -0.66777713395E+03 -0.18632668991E+04  0.71762570179E+01  0.19793340867E+04  0.46999998093E+01 0. -1.
       -5    1    3    3    0  502  0.66777713395E+03  0.18632668991E+04 -0.57943369829E+03  0.20623906853E+04  0.46999998093E+01 0.  1.
</event>
<event>
 5   0  0.2587493E-08  0.3999424E+04  0.7818609E-02  0.8004663E-01
        2   -1    0    0  501    0  0.00000000000E+00  0.00000000000E+00  0.21890622591E+04  0.21890622591E+04  0.25500000920E-02 0. -1.
       -2   -1    0    0    0  501  0.00000000000E+00  0.00000000000E+00 -0.18267406531E+04  0.18267406531E+04  0.25500000920E-02 0.  1.
    10030    2    1    2    0    0  0.00000000000E+00  0.00000000000E+00  0.36232160606E+03  0.40158029122E+04  0.39994244690E+04 0.  0.
        5    1    3    3  502    0 -0.18754749656E+04 -0.35923842732E+03 -0.41487634651E+03  0.19541246294E+04  0.46999998093E+01 0.  1.
       -5    1    3    3    0  502  0.18754749656E+04  0.35923842732E+03  0.77719795257E+03  0.20616782828E+04  0.46999998093E+01 0. -1.
</event>
<event>
 5   0  0.8329875E-09  0.3989877E+04  0.7818609E-02  0.8006592E-01
        1   -1    0    0  501    0  0.00000000000E+00  0.00000000000E+00  0.25733925925E+04  0.25733925925E+04  0.50400001928E-02 0.  1.
       -1   -1    0    0    0  501  0.00000000000E+00  0.00000000000E+00 -0.15465108581E+04  0.15465108581E+04  0.50400001928E-02 0. -1.
    10030    2    1    2    0    0  0.00000000000E+00  0.00000000000E+00  0.10268817344E+04  0.41199034506E+04  0.39898769838E+04 0.  0.
        2    1    3    3  502    0 -0.68165075142E+03  0.47592975158E+03  0.23859957644E+04  0.25266841241E+04  0.25500000920E-02 0.  1.
       -2    1    3    3    0  502  0.68165075142E+03 -0.47592975158E+03 -0.13591140300E+04  0.15932193264E+04  0.25500000920E-02 0. -1.
</event>
<event>
 5   0  0.8329875E-09  0.3998425E+04  0.7818609E-02  0.8004864E-01
        1   -1    0    0  501    0  0.00000000000E+00  0.00000000000E+00  0.19771720670E+04  0.19771720670E+04  0.50400001928E-02 0.  1.
       -1   -1    0    0    0  501  0.00000000000E+00  0.00000000000E+00 -0.20214987602E+04  0.20214987602E+04  0.50400001928E-02 0. -1.
    10030    2    1    2    0    0  0.00000000000E+00  0.00000000000E+00 -0.44326693219E+02  0.39986708272E+04  0.39984251310E+04 0.  0.
        2    1    3    3  502    0  0.55332312930E+03 -0.14068815342E+04 -0.13304366641E+04  0.20138380902E+04  0.25500000920E-02 0. -1.
       -2    1    3    3    0  502 -0.55332312930E+03  0.14068815342E+04  0.12861099708E+04  0.19848327370E+04  0.25500000920E-02 0.  1.
</event>
<event>
 5   0  0.8329875E-09  0.3993679E+04  0.7818609E-02  0.8005823E-01
        1   -1    0    0  501    0  0.00000000000E+00  0.00000000000E+00  0.28502298451E+04  0.28502298451E+04  0.50400001928E-02 0.  1.
       -1   -1    0    0    0  501  0.00000000000E+00  0.00000000000E+00 -0.13989635695E+04  0.13989635695E+04  0.50400001928E-02 0. -1.
    10030    2    1    2    0    0  0.00000000000E+00  0.00000000000E+00  0.14512662756E+04  0.42491934146E+04  0.39936788644E+04 0.  0.
        2    1    3    3  502    0  0.26427687721E+03  0.93937309089E+03  0.25792506467E+04  0.27576798165E+04  0.25500000920E-02 0.  1.
       -2    1    3    3    0  502 -0.26427687721E+03 -0.93937309089E+03 -0.11279843712E+04  0.14915135981E+04  0.25500000920E-02 0. -1.
</event>
<event>
 5   0  0.8329875E-09  0.3997214E+04  0.7818609E-02  0.8005109E-01
        1   -1    0    0  501    0  0.00000000000E+00  0.00000000000E+00  0.20697695914E+04  0.20697695915E+04  0.50400001928E-02 0. -1.
       -1   -1    0    0    0  501  0.00000000000E+00  0.00000000000E+00 -0.19298907653E+04  0.19298907653E+04  0.50400001928E-02 0.  1.
    10030    2    1    2    0    0  0.00000000000E+00  0.00000000000E+00  0.13987882618E+03  0.39996603567E+04  0.39972136399E+04 0.  0.
        5    1    3    3  502    0  0.91563276336E+02  0.60492850792E+03  0.19737560802E+04  0.20664117420E+04  0.46999998093E+01 0. -1.
       -5    1    3    3    0  502 -0.91563276336E+02 -0.60492850792E+03 -0.18338772541E+04  0.19332486147E+04  0.46999998093E+01 0.  1.
</event>
<event>
 5   0  0.2650452E-08  0.4012865E+04  0.7818609E-02  0.8001956E-01
        2   -1    0    0  501    0  0.00000000000E+00  0.00000000000E+00  0.20040968575E+04  0.20040968575E+04  0.25500000920E-02 0. -1.
       -2   -1    0    0    0  501  0.00000000000E+00  0.00000000000E+00 -0.20087710242E+04  0.20087710242E+04  0.25500000920E-02 0.  1.
    10030    2    1    2    0    0  0.00000000000E+00  0.00000000000E+00 -0.46741667357E+01  0.40128678817E+04  0.40128651595E+04 0.  0.
        3    1    3    3  502    0  0.35293605140E+03  0.18971240518E+04  0.54732515140E+03  0.20057936973E+04  0.10100000352E+00 0.  1.
       -3    1    3    3    0  502 -0.35293605140E+03 -0.18971240518E+04 -0.55199931813E+03  0.20070741844E+04  0.10100000352E+00 0. -1.
</event>
<event>
 5   0  0.8329875E-09  0.3997041E+04  0.7818609E-02  0.8005144E-01
       -1   -1    0    0    0  501  0.00000000000E+00  0.00000000000E+00  0.15806128095E+04  0.15806128095E+04  0.50400001928E-02 0.  1.
        1   -1    0    0  501    0  0.00000000000E+00  0.00000000000E+00 -0.25269215678E+04  0.25269215678E+04  0.50400001928E-02 0. -1.
    10030    2    1    2    0    0  0.00000000000E+00  0.00000000000E+00 -0.94630875831E+03  0.41075343774E+04  0.39970412051E+04 0.  0.
        3    1    3    3  502    0  0.13754906449E+04 -0.12162906852E+04  0.33780372602E+03  0.18669357012E+04  0.10100000352E+00 0.  1.
       -3    1    3    3    0  502 -0.13754906449E+04  0.12162906852E+04 -0.12841124843E+04  0.22405986761E+04  0.10100000352E+00 0. -1.
</event>
<event>
 5   0  0.8329875E-09  0.4001882E+04  0.7818609E-02  0.8004167E-01
        1   -1    0    0  501    0  0.00000000000E+00  0.00000000000E+00  0.26013217036E+04  0.26013217036E+04  0.50400001928E-02 0.  1.
       -1   -1    0    0    0  501  0.00000000000E+00  0.00000000000E+00 -0.15391272095E+04  0.15391272095E+04  0.50400001928E-02 0. -1.
    10030    2    1    2    0    0  0.00000000000E+00  0.00000000000E+00  0.10621944941E+04  0.41404489130E+04  0.40018820645E+04 0.  0.
        2    1    3    3  502    0  0.26814435243E+03 -0.88659721599E+02  0.25805967349E+04  0.25960049015E+04  0.25500000920E-02 0.  1.
       -2    1    3    3    0  502 -0.26814435243E+03  0.88659721599E+02 -0.15184022408E+04  0.15444440116E+04  0.25500000920E-02 0. -1.
</event>
<event>
 5   0  0.8329875E-09  0.4002600E+04  0.7818609E-02  0.8004022E-01
        1   -1    0    0  501    0  0.00000000000E+00  0.00000000000E+00  0.18061510171E+04  0.18061510171E+04  0.50400001928E-02 0.  1.
       -1   -1    0    0    0  501  0.00000000000E+00  0.00000000000E+00 -0.22175345007E+04  0.22175345008E+04  0.50400001928E-02 0. -1.
    10030    2    1    2    0    0  0.00000000000E+00  0.00000000000E+00 -0.41138348369E+03  0.40236855178E+04  0.40026002518E+04 0.  0.
        5    1    3    3  502    0  0.13587663426E+04 -0.63037768758E+03 -0.15399205009E+04  0.21482549294E+04  0.46999998093E+01 0. -1.
       -5    1    3    3    0  502 -0.13587663426E+04  0.63037768758E+03  0.11285370172E+04  0.18754305884E+04  0.46999998093E+01 0.  1.
</event>
<event>
 5   0  0.2599332E-08  0.3993828E+04  0.7818609E-02  0.8005793E-01
       -2   -1    0    0    0  501  0.00000000000E+00  0.00000000000E+00  0.11240458482E+04  0.11240458482E+04  0.25500000920E-02 0. -1.
        2   -1    0    0  501    0  0.00000000000E+00  0.00000000000E+00 -0.35476000023E+04  0.35476000023E+04  0.25500000920E-02 0.  1.
    10030    2    1    2    0    0  0.00000000000E+00  0.00000000000E+00 -0.24235541540E+04  0.46716458505E+04  0.39938277648E+04 0.  0.
        2    1    3    3  502    0 -0.11507649098E+04 -0.28384757287E+03  0.66809792725E+03  0.13605822881E+04  0.25500000920E-02 0. -1.
       -2    1    3    3    0  502  0.11507649098E+04  0.28384757287E+03 -0.30916520813E+04  0.33110635624E+04  0.25500000920E-02 0.  1.
</event>
<event>
 5   0  0.2612363E-08  0.3995604E+04  0.7818609E-02  0.8005434E-01
       -2   -1    0    0    0  501  0.00000000000E+00  0.00000000000E+00  0.17722509866E+04  0.17722509866E+04  0.25500000920E-02 0. -1.
        2   -1    0    0  501    0  0.00000000000E+00  0.00000000000E+00 -0.22520590126E+04  0.22520590126E+04  0.25500000920E-02 0.  1.
    10030    2    1    2    0    0  0.00000000000E+00  0.00000000000E+00 -0.47980802601E+03  0.40243099992E+04  0.39956044884E+04 0.  0.
        4    1    3    3  502    0 -0.38923628406E+03 -0.49808396518E+03  0.16688682095E+04  0.17845770465E+04  0.12699999809E+01 0. -1.
       -4    1    3    3    0  502  0.38923628406E+03  0.49808396518E+03 -0.21486762355E+04  0.22397329527E+04  0.12699999809E+01 0.  1.
</event>
<event>
 5   0  0.8329875E-09  0.4008617E+04  0.7818609E-02  0.8002810E-01
        1   -1    0    0  501    0  0.00000000000E+00  0.00000000000E+00  0.27806307379E+04  0.27806307379E+04  0.50400001928E-02 0.  1.
       -1   -1    0    0    0  501  0.00000000000E+00  0.00000000000E+00 -0.14447272995E+04  0.14447272995E+04  0.50400001928E-02 0. -1.
    10030    2    1    2    0    0  0.00000000000E+00  0.00000000000E+00  0.13359034384E+04  0.42253580374E+04  0.40086172862E+04 0.  0.
        3    1    3    3  502    0  0.42028356771E+03  0.85452987834E+03  0.25269397365E+04  0.27004229358E+04  0.10100000352E+00 0.  1.
       -3    1    3    3    0  502 -0.42028356771E+03 -0.85452987834E+03 -0.11910362981E+04  0.15249351015E+04  0.10100000352E+00 0. -1.
</event>
<event>
 5   0  0.2599332E-08  0.3937588E+04  0.7818609E-02  0.8017257E-01
        2   -1    0    0  501    0  0.00000000000E+00  0.00000000000E+00  0.25250299499E+04  0.25250299499E+04  0.25500000920E-02 0. -1.
       -2   -1    0    0    0  501  0.00000000000E+00  0.00000000000E+00 -0.15350909582E+04  0.15350909582E+04  0.25500000920E-02 0.  1.
    10030    2    1    2    0    0  0.00000000000E+00  0.00000000000E+00  0.98993899170E+03  0.40601209082E+04  0.39375884221E+04 0.  0.
        2    1    3    3  502    0 -0.11109775167E+04  0.21092570799E+03  0.21567636436E+04  0.24352392309E+04  0.25500000920E-02 0. -1.
       -2    1    3    3    0  502  0.11109775167E+04 -0.21092570799E+03 -0.11668246519E+04  0.16248816773E+04  0.25500000920E-02 0.  1.
</event>
<event>
 5   0  0.8329875E-09  0.3996051E+04  0.7818609E-02  0.8005344E-01
        1   -1    0    0  501    0  0.00000000000E+00  0.00000000000E+00  0.26074508579E+04  0.26074508579E+04  0.50400001928E-02 0. -1.
       -1   -1    0    0    0  501  0.00000000000E+00  0.00000000000E+00 -0.15310374623E+04  0.15310374623E+04  0.50400001928E-02 0.  1.
    10030    2    1    2    0    0  0.00000000000E+00  0.00000000000E+00  0.10764133957E+04  0.41384883202E+04  0.39960505225E+04 0.  0.
        5    1    3    3  502    0  0.56171823931E+01  0.19265478087E+04 -0.10259639879E+02  0.19265890486E+04  0.46999998093E+01 0.  1.
       -5    1    3    3    0  502 -0.56171823931E+01 -0.19265478087E+04  0.10866730355E+04  0.22118992717E+04  0.46999998093E+01 0. -1.
</event>
<event>
 5   0  0.8329875E-09  0.3997007E+04  0.7818609E-02  0.8005151E-01
        1   -1    0    0  501    0  0.00000000000E+00  0.00000000000E+00  0.24223582941E+04  0.24223582941E+04  0.50400001928E-02 0.  1.
       -1   -1    0    0    0  501  0.00000000000E+00  0.00000000000E+00 -0.16488127512E+04  0.16488127512E+04  0.50400001928E-02 0. -1.
    10030    2    1    2    0    0  0.00000000000E+00  0.00000000000E+00  0.77354554295E+03  0.40711710453E+04  0.39970065015E+04 0.  0.
        4    1    3    3  502    0  0.39027688631E+03 -0.79025214764E+03 -0.14401637826E+04  0.16884572362E+04  0.12699999809E+01 0. -1.
       -4    1    3    3    0  502 -0.39027688631E+03  0.79025214764E+03  0.22137093256E+04  0.23827138091E+04  0.12699999809E+01 0.  1.
</event>
<event>
 5   0  0.8329875E-09  0.4000777E+04  0.7818609E-02  0.8004390E-01
        1   -1    0    0  501    0  0.00000000000E+00  0.00000000000E+00  0.14386750864E+04  0.14386750865E+04  0.50400001928E-02 0.  1.
       -1   -1    0    0    0  501  0.00000000000E+00  0.00000000000E+00 -0.27814165539E+04  0.27814165539E+04  0.50400001928E-02 0. -1.
    10030    2    1    2    0    0  0.00000000000E+00  0.00000000000E+00 -0.13427414675E+04  0.42200916404E+04  0.40007772751E+04 0.  0.
        2    1    3    3  502    0  0.19820603477E+04 -0.24471286428E+03 -0.55060862032E+03  0.20716219396E+04  0.25500000920E-02 0.  1.
       -2    1    3    3    0  502 -0.19820603477E+04  0.24471286428E+03 -0.79213284714E+03  0.21484697008E+04  0.25500000920E-02 0. -1.
</event>
<event>
 5   0  0.8329875E-09  0.3990920E+04  0.7818609E-02  0.8006381E-01
        3   -1    0    0  501    0  0.00000000000E+00  0.00000000000E+00  0.16952919628E+04  0.16952919658E+04  0.10100000352E+00 0. -1.
       -3   -1    0    0    0  501  0.00000000000E+00  0.00000000000E+00 -0.23487758590E+04  0.23487758612E+04  0.10100000352E+00 0.  1.
    10030    2    1    2    0    0  0.00000000000E+00  0.00000000000E+00 -0.65348389619E+03  0.40440678270E+04  0.39909201178E+04 0.  0.
        2    1    3    3  502    0 -0.35948616457E+03 -0.62956776815E+03 -0.22106059135E+04  0.23264488780E+04  0.25500000920E-02 0.  1.
       -2    1    3    3    0  502  0.35948616457E+03  0.62956776815E+03  0.15571220173E+04  0.17176189490E+04  0.25500000920E-02 0. -1.
</event>
<event>
 5   0  0.8329875E-09  0.4000093E+04  0.7818609E-02  0.8004528E-01
       -1   -1    0    0    0  501  0.00000000000E+00  0.00000000000E+00  0.19014851016E+04  0.19014851016E+04  0.50400001928E-02 0.  1.
        1   -1    0    0  501    0  0.00000000000E+00  0.00000000000E+00 -0.21037166172E+04  0.21037166172E+04  0.50400001928E-02 0. -1.
    10030    2    1    2    0    0  0.00000000000E+00  0.00000000000E+00 -0.20223151559E+03  0.40052017187E+04  0.40000929016E+04 0.  0.
        1    1    3    3  502    0 -0.17843415902E+04 -0.81860819409E+03 -0.48395408172E+03  0.20219312152E+04  0.50400001928E-02 0. -1.
       -1    1    3    3    0  502  0.17843415902E+04  0.81860819409E+03  0.28172256613E+03  0.19832705035E+04  0.50400001928E-02 0.  1.
</event>
<event>
 5   0  0.2650452E-08  0.4012544E+04  0.7818609E-02  0.8002021E-01
        2   -1    0    0  501    0  0.00000000000E+00  0.00000000000E+00  0.31902823475E+04  0.31902823475E+04  0.25500000920E-02 0.  1.
       -2   -1    0    0    0  501  0.00000000000E+00  0.00000000000E+00 -0.12616838071E+04  0.12616838071E+04  0.25500000920E-02 0. -1.
    10030    2    1    2    0    0  0.00000000000E+00  0.00000000000E+00  0.19285985404E+04  0.44519661546E+04  0.40125441196E+04 0.  0.
        3    1    3    3  502    0  0.33861320586E+03 -0.97871537297E+03  0.28707835531E+04  0.30518749816E+04  0.10100000352E+00 0.  1.
       -3    1    3    3    0  502 -0.33861320586E+03  0.97871537297E+03 -0.94218501267E+03  0.14000911730E+04  0.10100000352E+00 0. -1.
</event>
<event>
 5   0  0.2650452E-08  0.3999785E+04  0.7818609E-02  0.8004590E-01
       -2   -1    0    0    0  501  0.00000000000E+00  0.00000000000E+00  0.18570081655E+04  0.18570081655E+04  0.25500000920E-02 0. -1.
        2   -1    0    0  501    0  0.00000000000E+00  0.00000000000E+00 -0.21537709910E+04  0.21537709910E+04  0.25500000920E-02 0.  1.
    10030    2    1    2    0    0  0.00000000000E+00  0.00000000000E+00 -0.29676282546E+03  0.40107791564E+04  0.39997851526E+04 0.  0.
        3    1    3    3  502    0  0.79555851555E+03  0.47848295020E+03  0.16278459536E+04  0.18739641790E+04  0.10100000352E+00 0. -1.
       -3    1    3    3    0  502 -0.79555851555E+03 -0.47848295020E+03 -0.19246087791E+04  0.21368149775E+04  0.10100000352E+00 0.  1.
</event>
<event>
 5   0  0.8329875E-09  0.4000607E+04  0.7818609E-02  0.8004424E-01
       -1   -1    0    0    0  501  0.00000000000E+00  0.00000000000E+00  0.17244613911E+04  0.17244613911E+04  0.50400001928E-02 0. -1.
        1   -1    0    0  501    0  0.00000000000E+00  0.00000000000E+00 -0.23202686163E+04  0.23202686163E+04  0.50400001928E-02 0.  1.
    10030    2    1    2    0    0  0.00000000000E+00  0.00000000000E+00 -0.59580722524E+03  0.40447300074E+04  0.40006067769E+04 0.  0.
        5    1    3    3  502    0  0.13325319270E+04 -0.85927996262E+02  0.12078737071E+04  0.18005571191E+04  0.46999998093E+01 0. -1.
       -5    1    3    3    0  502 -0.13325319270E+04  0.85927996262E+02 -0.18036809323E+04  0.22441728883E+04  0.46999998093E+01 0.  1.
</event>
<event>
 5   0  0.8329875E-09  0.4002077E+04  0.7818609E-02  0.8004128E-01
        1   -1    0    0  501    0  0.00000000000E+00  0.00000000000E+00  0.26519518890E+04  0.26519518890E+04  0.50400001928E-02 0.  1.
       -1   -1    0    0    0  501  0.00000000000E+00  0.00000000000E+00 -0.15098900864E+04  0.15098900864E+04  0.50400001928E-02 0. -1.
    10030    2    1    2    0    0  0.00000000000E+00  0.00000000000E+00  0.11420618026E+04  0.41618419754E+04  0.40020773940E+04 0.  0.
        3    1    3    3  502    0 -0.44586212572E+03 -0.92648287622E+03 -0.12141803026E+04  0.15910365717E+04  0.10100000352E+00 0. -1.
       -3    1    3    3    0  502  0.44586212572E+03  0.92648287622E+03  0.23562421052E+04  0.25708054037E+04  0.10100000352E+00 0.  1.
</event>
<event>
 5   0  0.8329875E-09  0.3993316E+04  0.7818609E-02  0.8005896E-01
        1   -1    0    0  501    0  0.00000000000E+00  0.00000000000E+00  0.18086052634E+04  0.18086052634E+04  0.50400001928E-02 0. -1.
       -1   -1    0    0    0  501  0.00000000000E+00  0.00000000000E+00 -0.22042641253E+04  0.22042641253E+04  0.50400001928E-02 0.  1.
    10030    2    1    2    0    0  0.00000000000E+00  0.00000000000E+00 -0.39565886191E+03  0.40128693887E+04  0.39933162655E+04 0.  0.
        3    1    3    3  502    0 -0.93478825656E+03 -0.14362548869E+04 -0.12275352710E+04  0.21079611088E+04  0.10100000352E+00 0.  1.
       -3    1    3    3    0  502  0.93478825656E+03  0.14362548869E+04  0.83187640910E+03  0.19049082799E+04  0.10100000352E+00 0. -1.
</event>
<event>
 5   0  0.2599332E-08  0.4012087E+04  0.7818609E-02  0.8002113E-01
        2   -1    0    0  501    0  0.00000000000E+00  0.00000000000E+00  0.28798416862E+04  0.28798416862E+04  0.25500000920E-02 0. -1.
       -2   -1    0    0    0  501  0.00000000000E+00  0.00000000000E+00 -0.13973723808E+04  0.13973723808E+04  0.25500000920E-02 0.  1.
    10030    2    1    2    0    0  0.00000000000E+00  0.00000000000E+00  0.14824693053E+04  0.42772140670E+04  0.40120873537E+04 0.  0.
        2    1    3    3  502    0 -0.41391467541E+03 -0.11380232741E+04  0.24462290478E+04  0.27295528728E+04  0.25500000920E-02 0. -1.
       -2    1    3    3    0  502  0.41391467541E+03  0.11380232741E+04 -0.96375974245E+03  0.15476611942E+04  0.25500000920E-02 0.  1.
</event>
<event>
 5   0  0.2599332E-08  0.3998151E+04  0.7818609E-02  0.8004920E-01
        2   -1    0    0  501    0  0.00000000000E+00  0.00000000000E+00  0.19023179267E+04  0.19023179267E+04  0.25500000920E-02 0.  1.
       -2   -1    0    0    0  501  0.00000000000E+00  0.00000000000E+00 -0.21007541757E+04  0.21007541757E+04  0.25500000920E-02 0. -1.
    10030    2    1    2    0    0  0.00000000000E+00  0.00000000000E+00 -0.19843624896E+03  0.40030721023E+04  0.39981507365E+04 0.  0.
        2    1    3    3  502    0  0.64664686657E+03 -0.25934481950E+03  0.17768252988E+04  0.19085387205E+04  0.25500000920E-02 0.  1.
       -2    1    3    3    0  502 -0.64664686657E+03  0.25934481950E+03 -0.19752615477E+04  0.20945333818E+04  0.25500000920E-02 0. -1.
</event>
<event>
 5   0  0.8329875E-09  0.4006857E+04  0.7818609E-02  0.8003165E-01
       -1   -1    0    0    0  501  0.00000000000E+00  0.00000000000E+00  0.19974325046E+04  0.19974325046E+04  0.50400001928E-02 0.  1.
        1   -1    0    0  501    0  0.00000000000E+00  0.00000000000E+00 -0.20094422465E+04  0.20094422465E+04  0.50400001928E-02 0. -1.
    10030    2    1    2    0    0  0.00000000000E+00  0.00000000000E+00 -0.12009741845E+02  0.40068747511E+04  0.40068567528E+04 0.  0.
        4    1    3    3  502    0  0.58399719124E+03 -0.25248722639E+02  0.19102587899E+04  0.19976937890E+04  0.12699999809E+01 0.  1.
       -4    1    3    3    0  502 -0.58399719124E+03  0.25248722639E+02 -0.19222685318E+04  0.20091809621E+04  0.12699999809E+01 0. -1.
</event>
<event>
 5   0  0.2746876E-08  0.3993164E+04  0.7818609E-02  0.8005927E-01
       -2   -1    0    0    0  501  0.00000000000E+00  0.00000000000E+00  0.19348787360E+04  0.19348787360E+04  0.25500000920E-02 0.  1.
        2   -1    0    0  501    0  0.00000000000E+00  0.00000000000E+00 -0.20602526640E+04  0.20602526640E+04  0.25500000920E-02 0. -1.
    10030    2    1    2    0    0  0.00000000000E+00  0.00000000000E+00 -0.12537392807E+03  0.39951314000E+04  0.39931636933E+04 0.  0.
        1    1    3    3  502    0  0.16359661439E+04 -0.26806034215E+03  0.10505596357E+04  0.19626301534E+04  0.50400001928E-02 0.  1.
       -1    1    3    3    0  502 -0.16359661439E+04  0.26806034215E+03 -0.11759335638E+04  0.20325012466E+04  0.50400001928E-02 0. -1.
</event>
<event>
 5   0  0.2587493E-08  0.3977060E+04  0.7818609E-02  0.8009190E-01
        2   -1    0    0  501    0  0.00000000000E+00  0.00000000000E+00  0.21929330004E+04  0.21929330004E+04  0.25500000920E-02 0.  1.
       -2   -1    0    0    0  501  0.00000000000E+00  0.00000000000E+00 -0.18031790373E+04  0.18031790373E+04  0.25500000920E-02 0. -1.
    10030    2    1    2    0    0  0.00000000000E+00  0.00000000000E+00  0.38975396311E+03  0.39961120377E+04  0.39770596257E+04 0.  0.
        5    1    3    3  502    0 -0.89936913979E+03 -0.94824842097E+03 -0.13110318607E+04  0.18511797717E+04  0.46999998093E+01 0. -1.
       -5    1    3    3    0  502  0.89936913979E+03  0.94824842097E+03  0.17007858238E+04  0.21449322660E+04  0.46999998093E+01 0.  1.
</event>
<event>
 5   0  0.2587493E-08  0.4000018E+04  0.7818609E-02  0.8004543E-01
       -2   -1    0    0    0  501  0.00000000000E+00  0.00000000000E+00  0.25204066601E+04  0.25204066601E+04  0.25500000920E-02 0.  1.
        2   -1    0    0  501    0  0.00000000000E+00  0.00000000000E+00 -0.15870596685E+04  0.15870596685E+04  0.25500000920E-02 0. -1.
    10030    2    1    2    0    0  0.00000000000E+00  0.00000000000E+00  0.93334699157E+03  0.41074663286E+04  0.40000178792E+04 0.  0.
        5    1    3    3  502    0 -0.85670998571E+03 -0.82341175189E+03 -0.11852837747E+04  0.16783559305E+04  0.46999998093E+01 0. -1.
       -5    1    3    3    0  502  0.85670998571E+03  0.82341175189E+03  0.21186307663E+04  0.24291103982E+04  0.46999998093E+01 0.  1.
</event>
<event>
 5   0  0.2599332E-08  0.4003418E+04  0.7818609E-02  0.8003857E-01
       -2   -1    0    0    0  501  0.00000000000E+00  0.00000000000E+00  0.18470568613E+04  0.18470568613E+04  0.25500000920E-02 0. -1.
        2   -1    0    0  501    0  0.00000000000E+00  0.00000000000E+00 -0.21693102338E+04  0.21693102338E+04  0.25500000920E-02 0.  1.
    10030    2    1    2    0    0  0.00000000000E+00  0.00000000000E+00 -0.32225337249E+03  0.40163670950E+04  0.40034182152E+04 0.  0.
        2    1    3    3  502    0 -0.16711848928E+04 -0.76566201815E+03  0.63373773924E+03  0.19444075689E+04  0.25500000920E-02 0.  1.
       -2    1    3    3    0  502  0.16711848928E+04  0.76566201815E+03 -0.95599111173E+03  0.20719595261E+04  0.25500000920E-02 0. -1.
</event>
<event>
 5   0  0.8329875E-09  0.3999667E+04  0.7818609E-02  0.8004614E-01
       -3   -1    0    0    0  501  0.00000000000E+00  0.00000000000E+00  0.14733894747E+04  0.14733894781E+04  0.10100000352E+00 0. -1.
        3   -1    0    0  501    0  0.00000000000E+00  0.00000000000E+00 -0.27143769364E+04  0.27143769382E+04  0.10100000352E+00 0.  1.
    10030    2    1    2    0    0  0.00000000000E+00  0.00000000000E+00 -0.12409874617E+04  0.41877664164E+04  0.39996671959E+04 0.  0.
        5    1    3    3  502    0  0.50223882909E+03 -0.15383287917E+04  0.60975967356E+03  0.17293143909E+04  0.46999998093E+01 0. -1.
       -5    1    3    3    0  502 -0.50223882909E+03  0.15383287917E+04 -0.18507471353E+04  0.24584520255E+04  0.46999998093E+01 0.  1.
</event>
<event>
 5   0  0.2650452E-08  0.4004003E+04  0.7818609E-02  0.8003739E-01
        2   -1    0    0  501    0  0.00000000000E+00  0.00000000000E+00  0.25776641033E+04  0.25776641033E+04  0.25500000920E-02 0.  1.
       -2   -1    0    0    0  501  0.00000000000E+00  0.00000000000E+00 -0.15549003271E+04  0.15549003271E+04  0.25500000920E-02 0. -1.
    10030    2    1    2    0    0  0.00000000000E+00  0.00000000000E+00  0.10227637762E+04  0.41325644303E+04  0.40040033752E+04 0.  0.
        3    1    3    3  502    0  0.14324258129E+04  0.13080533405E+04  0.34399805750E+00  0.19398060159E+04  0.10100000352E+00 0. -1.
       -3    1    3    3    0  502 -0.14324258129E+04 -0.13080533405E+04  0.10224197781E+04  0.21927584144E+04  0.10100000352E+00 0.  1.
</event>
<event>
 5   0  0.8329875E-09  0.3988191E+04  0.7818609E-02  0.8006933E-01
        1   -1    0    0  501    0  0.00000000000E+00  0.00000000000E+00  0.20304935723E+04  0.20304935723E+04  0.50400001928E-02 0. -1.
       -1   -1    0    0    0  501  0.00000000000E+00  0.00000000000E+00 -0.19583497317E+04  0.19583497317E+04  0.50400001928E-02 0.  1.
    10030    2    1    2    0    0  0.00000000000E+00  0.00000000000E+00  0.72143840647E+02  0.39888433040E+04  0.39881908392E+04 0.  0.
        3    1    3    3  502    0  0.19247987797E+04 -0.40329316900E+03 -0.29401360126E+03  0.19884515911E+04  0.10100000352E+00 0.  1.
       -3    1    3    3    0  502 -0.19247987797E+04  0.40329316900E+03  0.36615744191E+03  0.20003917129E+04  0.10100000352E+00 0. -1.
</event>
<event>
 5   0  0.2612363E-08  0.3995599E+04  0.7818609E-02  0.8005435E-01
        2   -1    0    0  501    0  0.00000000000E+00  0.00000000000E+00  0.22816248136E+04  0.22816248136E+04  0.25500000920E-02 0. -1.
       -2   -1    0    0    0  501  0.00000000000E+00  0.00000000000E+00 -0.17492809284E+04  0.17492809284E+04  0.25500000920E-02 0.  1.
    10030    2    1    2    0    0  0.00000000000E+00  0.00000000000E+00  0.53234388518E+03  0.40309057420E+04  0.39955989650E+04 0.  0.
        4    1    3    3  502    0  0.14684184733E+01 -0.18597449869E+04  0.10023789745E+04  0.21126804761E+04  0.12699999809E+01 0. -1.
       -4    1    3    3    0  502 -0.14684184733E+01  0.18597449869E+04 -0.47003508935E+03  0.19182252659E+04  0.12699999809E+01 0.  1.
</event>
<event>
 5   0  0.8329875E-09  0.3990878E+04  0.7818609E-02  0.8006389E-01
        1   -1    0    0  501    0  0.00000000000E+00  0.00000000000E+00  0.28228468844E+04  0.28228468844E+04  0.50400001928E-02 0.  1.
       -1   -1    0    0    0  501  0.00000000000E+00  0.00000000000E+00 -0.14105536616E+04  0.14105536617E+04  0.50400001928E-02 0. -1.
    10030    2    1    2    0    0  0.00000000000E+00  0.00000000000E+00  0.14122932228E+04  0.42334005461E+04  0.39908781034E+04 0.  0.
        2    1    3    3  502    0  0.36014128056E+03  0.17381567752E+04 -0.26077595365E+03  0.17941278704E+04  0.25500000920E-02 0. -1.
       -2    1    3    3    0  502 -0.36014128056E+03 -0.17381567752E+04  0.16730691764E+04  0.24392726757E+04  0.25500000920E-02 0.  1.
</event>
<event>
 5   0  0.8329875E-09  0.3997947E+04  0.7818609E-02  0.8004961E-01
        1   -1    0    0  501    0  0.00000000000E+00  0.00000000000E+00  0.17519110247E+04  0.17519110247E+04  0.50400001928E-02 0.  1.
       -1   -1    0    0    0  501  0.00000000000E+00  0.00000000000E+00 -0.22808780489E+04  0.22808780489E+04  0.50400001928E-02 0. -1.
    10030    2    1    2    0    0  0.00000000000E+00  0.00000000000E+00 -0.52896702421E+03  0.40327890736E+04  0.39979471731E+04 0.  0.
        1    1    3    3  502    0  0.12764294008E+04  0.38576329264E+03 -0.17666934533E+04  0.22134342301E+04  0.50400001928E-02 0. -1.
       -1    1    3    3    0  502 -0.12764294008E+04 -0.38576329264E+03  0.12377264291E+04  0.18193548435E+04  0.50400001928E-02 0.  1.
</event>
<event>
 5   0  0.2587493E-08  0.4000228E+04  0.7818609E-02  0.8004501E-01
        2   -1    0    0  501    0  0.00000000000E+00  0.00000000000E+00  0.18869825455E+04  0.18869825455E+04  0.25500000920E-02 0. -1.
       -2   -1    0    0    0  501  0.00000000000E+00  0.00000000000E+00 -0.21200279319E+04  0.21200279319E+04  0.25500000920E-02 0.  1.
    10030    2    1    2    0    0  0.00000000000E+00  0.00000000000E+00 -0.23304538638E+03  0.40070104773E+04  0.40002278452E+04 0.  0.
        5    1    3    3  502    0 -0.23013991123E+02  0.88742741708E+03 -0.19118720598E+04  0.21079217080E+04  0.46999998093E+01 0.  1.
       -5    1    3    3    0  502  0.23013991123E+02 -0.88742741708E+03  0.16788266734E+04  0.18990887693E+04  0.46999998093E+01 0. -1.
</event>
<event>
 5   0  0.8329875E-09  0.3998102E+04  0.7818609E-02  0.8004930E-01
        1   -1    0    0  501    0  0.00000000000E+00  0.00000000000E+00  0.23989296589E+04  0.23989296589E+04  0.50400001928E-02 0.  1.
       -1   -1    0    0    0  501  0.00000000000E+00  0.00000000000E+00 -0.16658281496E+04  0.16658281496E+04  0.50400001928E-02 0. -1.
    10030    2    1    2    0    0  0.00000000000E+00  0.00000000000E+00  0.73310150931E+03  0.40647578084E+04  0.39981018269E+04 0.  0.
        5    1    3    3  502    0  0.75505862098E+02  0.18198516974E+04  0.12040694529E+04  0.21834300248E+04  0.46999998093E+01 0.  1.
       -5    1    3    3    0  502 -0.75505862098E+02 -0.18198516974E+04 -0.47096794360E+03  0.18813277837E+04  0.46999998093E+01 0. -1.
</event>
<event>
 5   0  0.2650452E-08  0.4004054E+04  0.7818609E-02  0.8003729E-01
       -2   -1    0    0    0  501  0.00000000000E+00  0.00000000000E+00  0.15710833983E+04  0.15710833983E+04  0.25500000920E-02 0.  1.
        2   -1    0    0  501    0  0.00000000000E+00  0.00000000000E+00 -0.25511771628E+04  0.25511771628E+04  0.25500000920E-02 0. -1.
    10030    2    1    2    0    0  0.00000000000E+00  0.00000000000E+00 -0.98009376449E+03  0.41222605611E+04  0.40040539890E+04 0.  0.
        3    1    3    3  502    0  0.37646370955E+03 -0.16819191693E+04 -0.15387122005E+04  0.23104571545E+04  0.10100000352E+00 0. -1.
       -3    1    3    3    0  502 -0.37646370955E+03  0.16819191693E+04  0.55861843600E+03  0.18118034066E+04  0.10100000352E+00 0.  1.
</event>
<event>
 5   0  0.2746876E-08  0.4001822E+04  0.7818609E-02  0.8004179E-01
       -2   -1    0    0    0  501  0.00000000000E+00  0.00000000000E+00  0.24114673527E+04  0.24114673527E+04  0.25500000920E-02 0.  1.
        2   -1    0    0  501    0  0.00000000000E+00  0.00000000000E+00 -0.16602523396E+04  0.16602523396E+04  0.25500000920E-02 0. -1.
    10030    2    1    2    0    0  0.00000000000E+00  0.00000000000E+00  0.75121501304E+03  0.40717196923E+04  0.40018217423E+04 0.  0.
        1    1    3    3  502    0 -0.19473162788E+04  0.37079159913E+03  0.65260744845E+03  0.20869651605E+04  0.50400001928E-02 0. -1.
       -1    1    3    3    0  502  0.19473162788E+04 -0.37079159913E+03  0.98607564594E+02  0.19847545318E+04  0.50400001928E-02 0.  1.
</event>
<event>
 5   0  0.8329875E-09  0.4001793E+04  0.7818609E-02  0.8004185E-01
        1   -1    0    0  501    0  0.00000000000E+00  0.00000000000E+00  0.15482398661E+04  0.15482398661E+04  0.50400001928E-02 0.  1.
       -1   -1    0    0    0  501  0.00000000000E+00  0.00000000000E+00 -0.25858956607E+04  0.25858956607E+04  0.50400001928E-02 0. -1.
    10030    2    1    2    0    0  0.00000000000E+00  0.00000000000E+00 -0.10376557946E+04  0.41341355267E+04  0.40017929738E+04 0.  0.
        2    1    3    3  502    0  0.10336015628E+03  0.10104078218E+04 -0.22997830951E+04  0.25140822526E+04  0.25500000920E-02 0. -1.
       -2    1    3    3    0  502 -0.10336015628E+03 -0.10104078218E+04  0.12621273005E+04  0.16200532741E+04  0.25500000920E-02 0.  1.
</event>
<event>
 5   0  0.8329875E-09  0.3997831E+04  0.7818609E-02  0.8004984E-01
       -1   -1    0    0    0  501  0.00000000000E+00  0.00000000000E+00  0.22781453675E+04  0.22781453675E+04  0.50400001928E-02 0.  1.
        1   -1    0    0  501    0  0.00000000000E+00  0.00000000000E+00 -0.17539101913E+04  0.17539101913E+04  0.50400001928E-02 0. -1.
    10030    2    1    2    0    0  0.00000000000E+00  0.00000000000E+00  0.52423517622E+03  0.40320555588E+04  0.39978306004E+04 0.  0.
        2    1    3    3  502    0 -0.10124619382E+04 -0.15163341045E+04  0.10884694298E+04  0.21234674456E+04  0.25500000920E-02 0.  1.
       -2    1    3    3    0  502  0.10124619382E+04  0.15163341045E+04 -0.56423425358E+03  0.19085881132E+04  0.25500000920E-02 0. -1.
</event>
<event>
 5   0  0.2650452E-08  0.4002194E+04  0.7818609E-02  0.8004104E-01
        2   -1    0    0  501    0  0.00000000000E+00  0.00000000000E+00  0.24063255407E+04  0.24063255407E+04  0.25500000920E-02 0. -1.
       -2   -1    0    0    0  501  0.00000000000E+00  0.00000000000E+00 -0.16641094993E+04  0.16641094993E+04  0.25500000920E-02 0.  1.
    10030    2    1    2    0    0  0.00000000000E+00  0.00000000000E+00  0.74221604138E+03  0.40704350400E+04  0.40021939937E+04 0.  0.
        3    1    3    3  502    0 -0.18066336349E+04  0.62086345949E+03  0.97707976745E+03  0.21457123312E+04  0.10100000352E+00 0. -1.
       -3    1    3    3    0  502  0.18066336349E+04 -0.62086345949E+03 -0.23486372608E+03  0.19247227089E+04  0.10100000352E+00 0.  1.
</event>
<event>
 5   0  0.2650452E-08  0.3989251E+04  0.7818609E-02  0.8006718E-01
       -2   -1    0    0    0  501  0.00000000000E+00  0.00000000000E+00  0.15483103826E+04  0.15483103826E+04  0.25500000920E-02 0.  1.
        2   -1    0    0  501    0  0.00000000000E+00  0.00000000000E+00 -0.25695957496E+04  0.25695957496E+04  0.25500000920E-02 0. -1.
    10030    2    1    2    0    0  0.00000000000E+00  0.00000000000E+00 -0.10212853670E+04  0.41179061322E+04  0.39892514477E+04 0.  0.
        3    1    3    3  502    0 -0.96722505012E+02 -0.64351232194E+02  0.15448151327E+04  0.15491772425E+04  0.10100000352E+00 0.  1.
       -3    1    3    3    0  502  0.96722505012E+02  0.64351232194E+02 -0.25661004998E+04  0.25687288898E+04  0.10100000352E+00 0. -1.
</event>
<event>
 5   0  0.8329875E-09  0.4000530E+04  0.7818609E-02  0.8004440E-01
       -1   -1    0    0    0  501  0.00000000000E+00  0.00000000000E+00  0.25433608246E+04  0.25433608246E+04  0.50400001928E-02 0.  1.
        1   -1    0    0  501    0  0.00000000000E+00  0.00000000000E+00 -0.15731389315E+04  0.15731389315E+04  0.50400001928E-02 0. -1.
    10030    2    1    2    0    0  0.00000000000E+00  0.00000000000E+00  0.97022189314E+03  0.41164997561E+04  0.40005299299E+04 0.  0.
        4    1    3    3  502    0  0.80101645537E+03  0.15479959977E+03  0.23643799988E+04  0.25011766570E+04  0.12699999809E+01 0.  1.
       -4    1    3    3    0  502 -0.80101645537E+03 -0.15479959977E+03 -0.13941581057E+04  0.16153230991E+04  0.12699999809E+01 0. -1.
</event>
<event>
 5   0  0.8329875E-09  0.4003723E+04  0.7818609E-02  0.8003796E-01
       -1   -1    0    0    0  501  0.00000000000E+00  0.00000000000E+00  0.27640529972E+04  0.27640529972E+04  0.50400001928E-02 0. -1.
        1   -1    0    0  501    0  0.00000000000E+00  0.00000000000E+00 -0.14498456650E+04  0.14498456650E+04  0.50400001928E-02 0.  1.
    10030    2    1    2    0    0  0.00000000000E+00  0.00000000000E+00  0.13142073322E+04  0.42138986622E+04  0.40037233950E+04 0.  0.
        4    1    3    3  502    0 -0.55578856517E+03  0.19117143055E+03 -0.13569881396E+04  0.14788055548E+04  0.12699999809E+01 0.  1.
       -4    1    3    3    0  502  0.55578856517E+03 -0.19117143055E+03  0.26711954718E+04  0.27350931074E+04  0.12699999809E+01 0. -1.
</event>
<event>
 5   0  0.8329875E-09  0.3999517E+04  0.7818609E-02  0.8004644E-01
        1   -1    0    0  501    0  0.00000000000E+00  0.00000000000E+00  0.18819422018E+04  0.18819422018E+04  0.50400001928E-02 0.  1.
       -1   -1    0    0    0  501  0.00000000000E+00  0.00000000000E+00 -0.21249509327E+04  0.21249509327E+04  0.50400001928E-02 0. -1.
    10030    2    1    2    0    0  0.00000000000E+00  0.00000000000E+00 -0.24300873094E+03  0.40068931346E+04  0.39995173894E+04 0.  0.
        1    1    3    3  502    0 -0.14721573579E+04  0.62800058443E+03  0.10796239804E+04  0.19306009322E+04  0.50400001928E-02 0.  1.
       -1    1    3    3    0  502  0.14721573579E+04 -0.62800058443E+03 -0.13226327113E+04  0.20762922023E+04  0.50400001928E-02 0. -1.
</event>
<event>
 5   0  0.8329875E-09  0.3999902E+04  0.7818609E-02  0.8004566E-01
       -1   -1    0    0    0  501  0.00000000000E+00  0.00000000000E+00  0.21238782956E+04  0.21238782956E+04  0.50400001928E-02 0.  1.
        1   -1    0    0  501    0  0.00000000000E+00  0.00000000000E+00 -0.18832549840E+04  0.18832549840E+04  0.50400001928E-02 0. -1.
    10030    2    1    2    0    0  0.00000000000E+00  0.00000000000E+00  0.24062331164E+03  0.40071332796E+04  0.39999021916E+04 0.  0.
        1    1    3    3  502    0  0.19660329410E+04 -0.32286236292E+02  0.48631643377E+03  0.20255447662E+04  0.50400001928E-02 0.  1.
       -1    1    3    3    0  502 -0.19660329410E+04  0.32286236292E+02 -0.24569312213E+03  0.19815885134E+04  0.50400001928E-02 0. -1.
</event>
<event>
 5   0  0.8329875E-09  0.4007913E+04  0.7818609E-02  0.8002952E-01
       -1   -1    0    0    0  501  0.00000000000E+00  0.00000000000E+00  0.29261760907E+04  0.29261760907E+04  0.50400001928E-02 0.  1.
        1   -1    0    0  501    0  0.00000000000E+00  0.00000000000E+00 -0.13723856150E+04  0.13723856150E+04  0.50400001928E-02 0. -1.
    10030    2    1    2    0    0  0.00000000000E+00  0.00000000000E+00  0.15537904757E+04  0.42985617057E+04  0.40079131597E+04 0.  0.
        2    1    3    3  502    0  0.14819479776E+04 -0.47721455772E+03 -0.57632347902E+03  0.16601362278E+04  0.25500000920E-02 0. -1.
       -2    1    3    3    0  502 -0.14819479776E+04  0.47721455772E+03  0.21301139547E+04  0.26384254779E+04  0.25500000920E-02 0.  1.
</event>
<event>
 5   0  0.8329875E-09  0.3985197E+04  0.7818609E-02  0.8007539E-01
       -1   -1    0    0    0  501  0.00000000000E+00  0.00000000000E+00  0.29575107469E+04  0.29575107469E+04  0.50400001928E-02 0.  1.
        1   -1    0    0  501    0  0.00000000000E+00  0.00000000000E+00 -0.13424966872E+04  0.13424966872E+04  0.50400001928E-02 0. -1.
    10030    2    1    2    0    0  0.00000000000E+00  0.00000000000E+00  0.16150140597E+04  0.43000074340E+04  0.39851967981E+04 0.  0.
        5    1    3    3  502    0 -0.12176607861E+04  0.98841460232E+03 -0.51872008170E+03  0.16518940127E+04  0.46999998093E+01 0. -1.
       -5    1    3    3    0  502  0.12176607861E+04 -0.98841460232E+03  0.21337341414E+04  0.26481134213E+04  0.46999998093E+01 0.  1.
</event>
<event>
 5   0  0.8329875E-09  0.3978429E+04  0.7818609E-02  0.8008912E-01
       -1   -1    0    0    0  501  0.00000000000E+00  0.00000000000E+00  0.17709055495E+04  0.17709055495E+04  0.50400001928E-02 0. -1.
        1   -1    0    0  501    0  0.00000000000E+00  0.00000000000E+00 -0.22344353230E+04  0.22344353230E+04  0.50400001928E-02 0.  1.
    10030    2    1    2    0    0  0.00000000000E+00  0.00000000000E+00 -0.46352977351E+03  0.40053408725E+04  0.39784287921E+04 0.  0.
        2    1    3    3  502    0  0.18166394342E+03  0.18529615306E+04 -0.93686359422E+03  0.20842700440E+04  0.25500000920E-02 0. -1.
       -2    1    3    3    0  502 -0.18166394342E+03 -0.18529615306E+04  0.47333382070E+03  0.19210708285E+04  0.25500000920E-02 0.  1.
</event>
<event>
 5   0  0.2746876E-08  0.3975384E+04  0.7818609E-02  0.8009531E-01
        2   -1    0    0  501    0  0.00000000000E+00  0.00000000000E+00  0.33991501600E+04  0.33991501600E+04  0.25500000920E-02 0. -1.
       -2   -1    0    0    0  501  0.00000000000E+00  0.00000000000E+00 -0.11623257841E+04  0.11623257841E+04  0.25500000920E-02 0.  1.
    10030    2    1    2    0    0  0.00000000000E+00  0.00000000000E+00  0.22368243760E+04  0.45614759441E+04  0.39753841952E+04 0.  0.
        1    1    3    3  502    0 -0.67675319405E+03 -0.21057184246E+03  0.32492319566E+04  0.33256343296E+04  0.50400001928E-02 0. -1.
       -1    1    3    3    0  502  0.67675319405E+03  0.21057184246E+03 -0.10124075807E+04  0.12358416144E+04  0.50400001928E-02 0.  1.
</event>
<event>
 5   0  0.2746876E-08  0.3994572E+04  0.7818609E-02  0.8005643E-01
        2   -1    0    0  501    0  0.00000000000E+00  0.00000000000E+00  0.21398535084E+04  0.21398535084E+04  0.25500000920E-02 0.  1.
       -2   -1    0    0    0  501  0.00000000000E+00  0.00000000000E+00 -0.18642167203E+04  0.18642167203E+04  0.25500000920E-02 0. -1.
    10030    2    1    2    0    0  0.00000000000E+00  0.00000000000E+00  0.27563678818E+03  0.40040702287E+04  0.39945716613E+04 0.  0.
        1    1    3    3  502    0  0.90825622825E+03 -0.14723821787E+04  0.11383461874E+04  0.20709105965E+04  0.50400001928E-02 0.  1.
       -1    1    3    3    0  502 -0.90825622825E+03  0.14723821787E+04 -0.86270939917E+03  0.19331596322E+04  0.50400001928E-02 0. -1.
</event>
<event>
 5   0  0.2599332E-08  0.4015137E+04  0.7818609E-02  0.8001500E-01
        2   -1    0    0  501    0  0.00000000000E+00  0.00000000000E+00  0.22728273785E+04  0.22728273785E+04  0.25500000920E-02 0.  1.
       -2   -1    0    0    0  501  0.00000000000E+00  0.00000000000E+00 -0.17732674522E+04  0.17732674522E+04  0.25500000920E-02 0. -1.
    10030    2    1    2    0    0  0.00000000000E+00  0.00000000000E+00  0.49955992633E+03  0.40460948307E+04  0.40151367671E+04 0.  0.
        2    1    3    3  502    0  0.12919382454E+04 -0.99740233381E+03  0.14277304059E+04  0.21684856369E+04  0.25500000920E-02 0.  1.
       -2    1    3    3    0  502 -0.12919382454E+04  0.99740233381E+03 -0.92817047960E+03  0.18776091938E+04  0.25500000920E-02 0. -1.
</event>
<event>
 5   0  0.8329875E-09  0.4005671E+04  0.7818609E-02  0.8003403E-01
       -1   -1    0    0    0  501  0.00000000000E+00  0.00000000000E+00  0.27611016772E+04  0.27611016772E+04  0.50400001928E-02 0.  1.
        1   -1    0    0  501    0  0.00000000000E+00  0.00000000000E+00 -0.14528081191E+04  0.14528081191E+04  0.50400001928E-02 0. -1.
    10030    2    1    2    0    0  0.00000000000E+00  0.00000000000E+00  0.13082935580E+04  0.42139097963E+04  0.40056714465E+04 0.  0.
        4    1    3    3  502    0 -0.41148440812E+03 -0.19042655757E+04  0.16545147426E+03  0.19552295528E+04  0.12699999809E+01 0. -1.
       -4    1    3    3    0  502  0.41148440812E+03  0.19042655757E+04  0.11428420838E+04  0.22586802435E+04  0.12699999809E+01 0.  1.
</event>
<event>
 5   0  0.8329875E-09  0.4000353E+04  0.7818609E-02  0.8004475E-01
        1   -1    0    0  501    0  0.00000000000E+00  0.00000000000E+00  0.21687283980E+04  0.21687283980E+04  0.50400001928E-02 0. -1.
       -1   -1    0    0    0  501  0.00000000000E+00  0.00000000000E+00 -0.18447241613E+04  0.18447241613E+04  0.50400001928E-02 0.  1.
    10030    2    1    2    0    0  0.00000000000E+00  0.00000000000E+00  0.32400423666E+03  0.40134525593E+04  0.40003528220E+04 0.  0.
        4    1    3    3  502    0 -0.18346638410E+03 -0.94410500690E+03 -0.15975110487E+04  0.18646815658E+04  0.12699999809E+01 0.  1.
       -4    1    3    3    0  502  0.18346638410E+03  0.94410500690E+03  0.19215152853E+04  0.21487709936E+04  0.12699999809E+01 0. -1.
</event>
<event>
 5   0  0.8329875E-09  0.4002616E+04  0.7818609E-02  0.8004019E-01
       -1   -1    0    0    0  501  0.00000000000E+00  0.00000000000E+00  0.20043617517E+04  0.20043617517E+04  0.50400001928E-02 0.  1.
        1   -1    0    0  501    0  0.00000000000E+00  0.00000000000E+00 -0.19982586010E+04  0.19982586010E+04  0.50400001928E-02 0. -1.
    10030    2    1    2    0    0  0.00000000000E+00  0.00000000000E+00  0.61031506375E+01  0.40026203527E+04  0.40026156997E+04 0.  0.
        1    1    3    3  502    0 -0.14253111670E+04  0.13277777524E+04 -0.45599953018E+03  0.20006102204E+04  0.50400001928E-02 0. -1.
       -1    1    3    3    0  502  0.14253111670E+04 -0.13277777524E+04  0.46210268082E+03  0.20020101323E+04  0.50400001928E-02 0.  1.
</event>
<event>
 5   0  0.8329875E-09  0.4001713E+04  0.7818609E-02  0.8004201E-01
        1   -1    0    0  501    0  0.00000000000E+00  0.00000000000E+00  0.17167278301E+04  0.17167278301E+04  0.50400001928E-02 0. -1.
       -1   -1    0    0    0  501  0.00000000000E+00  0.00000000000E+00 -0.23320103532E+04  0.23320103532E+04  0.50400001928E-02 0.  1.
    10030    2    1    2    0    0  0.00000000000E+00  0.00000000000E+00 -0.61528252304E+03  0.40487381833E+04  0.40017131699E+04 0.  0.
        2    1    3    3  502    0  0.84358690108E+03  0.11917671578E+04  0.10764548408E+04  0.18140294492E+04  0.25500000920E-02 0. -1.
       -2    1    3    3    0  502 -0.84358690108E+03 -0.11917671578E+04 -0.16917373639E+04  0.22347087341E+04  0.25500000920E-02 0.  1.
</event>
<event>
 5   0  0.8329875E-09  0.4000055E+04  0.7818609E-02  0.8004535E-01
        1   -1    0    0  501    0  0.00000000000E+00  0.00000000000E+00  0.18051703784E+04  0.18051703784E+04  0.50400001928E-02 0.  1.
       -1   -1    0    0    0  501  0.00000000000E+00  0.00000000000E+00 -0.22159187712E+04  0.22159187712E+04  0.50400001928E-02 0. -1.
    10030    2    1    2    0    0  0.00000000000E+00  0.00000000000E+00 -0.41074839278E+03  0.40210891496E+04  0.40000554630E+04 0.  0.
        2    1    3    3  502    0  0.21913843406E+03 -0.18013089224E+04  0.64010451545E+03  0.19241801573E+04  0.25500000920E-02 0.  1.
       -2    1    3    3    0  502 -0.21913843406E+03  0.18013089224E+04 -0.10508529082E+04  0.20969089923E+04  0.25500000920E-02 0. -1.
</event>
<event>
 5   0  0.2650452E-08  0.4006074E+04  0.7818609E-02  0.8003322E-01
       -2   -1    0    0    0  501  0.00000000000E+00  0.00000000000E+00  0.23774483329E+04  0.23774483329E+04  0.25500000920E-02 0. -1.
        2   -1    0    0  501    0  0.00000000000E+00  0.00000000000E+00 -0.16875895970E+04  0.16875895970E+04  0.25500000920E-02 0.  1.
    10030    2    1    2    0    0  0.00000000000E+00  0.00000000000E+00  0.68985873585E+03  0.40650379299E+04  0.40060739255E+04 0.  0.
        3    1    3    3  502    0 -0.48208638394E+03 -0.63430800009E+02  0.23166523406E+04  0.23671309270E+04  0.10100000352E+00 0. -1.
       -3    1    3    3    0  502  0.48208638394E+03  0.63430800009E+02 -0.16267936048E+04  0.16979070030E+04  0.10100000352E+00 0.  1.
</event>
<event>
 5   0  0.2746876E-08  0.4003578E+04  0.7818609E-02  0.8003825E-01
       -2   -1    0    0    0  501  0.00000000000E+00  0.00000000000E+00  0.33504897668E+04  0.33504897668E+04  0.25500000920E-02 0. -1.
        2   -1    0    0  501    0  0.00000000000E+00  0.00000000000E+00 -0.11959923011E+04  0.11959923011E+04  0.25500000920E-02 0.  1.
    10030    2    1    2    0    0  0.00000000000E+00  0.00000000000E+00  0.21544974656E+04  0.45464820679E+04  0.40035783825E+04 0.  0.
        1    1    3    3  502    0  0.65000043534E+03 -0.12599592843E+04 -0.52759885646E+03  0.15127321367E+04  0.50400001928E-02 0.  1.
       -1    1    3    3    0  502 -0.65000043534E+03  0.12599592843E+04  0.26820963221E+04  0.30337499312E+04  0.50400001928E-02 0. -1.
</event>
<event>
 5   0  0.2650452E-08  0.4002015E+04  0.7818609E-02  0.8004140E-01
        2   -1    0    0  501    0  0.00000000000E+00  0.00000000000E+00  0.17116837864E+04  0.17116837864E+04  0.25500000920E-02 0. -1.
       -2   -1    0    0    0  501  0.00000000000E+00  0.00000000000E+00 -0.23392351576E+04  0.23392351576E+04  0.25500000920E-02 0.  1.
    10030    2    1    2    0    0  0.00000000000E+00  0.00000000000E+00 -0.62755137119E+03  0.40509189441E+04  0.40020149385E+04 0.  0.
        3    1    3    3  502    0  0.15682230716E+04  0.92673198357E+03 -0.11520716382E+04  0.21553247648E+04  0.10100000352E+00 0.  1.
       -3    1    3    3    0  502 -0.15682230716E+04 -0.92673198357E+03  0.52452026705E+03  0.18955941793E+04  0.10100000352E+00 0. -1.
</event>
<event>
 5   0  0.8329875E-09  0.3998118E+04  0.7818609E-02  0.8004926E-01
        1   -1    0    0  501    0  0.00000000000E+00  0.00000000000E+00  0.22411258032E+04  0.22411258032E+04  0.50400001928E-02 0. -1.
       -1   -1    0    0    0  501  0.00000000000E+00  0.00000000000E+00 -0.17831377296E+04  0.17831377296E+04  0.50400001928E-02 0.  1.
    10030    2    1    2    0    0  0.00000000000E+00  0.00000000000E+00  0.45798807366E+03  0.40242635328E+04  0.39981175453E+04 0.  0.
        1    1    3    3  502    0 -0.22491282417E+03 -0.61302344422E+03 -0.16727671878E+04  0.17956986346E+04  0.50400001928E-02 0.  1.
       -1    1    3    3    0  502  0.22491282417E+03  0.61302344422E+03  0.21307552614E+04  0.22285648983E+04  0.50400001928E-02 0. -1.
</event>
<event>
 5   0  0.2599332E-08  0.4000661E+04  0.7818609E-02  0.8004413E-01
        2   -1    0    0  501    0  0.00000000000E+00  0.00000000000E+00  0.25634719465E+04  0.25634719465E+04  0.25500000920E-02 0. -1.
       -2   -1    0    0    0  501  0.00000000000E+00  0.00000000000E+00 -0.15608998598E+04  0.15608998598E+04  0.25500000920E-02 0.  1.
    10030    2    1    2    0    0  0.00000000000E+00  0.00000000000E+00  0.10025720867E+04  0.41243718063E+04  0.40006614463E+04 0.  0.
        2    1    3    3  502    0 -0.12432287610E+04 -0.80032230801E+03 -0.88766515926E+03  0.17245529809E+04  0.25500000920E-02 0.  1.
       -2    1    3    3    0  502  0.12432287610E+04  0.80032230801E+03  0.18902372459E+04  0.23998188254E+04  0.25500000920E-02 0. -1.
</event>
<event>
 5   0  0.2599332E-08  0.3996384E+04  0.7818609E-02  0.8005276E-01
        2   -1    0    0  501    0  0.00000000000E+00  0.00000000000E+00  0.12396829567E+04  0.12396829567E+04  0.25500000920E-02 0. -1.
       -2   -1    0    0    0  501  0.00000000000E+00  0.00000000000E+00 -0.32208004178E+04  0.32208004178E+04  0.25500000920E-02 0.  1.
    10030    2    1    2    0    0  0.00000000000E+00  0.00000000000E+00 -0.19811174611E+04  0.44604833745E+04  0.39963840580E+04 0.  0.
        2    1    3    3  502    0 -0.42352789307E+03  0.87978733832E+03 -0.29363958116E+04  0.30944825092E+04  0.25500000920E-02 0.  1.
       -2    1    3    3    0  502  0.42352789307E+03 -0.87978733832E+03  0.95527835058E+03  0.13660008653E+04  0.25500000920E-02 0. -1.
</event>
<event>
 5   0  0.8329875E-09  0.3994962E+04  0.7818609E-02  0.8005564E-01
       -1   -1    0    0    0  501  0.00000000000E+00  0.00000000000E+00  0.21342806993E+04  0.21342806993E+04  0.50400001928E-02 0.  1.
        1   -1    0    0  501    0  0.00000000000E+00  0.00000000000E+00 -0.18694501271E+04  0.18694501271E+04  0.50400001928E-02 0. -1.
    10030    2    1    2    0    0  0.00000000000E+00  0.00000000000E+00  0.26483057221E+03  0.40037308264E+04  0.39949624902E+04 0.  0.
        1    1    3    3  502    0  0.13300784842E+04 -0.34222198646E+03 -0.13211841876E+04  0.19057156976E+04  0.50400001928E-02 0. -1.
       -1    1    3    3    0  502 -0.13300784842E+04  0.34222198646E+03  0.15860147598E+04  0.20980151288E+04  0.50400001928E-02 0.  1.
</event>
<event>
 5   0  0.8329875E-09  0.4000797E+04  0.7818609E-02  0.8004386E-01
        1   -1    0    0  501    0  0.00000000000E+00  0.00000000000E+00  0.16235786231E+04  0.16235786231E+04  0.50400001928E-02 0.  1.
       -1   -1    0    0    0  501  0.00000000000E+00  0.00000000000E+00 -0.24646754325E+04  0.24646754325E+04  0.50400001928E-02 0. -1.
    10030    2    1    2    0    0  0.00000000000E+00  0.00000000000E+00 -0.84109680944E+03  0.40882540556E+04  0.40007970931E+04 0.  0.
        4    1    3    3  502    0 -0.10800726782E+04 -0.74526490714E+03  0.11222962305E+04  0.17267099391E+04  0.12699999809E+01 0.  1.
       -4    1    3    3    0  502  0.10800726782E+04  0.74526490714E+03 -0.19633930399E+04  0.23615441165E+04  0.12699999809E+01 0. -1.
</event>
<event>
 5   0  0.8329875E-09  0.4012416E+04  0.7818609E-02  0.8002047E-01
       -3   -1    0    0    0  501  0.00000000000E+00  0.00000000000E+00  0.22332511326E+04  0.22332511348E+04  0.10100000352E+00 0.  1.
        3   -1    0    0  501    0  0.00000000000E+00  0.00000000000E+00 -0.18022467489E+04  0.18022467517E+04  0.10100000352E+00 0. -1.
    10030    2    1    2    0    0  0.00000000000E+00  0.00000000000E+00  0.43100438366E+03  0.40354978866E+04  0.40124155335E+04 0.  0.
        2    1    3    3  502    0 -0.26965949564E+03  0.13356101092E+04  0.16964876886E+04  0.21759230420E+04  0.25500000920E-02 0.  1.
       -2    1    3    3    0  502  0.26965949564E+03 -0.13356101092E+04 -0.12654833049E+04  0.18595748445E+04  0.25500000920E-02 0. -1.
</event>
<event>
 5   0  0.2612363E-08  0.4003963E+04  0.7818609E-02  0.8003748E-01
        2   -1    0    0  501    0  0.00000000000E+00  0.00000000000E+00  0.26529366523E+04  0.26529366523E+04  0.25500000920E-02 0. -1.
       -2   -1    0    0    0  501  0.00000000000E+00  0.00000000000E+00 -0.15107521107E+04  0.15107521108E+04  0.25500000920E-02 0.  1.
    10030    2    1    2    0    0  0.00000000000E+00  0.00000000000E+00  0.11421845416E+04  0.41636887631E+04  0.40039628606E+04 0.  0.
        4    1    3    3  502    0 -0.14222886779E+04 -0.81181093372E+03  0.17685430767E+04  0.24103295008E+04  0.12699999809E+01 0. -1.
       -4    1    3    3    0  502  0.14222886779E+04  0.81181093372E+03 -0.62635853511E+03  0.17533592623E+04  0.12699999809E+01 0.  1.
</event>
<event>
 5   0  0.8329875E-09  0.3991912E+04  0.7818609E-02  0.8006180E-01
        1   -1    0    0  501    0  0.00000000000E+00  0.00000000000E+00  0.24949954771E+04  0.24949954771E+04  0.50400001928E-02 0. -1.
       -1   -1    0    0    0  501  0.00000000000E+00  0.00000000000E+00 -0.15967328648E+04  0.15967328649E+04  0.50400001928E-02 0.  1.
    10030    2    1    2    0    0  0.00000000000E+00  0.00000000000E+00  0.89826261222E+03  0.40917283419E+04  0.39919124619E+04 0.  0.
        5    1    3    3  502    0 -0.19269721116E+04 -0.41080390187E+03  0.77623114682E+03  0.21176728378E+04  0.46999998093E+01 0.  1.
       -5    1    3    3    0  502  0.19269721116E+04  0.41080390187E+03  0.12203146540E+03  0.19740555041E+04  0.46999998093E+01 0. -1.
</event>
<event>
 5   0  0.2746876E-08  0.3997975E+04  0.7818609E-02  0.8004955E-01
        2   -1    0    0  501    0  0.00000000000E+00  0.00000000000E+00  0.24261607747E+04  0.24261607747E+04  0.25500000920E-02 0.  1.
       -2   -1    0    0    0  501  0.00000000000E+00  0.00000000000E+00 -0.16470266645E+04  0.16470266645E+04  0.25500000920E-02 0. -1.
    10030    2    1    2    0    0  0.00000000000E+00  0.00000000000E+00  0.77913411025E+03  0.40731874392E+04  0.39979752317E+04 0.  0.
        1    1    3    3  502    0  0.19139713845E+04 -0.32910136682E+03 -0.93007497155E+02  0.19442851038E+04  0.50400001928E-02 0. -1.
       -1    1    3    3    0  502 -0.19139713845E+04  0.32910136682E+03  0.87214160740E+03  0.21289023354E+04  0.50400001928E-02 0.  1.
</event>
<event>
 5   0  0.8329875E-09  0.4010291E+04  0.7818609E-02  0.8002474E-01
        1   -1    0    0  501    0  0.00000000000E+00  0.00000000000E+00  0.18852903431E+04  0.18852903431E+04  0.50400001928E-02 0.  1.
       -1   -1    0    0    0  501  0.00000000000E+00  0.00000000000E+00 -0.21326201894E+04  0.21326201894E+04  0.50400001928E-02 0. -1.
    10030    2    1    2    0    0  0.00000000000E+00  0.00000000000E+00 -0.24732984637E+03  0.40179105325E+04  0.40102908865E+04 0.  0.
        5    1    3    3  502    0  0.10408399205E+04  0.60562838373E+03  0.14826444488E+04  0.19100759490E+04  0.46999998093E+01 0.  1.
       -5    1    3    3    0  502 -0.10408399205E+04 -0.60562838373E+03 -0.17299742952E+04  0.21078345835E+04  0.46999998093E+01 0. -1.
</event>
<event>
 5   0  0.8329875E-09  0.4001490E+04  0.7818609E-02  0.8004246E-01
       -1   -1    0    0    0  501  0.00000000000E+00  0.00000000000E+00  0.15619173552E+04  0.15619173553E+04  0.50400001928E-02 0. -1.
        1   -1    0    0  501    0  0.00000000000E+00  0.00000000000E+00 -0.25628638574E+04  0.25628638574E+04  0.50400001928E-02 0.  1.
    10030    2    1    2    0    0  0.00000000000E+00  0.00000000000E+00 -0.10009465021E+04  0.41247812127E+04  0.40014904913E+04 0.  0.
        3    1    3    3  502    0 -0.40780892605E+02  0.48797494781E+03  0.14991939106E+04  0.15771382383E+04  0.10100000352E+00 0. -1.
       -3    1    3    3    0  502  0.40780892605E+02 -0.48797494781E+03 -0.25001404128E+04  0.25476429743E+04  0.10100000352E+00 0.  1.
</event>
<event>
 5   0  0.8329875E-09  0.3996576E+04  0.7818609E-02  0.8005238E-01
       -1   -1    0    0    0  501  0.00000000000E+00  0.00000000000E+00  0.18481891179E+04  0.18481891179E+04  0.50400001928E-02 0.  1.
        1   -1    0    0  501    0  0.00000000000E+00  0.00000000000E+00 -0.21605766280E+04  0.21605766280E+04  0.50400001928E-02 0. -1.
    10030    2    1    2    0    0  0.00000000000E+00  0.00000000000E+00 -0.31238751010E+03  0.40087657459E+04  0.39965756403E+04 0.  0.
        3    1    3    3  502    0  0.67141428695E+03  0.17987681537E+04 -0.71176962328E+03  0.20476767377E+04  0.10100000352E+00 0. -1.
       -3    1    3    3    0  502 -0.67141428695E+03 -0.17987681537E+04  0.39938211318E+03  0.19610890082E+04  0.10100000352E+00 0.  1.
</event>
<event>
 5   0  0.8329875E-09  0.3999984E+04  0.7818609E-02  0.8004550E-01
        3   -1    0    0  501    0  0.00000000000E+00  0.00000000000E+00  0.28170526840E+04  0.28170526858E+04  0.10100000352E+00 0.  1.
       -3   -1    0    0    0  501  0.00000000000E+00  0.00000000000E+00 -0.14199120488E+04  0.14199120524E+04  0.10100000352E+00 0. -1.
    10030    2    1    2    0    0  0.00000000000E+00  0.00000000000E+00  0.13971406352E+04  0.42369647382E+04  0.39999835297E+04 0.  0.
        3    1    3    3  502    0  0.14986202767E+04 -0.11466793931E+04  0.14005798073E+04  0.23499702490E+04  0.10100000352E+00 0.  1.
       -3    1    3    3    0  502 -0.14986202767E+04  0.11466793931E+04 -0.34391720442E+01  0.18869944892E+04  0.10100000352E+00 0. -1.
</event>
<event>
 5   0  0.2612363E-08  0.4003028E+04  0.7818609E-02  0.8003936E-01
       -2   -1    0    0    0  501  0.00000000000E+00  0.00000000000E+00  0.16536323258E+04  0.16536323258E+04  0.25500000920E-02 0.  1.
        2   -1    0    0  501    0  0.00000000000E+00  0.00000000000E+00 -0.24225804966E+04  0.24225804966E+04  0.25500000920E-02 0. -1.
    10030    2    1    2    0    0  0.00000000000E+00  0.00000000000E+00 -0.76894817074E+03  0.40762128224E+04  0.40030275648E+04 0.  0.
        4    1    3    3  502    0  0.34065551650E+02  0.12629199407E+04  0.11963019933E+04  0.17399043970E+04  0.12699999809E+01 0.  1.
       -4    1    3    3    0  502 -0.34065551650E+02 -0.12629199407E+04 -0.19652501641E+04  0.23363084254E+04  0.12699999809E+01 0. -1.
</event>
<event>
 5   0  0.2650452E-08  0.3996747E+04  0.7818609E-02  0.8005203E-01
       -2   -1    0    0    0  501  0.00000000000E+00  0.00000000000E+00  0.19566990142E+04  0.19566990142E+04  0.25500000920E-02 0.  1.
        2   -1    0    0  501    0  0.00000000000E+00  0.00000000000E+00 -0.20409355025E+04  0.20409355025E+04  0.25500000920E-02 0. -1.
    10030    2    1    2    0    0  0.00000000000E+00  0.00000000000E+00 -0.84236488323E+02  0.39976345167E+04  0.39967469200E+04 0.  0.
        3    1    3    3  502    0 -0.13183011105E+04  0.92930596243E+02 -0.15414316449E+04  0.20304101654E+04  0.10100000352E+00 0. -1.
       -3    1    3    3    0  502  0.13183011105E+04 -0.92930596243E+02  0.14571951566E+04  0.19672243513E+04  0.10100000352E+00 0.  1.
</event>
<event>
 5   0  0.2599332E-08  0.3997509E+04  0.7818609E-02  0.8005049E-01
        2   -1    0    0  501    0  0.00000000000E+00  0.00000000000E+00  0.15165220250E+04  0.15165220250E+04  0.25500000920E-02 0. -1.
       -2   -1    0    0    0  501  0.00000000000E+00  0.00000000000E+00 -0.26343304754E+04  0.26343304754E+04  0.25500000920E-02 0.  1.
    10030    2    1    2    0    0  0.00000000000E+00  0.00000000000E+00 -0.11178084505E+04  0.41508525004E+04  0.39975093181E+04 0.  0.
        2    1    3    3  502    0  0.85531383978E+03 -0.17187942539E+04  0.18487937290E+02  0.19199367843E+04  0.25500000920E-02 0.  1.
       -2    1    3    3    0  502 -0.85531383978E+03  0.17187942539E+04 -0.11362963878E+04  0.22309157162E+04  0.25500000920E-02 0. -1.
</event>
<event>
 5   0  0.2746876E-08  0.4002020E+04  0.7818609E-02  0.8004139E-01
       -2   -1    0    0    0  501  0.00000000000E+00  0.00000000000E+00  0.21041692438E+04  0.21041692438E+04  0.25500000920E-02 0.  1.
        2   -1    0    0  501    0  0.00000000000E+00  0.00000000000E+00 -0.19029085374E+04  0.19029085374E+04  0.25500000920E-02 0. -1.
    10030    2    1    2    0    0  0.00000000000E+00  0.00000000000E+00  0.20126070645E+03  0.40070777813E+04  0.40020202989E+04 0.  0.
        1    1    3    3  502    0  0.17993237644E+04 -0.10265056033E+02  0.97716240357E+03  0.20475638558E+04  0.50400001928E-02 0.  1.
       -1    1    3    3    0  502 -0.17993237644E+04  0.10265056033E+02 -0.77590169713E+03  0.19595139255E+04  0.50400001928E-02 0. -1.
</event>
<event>
 5   0  0.2587493E-08  0.3996872E+04  0.7818609E-02  0.8005178E-01
        2   -1    0    0  501    0  0.00000000000E+00  0.00000000000E+00  0.26020825272E+04  0.26020825272E+04  0.25500000920E-02 0.  1.
       -2   -1    0    0    0  501  0.00000000000E+00  0.00000000000E+00 -0.15348266312E+04  0.15348266312E+04  0.25500000920E-02 0. -1.
    10030    2    1    2    0    0  0.00000000000E+00  0.00000000000E+00  0.10672558960E+04  0.41369091584E+04  0.39968715563E+04 0.  0.
        5    1    3    3  502    0  0.12045640149E+04  0.15879846474E+04  0.38344498867E+03  0.20297097959E+04  0.46999998093E+01 0. -1.
       -5    1    3    3    0  502 -0.12045640149E+04 -0.15879846474E+04  0.68381090734E+03  0.21071993625E+04  0.46999998093E+01 0.  1.
</event>
<event>
 5   0  0.2650452E-08  0.3968991E+04  0.7818609E-02  0.8010831E-01
       -2   -1    0    0    0  501  0.00000000000E+00  0.00000000000E+00  0.16970098936E+04  0.16970098936E+04  0.25500000920E-02 0.  1.
        2   -1    0    0  501    0  0.00000000000E+00  0.00000000000E+00 -0.23206833732E+04  0.23206833732E+04  0.25500000920E-02 0. -1.
    10030    2    1    2    0    0  0.00000000000E+00  0.00000000000E+00 -0.62367347965E+03  0.40176932668E+04  0.39689911284E+04 0.  0.
        3    1    3    3  502    0  0.42134762152E+03  0.42991822039E+03 -0.22260347058E+04  0.23059908968E+04  0.10100000352E+00 0. -1.
       -3    1    3    3    0  502 -0.42134762152E+03 -0.42991822039E+03  0.16023612261E+04  0.17117023701E+04  0.10100000352E+00 0.  1.
</event>
<event>
 5   0  0.8329875E-09  0.3998246E+04  0.7818609E-02  0.8004901E-01
        1   -1    0    0  501    0  0.00000000000E+00  0.00000000000E+00  0.27777984054E+04  0.27777984054E+04  0.50400001928E-02 0. -1.
       -1   -1    0    0    0  501  0.00000000000E+00  0.00000000000E+00 -0.14387265999E+04  0.14387265999E+04  0.50400001928E-02 0.  1.
    10030    2    1    2    0    0  0.00000000000E+00  0.00000000000E+00  0.13390718054E+04  0.42165250053E+04  0.39982458429E+04 0.  0.
        3    1    3    3  502    0 -0.22964667272E+03  0.82298194300E+03  0.25755388313E+04  0.27135653953E+04  0.10100000352E+00 0. -1.
       -3    1    3    3    0  502  0.22964667272E+03 -0.82298194300E+03 -0.12364670259E+04  0.15029596100E+04  0.10100000352E+00 0.  1.
</event>
<event>
 5   0  0.8329875E-09  0.3998880E+04  0.7818609E-02  0.8004773E-01
       -1   -1    0    0    0  501  0.00000000000E+00  0.00000000000E+00  0.15453241527E+04  0.15453241527E+04  0.50400001928E-02 0. -1.
        1   -1    0    0  501    0  0.00000000000E+00  0.00000000000E+00 -0.25870044015E+04  0.25870044015E+04  0.50400001928E-02 0.  1.
    10030    2    1    2    0    0  0.00000000000E+00  0.00000000000E+00 -0.10416802488E+04  0.41323285541E+04  0.39988800355E+04 0.  0.
        3    1    3    3  502    0 -0.12722694858E+04 -0.66608988377E+03 -0.19584581828E+04  0.24285600346E+04  0.10100000352E+00 0.  1.
       -3    1    3    3    0  502  0.12722694858E+04  0.66608988377E+03  0.91677793402E+03  0.17037685195E+04  0.10100000352E+00 0. -1.
</event>
<event>
 5   0  0.8329875E-09  0.4001879E+04  0.7818609E-02  0.8004168E-01
        1   -1    0    0  501    0  0.00000000000E+00  0.00000000000E+00  0.23203601028E+04  0.23203601028E+04  0.50400001928E-02 0. -1.
       -1   -1    0    0    0  501  0.00000000000E+00  0.00000000000E+00 -0.17254904654E+04  0.17254904654E+04  0.50400001928E-02 0.  1.
    10030    2    1    2    0    0  0.00000000000E+00  0.00000000000E+00  0.59486963740E+03  0.40458505682E+04  0.40018791754E+04 0.  0.
        5    1    3    3  502    0 -0.12540253523E+04  0.15488762171E+04  0.47868104002E+03  0.20495742846E+04  0.46999998093E+01 0. -1.
       -5    1    3    3    0  502  0.12540253523E+04 -0.15488762171E+04  0.11618859739E+03  0.19962762836E+04  0.46999998093E+01 0.  1.
</event>
<event>
 5   0  0.8329875E-09  0.4000840E+04  0.7818609E-02  0.8004377E-01
        1   -1    0    0  501    0  0.00000000000E+00  0.00000000000E+00  0.26756802473E+04  0.26756802473E+04  0.50400001928E-02 0.  1.
       -1   -1    0    0    0  501  0.00000000000E+00  0.00000000000E+00 -0.14955749548E+04  0.14955749548E+04  0.50400001928E-02 0. -1.
    10030    2    1    2    0    0  0.00000000000E+00  0.00000000000E+00  0.11801052925E+04  0.41712552021E+04  0.40008400942E+04 0.  0.
        3    1    3    3  502    0  0.15039175761E+04 -0.86071535068E+03 -0.45206319222E+03  0.17907987409E+04  0.10100000352E+00 0. -1.
       -3    1    3    3    0  502 -0.15039175761E+04  0.86071535068E+03  0.16321684847E+04  0.23804564611E+04  0.10100000352E+00 0.  1.
</event>
<event>
 5   0  0.2599332E-08  0.3990458E+04  0.7818609E-02  0.8006474E-01
       -2   -1    0    0    0  501  0.00000000000E+00  0.00000000000E+00  0.18126843609E+04  0.18126843609E+04  0.25500000920E-02 0.  1.
        2   -1    0    0  501    0  0.00000000000E+00  0.00000000000E+00 -0.21961568994E+04  0.21961568994E+04  0.25500000920E-02 0. -1.
    10030    2    1    2    0    0  0.00000000000E+00  0.00000000000E+00 -0.38347253849E+03  0.40088412603E+04  0.39904582522E+04 0.  0.
        2    1    3    3  502    0 -0.75628762925E+03 -0.55918512862E+02  0.16622576212E+04  0.18270736869E+04  0.25500000920E-02 0.  1.
       -2    1    3    3    0  502  0.75628762925E+03  0.55918512862E+02 -0.20457301597E+04  0.21817675734E+04  0.25500000920E-02 0. -1.
</event>
<event>
 5   0  0.2650452E-08  0.3997377E+04  0.7818609E-02  0.8005076E-01
       -2   -1    0    0    0  501  0.00000000000E+00  0.00000000000E+00  0.29005236838E+04  0.29005236838E+04  0.25500000920E-02 0.  1.
        2   -1    0    0  501    0  0.00000000000E+00  0.00000000000E+00 -0.13772535785E+04  0.13772535785E+04  0.25500000920E-02 0. -1.
    10030    2    1    2    0    0  0.00000000000E+00  0.00000000000E+00  0.15232701054E+04  0.42777772623E+04  0.39973774517E+04 0.  0.
        3    1    3    3  502    0 -0.37160006399E+03  0.19637754855E+04  0.77875229320E+03  0.21449838949E+04  0.10100000352E+00 0.  1.
       -3    1    3    3    0  502  0.37160006399E+03 -0.19637754855E+04  0.74451781215E+03  0.21327933674E+04  0.10100000352E+00 0. -1.
</event>
<event>
 5   0  0.8329875E-09  0.3996819E+04  0.7818609E-02  0.8005189E-01
       -1   -1    0    0    0  501  0.00000000000E+00  0.00000000000E+00  0.21458952052E+04  0.21458952052E+04  0.50400001928E-02 0. -1.
        1   -1    0    0  501    0  0.00000000000E+00  0.00000000000E+00 -0.18610601481E+04  0.18610601481E+04  0.50400001928E-02 0.  1.
    10030    2    1    2    0    0  0.00000000000E+00  0.00000000000E+00  0.28483505708E+03  0.40069553533E+04  0.39968187591E+04 0.  0.
        3    1    3    3  502    0 -0.10888078817E+04  0.62649597063E+03 -0.14157572687E+04  0.18927145739E+04  0.10100000352E+00 0.  1.
       -3    1    3    3    0  502  0.10888078817E+04 -0.62649597063E+03  0.17005923257E+04  0.21142407793E+04  0.10100000352E+00 0. -1.
</event>
<event>
 5   0  0.8329875E-09  0.4005102E+04  0.7818609E-02  0.8003518E-01
       -1   -1    0    0    0  501  0.00000000000E+00  0.00000000000E+00  0.20779809506E+04  0.20779809506E+04  0.50400001928E-02 0. -1.
        1   -1    0    0  501    0  0.00000000000E+00  0.00000000000E+00 -0.19298595972E+04  0.19298595972E+04  0.50400001928E-02 0.  1.
    10030    2    1    2    0    0  0.00000000000E+00  0.00000000000E+00  0.14812135346E+03  0.40078405478E+04  0.40051024857E+04 0.  0.
        2    1    3    3  502    0 -0.13466738458E+04 -0.14740650656E+04 -0.80360132524E+02  0.19982132057E+04  0.25500000920E-02 0.  1.
       -2    1    3    3    0  502  0.13466738458E+04  0.14740650656E+04  0.22848148598E+03  0.20096273421E+04  0.25500000920E-02 0. -1.
</event>
<event>
 5   0  0.2599332E-08  0.3997354E+04  0.7818609E-02  0.8005081E-01
       -2   -1    0    0    0  501  0.00000000000E+00  0.00000000000E+00  0.15828834410E+04  0.15828834410E+04  0.25500000920E-02 0. -1.
        2   -1    0    0  501    0  0.00000000000E+00  0.00000000000E+00 -0.25236916428E+04  0.25236916428E+04  0.25500000920E-02 0.  1.
    10030    2    1    2    0    0  0.00000000000E+00  0.00000000000E+00 -0.94080820179E+03  0.41065750838E+04  0.39973539806E+04 0.  0.
        2    1    3    3  502    0 -0.17565097759E+04  0.95270448267E+03 -0.42758446268E+03  0.20434776477E+04  0.25500000920E-02 0.  1.
       -2    1    3    3    0  502  0.17565097759E+04 -0.95270448267E+03 -0.51322373911E+03  0.20630974360E+04  0.25500000920E-02 0. -1.
</event>
<event>
 5   0  0.8329875E-09  0.4001348E+04  0.7818609E-02  0.8004275E-01
        1   -1    0    0  501    0  0.00000000000E+00  0.00000000000E+00  0.13031448287E+04  0.13031448287E+04  0.50400001928E-02 0.  1.
       -1   -1    0    0    0  501  0.00000000000E+00  0.00000000000E+00 -0.30715668352E+04  0.30715668352E+04  0.50400001928E-02 0. -1.
    10030    2    1    2    0    0  0.00000000000E+00  0.00000000000E+00 -0.17684220065E+04  0.43747116639E+04  0.40013479915E+04 0.  0.
        4    1    3    3  502    0  0.11851440429E+04  0.68279792197E+03 -0.24805609293E+04  0.28326601528E+04  0.12699999809E+01 0. -1.
       -4    1    3    3    0  502 -0.11851440429E+04 -0.68279792197E+03  0.71213892277E+03  0.15420515111E+04  0.12699999809E+01 0.  1.
</event>
<event>
 5   0  0.2746876E-08  0.3999825E+04  0.7818609E-02  0.8004582E-01
       -2   -1    0    0    0  501  0.00000000000E+00  0.00000000000E+00  0.12938994200E+04  0.12938994200E+04  0.25500000920E-02 0.  1.
        2   -1    0    0  501    0  0.00000000000E+00  0.00000000000E+00 -0.30911597832E+04  0.30911597832E+04  0.25500000920E-02 0. -1.
    10030    2    1    2    0    0  0.00000000000E+00  0.00000000000E+00 -0.17972603632E+04  0.43850592033E+04  0.39998249215E+04 0.  0.
        1    1    3    3  502    0  0.71649239921E+03 -0.92843584869E+03 -0.26746214902E+04  0.29204373986E+04  0.50400001928E-02 0. -1.
       -1    1    3    3    0  502 -0.71649239921E+03  0.92843584869E+03  0.87736112706E+03  0.14646218046E+04  0.50400001928E-02 0.  1.
</event>
<event>
 5   0  0.8329875E-09  0.3999439E+04  0.7818609E-02  0.8004660E-01
       -1   -1    0    0    0  501  0.00000000000E+00  0.00000000000E+00  0.16378409519E+04  0.16378409519E+04  0.50400001928E-02 0.  1.
        1   -1    0    0  501    0  0.00000000000E+00  0.00000000000E+00 -0.24415551734E+04  0.24415551734E+04  0.50400001928E-02 0. -1.
    10030    2    1    2    0    0  0.00000000000E+00  0.00000000000E+00 -0.80371422152E+03  0.40793961254E+04  0.39994394855E+04 0.  0.
        4    1    3    3  502    0 -0.10975755341E+03 -0.45872602125E+03 -0.23840038844E+04  0.24302165370E+04  0.12699999809E+01 0. -1.
       -4    1    3    3    0  502  0.10975755341E+03  0.45872602125E+03  0.15802896629E+04  0.16491795883E+04  0.12699999809E+01 0.  1.
</event>
<event>
 5   0  0.8329875E-09  0.4005913E+04  0.7818609E-02  0.8003355E-01
       -1   -1    0    0    0  501  0.00000000000E+00  0.00000000000E+00  0.17736393330E+04  0.17736393330E+04  0.50400001928E-02 0.  1.
        1   -1    0    0  501    0  0.00000000000E+00  0.00000000000E+00 -0.22619224850E+04  0.22619224850E+04  0.50400001928E-02 0. -1.
    10030    2    1    2    0    0  0.00000000000E+00  0.00000000000E+00 -0.48828315206E+03  0.40355618180E+04  0.40059129734E+04 0.  0.
        3    1    3    3  502    0 -0.16152111645E+04  0.10952342860E+04 -0.69846662705E+03  0.20727520079E+04  0.10100000352E+00 0.  1.
       -3    1    3    3    0  502  0.16152111645E+04 -0.10952342860E+04  0.21018347499E+03  0.19628098101E+04  0.10100000352E+00 0. -1.
</event>
<event>
 5   0  0.8329875E-09  0.3994757E+04  0.7818609E-02  0.8005605E-01
       -1   -1    0    0    0  501  0.00000000000E+00  0.00000000000E+00  0.19798115165E+04  0.19798115165E+04  0.50400001928E-02 0.  1.
        1   -1    0    0  501    0  0.00000000000E+00  0.00000000000E+00 -0.20151010864E+04  0.20151010864E+04  0.50400001928E-02 0. -1.
    10030    2    1    2    0    0  0.00000000000E+00  0.00000000000E+00 -0.35289569925E+02  0.39949126028E+04  0.39947567324E+04 0.  0.
        2    1    3    3  502    0 -0.11553877173E+04  0.16223574978E+04 -0.16783622971E+03  0.19987830367E+04  0.25500000920E-02 0.  1.
       -2    1    3    3    0  502  0.11553877173E+04 -0.16223574978E+04  0.13254665978E+03  0.19961295661E+04  0.25500000920E-02 0. -1.
</event>
<event>
 5   0  0.2746876E-08  0.3986930E+04  0.7818609E-02  0.8007188E-01
       -2   -1    0    0    0  501  0.00000000000E+00  0.00000000000E+00  0.29838270780E+04  0.29838270780E+04  0.25500000920E-02 0.  1.
        2   -1    0    0  501    0  0.00000000000E+00  0.00000000000E+00 -0.13318138939E+04  0.13318138939E+04  0.25500000920E-02 0. -1.
    10030    2    1    2    0    0  0.00000000000E+00  0.00000000000E+00  0.16520131841E+04  0.43156409719E+04  0.39869298260E+04 0.  0.
        1    1    3    3  502    0  0.60406024272E+03 -0.10215315705E+04  0.25597770988E+04  0.28215021393E+04  0.50400001928E-02 0.  1.
       -1    1    3    3    0  502 -0.60406024272E+03  0.10215315705E+04 -0.90776391463E+03  0.14941388326E+04  0.50400001928E-02 0. -1.
</event>
<event>
 5   0  0.2587493E-08  0.3971728E+04  0.7818609E-02  0.8010274E-01
        2   -1    0    0  501    0  0.00000000000E+00  0.00000000000E+00  0.16336079334E+04  0.16336079334E+04  0.25500000920E-02 0.  1.
       -2   -1    0    0    0  501  0.00000000000E+00  0.00000000000E+00 -0.24140770350E+04  0.24140770350E+04  0.25500000920E-02 0. -1.
    10030    2    1    2    0    0  0.00000000000E+00  0.00000000000E+00 -0.78046910158E+03  0.40476849684E+04  0.39717277834E+04 0.  0.
        5    1    3    3  502    0 -0.16174740989E+04 -0.61500172241E+02  0.78225855056E+03  0.17977639617E+04  0.46999998093E+01 0.  1.
       -5    1    3    3    0  502  0.16174740989E+04  0.61500172241E+02 -0.15627276521E+04  0.22499210068E+04  0.46999998093E+01 0. -1.
</event>
<event>
 5   0  0.8329875E-09  0.3999223E+04  0.7818609E-02  0.8004703E-01
       -1   -1    0    0    0  501  0.00000000000E+00  0.00000000000E+00  0.16269661005E+04  0.16269661005E+04  0.50400001928E-02 0.  1.
        1   -1    0    0  501    0  0.00000000000E+00  0.00000000000E+00 -0.24576087455E+04  0.24576087455E+04  0.50400001928E-02 0. -1.
    10030    2    1    2    0    0  0.00000000000E+00  0.00000000000E+00 -0.83064264499E+03  0.40845748460E+04  0.39992229832E+04 0.  0.
        5    1    3    3  502    0  0.66543948299E+03  0.64142770814E+02  0.15094411832E+04  0.16508660685E+04  0.46999998093E+01 0.  1.
       -5    1    3    3    0  502 -0.66543948299E+03 -0.64142770814E+02 -0.23400838282E+04  0.24337087775E+04  0.46999998093E+01 0. -1.
</event>
<event>
 5   0  0.2612363E-08  0.3999432E+04  0.7818609E-02  0.8004661E-01
        2   -1    0    0  501    0  0.00000000000E+00  0.00000000000E+00  0.22661364038E+04  0.22661364038E+04  0.25500000920E-02 0. -1.
       -2   -1    0    0    0  501  0.00000000000E+00  0.00000000000E+00 -0.17646176034E+04  0.17646176034E+04  0.25500000920E-02 0.  1.
    10030    2    1    2    0    0  0.00000000000E+00  0.00000000000E+00  0.50151880041E+03  0.40307540071E+04  0.39994320545E+04 0.  0.
        4    1    3    3  502    0 -0.46392082233E+03 -0.18458773333E+04  0.86905970700E+03  0.20923078278E+04  0.12699999809E+01 0. -1.
       -4    1    3    3    0  502  0.46392082233E+03  0.18458773333E+04 -0.36754090659E+03  0.19384461793E+04  0.12699999809E+01 0.  1.
</event>
<event>
 5   0  0.8329875E-09  0.3997344E+04  0.7818609E-02  0.8005082E-01
        1   -1    0    0  501    0  0.00000000000E+00  0.00000000000E+00  0.20328797462E+04  0.20328797462E+04  0.50400001928E-02 0.  1.
       -1   -1    0    0    0  501  0.00000000000E+00  0.00000000000E+00 -0.19650402366E+04  0.19650402366E+04  0.50400001928E-02 0. -1.
    10030    2    1    2    0    0  0.00000000000E+00  0.00000000000E+00  0.67839509513E+02  0.39979199828E+04  0.39973443672E+04 0.  0.
        1    1    3    3  502    0 -0.14162803299E+04  0.67303858423E+03 -0.12055567261E+04  0.19779276854E+04  0.50400001928E-02 0. -1.
       -1    1    3    3    0  502  0.14162803299E+04 -0.67303858423E+03  0.12733962356E+04  0.20199922974E+04  0.50400001928E-02 0.  1.
</event>
<event>
 5   0  0.8329875E-09  0.4013661E+04  0.7818609E-02  0.8001796E-01
       -3   -1    0    0    0  501  0.00000000000E+00  0.00000000000E+00  0.16988332427E+04  0.16988332457E+04  0.10100000352E+00 0. -1.
        3   -1    0    0  501    0  0.00000000000E+00  0.00000000000E+00 -0.23706677120E+04  0.23706677142E+04  0.10100000352E+00 0.  1.
    10030    2    1    2    0    0  0.00000000000E+00  0.00000000000E+00 -0.67183446926E+03  0.40695009599E+04  0.40136612349E+04 0.  0.
        2    1    3    3  502    0  0.47790934220E+03 -0.16422855888E+04 -0.14002209734E+04  0.22104565295E+04  0.25500000920E-02 0.  1.
       -2    1    3    3    0  502 -0.47790934220E+03  0.16422855888E+04  0.72838650417E+03  0.18590444304E+04  0.25500000920E-02 0. -1.
</event>
<event>
 5   0  0.8329875E-09  0.4000576E+04  0.7818609E-02  0.8004430E-01
        1   -1    0    0  501    0  0.00000000000E+00  0.00000000000E+00  0.21863958599E+04  0.21863958599E+04  0.50400001928E-02 0. -1.
       -1   -1    0    0    0  501  0.00000000000E+00  0.00000000000E+00 -0.18300220274E+04  0.18300220274E+04  0.50400001928E-02 0.  1.
    10030    2    1    2    0    0  0.00000000000E+00  0.00000000000E+00  0.35637383247E+03  0.40164178873E+04  0.40005762506E+04 0.  0.
        2    1    3    3  502    0  0.62755497570E+03 -0.32832800450E+03  0.20562971540E+04  0.21748522965E+04  0.25500000920E-02 0. -1.
       -2    1    3    3    0  502 -0.62755497570E+03  0.32832800450E+03 -0.16999233215E+04  0.18415655908E+04  0.25500000920E-02 0.  1.
</event>
<event>
 5   0  0.8329875E-09  0.4008838E+04  0.7818609E-02  0.8002766E-01
        1   -1    0    0  501    0  0.00000000000E+00  0.00000000000E+00  0.12478425681E+04  0.12478425681E+04  0.50400001928E-02 0. -1.
       -1   -1    0    0    0  501  0.00000000000E+00  0.00000000000E+00 -0.32197130068E+04  0.32197130068E+04  0.50400001928E-02 0.  1.
    10030    2    1    2    0    0  0.00000000000E+00  0.00000000000E+00 -0.19718704387E+04  0.44675555749E+04  0.40088377104E+04 0.  0.
        2    1    3    3  502    0 -0.12886848662E+04  0.18502210711E+03 -0.26843861767E+04  0.29834327561E+04  0.25500000920E-02 0.  1.
       -2    1    3    3    0  502  0.12886848662E+04 -0.18502210711E+03  0.71251573798E+03  0.14841228189E+04  0.25500000920E-02 0. -1.
</event>
<event>
 5   0  0.8329875E-09  0.3998524E+04  0.7818609E-02  0.8004844E-01
       -3   -1    0    0    0  501  0.00000000000E+00  0.00000000000E+00  0.23290020445E+04  0.23290020467E+04  0.10100000352E+00 0.  1.
        3   -1    0    0  501    0  0.00000000000E+00  0.00000000000E+00 -0.17162061755E+04  0.17162061785E+04  0.10100000352E+00 0. -1.
    10030    2    1    2    0    0  0.00000000000E+00  0.00000000000E+00  0.61279586895E+03  0.40452082252E+04  0.39985235785E+04 0.  0.
        3    1    3    3  502    0  0.42771611582E+03  0.93413688024E+03 -0.14287051050E+04  0.17597588113E+04  0.10100000352E+00 0. -1.
       -3    1    3    3    0  502 -0.42771611582E+03 -0.93413688024E+03  0.20415009739E+04  0.22854494139E+04  0.10100000352E+00 0.  1.
</event>
<event>
 5   0  0.8329875E-09  0.3998275E+04  0.7818609E-02  0.8004895E-01
        3   -1    0    0  501    0  0.00000000000E+00  0.00000000000E+00  0.19921473642E+04  0.19921473668E+04  0.10100000352E+00 0.  1.
       -3   -1    0    0    0  501  0.00000000000E+00  0.00000000000E+00 -0.20061525285E+04  0.20061525310E+04  0.10100000352E+00 0. -1.
    10030    2    1    2    0    0  0.00000000000E+00  0.00000000000E+00 -0.14005164232E+02  0.39982998978E+04  0.39982753692E+04 0.  0.
        1    1    3    3  502    0  0.13161439794E+04 -0.53211319875E+03  0.14005471895E+04  0.19942196120E+04  0.50400001928E-02 0.  1.
       -1    1    3    3    0  502 -0.13161439794E+04  0.53211319875E+03 -0.14145523537E+04  0.20040802859E+04  0.50400001928E-02 0. -1.
</event>
<event>
 5   0  0.8329875E-09  0.3995873E+04  0.7818609E-02  0.8005380E-01
        1   -1    0    0  501    0  0.00000000000E+00  0.00000000000E+00  0.12057221893E+04  0.12057221894E+04  0.50400001928E-02 0. -1.
       -1   -1    0    0    0  501  0.00000000000E+00  0.00000000000E+00 -0.33106722267E+04  0.33106722267E+04  0.50400001928E-02 0.  1.
    10030    2    1    2    0    0  0.00000000000E+00  0.00000000000E+00 -0.21049500373E+04  0.45163944160E+04  0.39958733540E+04 0.  0.
        2    1    3    3  502    0 -0.19863444847E+04 -0.80330954817E+02 -0.12777736274E+04  0.23632018359E+04  0.25500000920E-02 0. -1.
       -2    1    3    3    0  502  0.19863444847E+04  0.80330954817E+02 -0.82717640993E+03  0.21531925802E+04  0.25500000920E-02 0.  1.
</event>
<event>
 5   0  0.8329875E-09  0.4001516E+04  0.7818609E-02  0.8004241E-01
       -1   -1    0    0    0  501  0.00000000000E+00  0.00000000000E+00  0.24321302525E+04  0.24321302525E+04  0.50400001928E-02 0. -1.
        1   -1    0    0  501    0  0.00000000000E+00  0.00000000000E+00 -0.16458960289E+04  0.16458960289E+04  0.50400001928E-02 0.  1.
    10030    2    1    2    0    0  0.00000000000E+00  0.00000000000E+00  0.78623422356E+03  0.40780262814E+04  0.40015164747E+04 0.  0.
        2    1    3    3  502    0 -0.85763502327E+03  0.88759639104E+03 -0.12116876687E+04  0.17296104166E+04  0.25500000920E-02 0.  1.
       -2    1    3    3    0  502  0.85763502327E+03 -0.88759639104E+03  0.19979218923E+04  0.23484158648E+04  0.25500000920E-02 0. -1.
</event>
<event>
 5   0  0.8329875E-09  0.4003079E+04  0.7818609E-02  0.8003926E-01
       -4   -1    0    0    0  501  0.00000000000E+00  0.00000000000E+00  0.17627463270E+04  0.17627467845E+04  0.12699999809E+01 0. -1.
        4   -1    0    0  501    0  0.00000000000E+00  0.00000000000E+00 -0.22726807620E+04  0.22726811168E+04  0.12699999809E+01 0.  1.
    10030    2    1    2    0    0  0.00000000000E+00  0.00000000000E+00 -0.50993443496E+03  0.40354279014E+04  0.40030794670E+04 0.  0.
        5    1    3    3  502    0  0.14123313495E+04  0.51015062594E+03 -0.15889922023E+04  0.21862872206E+04  0.46999998093E+01 0.  1.
       -5    1    3    3    0  502 -0.14123313495E+04 -0.51015062594E+03  0.10790577674E+04  0.18491406808E+04  0.46999998093E+01 0. -1.
</event>
<event>
 5   0  0.2746876E-08  0.3994819E+04  0.7818609E-02  0.8005592E-01
        2   -1    0    0  501    0  0.00000000000E+00  0.00000000000E+00  0.21139283572E+04  0.21139283572E+04  0.25500000920E-02 0. -1.
       -2   -1    0    0    0  501  0.00000000000E+00  0.00000000000E+00 -0.18873135515E+04  0.18873135515E+04  0.25500000920E-02 0.  1.
    10030    2    1    2    0    0  0.00000000000E+00  0.00000000000E+00  0.22661480571E+03  0.40012419087E+04  0.39948194630E+04 0.  0.
        1    1    3    3  502    0  0.12628181508E+04  0.86457134341E+03 -0.11722873237E+04  0.19278098608E+04  0.50400001928E-02 0.  1.
       -1    1    3    3    0  502 -0.12628181508E+04 -0.86457134341E+03  0.13989021294E+04  0.20734320480E+04  0.50400001928E-02 0. -1.
</event>
<event>
 5   0  0.8329875E-09  0.3991424E+04  0.7818609E-02  0.8006279E-01
       -3   -1    0    0    0  501  0.00000000000E+00  0.00000000000E+00  0.24448205182E+04  0.24448205203E+04  0.10100000352E+00 0. -1.
        3   -1    0    0  501    0  0.00000000000E+00  0.00000000000E+00 -0.16291036010E+04  0.16291036041E+04  0.10100000352E+00 0.  1.
    10030    2    1    2    0    0  0.00000000000E+00  0.00000000000E+00  0.81571691721E+03  0.40739241245E+04  0.39914237664E+04 0.  0.
        2    1    3    3  502    0  0.11906364833E+04 -0.92781467804E+02 -0.12241412653E+04  0.17101887245E+04  0.25500000920E-02 0.  1.
       -2    1    3    3    0  502 -0.11906364833E+04  0.92781467804E+02  0.20398581825E+04  0.23637353999E+04  0.25500000920E-02 0. -1.
</event>
<event>
 5   0  0.8329875E-09  0.4008588E+04  0.7818609E-02  0.8002816E-01
       -1   -1    0    0    0  501  0.00000000000E+00  0.00000000000E+00  0.16925504444E+04  0.16925504444E+04  0.50400001928E-02 0.  1.
        1   -1    0    0  501    0  0.00000000000E+00  0.00000000000E+00 -0.23734568258E+04  0.23734568258E+04  0.50400001928E-02 0. -1.
    10030    2    1    2    0    0  0.00000000000E+00  0.00000000000E+00 -0.68090638144E+03  0.40660072702E+04  0.40085884824E+04 0.  0.
        2    1    3    3  502    0  0.11332842514E+04 -0.16174596759E+04  0.60337028012E+01  0.19749798488E+04  0.25500000920E-02 0.  1.
       -2    1    3    3    0  502 -0.11332842514E+04  0.16174596759E+04 -0.68694008424E+03  0.20910274214E+04  0.25500000920E-02 0. -1.
</event>
<event>
 5   0  0.8329875E-09  0.4001384E+04  0.7818609E-02  0.8004268E-01
        1   -1    0    0  501    0  0.00000000000E+00  0.00000000000E+00  0.23053223663E+04  0.23053223663E+04  0.50400001928E-02 0.  1.
       -1   -1    0    0    0  501  0.00000000000E+00  0.00000000000E+00 -0.17363157272E+04  0.17363157272E+04  0.50400001928E-02 0. -1.
    10030    2    1    2    0    0  0.00000000000E+00  0.00000000000E+00  0.56900663917E+03  0.40416380935E+04  0.40013835012E+04 0.  0.
        1    1    3    3  502    0  0.81164368083E+03 -0.18482845317E+03 -0.15530958053E+04  0.17621105533E+04  0.50400001928E-02 0. -1.
       -1    1    3    3    0  502 -0.81164368083E+03  0.18482845317E+03  0.21221024444E+04  0.22795275402E+04  0.50400001928E-02 0.  1.
</event>
<event>
 5   0  0.2587493E-08  0.3998339E+04  0.7818609E-02  0.8004882E-01
       -2   -1    0    0    0  501  0.00000000000E+00  0.00000000000E+00  0.17116129350E+04  0.17116129350E+04  0.25500000920E-02 0.  1.
        2   -1    0    0  501    0  0.00000000000E+00  0.00000000000E+00 -0.23350363126E+04  0.23350363126E+04  0.25500000920E-02 0. -1.
    10030    2    1    2    0    0  0.00000000000E+00  0.00000000000E+00 -0.62342337763E+03  0.40466492476E+04  0.39983388333E+04 0.  0.
        5    1    3    3  502    0 -0.44800311857E+03  0.50553408546E+02 -0.22829082555E+04  0.23270055080E+04  0.46999998093E+01 0. -1.
       -5    1    3    3    0  502  0.44800311857E+03 -0.50553408546E+02  0.16594848779E+04  0.17196437396E+04  0.46999998093E+01 0.  1.
</event>
<event>
 5   0  0.2587493E-08  0.4009745E+04  0.7818609E-02  0.8002584E-01
       -2   -1    0    0    0  501  0.00000000000E+00  0.00000000000E+00  0.17421696570E+04  0.17421696570E+04  0.25500000920E-02 0. -1.
        2   -1    0    0  501    0  0.00000000000E+00  0.00000000000E+00 -0.23071879704E+04  0.23071879704E+04  0.25500000920E-02 0.  1.
    10030    2    1    2    0    0  0.00000000000E+00  0.00000000000E+00 -0.56501831337E+03  0.40493576274E+04  0.40097445679E+04 0.  0.
        5    1    3    3  502    0  0.15211353761E+04 -0.12535605345E+04  0.87476097960E+02  0.19730537255E+04  0.46999998093E+01 0. -1.
       -5    1    3    3    0  502 -0.15211353761E+04  0.12535605345E+04 -0.65249441133E+03  0.20763039019E+04  0.46999998093E+01 0.  1.
</event>
<event>
 5   0  0.2612363E-08  0.4024366E+04  0.7818609E-02  0.7999649E-01
       -2   -1    0    0    0  501  0.00000000000E+00  0.00000000000E+00  0.18134365645E+04  0.18134365645E+04  0.25500000920E-02 0. -1.
        2   -1    0    0  501    0  0.00000000000E+00  0.00000000000E+00 -0.22327108541E+04  0.22327108541E+04  0.25500000920E-02 0.  1.
    10030    2    1    2    0    0  0.00000000000E+00  0.00000000000E+00 -0.41927428963E+03  0.40461474186E+04  0.40243655404E+04 0.  0.
        4    1    3    3  502    0  0.90501702114E+02 -0.92775713815E+03  0.15832572139E+04  0.18372884596E+04  0.12699999809E+01 0. -1.
       -4    1    3    3    0  502 -0.90501702114E+02  0.92775713815E+03 -0.20025315035E+04  0.22088589590E+04  0.12699999809E+01 0.  1.
</event>
<event>
 5   0  0.8329875E-09  0.3997755E+04  0.7818609E-02  0.8005000E-01
        1   -1    0    0  501    0  0.00000000000E+00  0.00000000000E+00  0.26590482764E+04  0.26590482765E+04  0.50400001928E-02 0. -1.
       -1   -1    0    0    0  501  0.00000000000E+00  0.00000000000E+00 -0.15026097907E+04  0.15026097908E+04  0.50400001928E-02 0.  1.
    10030    2    1    2    0    0  0.00000000000E+00  0.00000000000E+00  0.11564384857E+04  0.41616580672E+04  0.39977553573E+04 0.  0.
        5    1    3    3  502    0  0.93194976878E+03 -0.33969709537E+03  0.23847540337E+04  0.25828275938E+04  0.46999998093E+01 0. -1.
       -5    1    3    3    0  502 -0.93194976878E+03  0.33969709537E+03 -0.12283155480E+04  0.15788304734E+04  0.46999998093E+01 0.  1.
</event>
<event>
 5   0  0.2599332E-08  0.4016187E+04  0.7818609E-02  0.8001289E-01
        2   -1    0    0  501    0  0.00000000000E+00  0.00000000000E+00  0.20984602573E+04  0.20984602573E+04  0.25500000920E-02 0. -1.
       -2   -1    0    0    0  501  0.00000000000E+00  0.00000000000E+00 -0.19216184309E+04  0.19216184309E+04  0.25500000920E-02 0.  1.
    10030    2    1    2    0    0  0.00000000000E+00  0.00000000000E+00  0.17684182635E+03  0.40200786882E+04  0.40161872003E+04 0.  0.
        2    1    3    3  502    0 -0.18395192992E+04 -0.49071812513E+03 -0.55079348286E+03  0.19819205310E+04  0.25500000920E-02 0.  1.
       -2    1    3    3    0  502  0.18395192992E+04  0.49071812513E+03  0.72763530920E+03  0.20381581572E+04  0.25500000920E-02 0. -1.
</event>
<event>
 5   0  0.8329875E-09  0.4009390E+04  0.7818609E-02  0.8002655E-01
       -1   -1    0    0    0  501  0.00000000000E+00  0.00000000000E+00  0.20527982847E+04  0.20527982847E+04  0.50400001928E-02 0. -1.
        1   -1    0    0  501    0  0.00000000000E+00  0.00000000000E+00 -0.19577186085E+04  0.19577186085E+04  0.50400001928E-02 0.  1.
    10030    2    1    2    0    0  0.00000000000E+00  0.00000000000E+00  0.95079676172E+02  0.40105168932E+04  0.40093896800E+04 0.  0.
        2    1    3    3  502    0 -0.18043618461E+04  0.82851421846E+03  0.32446405433E+03  0.20118236514E+04  0.25500000920E-02 0. -1.
       -2    1    3    3    0  502  0.18043618461E+04 -0.82851421846E+03 -0.22938437816E+03  0.19986932418E+04  0.25500000920E-02 0.  1.
</event>
<event>
 5   0  0.2599332E-08  0.4000076E+04  0.7818609E-02  0.8004531E-01
        2   -1    0    0  501    0  0.00000000000E+00  0.00000000000E+00  0.19537053189E+04  0.19537053189E+04  0.25500000920E-02 0. -1.
       -2   -1    0    0    0  501  0.00000000000E+00  0.00000000000E+00 -0.20474697886E+04  0.20474697886E+04  0.25500000920E-02 0.  1.
    10030    2    1    2    0    0  0.00000000000E+00  0.00000000000E+00 -0.93764469695E+02  0.40011751076E+04  0.40000763075E+04 0.  0.
        2    1    3    3  502    0  0.70042076063E+03  0.91287827904E+03 -0.16832462254E+04  0.20389344888E+04  0.25500000920E-02 0.  1.
       -2    1    3    3    0  502 -0.70042076063E+03 -0.91287827904E+03  0.15894817557E+04  0.19622406188E+04  0.25500000920E-02 0. -1.
</event>
<event>
 5   0  0.8329875E-09  0.4009247E+04  0.7818609E-02  0.8002684E-01
        1   -1    0    0  501    0  0.00000000000E+00  0.00000000000E+00  0.16389497431E+04  0.16389497431E+04  0.50400001928E-02 0. -1.
       -1   -1    0    0    0  501  0.00000000000E+00  0.00000000000E+00 -0.24518840362E+04  0.24518840362E+04  0.50400001928E-02 0.  1.
    10030    2    1    2    0    0  0.00000000000E+00  0.00000000000E+00 -0.81293429306E+03  0.40908337794E+04  0.40092466681E+04 0.  0.
        5    1    3    3  502    0  0.26492259166E+03 -0.19754271440E+04 -0.62529884174E+03  0.20889033277E+04  0.46999998093E+01 0.  1.
       -5    1    3    3    0  502 -0.26492259166E+03  0.19754271440E+04 -0.18763545132E+03  0.20019304517E+04  0.46999998093E+01 0. -1.
</event>
<event>
 5   0  0.2612363E-08  0.4003950E+04  0.7818609E-02  0.8003750E-01
       -2   -1    0    0    0  501  0.00000000000E+00  0.00000000000E+00  0.14956317426E+04  0.14956317426E+04  0.25500000920E-02 0.  1.
        2   -1    0    0  501    0  0.00000000000E+00  0.00000000000E+00 -0.26797397440E+04  0.26797397440E+04  0.25500000920E-02 0. -1.
    10030    2    1    2    0    0  0.00000000000E+00  0.00000000000E+00 -0.11841080014E+04  0.41753714866E+04  0.40039499613E+04 0.  0.
        4    1    3    3  502    0  0.33591053549E+03 -0.91216756138E+03 -0.24171308637E+04  0.26052655859E+04  0.12699999809E+01 0. -1.
       -4    1    3    3    0  502 -0.33591053549E+03  0.91216756138E+03  0.12330228623E+04  0.15701059008E+04  0.12699999809E+01 0.  1.
</event>
<event>
 5   0  0.8329875E-09  0.3982093E+04  0.7818609E-02  0.8008169E-01
       -1   -1    0    0    0  501  0.00000000000E+00  0.00000000000E+00  0.25144982636E+04  0.25144982636E+04  0.50400001928E-02 0.  1.
        1   -1    0    0  501    0  0.00000000000E+00  0.00000000000E+00 -0.15765633736E+04  0.15765633736E+04  0.50400001928E-02 0. -1.
    10030    2    1    2    0    0  0.00000000000E+00  0.00000000000E+00  0.93793488999E+03  0.40910616372E+04  0.39820928494E+04 0.  0.
        1    1    3    3  502    0 -0.89449165714E+03 -0.49067952020E+03 -0.12876111429E+04  0.16428098403E+04  0.50400001928E-02 0. -1.
       -1    1    3    3    0  502  0.89449165714E+03  0.49067952020E+03  0.22255460329E+04  0.24482517968E+04  0.50400001928E-02 0.  1.
</event>
<event>
 5   0  0.8329875E-09  0.4008141E+04  0.7818609E-02  0.8002906E-01
       -1   -1    0    0    0  501  0.00000000000E+00  0.00000000000E+00  0.25603349864E+04  0.25603349864E+04  0.50400001928E-02 0. -1.
        1   -1    0    0  501    0  0.00000000000E+00  0.00000000000E+00 -0.15686616227E+04  0.15686616227E+04  0.50400001928E-02 0.  1.
    10030    2    1    2    0    0  0.00000000000E+00  0.00000000000E+00  0.99167336374E+03  0.41289966091E+04  0.40081413320E+04 0.  0.
        5    1    3    3  502    0 -0.11791921657E+04  0.27786355532E+03  0.21403984650E+04  0.24594775864E+04  0.46999998093E+01 0. -1.
       -5    1    3    3    0  502  0.11791921657E+04 -0.27786355532E+03 -0.11487251012E+04  0.16695190227E+04  0.46999998093E+01 0.  1.
</event>
<event>
 5   0  0.8329875E-09  0.3992236E+04  0.7818609E-02  0.8006115E-01
        1   -1    0    0  501    0  0.00000000000E+00  0.00000000000E+00  0.21305380380E+04  0.21305380380E+04  0.50400001928E-02 0. -1.
       -1   -1    0    0    0  501  0.00000000000E+00  0.00000000000E+00 -0.18701790065E+04  0.18701790065E+04  0.50400001928E-02 0.  1.
    10030    2    1    2    0    0  0.00000000000E+00  0.00000000000E+00  0.26035903149E+03  0.40007170445E+04  0.39922362211E+04 0.  0.
        1    1    3    3  502    0  0.16904713573E+04  0.56862871903E+03  0.10284404549E+04  0.20588156302E+04  0.50400001928E-02 0. -1.
       -1    1    3    3    0  502 -0.16904713573E+04 -0.56862871903E+03 -0.76808142344E+03  0.19419014143E+04  0.50400001928E-02 0.  1.
</event>
<event>
 5   0  0.2599332E-08  0.3999183E+04  0.7818609E-02  0.8004711E-01
        2   -1    0    0  501    0  0.00000000000E+00  0.00000000000E+00  0.21528940484E+04  0.21528940484E+04  0.25500000920E-02 0. -1.
       -2   -1    0    0    0  501  0.00000000000E+00  0.00000000000E+00 -0.18572051380E+04  0.18572051380E+04  0.25500000920E-02 0.  1.
    10030    2    1    2    0    0  0.00000000000E+00  0.00000000000E+00  0.29568891038E+03  0.40100991864E+04  0.39991828607E+04 0.  0.
        2    1    3    3  502    0  0.70805242967E+03 -0.99172451064E+03 -0.14418884843E+04  0.18878289513E+04  0.25500000920E-02 0.  1.
       -2    1    3    3    0  502 -0.70805242967E+03  0.99172451064E+03  0.17375773947E+04  0.21222702351E+04  0.25500000920E-02 0. -1.
</event>
<event>
 5   0  0.2650452E-08  0.3979268E+04  0.7818609E-02  0.8008742E-01
        2   -1    0    0  501    0  0.00000000000E+00  0.00000000000E+00  0.23342615939E+04  0.23342615939E+04  0.25500000920E-02 0. -1.
       -2   -1    0    0    0  501  0.00000000000E+00  0.00000000000E+00 -0.16958870231E+04  0.16958870231E+04  0.25500000920E-02 0.  1.
    10030    2    1    2    0    0  0.00000000000E+00  0.00000000000E+00  0.63837457082E+03  0.40301486170E+04  0.39792682471E+04 0.  0.
        3    1    3    3  502    0 -0.26403823586E+03 -0.19489466853E+04  0.14450381769E+02  0.19668040563E+04  0.10100000352E+00 0.  1.
       -3    1    3    3    0  502  0.26403823586E+03  0.19489466853E+04  0.62392418905E+03  0.20633445607E+04  0.10100000352E+00 0. -1.
</event>
<event>
 5   0  0.8329875E-09  0.4014457E+04  0.7818609E-02  0.8001637E-01
        1   -1    0    0  501    0  0.00000000000E+00  0.00000000000E+00  0.26433501652E+04  0.26433501653E+04  0.50400001928E-02 0. -1.
       -1   -1    0    0    0  501  0.00000000000E+00  0.00000000000E+00 -0.15241890812E+04  0.15241890812E+04  0.50400001928E-02 0.  1.
    10030    2    1    2    0    0  0.00000000000E+00  0.00000000000E+00  0.11191610841E+04  0.41675392464E+04  0.40144566056E+04 0.  0.
        5    1    3    3  502    0 -0.17285183820E+04  0.55624317159E+03 -0.32846981266E+03  0.18452904299E+04  0.46999998093E+01 0.  1.
       -5    1    3    3    0  502  0.17285183820E+04 -0.55624317159E+03  0.14476308967E+04  0.23222488165E+04  0.46999998093E+01 0. -1.
</event>
<event>
 5   0  0.2587493E-08  0.4060565E+04  0.7818609E-02  0.7992439E-01
        2   -1    0    0  501    0  0.00000000000E+00  0.00000000000E+00  0.22011721394E+04  0.22011721394E+04  0.25500000920E-02 0.  1.
       -2   -1    0    0    0  501  0.00000000000E+00  0.00000000000E+00 -0.18726602873E+04  0.18726602873E+04  0.25500000920E-02 0. -1.
    10030    2    1    2    0    0  0.00000000000E+00  0.00000000000E+00  0.32851185211E+03  0.40738324267E+04  0.40605653059E+04 0.  0.
        5    1    3    3  502    0  0.35767471536E+03  0.16322607731E+04  0.13212015527E+04  0.21302117422E+04  0.46999998093E+01 0.  1.
       -5    1    3    3    0  502 -0.35767471536E+03 -0.16322607731E+04 -0.99268970062E+03  0.19436206845E+04  0.46999998093E+01 0. -1.
</event>
<event>
 5   0  0.2587493E-08  0.4001863E+04  0.7818609E-02  0.8004171E-01
        2   -1    0    0  501    0  0.00000000000E+00  0.00000000000E+00  0.12701085086E+04  0.12701085086E+04  0.25500000920E-02 0. -1.
       -2   -1    0    0    0  501  0.00000000000E+00  0.00000000000E+00 -0.31522717822E+04  0.31522717822E+04  0.25500000920E-02 0.  1.
    10030    2    1    2    0    0  0.00000000000E+00  0.00000000000E+00 -0.18821632736E+04  0.44223802908E+04  0.40018631721E+04 0.  0.
        5    1    3    3  502    0 -0.62479872620E+03  0.18760929302E+04 -0.60297943985E+03  0.20672939863E+04  0.46999998093E+01 0.  1.
       -5    1    3    3    0  502  0.62479872620E+03 -0.18760929302E+04 -0.12791838338E+04  0.23550863045E+04  0.46999998093E+01 0. -1.
</event>
<event>
 5   0  0.2587493E-08  0.3930542E+04  0.7818609E-02  0.8018707E-01
       -2   -1    0    0    0  501  0.00000000000E+00  0.00000000000E+00  0.27202349850E+04  0.27202349850E+04  0.25500000920E-02 0.  1.
        2   -1    0    0  501    0  0.00000000000E+00  0.00000000000E+00 -0.14198368777E+04  0.14198368777E+04  0.25500000920E-02 0. -1.
    10030    2    1    2    0    0  0.00000000000E+00  0.00000000000E+00  0.13003981073E+04  0.41400718627E+04  0.39305419207E+04 0.  0.
        5    1    3    3  502    0  0.50727743819E+03  0.11143075470E+04 -0.96903953587E+03  0.15614324899E+04  0.46999998093E+01 0. -1.
       -5    1    3    3    0  502 -0.50727743819E+03 -0.11143075470E+04  0.22694376431E+04  0.25786393727E+04  0.46999998093E+01 0.  1.
</event>
<event>
 5   0  0.8329875E-09  0.4026188E+04  0.7818609E-02  0.7999284E-01
        1   -1    0    0  501    0  0.00000000000E+00  0.00000000000E+00  0.13314654448E+04  0.13314654448E+04  0.50400001928E-02 0.  1.
       -1   -1    0    0    0  501  0.00000000000E+00  0.00000000000E+00 -0.30436748031E+04  0.30436748031E+04  0.50400001928E-02 0. -1.
    10030    2    1    2    0    0  0.00000000000E+00  0.00000000000E+00 -0.17122093583E+04  0.43751402480E+04  0.40261881852E+04 0.  0.
        1    1    3    3  502    0 -0.18368201030E+03  0.39851236015E+03 -0.29910726921E+04  0.30230889883E+04  0.50400001928E-02 0. -1.
       -1    1    3    3    0  502  0.18368201030E+03 -0.39851236015E+03  0.12788633338E+04  0.13520512596E+04  0.50400001928E-02 0.  1.
</event>
<event>
 5   0  0.2612363E-08  0.3999031E+04  0.7818609E-02  0.8004742E-01
       -2   -1    0    0    0  501  0.00000000000E+00  0.00000000000E+00  0.15517686680E+04  0.15517686680E+04  0.25500000920E-02 0.  1.
        2   -1    0    0  501    0  0.00000000000E+00  0.00000000000E+00 -0.25764547795E+04  0.25764547795E+04  0.25500000920E-02 0. -1.
    10030    2    1    2    0    0  0.00000000000E+00  0.00000000000E+00 -0.10246861115E+04  0.41282234475E+04  0.39990307832E+04 0.  0.
        4    1    3    3  502    0 -0.16325305567E+04 -0.11479471910E+04 -0.38540124580E+03  0.20326028892E+04  0.12699999809E+01 0.  1.
       -4    1    3    3    0  502  0.16325305567E+04  0.11479471910E+04 -0.63928486574E+03  0.20956205583E+04  0.12699999809E+01 0. -1.
</event>
<event>
 5   0  0.8329875E-09  0.4008860E+04  0.7818609E-02  0.8002762E-01
       -1   -1    0    0    0  501  0.00000000000E+00  0.00000000000E+00  0.14036417751E+04  0.14036417751E+04  0.50400001928E-02 0. -1.
        1   -1    0    0  501    0  0.00000000000E+00  0.00000000000E+00 -0.28623676066E+04  0.28623676066E+04  0.50400001928E-02 0.  1.
    10030    2    1    2    0    0  0.00000000000E+00  0.00000000000E+00 -0.14587258315E+04  0.42660093818E+04  0.40088595628E+04 0.  0.
        1    1    3    3  502    0  0.13717396495E+04  0.10419941820E+04 -0.18199521445E+04  0.25059224548E+04  0.50400001928E-02 0.  1.
       -1    1    3    3    0  502 -0.13717396495E+04 -0.10419941820E+04  0.36122631300E+03  0.17600869270E+04  0.50400001928E-02 0. -1.
</event>
<event>
 5   0  0.8329875E-09  0.3963351E+04  0.7818609E-02  0.8011981E-01
        1   -1    0    0  501    0  0.00000000000E+00  0.00000000000E+00  0.24319552595E+04  0.24319552596E+04  0.50400001928E-02 0.  1.
       -1   -1    0    0    0  501  0.00000000000E+00  0.00000000000E+00 -0.16147655978E+04  0.16147655978E+04  0.50400001928E-02 0. -1.
    10030    2    1    2    0    0  0.00000000000E+00  0.00000000000E+00  0.81718966175E+03  0.40467208574E+04  0.39633509501E+04 0.  0.
        3    1    3    3  502    0 -0.52423556090E+03 -0.93019564747E+02  0.23575587824E+04  0.24169317296E+04  0.10100000352E+00 0.  1.
       -3    1    3    3    0  502  0.52423556090E+03  0.93019564747E+02 -0.15403691207E+04  0.16297891277E+04  0.10100000352E+00 0. -1.
</event>
<event>
 5   0  0.8329875E-09  0.4000541E+04  0.7818609E-02  0.8004437E-01
        1   -1    0    0  501    0  0.00000000000E+00  0.00000000000E+00  0.19592437971E+04  0.19592437971E+04  0.50400001928E-02 0.  1.
       -1   -1    0    0    0  501  0.00000000000E+00  0.00000000000E+00 -0.20421562661E+04  0.20421562661E+04  0.50400001928E-02 0. -1.
    10030    2    1    2    0    0  0.00000000000E+00  0.00000000000E+00 -0.82912469003E+02  0.40014000632E+04  0.40005409619E+04 0.  0.
        2    1    3    3  502    0 -0.32530882098E+02 -0.94299775039E+03 -0.18055750461E+04  0.20372540987E+04  0.25500000920E-02 0. -1.
       -2    1    3    3    0  502  0.32530882098E+02  0.94299775039E+03  0.17226625771E+04  0.19641459645E+04  0.25500000920E-02 0.  1.
</event>
<event>
 5   0  0.2612363E-08  0.3995620E+04  0.7818609E-02  0.8005431E-01
        2   -1    0    0  501    0  0.00000000000E+00  0.00000000000E+00  0.22120170280E+04  0.22120170280E+04  0.25500000920E-02 0.  1.
       -2   -1    0    0    0  501  0.00000000000E+00  0.00000000000E+00 -0.18043467199E+04  0.18043467199E+04  0.25500000920E-02 0. -1.
    10030    2    1    2    0    0  0.00000000000E+00  0.00000000000E+00  0.40767030810E+03  0.40163637480E+04  0.39956204369E+04 0.  0.
        4    1    3    3  502    0 -0.13234976044E+04 -0.13085853093E+04  0.93369185375E+03  0.20822640349E+04  0.12699999809E+01 0. -1.
       -4    1    3    3    0  502  0.13234976044E+04  0.13085853093E+04 -0.52602154565E+03  0.19340997130E+04  0.12699999809E+01 0.  1.
</event>
<event>
 5   0  0.8329875E-09  0.4011837E+04  0.7818609E-02  0.8002163E-01
        1   -1    0    0  501    0  0.00000000000E+00  0.00000000000E+00  0.17938166970E+04  0.17938166970E+04  0.50400001928E-02 0. -1.
       -1   -1    0    0    0  501  0.00000000000E+00  0.00000000000E+00 -0.22430995514E+04  0.22430995514E+04  0.50400001928E-02 0.  1.
    10030    2    1    2    0    0  0.00000000000E+00  0.00000000000E+00 -0.44928285437E+03  0.40369162484E+04  0.40118371993E+04 0.  0.
        4    1    3    3  502    0 -0.15228472419E+04  0.41366595303E+03  0.10214554514E+04  0.18797755437E+04  0.12699999809E+01 0. -1.
       -4    1    3    3    0  502  0.15228472419E+04 -0.41366595303E+03 -0.14707383058E+04  0.21571407047E+04  0.12699999809E+01 0.  1.
</event>
<event>
 5   0  0.8329875E-09  0.4002899E+04  0.7818609E-02  0.8003962E-01
        1   -1    0    0  501    0  0.00000000000E+00  0.00000000000E+00  0.18226935045E+04  0.18226935045E+04  0.50400001928E-02 0. -1.
       -1   -1    0    0    0  501  0.00000000000E+00  0.00000000000E+00 -0.21977370576E+04  0.21977370577E+04  0.50400001928E-02 0.  1.
    10030    2    1    2    0    0  0.00000000000E+00  0.00000000000E+00 -0.37504355311E+03  0.40204305622E+04  0.40028994790E+04 0.  0.
        3    1    3    3  502    0  0.33410489201E+03 -0.10875223283E+04 -0.18413876880E+04  0.21644952116E+04  0.10100000352E+00 0.  1.
       -3    1    3    3    0  502 -0.33410489201E+03  0.10875223283E+04  0.14663441349E+04  0.18559353506E+04  0.10100000352E+00 0. -1.
</event>
<event>
 5   0  0.2746876E-08  0.3998063E+04  0.7818609E-02  0.8004937E-01
       -2   -1    0    0    0  501  0.00000000000E+00  0.00000000000E+00  0.14411626300E+04  0.14411626300E+04  0.25500000920E-02 0.  1.
        2   -1    0    0  501    0  0.00000000000E+00  0.00000000000E+00 -0.27728490240E+04  0.27728490240E+04  0.25500000920E-02 0. -1.
    10030    2    1    2    0    0  0.00000000000E+00  0.00000000000E+00 -0.13316863940E+04  0.42140116540E+04  0.39980627268E+04 0.  0.
        1    1    3    3  502    0  0.12483717032E+04 -0.30401884652E+03  0.94830080718E+03  0.15969138328E+04  0.50400001928E-02 0.  1.
       -1    1    3    3    0  502 -0.12483717032E+04  0.30401884652E+03 -0.22799872011E+04  0.26170978212E+04  0.50400001928E-02 0. -1.
</event>
<event>
 5   0  0.2587493E-08  0.3998889E+04  0.7818609E-02  0.8004771E-01
       -2   -1    0    0    0  501  0.00000000000E+00  0.00000000000E+00  0.18060123663E+04  0.18060123663E+04  0.25500000920E-02 0. -1.
        2   -1    0    0  501    0  0.00000000000E+00  0.00000000000E+00 -0.22135945821E+04  0.22135945821E+04  0.25500000920E-02 0.  1.
    10030    2    1    2    0    0  0.00000000000E+00  0.00000000000E+00 -0.40758221585E+03  0.40196069484E+04  0.39988894404E+04 0.  0.
        5    1    3    3  502    0  0.16138987618E+04 -0.70093884075E+03 -0.11583279939E+04  0.21065921065E+04  0.46999998093E+01 0.  1.
       -5    1    3    3    0  502 -0.16138987618E+04  0.70093884075E+03  0.75074577807E+03  0.19130148418E+04  0.46999998093E+01 0. -1.
</event>
<event>
 5   0  0.8329875E-09  0.3977153E+04  0.7818609E-02  0.8009171E-01
        1   -1    0    0  501    0  0.00000000000E+00  0.00000000000E+00  0.14472225424E+04  0.14472225424E+04  0.50400001928E-02 0.  1.
       -1   -1    0    0    0  501  0.00000000000E+00  0.00000000000E+00 -0.27324316553E+04  0.27324316553E+04  0.50400001928E-02 0. -1.
    10030    2    1    2    0    0  0.00000000000E+00  0.00000000000E+00 -0.12852091130E+04  0.41796541977E+04  0.39771530959E+04 0.  0.
        4    1    3    3  502    0 -0.14530571297E+03 -0.14251537189E+04  0.80684389853E+03  0.16441336814E+04  0.12699999809E+01 0. -1.
       -4    1    3    3    0  502  0.14530571297E+03  0.14251537189E+04 -0.20920530115E+04  0.25355205163E+04  0.12699999809E+01 0.  1.
</event>
<event>
 5   0  0.2612363E-08  0.3999422E+04  0.7818609E-02  0.8004663E-01
       -2   -1    0    0    0  501  0.00000000000E+00  0.00000000000E+00  0.18767034700E+04  0.18767034700E+04  0.25500000920E-02 0. -1.
        2   -1    0    0  501    0  0.00000000000E+00  0.00000000000E+00 -0.21307805141E+04  0.21307805141E+04  0.25500000920E-02 0.  1.
    10030    2    1    2    0    0  0.00000000000E+00  0.00000000000E+00 -0.25407704403E+03  0.40074839841E+04  0.39994215505E+04 0.  0.
        4    1    3    3  502    0 -0.16200241431E+04 -0.10956514822E+04 -0.54490579619E+03  0.20302350441E+04  0.12699999809E+01 0.  1.
       -4    1    3    3    0  502  0.16200241431E+04  0.10956514822E+04  0.29082875216E+03  0.19772489400E+04  0.12699999809E+01 0. -1.
</event>
<event>
 5   0  0.2599332E-08  0.4009672E+04  0.7818609E-02  0.8002598E-01
       -2   -1    0    0    0  501  0.00000000000E+00  0.00000000000E+00  0.16772847893E+04  0.16772847893E+04  0.25500000920E-02 0. -1.
        2   -1    0    0  501    0  0.00000000000E+00  0.00000000000E+00 -0.23963538913E+04  0.23963538913E+04  0.25500000920E-02 0.  1.
    10030    2    1    2    0    0  0.00000000000E+00  0.00000000000E+00 -0.71906910200E+03  0.40736386806E+04  0.40096722718E+04 0.  0.
        2    1    3    3  502    0  0.11931626929E+04 -0.12427096810E+04  0.68220297929E+03  0.18529342859E+04  0.25500000920E-02 0. -1.
       -2    1    3    3    0  502 -0.11931626929E+04  0.12427096810E+04 -0.14012720813E+04  0.22207043947E+04  0.25500000920E-02 0.  1.
</event>
<event>
 5   0  0.8329875E-09  0.3992620E+04  0.7818609E-02  0.8006037E-01
       -1   -1    0    0    0  501  0.00000000000E+00  0.00000000000E+00  0.15826022299E+04  0.15826022299E+04  0.50400001928E-02 0.  1.
        1   -1    0    0  501    0  0.00000000000E+00  0.00000000000E+00 -0.25181654669E+04  0.25181654669E+04  0.50400001928E-02 0. -1.
    10030    2    1    2    0    0  0.00000000000E+00  0.00000000000E+00 -0.93556323700E+03  0.41007676968E+04  0.39926203341E+04 0.  0.
        1    1    3    3  502    0 -0.89788659569E+03  0.13193477868E+04  0.76402709300E+03  0.17693547751E+04  0.50400001928E-02 0.  1.
       -1    1    3    3    0  502  0.89788659569E+03 -0.13193477868E+04 -0.16995903300E+04  0.23314129216E+04  0.50400001928E-02 0. -1.
</event>
<event>
 5   0  0.2599332E-08  0.4001451E+04  0.7818609E-02  0.8004254E-01
       -2   -1    0    0    0  501  0.00000000000E+00  0.00000000000E+00  0.33221129261E+04  0.33221129261E+04  0.25500000920E-02 0. -1.
        2   -1    0    0  501    0  0.00000000000E+00  0.00000000000E+00 -0.12049269511E+04  0.12049269511E+04  0.25500000920E-02 0.  1.
    10030    2    1    2    0    0  0.00000000000E+00  0.00000000000E+00  0.21171859750E+04  0.45270398772E+04  0.40014514363E+04 0.  0.
        2    1    3    3  502    0 -0.32994645710E+03 -0.18449391986E+04  0.26645599606E+03  0.18930568161E+04  0.25500000920E-02 0.  1.
       -2    1    3    3    0  502  0.32994645710E+03  0.18449391986E+04  0.18507299790E+04  0.26339830611E+04  0.25500000920E-02 0. -1.
</event>
<event>
 5   0  0.8329875E-09  0.4004513E+04  0.7818609E-02  0.8003637E-01
        1   -1    0    0  501    0  0.00000000000E+00  0.00000000000E+00  0.12246488556E+04  0.12246488556E+04  0.50400001928E-02 0.  1.
       -1   -1    0    0    0  501  0.00000000000E+00  0.00000000000E+00 -0.32736165375E+04  0.32736165375E+04  0.50400001928E-02 0. -1.
    10030    2    1    2    0    0  0.00000000000E+00  0.00000000000E+00 -0.20489676819E+04  0.44982653931E+04  0.40045128275E+04 0.  0.
        2    1    3    3  502    0  0.94485139219E+03 -0.62398478982E+03  0.83046675257E+03  0.14041994867E+04  0.25500000920E-02 0.  1.
       -2    1    3    3    0  502 -0.94485139219E+03  0.62398478982E+03 -0.28794344345E+04  0.30940659065E+04  0.25500000920E-02 0. -1.
</event>
<event>
 5   0  0.8329875E-09  0.4039950E+04  0.7818609E-02  0.7996535E-01
        1   -1    0    0  501    0  0.00000000000E+00  0.00000000000E+00  0.23257405562E+04  0.23257405562E+04  0.50400001928E-02 0. -1.
       -1   -1    0    0    0  501  0.00000000000E+00  0.00000000000E+00 -0.17544088026E+04  0.17544088027E+04  0.50400001928E-02 0.  1.
    10030    2    1    2    0    0  0.00000000000E+00  0.00000000000E+00  0.57133175353E+03  0.40801493588E+04  0.40399503484E+04 0.  0.
        1    1    3    3  502    0 -0.65568576758E+03  0.45919910967E+03  0.21587119130E+04  0.23023520085E+04  0.50400001928E-02 0. -1.
       -1    1    3    3    0  502  0.65568576758E+03 -0.45919910967E+03 -0.15873801594E+04  0.17777973503E+04  0.50400001928E-02 0.  1.
</event>
<event>
 5   0  0.2746876E-08  0.3998035E+04  0.7818609E-02  0.8004943E-01
        2   -1    0    0  501    0  0.00000000000E+00  0.00000000000E+00  0.16592746772E+04  0.16592746772E+04  0.25500000920E-02 0. -1.
       -2   -1    0    0    0  501  0.00000000000E+00  0.00000000000E+00 -0.24083234195E+04  0.24083234196E+04  0.25500000920E-02 0.  1.
    10030    2    1    2    0    0  0.00000000000E+00  0.00000000000E+00 -0.74904874234E+03  0.40675980968E+04  0.39980345494E+04 0.  0.
        1    1    3    3  502    0 -0.12841121534E+04  0.15211278067E+04 -0.18887688433E+03  0.19996120385E+04  0.50400001928E-02 0.  1.
       -1    1    3    3    0  502  0.12841121534E+04 -0.15211278067E+04 -0.56017185800E+03  0.20679860583E+04  0.50400001928E-02 0. -1.
</event>
<event>
 5   0  0.2599332E-08  0.4010321E+04  0.7818609E-02  0.8002468E-01
       -2   -1    0    0    0  501  0.00000000000E+00  0.00000000000E+00  0.31591688158E+04  0.31591688158E+04  0.25500000920E-02 0. -1.
        2   -1    0    0  501    0  0.00000000000E+00  0.00000000000E+00 -0.12726979630E+04  0.12726979630E+04  0.25500000920E-02 0.  1.
    10030    2    1    2    0    0  0.00000000000E+00  0.00000000000E+00  0.18864708527E+04  0.44318667788E+04  0.40103205441E+04 0.  0.
        2    1    3    3  502    0 -0.95805565823E+03 -0.84673014337E+03  0.26502166157E+04  0.29425279421E+04  0.25500000920E-02 0. -1.
       -2    1    3    3    0  502  0.95805565823E+03  0.84673014337E+03 -0.76374576296E+03  0.14893388367E+04  0.25500000920E-02 0.  1.
</event>
<event>
 5   0  0.8329875E-09  0.4107918E+04  0.7818609E-02  0.7983123E-01
       -1   -1    0    0    0  501  0.00000000000E+00  0.00000000000E+00  0.25757793027E+04  0.25757793027E+04  0.50400001928E-02 0.  1.
        1   -1    0    0  501    0  0.00000000000E+00  0.00000000000E+00 -0.16378526309E+04  0.16378526309E+04  0.50400001928E-02 0. -1.
    10030    2    1    2    0    0  0.00000000000E+00  0.00000000000E+00  0.93792667175E+03  0.42136319336E+04  0.41079176757E+04 0.  0.
        1    1    3    3  502    0 -0.10545291346E+03  0.17426410709E+04 -0.64093076431E+03  0.18597608619E+04  0.50400001928E-02 0. -1.
       -1    1    3    3    0  502  0.10545291346E+03 -0.17426410709E+04  0.15788574361E+04  0.23538710717E+04  0.50400001928E-02 0.  1.
</event>
<event>
 5   0  0.8329875E-09  0.3948446E+04  0.7818609E-02  0.8015028E-01
       -1   -1    0    0    0  501  0.00000000000E+00  0.00000000000E+00  0.16231289208E+04  0.16231289208E+04  0.50400001928E-02 0. -1.
        1   -1    0    0  501    0  0.00000000000E+00  0.00000000000E+00 -0.24012612949E+04  0.24012612949E+04  0.50400001928E-02 0.  1.
    10030    2    1    2    0    0  0.00000000000E+00  0.00000000000E+00 -0.77813237407E+03  0.40243902158E+04  0.39484461016E+04 0.  0.
        2    1    3    3  502    0  0.15010121004E+03  0.15393650002E+04  0.86147264834E+03  0.17703982888E+04  0.25500000920E-02 0. -1.
       -2    1    3    3    0  502 -0.15010121004E+03 -0.15393650002E+04 -0.16396050224E+04  0.22539919269E+04  0.25500000920E-02 0.  1.
</event>
<event>
 5   0  0.2746876E-08  0.4007706E+04  0.7818609E-02  0.8002994E-01
        2   -1    0    0  501    0  0.00000000000E+00  0.00000000000E+00  0.27968563587E+04  0.27968563587E+04  0.25500000920E-02 0.  1.
       -2   -1    0    0    0  501  0.00000000000E+00  0.00000000000E+00 -0.14356929579E+04  0.14356929579E+04  0.25500000920E-02 0. -1.
    10030    2    1    2    0    0  0.00000000000E+00  0.00000000000E+00  0.13611634008E+04  0.42325493166E+04  0.40077060663E+04 0.  0.
        1    1    3    3  502    0  0.10090624940E+04 -0.11253280047E+03 -0.11439274591E+04  0.15295230562E+04  0.50400001928E-02 0. -1.
       -1    1    3    3    0  502 -0.10090624940E+04  0.11253280047E+03  0.25050908599E+04  0.27030262603E+04  0.50400001928E-02 0.  1.
</event>
<event>
 5   0  0.8329875E-09  0.4020715E+04  0.7818609E-02  0.8000381E-01
        1   -1    0    0  501    0  0.00000000000E+00  0.00000000000E+00  0.25321620283E+04  0.25321620283E+04  0.50400001928E-02 0. -1.
       -1   -1    0    0    0  501  0.00000000000E+00  0.00000000000E+00 -0.15960818578E+04  0.15960818578E+04  0.50400001928E-02 0.  1.
    10030    2    1    2    0    0  0.00000000000E+00  0.00000000000E+00  0.93608017045E+03  0.41282438861E+04  0.40207152967E+04 0.  0.
        2    1    3    3  502    0  0.19882548903E+04  0.22841462840E+02  0.16370344274E+03  0.19951135453E+04  0.25500000920E-02 0.  1.
       -2    1    3    3    0  502 -0.19882548903E+04 -0.22841462840E+02  0.77237672771E+03  0.21331303408E+04  0.25500000920E-02 0. -1.
</event>
<event>
 5   0  0.8329875E-09  0.4000188E+04  0.7818609E-02  0.8004509E-01
        1   -1    0    0  501    0  0.00000000000E+00  0.00000000000E+00  0.17957066429E+04  0.17957066429E+04  0.50400001928E-02 0.  1.
       -1   -1    0    0    0  501  0.00000000000E+00  0.00000000000E+00 -0.22277450549E+04  0.22277450549E+04  0.50400001928E-02 0. -1.
    10030    2    1    2    0    0  0.00000000000E+00  0.00000000000E+00 -0.43203841196E+03  0.40234516978E+04  0.40001882925E+04 0.  0.
        3    1    3    3  502    0  0.10973249531E+04  0.16429460208E+03 -0.18898068829E+04  0.21914572398E+04  0.10100000352E+00 0. -1.
       -3    1    3    3    0  502 -0.10973249531E+04 -0.16429460208E+03  0.14577684710E+04  0.18319944580E+04  0.10100000352E+00 0.  1.
</event>
<event>
 5   0  0.2612363E-08  0.3974471E+04  0.7818609E-02  0.8009716E-01
       -2   -1    0    0    0  501  0.00000000000E+00  0.00000000000E+00  0.27903068003E+04  0.27903068003E+04  0.25500000920E-02 0. -1.
        2   -1    0    0  501    0  0.00000000000E+00  0.00000000000E+00 -0.14152941947E+04  0.14152941947E+04  0.25500000920E-02 0.  1.
    10030    2    1    2    0    0  0.00000000000E+00  0.00000000000E+00  0.13750126056E+04  0.42056009950E+04  0.39744710420E+04 0.  0.
        4    1    3    3  502    0  0.56502769944E+03  0.13385354180E+04  0.21221417953E+04  0.25718516246E+04  0.12699999809E+01 0. -1.
       -4    1    3    3    0  502 -0.56502769944E+03 -0.13385354180E+04 -0.74712918973E+03  0.16337493705E+04  0.12699999809E+01 0.  1.
</event>
<event>
 5   0  0.2612363E-08  0.4001194E+04  0.7818609E-02  0.8004306E-01
        2   -1    0    0  501    0  0.00000000000E+00  0.00000000000E+00  0.25189916217E+04  0.25189916217E+04  0.25500000920E-02 0. -1.
       -2   -1    0    0    0  501  0.00000000000E+00  0.00000000000E+00 -0.15888853804E+04  0.15888853804E+04  0.25500000920E-02 0.  1.
    10030    2    1    2    0    0  0.00000000000E+00  0.00000000000E+00  0.93010624122E+03  0.41078770021E+04  0.40011943023E+04 0.  0.
        4    1    3    3  502    0 -0.17786924445E+04 -0.89431116921E+03  0.26269878843E+03  0.20081213972E+04  0.12699999809E+01 0.  1.
       -4    1    3    3    0  502  0.17786924445E+04  0.89431116921E+03  0.66740745280E+03  0.20997556049E+04  0.12699999809E+01 0. -1.
</event>
<event>
 5   0  0.2612363E-08  0.3995408E+04  0.7818609E-02  0.8005474E-01
        2   -1    0    0  501    0  0.00000000000E+00  0.00000000000E+00  0.21607089932E+04  0.21607089932E+04  0.25500000920E-02 0.  1.
       -2   -1    0    0    0  501  0.00000000000E+00  0.00000000000E+00 -0.18469962909E+04  0.18469962909E+04  0.25500000920E-02 0. -1.
    10030    2    1    2    0    0  0.00000000000E+00  0.00000000000E+00  0.31371270232E+03  0.40077052841E+04  0.39954081124E+04 0.  0.
        4    1    3    3  502    0 -0.13173363180E+04 -0.28922018739E+03  0.16350938119E+04  0.21195652096E+04  0.12699999809E+01 0.  1.
       -4    1    3    3    0  502  0.13173363180E+04  0.28922018739E+03 -0.13213811095E+04  0.18881400745E+04  0.12699999809E+01 0. -1.
</event>
<event>
 5   0  0.2650452E-08  0.4001666E+04  0.7818609E-02  0.8004211E-01
       -2   -1    0    0    0  501  0.00000000000E+00  0.00000000000E+00  0.20545024744E+04  0.20545024744E+04  0.25500000920E-02 0.  1.
        2   -1    0    0  501    0  0.00000000000E+00  0.00000000000E+00 -0.19485653869E+04  0.19485653869E+04  0.25500000920E-02 0. -1.
    10030    2    1    2    0    0  0.00000000000E+00  0.00000000000E+00  0.10593708753E+03  0.40030678614E+04  0.40016658576E+04 0.  0.
        3    1    3    3  502    0  0.20935689106E+03  0.30151149153E+03  0.20205315410E+04  0.20536034685E+04  0.10100000352E+00 0.  1.
       -3    1    3    3    0  502 -0.20935689106E+03 -0.30151149153E+03 -0.19145944535E+04  0.19494643928E+04  0.10100000352E+00 0. -1.
</event>
<event>
 5   0  0.8329875E-09  0.3941919E+04  0.7818609E-02  0.8016367E-01
        1   -1    0    0  501    0  0.00000000000E+00  0.00000000000E+00  0.33691363247E+04  0.33691363247E+04  0.50400001928E-02 0. -1.
       -1   -1    0    0    0  501  0.00000000000E+00  0.00000000000E+00 -0.11530199415E+04  0.11530199415E+04  0.50400001928E-02 0.  1.
    10030    2    1    2    0    0  0.00000000000E+00  0.00000000000E+00  0.22161163831E+04  0.45221562662E+04  0.39419190088E+04 0.  0.
        1    1    3    3  502    0 -0.74247881201E+03  0.76358593184E+03 -0.79447090075E+03  0.13287295713E+04  0.50400001928E-02 0.  1.
       -1    1    3    3    0  502  0.74247881201E+03 -0.76358593184E+03  0.30105872839E+04  0.31934266949E+04  0.50400001928E-02 0. -1.
</event>
<event>
 5   0  0.2599332E-08  0.4004993E+04  0.7818609E-02  0.8003540E-01
        2   -1    0    0  501    0  0.00000000000E+00  0.00000000000E+00  0.20623037006E+04  0.20623037006E+04  0.25500000920E-02 0.  1.
       -2   -1    0    0    0  501  0.00000000000E+00  0.00000000000E+00 -0.19444232662E+04  0.19444232662E+04  0.25500000920E-02 0. -1.
    10030    2    1    2    0    0  0.00000000000E+00  0.00000000000E+00  0.11788043433E+03  0.40067269668E+04  0.40049925330E+04 0.  0.
        2    1    3    3  502    0  0.55617495215E+03  0.17990897463E+04  0.74036425842E+03  0.20234114084E+04  0.25500000920E-02 0.  1.
       -2    1    3    3    0  502 -0.55617495215E+03 -0.17990897463E+04 -0.62248382408E+03  0.19833155583E+04  0.25500000920E-02 0. -1.
</event>
<event>
 5   0  0.2746876E-08  0.3982623E+04  0.7818609E-02  0.8008061E-01
       -2   -1    0    0    0  501  0.00000000000E+00  0.00000000000E+00  0.16079006438E+04  0.16079006438E+04  0.25500000920E-02 0. -1.
        2   -1    0    0  501    0  0.00000000000E+00  0.00000000000E+00 -0.24661488282E+04  0.24661488282E+04  0.25500000920E-02 0.  1.
    10030    2    1    2    0    0  0.00000000000E+00  0.00000000000E+00 -0.85824818440E+03  0.40740494720E+04  0.39826234010E+04 0.  0.
        1    1    3    3  502    0  0.33604039607E+03  0.19613181068E+04 -0.50588279655E+03  0.20531948928E+04  0.50400001928E-02 0. -1.
       -1    1    3    3    0  502 -0.33604039607E+03 -0.19613181068E+04 -0.35236538785E+03  0.20208545792E+04  0.50400001928E-02 0.  1.
</event>
<event>
 5   0  0.8329875E-09  0.3999866E+04  0.7818609E-02  0.8004574E-01
        1   -1    0    0  501    0  0.00000000000E+00  0.00000000000E+00  0.27615956893E+04  0.27615956894E+04  0.50400001928E-02 0.  1.
       -1   -1    0    0    0  501  0.00000000000E+00  0.00000000000E+00 -0.14483411656E+04  0.14483411656E+04  0.50400001928E-02 0. -1.
    10030    2    1    2    0    0  0.00000000000E+00  0.00000000000E+00  0.13132545237E+04  0.42099368550E+04  0.39998663576E+04 0.  0.
        2    1    3    3  502    0 -0.77093936099E+03 -0.93762043501E+03  0.23295216878E+04  0.26268138252E+04  0.25500000920E-02 0.  1.
       -2    1    3    3    0  502  0.77093936099E+03  0.93762043501E+03 -0.10162671641E+04  0.15831230297E+04  0.25500000920E-02 0. -1.
</event>
<event>
 5   0  0.8329875E-09  0.3997467E+04  0.7818609E-02  0.8005058E-01
        1   -1    0    0  501    0  0.00000000000E+00  0.00000000000E+00  0.19862939299E+04  0.19862939299E+04  0.50400001928E-02 0. -1.
       -1   -1    0    0    0  501  0.00000000000E+00  0.00000000000E+00 -0.20112511859E+04  0.20112511859E+04  0.50400001928E-02 0.  1.
    10030    2    1    2    0    0  0.00000000000E+00  0.00000000000E+00 -0.24957256037E+02  0.39975451158E+04  0.39974672091E+04 0.  0.
        2    1    3    3  502    0  0.17693471428E+04  0.77168386664E+03  0.50603964517E+03  0.19955353728E+04  0.25500000920E-02 0.  1.
       -2    1    3    3    0  502 -0.17693471428E+04 -0.77168386664E+03 -0.53099690120E+03  0.20020097429E+04  0.25500000920E-02 0. -1.
</event>
<event>
 5   0  0.2612363E-08  0.4007234E+04  0.7818609E-02  0.8003089E-01
       -2   -1    0    0    0  501  0.00000000000E+00  0.00000000000E+00  0.31961192459E+04  0.31961192459E+04  0.25500000920E-02 0. -1.
        2   -1    0    0  501    0  0.00000000000E+00  0.00000000000E+00 -0.12560487089E+04  0.12560487089E+04  0.25500000920E-02 0.  1.
    10030    2    1    2    0    0  0.00000000000E+00  0.00000000000E+00  0.19400705370E+04  0.44521679547E+04  0.40072341844E+04 0.  0.
        4    1    3    3  502    0 -0.78470319708E+03 -0.18137626302E+04  0.60325000401E+03  0.20662541389E+04  0.12699999809E+01 0.  1.
       -4    1    3    3    0  502  0.78470319708E+03  0.18137626302E+04  0.13368205330E+04  0.23859138158E+04  0.12699999809E+01 0. -1.
</event>
<event>
 5   0  0.2612363E-08  0.3999043E+04  0.7818609E-02  0.8004740E-01
       -2   -1    0    0    0  501  0.00000000000E+00  0.00000000000E+00  0.16492238289E+04  0.16492238289E+04  0.25500000920E-02 0. -1.
        2   -1    0    0  501    0  0.00000000000E+00  0.00000000000E+00 -0.24242228454E+04  0.24242228454E+04  0.25500000920E-02 0.  1.
    10030    2    1    2    0    0  0.00000000000E+00  0.00000000000E+00 -0.77499901652E+03  0.40734466743E+04  0.39990429271E+04 0.  0.
        4    1    3    3  502    0  0.71691164412E+03  0.18657890333E+04 -0.33214275111E+03  0.20261913637E+04  0.12699999809E+01 0. -1.
       -4    1    3    3    0  502 -0.71691164412E+03 -0.18657890333E+04 -0.44285626541E+03  0.20472553106E+04  0.12699999809E+01 0.  1.
</event>
<event>
 5   0  0.2612363E-08  0.3999441E+04  0.7818609E-02  0.8004659E-01
       -2   -1    0    0    0  501  0.00000000000E+00  0.00000000000E+00  0.20290588665E+04  0.20290588666E+04  0.25500000920E-02 0. -1.
        2   -1    0    0  501    0  0.00000000000E+00  0.00000000000E+00 -0.19708063679E+04  0.19708063679E+04  0.25500000920E-02 0.  1.
    10030    2    1    2    0    0  0.00000000000E+00  0.00000000000E+00  0.58252498690E+02  0.39998652344E+04  0.39994410284E+04 0.  0.
        4    1    3    3  502    0  0.92718363762E+03 -0.11252566879E+04  0.13978503844E+04  0.20198661890E+04  0.12699999809E+01 0. -1.
       -4    1    3    3    0  502 -0.92718363762E+03  0.11252566879E+04 -0.13395978857E+04  0.19799990454E+04  0.12699999809E+01 0.  1.
</event>
<event>
 5   0  0.8329875E-09  0.3995093E+04  0.7818609E-02  0.8005537E-01
        1   -1    0    0  501    0  0.00000000000E+00  0.00000000000E+00  0.18949185543E+04  0.18949185543E+04  0.50400001928E-02 0. -1.
       -1   -1    0    0    0  501  0.00000000000E+00  0.00000000000E+00 -0.21057322628E+04  0.21057322628E+04  0.50400001928E-02 0.  1.
    10030    2    1    2    0    0  0.00000000000E+00  0.00000000000E+00 -0.21081370852E+03  0.40006508171E+04  0.39950925572E+04 0.  0.
        3    1    3    3  502    0 -0.24846137169E+03 -0.64792987058E+03  0.17703369193E+04  0.19014833653E+04  0.10100000352E+00 0. -1.
       -3    1    3    3    0  502  0.24846137169E+03  0.64792987058E+03 -0.19811506278E+04  0.20991674518E+04  0.10100000352E+00 0.  1.
</event>
<event>
 5   0  0.8329875E-09  0.4003025E+04  0.7818609E-02  0.8003937E-01
       -1   -1    0    0    0  501  0.00000000000E+00  0.00000000000E+00  0.18041577006E+04  0.18041577006E+04  0.50400001928E-02 0. -1.
        1   -1    0    0  501    0  0.00000000000E+00  0.00000000000E+00 -0.22204556803E+04  0.22204556803E+04  0.50400001928E-02 0.  1.
    10030    2    1    2    0    0  0.00000000000E+00  0.00000000000E+00 -0.41629797970E+03  0.40246133809E+04  0.40030249635E+04 0.  0.
        5    1    3    3  502    0 -0.18569672231E+04  0.17927136211E+03 -0.93701707735E+03  0.20876993515E+04  0.46999998093E+01 0.  1.
       -5    1    3    3    0  502  0.18569672231E+04 -0.17927136211E+03  0.52071909764E+03  0.19369140295E+04  0.46999998093E+01 0. -1.
</event>
<event>
 5   0  0.2599332E-08  0.3998571E+04  0.7818609E-02  0.8004835E-01
       -2   -1    0    0    0  501  0.00000000000E+00  0.00000000000E+00  0.17056345846E+04  0.17056345846E+04  0.25500000920E-02 0. -1.
        2   -1    0    0  501    0  0.00000000000E+00  0.00000000000E+00 -0.23434925349E+04  0.23434925349E+04  0.25500000920E-02 0.  1.
    10030    2    1    2    0    0  0.00000000000E+00  0.00000000000E+00 -0.63785795028E+03  0.40491271195E+04  0.39985707028E+04 0.  0.
        2    1    3    3  502    0  0.19703627289E+04  0.30415419837E+03 -0.47015860057E+03  0.20483867236E+04  0.25500000920E-02 0. -1.
       -2    1    3    3    0  502 -0.19703627289E+04 -0.30415419837E+03 -0.16769934971E+03  0.20007403959E+04  0.25500000920E-02 0.  1.
</event>
<event>
 5   0  0.8329875E-09  0.4015021E+04  0.7818609E-02  0.8001523E-01
        1   -1    0    0  501    0  0.00000000000E+00  0.00000000000E+00  0.31550470599E+04  0.31550470599E+04  0.50400001928E-02 0.  1.
       -1   -1    0    0    0  501  0.00000000000E+00  0.00000000000E+00 -0.12773497922E+04  0.12773497922E+04  0.50400001928E-02 0. -1.
    10030    2    1    2    0    0  0.00000000000E+00  0.00000000000E+00  0.18776972677E+04  0.44323968521E+04  0.40150211488E+04 0.  0.
        2    1    3    3  502    0 -0.36779227196E+03 -0.10756282954E+04  0.27655002716E+04  0.29900232670E+04  0.25500000920E-02 0.  1.
       -2    1    3    3    0  502  0.36779227196E+03  0.10756282954E+04 -0.88780300392E+03  0.14423735851E+04  0.25500000920E-02 0. -1.
</event>
<event>
 5   0  0.8329875E-09  0.3958337E+04  0.7818609E-02  0.8013004E-01
        1   -1    0    0  501    0  0.00000000000E+00  0.00000000000E+00  0.24966408245E+04  0.24966408245E+04  0.50400001928E-02 0. -1.
       -1   -1    0    0    0  501  0.00000000000E+00  0.00000000000E+00 -0.15689512551E+04  0.15689512551E+04  0.50400001928E-02 0.  1.
    10030    2    1    2    0    0  0.00000000000E+00  0.00000000000E+00  0.92768956943E+03  0.40655920796E+04  0.39583369008E+04 0.  0.
        2    1    3    3  502    0  0.76652949204E+03  0.16871310495E+04 -0.25006387778E+03  0.18698958750E+04  0.25500000920E-02 0.  1.
       -2    1    3    3    0  502 -0.76652949204E+03 -0.16871310495E+04  0.11777534472E+04  0.21956962046E+04  0.25500000920E-02 0. -1.
</event>
<event>
 5   0  0.8329875E-09  0.3999609E+04  0.7818609E-02  0.8004626E-01
       -1   -1    0    0    0  501  0.00000000000E+00  0.00000000000E+00  0.20219304376E+04  0.20219304377E+04  0.50400001928E-02 0. -1.
        1   -1    0    0  501    0  0.00000000000E+00  0.00000000000E+00 -0.19779202107E+04  0.19779202107E+04  0.50400001928E-02 0.  1.
    10030    2    1    2    0    0  0.00000000000E+00  0.00000000000E+00  0.44010226950E+02  0.39998506484E+04  0.39996085195E+04 0.  0.
        1    1    3    3  502    0  0.94929658778E+03  0.16916319786E+04  0.50827966776E+03  0.20052757873E+04  0.50400001928E-02 0. -1.
       -1    1    3    3    0  502 -0.94929658778E+03 -0.16916319786E+04 -0.46426944081E+03  0.19945748610E+04  0.50400001928E-02 0.  1.
</event>
<event>
 5   0  0.2599332E-08  0.4002838E+04  0.7818609E-02  0.8003974E-01
        2   -1    0    0  501    0  0.00000000000E+00  0.00000000000E+00  0.16544652859E+04  0.16544652859E+04  0.25500000920E-02 0. -1.
       -2   -1    0    0    0  501  0.00000000000E+00  0.00000000000E+00 -0.24211319701E+04  0.24211319701E+04  0.25500000920E-02 0.  1.
    10030    2    1    2    0    0  0.00000000000E+00  0.00000000000E+00 -0.76666668424E+03  0.40755972559E+04  0.40028383914E+04 0.  0.
        2    1    3    3  502    0  0.44502587260E+03 -0.14017744285E+04  0.99878654846E+03  0.17778059920E+04  0.25500000920E-02 0. -1.
       -2    1    3    3    0  502 -0.44502587260E+03  0.14017744285E+04 -0.17654532327E+04  0.22977912639E+04  0.25500000920E-02 0.  1.
</event>
<event>
 5   0  0.2612363E-08  0.3995374E+04  0.7818609E-02  0.8005480E-01
       -2   -1    0    0    0  501  0.00000000000E+00  0.00000000000E+00  0.17745512972E+04  0.17745512972E+04  0.25500000920E-02 0.  1.
        2   -1    0    0  501    0  0.00000000000E+00  0.00000000000E+00 -0.22488805917E+04  0.22488805917E+04  0.25500000920E-02 0. -1.
    10030    2    1    2    0    0  0.00000000000E+00  0.00000000000E+00 -0.47432929458E+03  0.40234318889E+04  0.39953743110E+04 0.  0.
        4    1    3    3  502    0  0.17068960441E+04 -0.33237890572E+03  0.75299124140E+03  0.18949847664E+04  0.12699999809E+01 0.  1.
       -4    1    3    3    0  502 -0.17068960441E+04  0.33237890572E+03 -0.12273205360E+04  0.21284471225E+04  0.12699999809E+01 0. -1.
</event>
<event>
 5   0  0.8329875E-09  0.4049087E+04  0.7818609E-02  0.7994717E-01
        1   -1    0    0  501    0  0.00000000000E+00  0.00000000000E+00  0.23226898273E+04  0.23226898273E+04  0.50400001928E-02 0.  1.
       -1   -1    0    0    0  501  0.00000000000E+00  0.00000000000E+00 -0.17646675957E+04  0.17646675957E+04  0.50400001928E-02 0. -1.
    10030    2    1    2    0    0  0.00000000000E+00  0.00000000000E+00  0.55802223163E+03  0.40873574230E+04  0.40490865503E+04 0.  0.
        3    1    3    3  502    0  0.93119135124E+03  0.13201865631E+04 -0.95267122480E+03  0.18755245578E+04  0.10100000352E+00 0. -1.
       -3    1    3    3    0  502 -0.93119135124E+03 -0.13201865631E+04  0.15106934564E+04  0.22118328652E+04  0.10100000352E+00 0.  1.
</event>
<event>
 5   0  0.2746876E-08  0.3985729E+04  0.7818609E-02  0.8007432E-01
       -2   -1    0    0    0  501  0.00000000000E+00  0.00000000000E+00  0.19484255539E+04  0.19484255539E+04  0.25500000920E-02 0.  1.
        2   -1    0    0  501    0  0.00000000000E+00  0.00000000000E+00 -0.20383173225E+04  0.20383173225E+04  0.25500000920E-02 0. -1.
    10030    2    1    2    0    0  0.00000000000E+00  0.00000000000E+00 -0.89891768606E+02  0.39867428765E+04  0.39857293226E+04 0.  0.
        1    1    3    3  502    0 -0.69780564903E+03  0.44601079181E+03  0.17681515964E+04  0.19524903119E+04  0.50400001928E-02 0.  1.
       -1    1    3    3    0  502  0.69780564903E+03 -0.44601079181E+03 -0.18580433650E+04  0.20342525646E+04  0.50400001928E-02 0. -1.
</event>
<event>
 5   0  0.8329875E-09  0.4003009E+04  0.7818609E-02  0.8003940E-01
        1   -1    0    0  501    0  0.00000000000E+00  0.00000000000E+00  0.21775468046E+04  0.21775468046E+04  0.50400001928E-02 0.  1.
       -1   -1    0    0    0  501  0.00000000000E+00  0.00000000000E+00 -0.18396942354E+04  0.18396942354E+04  0.50400001928E-02 0. -1.
    10030    2    1    2    0    0  0.00000000000E+00  0.00000000000E+00  0.33785256916E+03  0.40172410400E+04  0.40030090201E+04 0.  0.
        2    1    3    3  502    0  0.10118262590E+04  0.50004142284E+03  0.18277357036E+04  0.21481274648E+04  0.25500000920E-02 0.  1.
       -2    1    3    3    0  502 -0.10118262590E+04 -0.50004142284E+03 -0.14898831344E+04  0.18691135752E+04  0.25500000920E-02 0. -1.
</event>
<event>
 5   0  0.8329875E-09  0.3999601E+04  0.7818609E-02  0.8004627E-01
       -1   -1    0    0    0  501  0.00000000000E+00  0.00000000000E+00  0.24521470338E+04  0.24521470338E+04  0.50400001928E-02 0.  1.
        1   -1    0    0  501    0  0.00000000000E+00  0.00000000000E+00 -0.16308977402E+04  0.16308977402E+04  0.50400001928E-02 0. -1.
    10030    2    1    2    0    0  0.00000000000E+00  0.00000000000E+00  0.82124929366E+03  0.40830447740E+04  0.39996005081E+04 0.  0.
        1    1    3    3  502    0 -0.14092100191E+04  0.12491319229E+04  0.10977175871E+04  0.21797218492E+04  0.50400001928E-02 0.  1.
       -1    1    3    3    0  502  0.14092100191E+04 -0.12491319229E+04 -0.27646829343E+03  0.19033229248E+04  0.50400001928E-02 0. -1.
</event>
<event>
 5   0  0.8329875E-09  0.3998892E+04  0.7818609E-02  0.8004770E-01
        1   -1    0    0  501    0  0.00000000000E+00  0.00000000000E+00  0.28136914310E+04  0.28136914310E+04  0.50400001928E-02 0.  1.
       -1   -1    0    0    0  501  0.00000000000E+00  0.00000000000E+00 -0.14208325219E+04  0.14208325219E+04  0.50400001928E-02 0. -1.
    10030    2    1    2    0    0  0.00000000000E+00  0.00000000000E+00  0.13928589091E+04  0.42345239529E+04  0.39988919924E+04 0.  0.
        3    1    3    3  502    0 -0.19191487680E+04 -0.55138269094E+03  0.58725535490E+03  0.20813514186E+04  0.10100000352E+00 0. -1.
       -3    1    3    3    0  502  0.19191487680E+04  0.55138269094E+03  0.80560355424E+03  0.21531725343E+04  0.10100000352E+00 0.  1.
</event>
<event>
 5   0  0.8329875E-09  0.3990479E+04  0.7818609E-02  0.8006470E-01
        1   -1    0    0  501    0  0.00000000000E+00  0.00000000000E+00  0.22863554825E+04  0.22863554825E+04  0.50400001928E-02 0.  1.
       -1   -1    0    0    0  501  0.00000000000E+00  0.00000000000E+00 -0.17411909636E+04  0.17411909636E+04  0.50400001928E-02 0. -1.
    10030    2    1    2    0    0  0.00000000000E+00  0.00000000000E+00  0.54516451882E+03  0.40275464461E+04  0.39904794227E+04 0.  0.
        1    1    3    3  502    0 -0.10749476504E+04  0.11030499782E+04 -0.10075644222E+04  0.18404938931E+04  0.50400001928E-02 0. -1.
       -1    1    3    3    0  502  0.10749476504E+04 -0.11030499782E+04  0.15527289411E+04  0.21870525531E+04  0.50400001928E-02 0.  1.
</event>
<event>
 5   0  0.8329875E-09  0.4000119E+04  0.7818609E-02  0.8004522E-01
       -1   -1    0    0    0  501  0.00000000000E+00  0.00000000000E+00  0.17103001432E+04  0.17103001432E+04  0.50400001928E-02 0. -1.
        1   -1    0    0  501    0  0.00000000000E+00  0.00000000000E+00 -0.23389104873E+04  0.23389104873E+04  0.50400001928E-02 0.  1.
    10030    2    1    2    0    0  0.00000000000E+00  0.00000000000E+00 -0.62861034415E+03  0.40492106305E+04  0.40001194689E+04 0.  0.
        1    1    3    3  502    0  0.63351912902E+03 -0.12694726159E+04 -0.17413334842E+04  0.22461410269E+04  0.50400001928E-02 0.  1.
       -1    1    3    3    0  502 -0.63351912902E+03  0.12694726159E+04  0.11127231401E+04  0.18030696037E+04  0.50400001928E-02 0. -1.
</event>
<event>
 5   0  0.8329875E-09  0.3998492E+04  0.7818609E-02  0.8004851E-01
        1   -1    0    0  501    0  0.00000000000E+00  0.00000000000E+00  0.23434443324E+04  0.23434443324E+04  0.50400001928E-02 0.  1.
       -1   -1    0    0    0  501  0.00000000000E+00  0.00000000000E+00 -0.17056029032E+04  0.17056029032E+04  0.50400001928E-02 0. -1.
    10030    2    1    2    0    0  0.00000000000E+00  0.00000000000E+00  0.63784142925E+03  0.40490472356E+04  0.39984924443E+04 0.  0.
        2    1    3    3  502    0  0.10166452243E+04  0.46133686423E+03  0.19983789053E+04  0.22890866002E+04  0.25500000920E-02 0.  1.
       -2    1    3    3    0  502 -0.10166452243E+04 -0.46133686423E+03 -0.13605374760E+04  0.17599606354E+04  0.25500000920E-02 0. -1.
</event>
<event>
 5   0  0.8329875E-09  0.4012947E+04  0.7818609E-02  0.8001940E-01
        1   -1    0    0  501    0  0.00000000000E+00  0.00000000000E+00  0.32935389242E+04  0.32935389242E+04  0.50400001928E-02 0.  1.
       -1   -1    0    0    0  501  0.00000000000E+00  0.00000000000E+00 -0.12223739423E+04  0.12223739423E+04  0.50400001928E-02 0. -1.
    10030    2    1    2    0    0  0.00000000000E+00  0.00000000000E+00  0.20711649819E+04  0.45159128665E+04  0.40129471259E+04 0.  0.
        1    1    3    3  502    0 -0.15623883342E+03  0.19580035401E+04  0.14964864435E+04  0.24693440651E+04  0.50400001928E-02 0.  1.
       -1    1    3    3    0  502  0.15623883342E+03 -0.19580035401E+04  0.57467853838E+03  0.20465688014E+04  0.50400001928E-02 0. -1.
</event>
<event>
 5   0  0.2599332E-08  0.4028868E+04  0.7818609E-02  0.7998748E-01
        2   -1    0    0  501    0  0.00000000000E+00  0.00000000000E+00  0.14005897118E+04  0.14005897118E+04  0.25500000920E-02 0.  1.
       -2   -1    0    0    0  501  0.00000000000E+00  0.00000000000E+00 -0.28973118092E+04  0.28973118092E+04  0.25500000920E-02 0. -1.
    10030    2    1    2    0    0  0.00000000000E+00  0.00000000000E+00 -0.14967220973E+04  0.42979015210E+04  0.40288683830E+04 0.  0.
        2    1    3    3  502    0  0.12396115459E+04  0.15818665030E+04 -0.89543192149E+03  0.22001674355E+04  0.25500000920E-02 0. -1.
       -2    1    3    3    0  502 -0.12396115459E+04 -0.15818665030E+04 -0.60129017582E+03  0.20977340855E+04  0.25500000920E-02 0.  1.
</event>
<event>
 5   0  0.8329875E-09  0.3997744E+04  0.7818609E-02  0.8005002E-01
       -1   -1    0    0    0  501  0.00000000000E+00  0.00000000000E+00  0.16983604774E+04  0.16983604774E+04  0.50400001928E-02 0.  1.
        1   -1    0    0  501    0  0.00000000000E+00  0.00000000000E+00 -0.23525565961E+04  0.23525565961E+04  0.50400001928E-02 0. -1.
    10030    2    1    2    0    0  0.00000000000E+00  0.00000000000E+00 -0.65419611872E+03  0.40509170735E+04  0.39977439356E+04 0.  0.
        2    1    3    3  502    0  0.12792678486E+04  0.84774726003E+02 -0.18810456648E+04  0.22764107221E+04  0.25500000920E-02 0. -1.
       -2    1    3    3    0  502 -0.12792678486E+04 -0.84774726003E+02  0.12268495461E+04  0.17745063514E+04  0.25500000920E-02 0.  1.
</event>
<event>
 5   0  0.8329875E-09  0.3992586E+04  0.7818609E-02  0.8006044E-01
       -1   -1    0    0    0  501  0.00000000000E+00  0.00000000000E+00  0.24921966610E+04  0.24921966610E+04  0.50400001928E-02 0. -1.
        1   -1    0    0  501    0  0.00000000000E+00  0.00000000000E+00 -0.15990654152E+04  0.15990654152E+04  0.50400001928E-02 0.  1.
    10030    2    1    2    0    0  0.00000000000E+00  0.00000000000E+00  0.89313124584E+03  0.40912620762E+04  0.39925858731E+04 0.  0.
        5    1    3    3  502    0  0.62587353828E+03 -0.89609822858E+03 -0.12651847974E+04  0.16719522669E+04  0.46999998093E+01 0.  1.
       -5    1    3    3    0  502 -0.62587353828E+03  0.89609822858E+03  0.21583160432E+04  0.24193098093E+04  0.46999998093E+01 0. -1.
</event>
<event>
 5   0  0.2746876E-08  0.4000742E+04  0.7818609E-02  0.8004397E-01
        2   -1    0    0  501    0  0.00000000000E+00  0.00000000000E+00  0.15710173943E+04  0.15710173943E+04  0.25500000920E-02 0. -1.
       -2   -1    0    0    0  501  0.00000000000E+00  0.00000000000E+00 -0.25470657909E+04  0.25470657909E+04  0.25500000920E-02 0.  1.
    10030    2    1    2    0    0  0.00000000000E+00  0.00000000000E+00 -0.97604839656E+03  0.41180831852E+04  0.40007422621E+04 0.  0.
        1    1    3    3  502    0 -0.13985913689E+04  0.13392469945E+03 -0.19536868148E+04  0.24064259417E+04  0.50400001928E-02 0.  1.
       -1    1    3    3    0  502  0.13985913689E+04 -0.13392469945E+03  0.97763841825E+03  0.17116572435E+04  0.50400001928E-02 0. -1.
</event>
<event>
 5   0  0.2746876E-08  0.4008282E+04  0.7818609E-02  0.8002878E-01
        2   -1    0    0  501    0  0.00000000000E+00  0.00000000000E+00  0.28290932721E+04  0.28290932721E+04  0.25500000920E-02 0. -1.
       -2   -1    0    0    0  501  0.00000000000E+00  0.00000000000E+00 -0.14197412301E+04  0.14197412301E+04  0.25500000920E-02 0.  1.
    10030    2    1    2    0    0  0.00000000000E+00  0.00000000000E+00  0.14093520420E+04  0.42488345023E+04  0.40082816080E+04 0.  0.
        1    1    3    3  502    0  0.17276743302E+04  0.87223839384E+03  0.15293701269E+03  0.19414036511E+04  0.50400001928E-02 0.  1.
       -1    1    3    3    0  502 -0.17276743302E+04 -0.87223839384E+03  0.12564150293E+04  0.23074308511E+04  0.50400001928E-02 0. -1.
</event>
<event>
 5   0  0.2599332E-08  0.4005744E+04  0.7818609E-02  0.8003389E-01
       -2   -1    0    0    0  501  0.00000000000E+00  0.00000000000E+00  0.12152532877E+04  0.12152532878E+04  0.25500000920E-02 0. -1.
        2   -1    0    0  501    0  0.00000000000E+00  0.00000000000E+00 -0.33009541202E+04  0.33009541202E+04  0.25500000920E-02 0.  1.
    10030    2    1    2    0    0  0.00000000000E+00  0.00000000000E+00 -0.20857008325E+04  0.45162074080E+04  0.40057435501E+04 0.  0.
        2    1    3    3  502    0 -0.12873013284E+04  0.30125119358E+03 -0.27391026071E+04  0.30414766289E+04  0.25500000920E-02 0.  1.
       -2    1    3    3    0  502  0.12873013284E+04 -0.30125119358E+03  0.65340177465E+03  0.14747307791E+04  0.25500000920E-02 0. -1.
</event>
<event>
 5   0  0.2587493E-08  0.3973691E+04  0.7818609E-02  0.8009875E-01
       -2   -1    0    0    0  501  0.00000000000E+00  0.00000000000E+00  0.32439795019E+04  0.32439795019E+04  0.25500000920E-02 0.  1.
        2   -1    0    0  501    0  0.00000000000E+00  0.00000000000E+00 -0.12168864850E+04  0.12168864850E+04  0.25500000920E-02 0. -1.
    10030    2    1    2    0    0  0.00000000000E+00  0.00000000000E+00  0.20270930169E+04  0.44608659869E+04  0.39736908856E+04 0.  0.
        5    1    3    3  502    0 -0.19450405247E+04  0.17699198082E+03  0.60410679357E+03  0.20443766561E+04  0.46999998093E+01 0.  1.
       -5    1    3    3    0  502  0.19450405247E+04 -0.17699198082E+03  0.14229862233E+04  0.24164893308E+04  0.46999998093E+01 0. -1.
</event>
<event>
 5   0  0.8329875E-09  0.4016114E+04  0.7818609E-02  0.8001304E-01
       -1   -1    0    0    0  501  0.00000000000E+00  0.00000000000E+00  0.19488568165E+04  0.19488568165E+04  0.50400001928E-02 0. -1.
        1   -1    0    0  501    0  0.00000000000E+00  0.00000000000E+00 -0.20690554211E+04  0.20690554211E+04  0.50400001928E-02 0.  1.
    10030    2    1    2    0    0  0.00000000000E+00  0.00000000000E+00 -0.12019860466E+03  0.40179122376E+04  0.40161139233E+04 0.  0.
        4    1    3    3  502    0 -0.76220189514E+03  0.13595197484E+04 -0.13267805570E+04  0.20468497587E+04  0.12699999809E+01 0.  1.
       -4    1    3    3    0  502  0.76220189514E+03 -0.13595197484E+04  0.12065819524E+04  0.19710624789E+04  0.12699999809E+01 0. -1.
</event>
<event>
 5   0  0.2746876E-08  0.3989503E+04  0.7818609E-02  0.8006668E-01
       -2   -1    0    0    0  501  0.00000000000E+00  0.00000000000E+00  0.16947780186E+04  0.16947780186E+04  0.25500000920E-02 0.  1.
        2   -1    0    0  501    0  0.00000000000E+00  0.00000000000E+00 -0.23478196848E+04  0.23478196848E+04  0.25500000920E-02 0. -1.
    10030    2    1    2    0    0  0.00000000000E+00  0.00000000000E+00 -0.65304166620E+03  0.40425977034E+04  0.39895028229E+04 0.  0.
        1    1    3    3  502    0  0.13365286492E+04 -0.11242837528E+04  0.65000087971E+03  0.18635514296E+04  0.50400001928E-02 0.  1.
       -1    1    3    3    0  502 -0.13365286492E+04  0.11242837528E+04 -0.13030425459E+04  0.21790462738E+04  0.50400001928E-02 0. -1.
</event>
<event>
 5   0  0.8329875E-09  0.4000615E+04  0.7818609E-02  0.8004422E-01
       -1   -1    0    0    0  501  0.00000000000E+00  0.00000000000E+00  0.23832346167E+04  0.23832346167E+04  0.50400001928E-02 0. -1.
        1   -1    0    0  501    0  0.00000000000E+00  0.00000000000E+00 -0.16789074443E+04  0.16789074443E+04  0.50400001928E-02 0.  1.
    10030    2    1    2    0    0  0.00000000000E+00  0.00000000000E+00  0.70432717241E+03  0.40621420610E+04  0.40006151224E+04 0.  0.
        1    1    3    3  502    0 -0.62203085846E+03  0.18689832411E+04 -0.13424511345E+01  0.19697772835E+04  0.50400001928E-02 0. -1.
       -1    1    3    3    0  502  0.62203085846E+03 -0.18689832411E+04  0.70566962355E+03  0.20923647775E+04  0.50400001928E-02 0.  1.
</event>
<event>
 5   0  0.8329875E-09  0.4001972E+04  0.7818609E-02  0.8004149E-01
        1   -1    0    0  501    0  0.00000000000E+00  0.00000000000E+00  0.18364148578E+04  0.18364148578E+04  0.50400001928E-02 0.  1.
       -1   -1    0    0    0  501  0.00000000000E+00  0.00000000000E+00 -0.21803050066E+04  0.21803050066E+04  0.50400001928E-02 0. -1.
    10030    2    1    2    0    0  0.00000000000E+00  0.00000000000E+00 -0.34389014885E+03  0.40167198644E+04  0.40019717683E+04 0.  0.
        2    1    3    3  502    0  0.98267438504E+03 -0.15661151865E+04  0.59610615788E+03  0.19426034788E+04  0.25500000920E-02 0.  1.
       -2    1    3    3    0  502 -0.98267438504E+03  0.15661151865E+04 -0.93999630673E+03  0.20741163856E+04  0.25500000920E-02 0. -1.
</event>
<event>
 5   0  0.8329875E-09  0.3999096E+04  0.7818609E-02  0.8004729E-01
        1   -1    0    0  501    0  0.00000000000E+00  0.00000000000E+00  0.18424114539E+04  0.18424114539E+04  0.50400001928E-02 0.  1.
       -1   -1    0    0    0  501  0.00000000000E+00  0.00000000000E+00 -0.21700867036E+04  0.21700867036E+04  0.50400001928E-02 0. -1.
    10030    2    1    2    0    0  0.00000000000E+00  0.00000000000E+00 -0.32767524966E+03  0.40124981575E+04  0.39990961972E+04 0.  0.
        3    1    3    3  502    0  0.14828907801E+04  0.11747162440E+04  0.48584239460E+03  0.19531938363E+04  0.10100000352E+00 0.  1.
       -3    1    3    3    0  502 -0.14828907801E+04 -0.11747162440E+04 -0.81351764426E+03  0.20593043212E+04  0.10100000352E+00 0. -1.
</event>
<event>
 5   0  0.8329875E-09  0.4000570E+04  0.7818609E-02  0.8004432E-01
       -1   -1    0    0    0  501  0.00000000000E+00  0.00000000000E+00  0.14731151570E+04  0.14731151570E+04  0.50400001928E-02 0.  1.
        1   -1    0    0  501    0  0.00000000000E+00  0.00000000000E+00 -0.27161075661E+04  0.27161075661E+04  0.50400001928E-02 0. -1.
    10030    2    1    2    0    0  0.00000000000E+00  0.00000000000E+00 -0.12429924091E+04  0.41892227231E+04  0.40005695713E+04 0.  0.
        5    1    3    3  502    0 -0.15659313623E+03  0.10285892738E+04 -0.24104490760E+04  0.26254150420E+04  0.46999998093E+01 0. -1.
       -5    1    3    3    0  502  0.15659313623E+03 -0.10285892738E+04  0.11674566669E+04  0.15638076812E+04  0.46999998093E+01 0.  1.
</event>
<event>
 5   0  0.8329875E-09  0.3998105E+04  0.7818609E-02  0.8004929E-01
       -1   -1    0    0    0  501  0.00000000000E+00  0.00000000000E+00  0.25683320203E+04  0.25683320203E+04  0.50400001928E-02 0.  1.
        1   -1    0    0  501    0  0.00000000000E+00  0.00000000000E+00 -0.15559561032E+04  0.15559561032E+04  0.50400001928E-02 0. -1.
    10030    2    1    2    0    0  0.00000000000E+00  0.00000000000E+00  0.10123759171E+04  0.41242881235E+04  0.39981054924E+04 0.  0.
        2    1    3    3  502    0  0.73188022751E+03 -0.50817415677E+03  0.23521691187E+04  0.25152711989E+04  0.25500000920E-02 0.  1.
       -2    1    3    3    0  502 -0.73188022751E+03  0.50817415677E+03 -0.13397932015E+04  0.16090169247E+04  0.25500000920E-02 0. -1.
</event>
<event>
 5   0  0.2746876E-08  0.3999864E+04  0.7818609E-02  0.8004574E-01
       -2   -1    0    0    0  501  0.00000000000E+00  0.00000000000E+00  0.16095517123E+04  0.16095517123E+04  0.25500000920E-02 0.  1.
        2   -1    0    0  501    0  0.00000000000E+00  0.00000000000E+00 -0.24849949555E+04  0.24849949555E+04  0.25500000920E-02 0. -1.
    10030    2    1    2    0    0  0.00000000000E+00  0.00000000000E+00 -0.87544324322E+03  0.40945466679E+04  0.39998639406E+04 0.  0.
        1    1    3    3  502    0 -0.12863298425E+04 -0.12971408629E+04  0.39549226457E+03  0.18691262701E+04  0.50400001928E-02 0.  1.
       -1    1    3    3    0  502  0.12863298425E+04  0.12971408629E+04 -0.12709355078E+04  0.22254203978E+04  0.50400001928E-02 0. -1.
</event>
<event>
 5   0  0.2650452E-08  0.4000900E+04  0.7818609E-02  0.8004365E-01
        2   -1    0    0  501    0  0.00000000000E+00  0.00000000000E+00  0.35330768045E+04  0.35330768045E+04  0.25500000920E-02 0. -1.
       -2   -1    0    0    0  501  0.00000000000E+00  0.00000000000E+00 -0.11326674413E+04  0.11326674413E+04  0.25500000920E-02 0.  1.
    10030    2    1    2    0    0  0.00000000000E+00  0.00000000000E+00  0.24004093631E+04  0.46657442458E+04  0.40009004307E+04 0.  0.
        3    1    3    3  502    0  0.81743151257E+03 -0.79864691228E+03  0.31149216874E+04  0.33179463975E+04  0.10100000352E+00 0. -1.
       -3    1    3    3    0  502 -0.81743151257E+03  0.79864691228E+03 -0.71451232421E+03  0.13477978483E+04  0.10100000352E+00 0.  1.
</event>
<event>
 5   0  0.8329875E-09  0.3984609E+04  0.7818609E-02  0.8007659E-01
        1   -1    0    0  501    0  0.00000000000E+00  0.00000000000E+00  0.15628673936E+04  0.15628673936E+04  0.50400001928E-02 0.  1.
       -1   -1    0    0    0  501  0.00000000000E+00  0.00000000000E+00 -0.25397403154E+04  0.25397403154E+04  0.50400001928E-02 0. -1.
    10030    2    1    2    0    0  0.00000000000E+00  0.00000000000E+00 -0.97687292187E+03  0.41026077090E+04  0.39846090534E+04 0.  0.
        1    1    3    3  502    0  0.14808716896E+04  0.30155682988E+03 -0.18250953641E+04  0.23695760318E+04  0.50400001928E-02 0. -1.
       -1    1    3    3    0  502 -0.14808716896E+04 -0.30155682988E+03  0.84822244219E+03  0.17330316772E+04  0.50400001928E-02 0.  1.
</event>
<event>
 5   0  0.8329875E-09  0.3945473E+04  0.7818609E-02  0.8015638E-01
       -1   -1    0    0    0  501  0.00000000000E+00  0.00000000000E+00  0.18678765729E+04  0.18678765729E+04  0.50400001928E-02 0.  1.
        1   -1    0    0  501    0  0.00000000000E+00  0.00000000000E+00 -0.20834829354E+04  0.20834829354E+04  0.50400001928E-02 0. -1.
    10030    2    1    2    0    0  0.00000000000E+00  0.00000000000E+00 -0.21560636255E+03  0.39513595083E+04  0.39454728310E+04 0.  0.
        2    1    3    3  502    0  0.52194867177E+03 -0.44905418469E+03 -0.19592390285E+04  0.20767035531E+04  0.25500000920E-02 0. -1.
       -2    1    3    3    0  502 -0.52194867177E+03  0.44905418469E+03  0.17436326659E+04  0.18746559552E+04  0.25500000920E-02 0.  1.
</event>
<event>
 5   0  0.8329875E-09  0.3995137E+04  0.7818609E-02  0.8005528E-01
        1   -1    0    0  501    0  0.00000000000E+00  0.00000000000E+00  0.18241180879E+04  0.18241180879E+04  0.50400001928E-02 0.  1.
       -1   -1    0    0    0  501  0.00000000000E+00  0.00000000000E+00 -0.21875114221E+04  0.21875114222E+04  0.50400001928E-02 0. -1.
    10030    2    1    2    0    0  0.00000000000E+00  0.00000000000E+00 -0.36339333424E+03  0.40116295101E+04  0.39951366198E+04 0.  0.
        1    1    3    3  502    0  0.67245186012E+03  0.16946129750E+04  0.63799094442E+03  0.19315633783E+04  0.50400001928E-02 0.  1.
       -1    1    3    3    0  502 -0.67245186012E+03 -0.16946129750E+04 -0.10013842787E+04  0.20800661318E+04  0.50400001928E-02 0. -1.
</event>
<event>
 5   0  0.8329875E-09  0.4002132E+04  0.7818609E-02  0.8004117E-01
       -1   -1    0    0    0  501  0.00000000000E+00  0.00000000000E+00  0.19769589387E+04  0.19769589387E+04  0.50400001928E-02 0. -1.
        1   -1    0    0  501    0  0.00000000000E+00  0.00000000000E+00 -0.20254670117E+04  0.20254670117E+04  0.50400001928E-02 0.  1.
    10030    2    1    2    0    0  0.00000000000E+00  0.00000000000E+00 -0.48508072962E+02  0.40024259504E+04  0.40021319887E+04 0.  0.
        4    1    3    3  502    0 -0.12411763488E+04  0.10953396010E+04  0.11000953836E+04  0.19875862337E+04  0.12699999809E+01 0. -1.
       -4    1    3    3    0  502  0.12411763488E+04 -0.10953396010E+04 -0.11486034566E+04  0.20148397167E+04  0.12699999809E+01 0.  1.
</event>
<event>
 5   0  0.8329875E-09  0.4009390E+04  0.7818609E-02  0.8002655E-01
       -1   -1    0    0    0  501  0.00000000000E+00  0.00000000000E+00  0.20570777825E+04  0.20570777825E+04  0.50400001928E-02 0. -1.
        1   -1    0    0  501    0  0.00000000000E+00  0.00000000000E+00 -0.19536457843E+04  0.19536457843E+04  0.50400001928E-02 0.  1.
    10030    2    1    2    0    0  0.00000000000E+00  0.00000000000E+00  0.10343199820E+03  0.40107235667E+04  0.40093896481E+04 0.  0.
        5    1    3    3  502    0 -0.54684181750E+03 -0.76751443757E+03  0.18216731582E+04  0.20510069650E+04  0.46999998093E+01 0. -1.
       -5    1    3    3    0  502  0.54684181750E+03  0.76751443757E+03 -0.17182411600E+04  0.19597166017E+04  0.46999998093E+01 0.  1.
</event>
<event>
 5   0  0.2746876E-08  0.3999356E+04  0.7818609E-02  0.8004677E-01
       -2   -1    0    0    0  501  0.00000000000E+00  0.00000000000E+00  0.31229693777E+04  0.31229693777E+04  0.25500000920E-02 0. -1.
        2   -1    0    0  501    0  0.00000000000E+00  0.00000000000E+00 -0.12804196624E+04  0.12804196625E+04  0.25500000920E-02 0.  1.
    10030    2    1    2    0    0  0.00000000000E+00  0.00000000000E+00  0.18425497153E+04  0.44033890402E+04  0.39993556463E+04 0.  0.
        1    1    3    3  502    0  0.10904965202E+04  0.14781119595E+03 -0.91703424036E+03  0.14324742958E+04  0.50400001928E-02 0.  1.
       -1    1    3    3    0  502 -0.10904965202E+04 -0.14781119595E+03  0.27595839556E+04  0.29709147444E+04  0.50400001928E-02 0. -1.
</event>
<event>
 5   0  0.8329875E-09  0.3993179E+04  0.7818609E-02  0.8005924E-01
        1   -1    0    0  501    0  0.00000000000E+00  0.00000000000E+00  0.14451225663E+04  0.14451225663E+04  0.50400001928E-02 0. -1.
       -1   -1    0    0    0  501  0.00000000000E+00  0.00000000000E+00 -0.27584986715E+04  0.27584986715E+04  0.50400001928E-02 0.  1.
    10030    2    1    2    0    0  0.00000000000E+00  0.00000000000E+00 -0.13133761052E+04  0.42036212378E+04  0.39931785230E+04 0.  0.
        5    1    3    3  502    0 -0.15941756850E+04  0.87738636211E+03  0.20828572822E+03  0.18315588928E+04  0.46999998093E+01 0. -1.
       -5    1    3    3    0  502  0.15941756850E+04 -0.87738636211E+03 -0.15216618334E+04  0.23720623450E+04  0.46999998093E+01 0.  1.
</event>
<event>
 5   0  0.2599332E-08  0.3999440E+04  0.7818609E-02  0.8004660E-01
       -2   -1    0    0    0  501  0.00000000000E+00  0.00000000000E+00  0.14516195623E+04  0.14516195623E+04  0.25500000920E-02 0.  1.
        2   -1    0    0  501    0  0.00000000000E+00  0.00000000000E+00 -0.27547715415E+04  0.27547715415E+04  0.25500000920E-02 0. -1.
    10030    2    1    2    0    0  0.00000000000E+00  0.00000000000E+00 -0.13031519792E+04  0.42063911038E+04  0.39994400905E+04 0.  0.
        2    1    3    3  502    0  0.10492747869E+04 -0.10975493681E+04  0.71702193891E+03  0.16792000043E+04  0.25500000920E-02 0.  1.
       -2    1    3    3    0  502 -0.10492747869E+04  0.10975493681E+04 -0.20201739181E+04  0.25271910995E+04  0.25500000920E-02 0. -1.
</event>
<event>
 5   0  0.8329875E-09  0.4000018E+04  0.7818609E-02  0.8004543E-01
       -1   -1    0    0    0  501  0.00000000000E+00  0.00000000000E+00  0.20725448673E+04  0.20725448673E+04  0.50400001928E-02 0. -1.
        1   -1    0    0  501    0  0.00000000000E+00  0.00000000000E+00 -0.19300115721E+04  0.19300115721E+04  0.50400001928E-02 0.  1.
    10030    2    1    2    0    0  0.00000000000E+00  0.00000000000E+00  0.14253329525E+03  0.40025564394E+04  0.40000177888E+04 0.  0.
        4    1    3    3  502    0  0.12035574957E+04  0.49775565272E+03  0.15900318428E+04  0.20553623060E+04  0.12699999809E+01 0. -1.
       -4    1    3    3    0  502 -0.12035574957E+04 -0.49775565272E+03 -0.14474985475E+04  0.19471941334E+04  0.12699999809E+01 0.  1.
</event>
<event>
 5   0  0.2650452E-08  0.3999334E+04  0.7818609E-02  0.8004681E-01
        2   -1    0    0  501    0  0.00000000000E+00  0.00000000000E+00  0.18160740317E+04  0.18160740317E+04  0.25500000920E-02 0.  1.
       -2   -1    0    0    0  501  0.00000000000E+00  0.00000000000E+00 -0.22018195484E+04  0.22018195484E+04  0.25500000920E-02 0. -1.
    10030    2    1    2    0    0  0.00000000000E+00  0.00000000000E+00 -0.38574551674E+03  0.40178935801E+04  0.39993335966E+04 0.  0.
        3    1    3    3  502    0  0.37718665815E+03  0.13842545033E+04  0.12065153789E+04  0.18745958697E+04  0.10100000352E+00 0.  1.
       -3    1    3    3    0  502 -0.37718665815E+03 -0.13842545033E+04 -0.15922608957E+04  0.21432977103E+04  0.10100000352E+00 0. -1.
</event>
<event>
 5   0  0.8329875E-09  0.4005098E+04  0.7818609E-02  0.8003519E-01
       -1   -1    0    0    0  501  0.00000000000E+00  0.00000000000E+00  0.21914439474E+04  0.21914439474E+04  0.50400001928E-02 0.  1.
        1   -1    0    0  501    0  0.00000000000E+00  0.00000000000E+00 -0.18299359114E+04  0.18299359114E+04  0.50400001928E-02 0. -1.
    10030    2    1    2    0    0  0.00000000000E+00  0.00000000000E+00  0.36150803604E+03  0.40213798588E+04  0.40050977402E+04 0.  0.
        1    1    3    3  502    0  0.13476634978E+04  0.14251178076E+04  0.58618300935E+03  0.20471365829E+04  0.50400001928E-02 0. -1.
       -1    1    3    3    0  502 -0.13476634978E+04 -0.14251178076E+04 -0.22467497331E+03  0.19742432759E+04  0.50400001928E-02 0.  1.
</event>
<event>
 5   0  0.2650452E-08  0.3994284E+04  0.7818609E-02  0.8005701E-01
       -2   -1    0    0    0  501  0.00000000000E+00  0.00000000000E+00  0.26437461730E+04  0.26437461730E+04  0.25500000920E-02 0. -1.
        2   -1    0    0  501    0  0.00000000000E+00  0.00000000000E+00 -0.15086836924E+04  0.15086836924E+04  0.25500000920E-02 0.  1.
    10030    2    1    2    0    0  0.00000000000E+00  0.00000000000E+00  0.11350624806E+04  0.41524298654E+04  0.39942842854E+04 0.  0.
        3    1    3    3  502    0 -0.16215393572E+03  0.12921194912E+04 -0.10065889941E+04  0.16459307676E+04  0.10100000352E+00 0.  1.
       -3    1    3    3    0  502  0.16215393572E+03 -0.12921194912E+04  0.21416514746E+04  0.25064990978E+04  0.10100000352E+00 0. -1.
</event>
<event>
 5   0  0.8329875E-09  0.3995498E+04  0.7818609E-02  0.8005455E-01
        1   -1    0    0  501    0  0.00000000000E+00  0.00000000000E+00  0.23434927989E+04  0.23434927989E+04  0.50400001928E-02 0.  1.
       -1   -1    0    0    0  501  0.00000000000E+00  0.00000000000E+00 -0.17030136435E+04  0.17030136435E+04  0.50400001928E-02 0. -1.
    10030    2    1    2    0    0  0.00000000000E+00  0.00000000000E+00  0.64047915539E+03  0.40465064425E+04  0.39954975711E+04 0.  0.
        5    1    3    3  502    0  0.40446849027E+03  0.98983455538E+03 -0.13887904350E+04  0.17527487467E+04  0.46999998093E+01 0. -1.
       -5    1    3    3    0  502 -0.40446849027E+03 -0.98983455538E+03  0.20292695904E+04  0.22937576958E+04  0.46999998093E+01 0.  1.
</event>
<event>
 5   0  0.8329875E-09  0.3991118E+04  0.7818609E-02  0.8006341E-01
       -1   -1    0    0    0  501  0.00000000000E+00  0.00000000000E+00  0.15645051253E+04  0.15645051253E+04  0.50400001928E-02 0.  1.
        1   -1    0    0  501    0  0.00000000000E+00  0.00000000000E+00 -0.25453768721E+04  0.25453768721E+04  0.50400001928E-02 0. -1.
    10030    2    1    2    0    0  0.00000000000E+00  0.00000000000E+00 -0.98087174684E+03  0.41098819974E+04  0.39911177192E+04 0.  0.
        5    1    3    3  502    0 -0.37852349399E+03 -0.95449950597E+03 -0.22524595028E+04  0.24754686918E+04  0.46999998093E+01 0. -1.
       -5    1    3    3    0  502  0.37852349399E+03  0.95449950597E+03  0.12715877559E+04  0.16344133056E+04  0.46999998093E+01 0.  1.
</event>
<event>
 5   0  0.8329875E-09  0.3999148E+04  0.7818609E-02  0.8004718E-01
       -1   -1    0    0    0  501  0.00000000000E+00  0.00000000000E+00  0.20973128156E+04  0.20973128156E+04  0.50400001928E-02 0. -1.
        1   -1    0    0  501    0  0.00000000000E+00  0.00000000000E+00 -0.19063901934E+04  0.19063901934E+04  0.50400001928E-02 0.  1.
    10030    2    1    2    0    0  0.00000000000E+00  0.00000000000E+00  0.19092262216E+03  0.40037030090E+04  0.39991482014E+04 0.  0.
        3    1    3    3  502    0  0.89820291591E+03  0.24561990651E+03 -0.16760734874E+04  0.19173731932E+04  0.10100000352E+00 0.  1.
       -3    1    3    3    0  502 -0.89820291591E+03 -0.24561990651E+03  0.18669961096E+04  0.20863298158E+04  0.10100000352E+00 0. -1.
</event>
<event>
 5   0  0.2587493E-08  0.3998931E+04  0.7818609E-02  0.8004762E-01
        2   -1    0    0  501    0  0.00000000000E+00  0.00000000000E+00  0.25732868538E+04  0.25732868538E+04  0.25500000920E-02 0. -1.
       -2   -1    0    0    0  501  0.00000000000E+00  0.00000000000E+00 -0.15536016423E+04  0.15536016423E+04  0.25500000920E-02 0.  1.
    10030    2    1    2    0    0  0.00000000000E+00  0.00000000000E+00  0.10196852115E+04  0.41268884961E+04  0.39989311982E+04 0.  0.
        5    1    3    3  502    0 -0.23180140396E+03  0.14852533640E+04  0.18704100461E+04  0.23996177355E+04  0.46999998093E+01 0. -1.
       -5    1    3    3    0  502  0.23180140396E+03 -0.14852533640E+04 -0.85072483458E+03  0.17272707605E+04  0.46999998093E+01 0.  1.
</event>
<event>
 5   0  0.2746876E-08  0.3999436E+04  0.7818609E-02  0.8004660E-01
        2   -1    0    0  501    0  0.00000000000E+00  0.00000000000E+00  0.14968100578E+04  0.14968100578E+04  0.25500000920E-02 0.  1.
       -2   -1    0    0    0  501  0.00000000000E+00  0.00000000000E+00 -0.26715966691E+04  0.26715966691E+04  0.25500000920E-02 0. -1.
    10030    2    1    2    0    0  0.00000000000E+00  0.00000000000E+00 -0.11747866114E+04  0.41684067269E+04  0.39994363426E+04 0.  0.
        1    1    3    3  502    0 -0.12653880178E+04  0.20386350307E+03  0.10124176820E+04  0.16333268890E+04  0.50400001928E-02 0.  1.
       -1    1    3    3    0  502  0.12653880178E+04 -0.20386350307E+03 -0.21872042934E+04  0.25350798379E+04  0.50400001928E-02 0. -1.
</event>
<event>
 5   0  0.2746876E-08  0.3985371E+04  0.7818609E-02  0.8007504E-01
       -2   -1    0    0    0  501  0.00000000000E+00  0.00000000000E+00  0.17428435570E+04  0.17428435570E+04  0.25500000920E-02 0.  1.
        2   -1    0    0  501    0  0.00000000000E+00  0.00000000000E+00 -0.22783434606E+04  0.22783434606E+04  0.25500000920E-02 0. -1.
    10030    2    1    2    0    0  0.00000000000E+00  0.00000000000E+00 -0.53549990364E+03  0.40211870176E+04  0.39853713609E+04 0.  0.
        1    1    3    3  502    0  0.64454897498E+03 -0.13559167480E+04 -0.15898085901E+04  0.21866515410E+04  0.50400001928E-02 0.  1.
       -1    1    3    3    0  502 -0.64454897498E+03  0.13559167480E+04  0.10543086864E+04  0.18345354766E+04  0.50400001928E-02 0. -1.
</event>
<event>
 5   0  0.8329875E-09  0.4004917E+04  0.7818609E-02  0.8003555E-01
        1   -1    0    0  501    0  0.00000000000E+00  0.00000000000E+00  0.18730710876E+04  0.18730710876E+04  0.50400001928E-02 0.  1.
       -1   -1    0    0    0  501  0.00000000000E+00  0.00000000000E+00 -0.21407834806E+04  0.21407834806E+04  0.50400001928E-02 0. -1.
    10030    2    1    2    0    0  0.00000000000E+00  0.00000000000E+00 -0.26771239297E+03  0.40138545682E+04  0.40049167993E+04 0.  0.
        2    1    3    3  502    0 -0.58390954600E+03  0.28607719219E+02 -0.20533512374E+04  0.21349520050E+04  0.25500000920E-02 0. -1.
       -2    1    3    3    0  502  0.58390954600E+03 -0.28607719219E+02  0.17856388444E+04  0.18789025633E+04  0.25500000920E-02 0.  1.
</event>
<event>
 5   0  0.2587493E-08  0.3998652E+04  0.7818609E-02  0.8004819E-01
        2   -1    0    0  501    0  0.00000000000E+00  0.00000000000E+00  0.19392423337E+04  0.19392423337E+04  0.25500000920E-02 0. -1.
       -2   -1    0    0    0  501  0.00000000000E+00  0.00000000000E+00 -0.20612708388E+04  0.20612708388E+04  0.25500000920E-02 0.  1.
    10030    2    1    2    0    0  0.00000000000E+00  0.00000000000E+00 -0.12202850515E+03  0.40005131725E+04  0.39986516086E+04 0.  0.
        5    1    3    3  502    0  0.92245585750E+03 -0.14326945880E+04 -0.11073228145E+04  0.20321723591E+04  0.46999998093E+01 0.  1.
       -5    1    3    3    0  502 -0.92245585750E+03  0.14326945880E+04  0.98529430935E+03  0.19683408134E+04  0.46999998093E+01 0. -1.
</event>
<event>
 5   0  0.2599332E-08  0.4003004E+04  0.7818609E-02  0.8003941E-01
        2   -1    0    0  501    0  0.00000000000E+00  0.00000000000E+00  0.21669730236E+04  0.21669730236E+04  0.25500000920E-02 0. -1.
       -2   -1    0    0    0  501  0.00000000000E+00  0.00000000000E+00 -0.18486665388E+04  0.18486665388E+04  0.25500000920E-02 0.  1.
    10030    2    1    2    0    0  0.00000000000E+00  0.00000000000E+00  0.31830648486E+03  0.40156395624E+04  0.40030041315E+04 0.  0.
        2    1    3    3  502    0 -0.19013381543E+04  0.47927063271E+03  0.56194699681E+03  0.20397479117E+04  0.25500000920E-02 0.  1.
       -2    1    3    3    0  502  0.19013381543E+04 -0.47927063271E+03 -0.24364051195E+03  0.19758916507E+04  0.25500000920E-02 0. -1.
</event>
<event>
 5   0  0.8329875E-09  0.4015475E+04  0.7818609E-02  0.8001432E-01
        1   -1    0    0  501    0  0.00000000000E+00  0.00000000000E+00  0.27296355233E+04  0.27296355233E+04  0.50400001928E-02 0. -1.
       -1   -1    0    0    0  501  0.00000000000E+00  0.00000000000E+00 -0.14767575556E+04  0.14767575556E+04  0.50400001928E-02 0.  1.
    10030    2    1    2    0    0  0.00000000000E+00  0.00000000000E+00  0.12528779678E+04  0.42063930789E+04  0.40154750070E+04 0.  0.
        5    1    3    3  502    0  0.15040235228E+04  0.10281254793E+04  0.15102714035E+04  0.23664468218E+04  0.46999998093E+01 0. -1.
       -5    1    3    3    0  502 -0.15040235228E+04 -0.10281254793E+04 -0.25739343573E+03  0.18399462571E+04  0.46999998093E+01 0.  1.
</event>
<event>
 5   0  0.8329875E-09  0.3966097E+04  0.7818609E-02  0.8011421E-01
        1   -1    0    0  501    0  0.00000000000E+00  0.00000000000E+00  0.18687427967E+04  0.18687427967E+04  0.50400001928E-02 0.  1.
       -1   -1    0    0    0  501  0.00000000000E+00  0.00000000000E+00 -0.21043464502E+04  0.21043464502E+04  0.50400001928E-02 0. -1.
    10030    2    1    2    0    0  0.00000000000E+00  0.00000000000E+00 -0.23560365347E+03  0.39730892469E+04  0.39660974626E+04 0.  0.
        4    1    3    3  502    0  0.14427558104E+04 -0.29300203862E+03 -0.14487093808E+04  0.20654672609E+04  0.12699999809E+01 0. -1.
       -4    1    3    3    0  502 -0.14427558104E+04  0.29300203862E+03  0.12131057273E+04  0.19076219860E+04  0.12699999809E+01 0.  1.
</event>
<event>
 5   0  0.8329875E-09  0.4015036E+04  0.7818609E-02  0.8001520E-01
        1   -1    0    0  501    0  0.00000000000E+00  0.00000000000E+00  0.28989926333E+04  0.28989926334E+04  0.50400001928E-02 0.  1.
       -1   -1    0    0    0  501  0.00000000000E+00  0.00000000000E+00 -0.13901821510E+04  0.13901821510E+04  0.50400001928E-02 0. -1.
    10030    2    1    2    0    0  0.00000000000E+00  0.00000000000E+00  0.15088104823E+04  0.42891747844E+04  0.40150356486E+04 0.  0.
        3    1    3    3  502    0  0.79217765336E+03 -0.44647853034E+01  0.27249549286E+04  0.28377710869E+04  0.10100000352E+00 0.  1.
       -3    1    3    3    0  502 -0.79217765336E+03  0.44647853034E+01 -0.12161444462E+04  0.14514036975E+04  0.10100000352E+00 0. -1.
</event>
<event>
 5   0  0.8329875E-09  0.3995333E+04  0.7818609E-02  0.8005489E-01
       -1   -1    0    0    0  501  0.00000000000E+00  0.00000000000E+00  0.18817499464E+04  0.18817499464E+04  0.50400001928E-02 0. -1.
        1   -1    0    0  501    0  0.00000000000E+00  0.00000000000E+00 -0.21207234501E+04  0.21207234501E+04  0.50400001928E-02 0.  1.
    10030    2    1    2    0    0  0.00000000000E+00  0.00000000000E+00 -0.23897350365E+03  0.40024733965E+04  0.39953328965E+04 0.  0.
        5    1    3    3  502    0 -0.13146526647E+03  0.18297611000E+04 -0.91168469173E+03  0.20485360301E+04  0.46999998093E+01 0.  1.
       -5    1    3    3    0  502  0.13146526647E+03 -0.18297611000E+04  0.67271118808E+03  0.19539373664E+04  0.46999998093E+01 0. -1.
</event>
<event>
 5   0  0.2599332E-08  0.3998352E+04  0.7818609E-02  0.8004879E-01
        2   -1    0    0  501    0  0.00000000000E+00  0.00000000000E+00  0.23222827720E+04  0.23222827720E+04  0.25500000920E-02 0. -1.
       -2   -1    0    0    0  501  0.00000000000E+00  0.00000000000E+00 -0.17210242124E+04  0.17210242124E+04  0.25500000920E-02 0.  1.
    10030    2    1    2    0    0  0.00000000000E+00  0.00000000000E+00  0.60125855962E+03  0.40433069844E+04  0.39983520999E+04 0.  0.
        2    1    3    3  502    0 -0.40632584601E+02 -0.16841016489E+04 -0.78797571997E+03  0.18597728641E+04  0.25500000920E-02 0.  1.
       -2    1    3    3    0  502  0.40632584601E+02  0.16841016489E+04  0.13892342796E+04  0.21835341203E+04  0.25500000920E-02 0. -1.
</event>
<event>
 5   0  0.2599332E-08  0.3996036E+04  0.7818609E-02  0.8005347E-01
        2   -1    0    0  501    0  0.00000000000E+00  0.00000000000E+00  0.22712753888E+04  0.22712753888E+04  0.25500000920E-02 0. -1.
       -2   -1    0    0    0  501  0.00000000000E+00  0.00000000000E+00 -0.17576364979E+04  0.17576364979E+04  0.25500000920E-02 0.  1.
    10030    2    1    2    0    0  0.00000000000E+00  0.00000000000E+00  0.51363889095E+03  0.40289118867E+04  0.39960362962E+04 0.  0.
        2    1    3    3  502    0  0.24154439646E+03  0.17756631627E+04 -0.63405237067E+03  0.19008802623E+04  0.25500000920E-02 0.  1.
       -2    1    3    3    0  502 -0.24154439646E+03 -0.17756631627E+04  0.11476912616E+04  0.21280316245E+04  0.25500000920E-02 0. -1.
</event>
<event>
 5   0  0.8329875E-09  0.3992155E+04  0.7818609E-02  0.8006131E-01
        1   -1    0    0  501    0  0.00000000000E+00  0.00000000000E+00  0.20211804777E+04  0.20211804777E+04  0.50400001928E-02 0. -1.
       -1   -1    0    0    0  501  0.00000000000E+00  0.00000000000E+00 -0.19712862342E+04  0.19712862342E+04  0.50400001928E-02 0.  1.
    10030    2    1    2    0    0  0.00000000000E+00  0.00000000000E+00  0.49894243542E+02  0.39924667120E+04  0.39921549332E+04 0.  0.
        4    1    3    3  502    0  0.15288449444E+04 -0.30009663004E+03 -0.12229078293E+04  0.19806387917E+04  0.12699999809E+01 0.  1.
       -4    1    3    3    0  502 -0.15288449444E+04  0.30009663004E+03  0.12728020728E+04  0.20118279203E+04  0.12699999809E+01 0. -1.
</event>
<event>
 5   0  0.8329875E-09  0.4007993E+04  0.7818609E-02  0.8002936E-01
        1   -1    0    0  501    0  0.00000000000E+00  0.00000000000E+00  0.26585185645E+04  0.26585185645E+04  0.50400001928E-02 0.  1.
       -1   -1    0    0    0  501  0.00000000000E+00  0.00000000000E+00 -0.15106167924E+04  0.15106167924E+04  0.50400001928E-02 0. -1.
    10030    2    1    2    0    0  0.00000000000E+00  0.00000000000E+00  0.11479017721E+04  0.41691353570E+04  0.40079934065E+04 0.  0.
        3    1    3    3  502    0  0.16573320063E+04 -0.57842091098E+03 -0.43170890637E+03  0.18076760549E+04  0.10100000352E+00 0. -1.
       -3    1    3    3    0  502 -0.16573320063E+04  0.57842091098E+03  0.15796106784E+04  0.23614593020E+04  0.10100000352E+00 0.  1.
</event>
<event>
 5   0  0.8329875E-09  0.4022357E+04  0.7818609E-02  0.8000052E-01
       -1   -1    0    0    0  501  0.00000000000E+00  0.00000000000E+00  0.18883544196E+04  0.18883544196E+04  0.50400001928E-02 0. -1.
        1   -1    0    0  501    0  0.00000000000E+00  0.00000000000E+00 -0.21419915900E+04  0.21419915901E+04  0.50400001928E-02 0.  1.
    10030    2    1    2    0    0  0.00000000000E+00  0.00000000000E+00 -0.25363717047E+03  0.40303460096E+04  0.40223571626E+04 0.  0.
        1    1    3    3  502    0 -0.86014523300E+03  0.17522909649E+04  0.35835984953E+03  0.19846398235E+04  0.50400001928E-02 0. -1.
       -1    1    3    3    0  502  0.86014523300E+03 -0.17522909649E+04 -0.61199702000E+03  0.20457061861E+04  0.50400001928E-02 0.  1.
</event>
<event>
 5   0  0.8329875E-09  0.3999184E+04  0.7818609E-02  0.8004711E-01
       -1   -1    0    0    0  501  0.00000000000E+00  0.00000000000E+00  0.12655995218E+04  0.12655995218E+04  0.50400001928E-02 0.  1.
        1   -1    0    0  501    0  0.00000000000E+00  0.00000000000E+00 -0.31592681291E+04  0.31592681291E+04  0.50400001928E-02 0. -1.
    10030    2    1    2    0    0  0.00000000000E+00  0.00000000000E+00 -0.18936686073E+04  0.44248676508E+04  0.39991840334E+04 0.  0.
        5    1    3    3  502    0  0.12411008024E+04  0.69623602664E+03  0.60742039584E+03  0.15472741948E+04  0.46999998093E+01 0.  1.
       -5    1    3    3    0  502 -0.12411008024E+04 -0.69623602664E+03 -0.25010890031E+04  0.28775934560E+04  0.46999998093E+01 0. -1.
</event>
<event>
 5   0  0.2612363E-08  0.4002042E+04  0.7818609E-02  0.8004135E-01
        2   -1    0    0  501    0  0.00000000000E+00  0.00000000000E+00  0.10288864538E+04  0.10288864538E+04  0.25500000920E-02 0. -1.
       -2   -1    0    0    0  501  0.00000000000E+00  0.00000000000E+00 -0.38916677607E+04  0.38916677607E+04  0.25500000920E-02 0.  1.
    10030    2    1    2    0    0  0.00000000000E+00  0.00000000000E+00 -0.28627813070E+04  0.49205542145E+04  0.40020415998E+04 0.  0.
        4    1    3    3  502    0  0.17659194482E+04 -0.57932563452E+03 -0.51956673530E+03  0.19297774207E+04  0.12699999809E+01 0. -1.
       -4    1    3    3    0  502 -0.17659194482E+04  0.57932563452E+03 -0.23432145717E+04  0.29907767938E+04  0.12699999809E+01 0.  1.
</event>
<event>
 5   0  0.2650452E-08  0.4001592E+04  0.7818609E-02  0.8004225E-01
       -2   -1    0    0    0  501  0.00000000000E+00  0.00000000000E+00  0.16006221605E+04  0.16006221605E+04  0.25500000920E-02 0. -1.
        2   -1    0    0  501    0  0.00000000000E+00  0.00000000000E+00 -0.25010179197E+04  0.25010179197E+04  0.25500000920E-02 0.  1.
    10030    2    1    2    0    0  0.00000000000E+00  0.00000000000E+00 -0.90039575921E+03  0.41016400802E+04  0.40015920362E+04 0.  0.
        3    1    3    3  502    0 -0.11551617561E+04  0.13198409822E+04  0.53657932514E+03  0.18342018110E+04  0.10100000352E+00 0. -1.
       -3    1    3    3    0  502  0.11551617561E+04 -0.13198409822E+04 -0.14369750843E+04  0.22674382691E+04  0.10100000352E+00 0.  1.
</event>
<event>
 5   0  0.2746876E-08  0.3990174E+04  0.7818609E-02  0.8006532E-01
       -2   -1    0    0    0  501  0.00000000000E+00  0.00000000000E+00  0.19443876570E+04  0.19443876570E+04  0.25500000920E-02 0.  1.
        2   -1    0    0  501    0  0.00000000000E+00  0.00000000000E+00 -0.20471082403E+04  0.20471082403E+04  0.25500000920E-02 0. -1.
    10030    2    1    2    0    0  0.00000000000E+00  0.00000000000E+00 -0.10272058327E+03  0.39914958973E+04  0.39901739285E+04 0.  0.
        1    1    3    3  502    0  0.13815520836E+03 -0.19902133276E+04 -0.33022719245E+02  0.19952760338E+04  0.50400001928E-02 0.  1.
       -1    1    3    3    0  502 -0.13815520836E+03  0.19902133276E+04 -0.69697864028E+02  0.19962198635E+04  0.50400001928E-02 0. -1.
</event>
<event>
 5   0  0.2650452E-08  0.3997400E+04  0.7818609E-02  0.8005071E-01
       -2   -1    0    0    0  501  0.00000000000E+00  0.00000000000E+00  0.22632347663E+04  0.22632347663E+04  0.25500000920E-02 0. -1.
        2   -1    0    0  501    0  0.00000000000E+00  0.00000000000E+00 -0.17650851024E+04  0.17650851025E+04  0.25500000920E-02 0.  1.
    10030    2    1    2    0    0  0.00000000000E+00  0.00000000000E+00  0.49814966386E+03  0.40283198688E+04  0.39974001398E+04 0.  0.
        3    1    3    3  502    0  0.87937954212E+03 -0.56852460921E+03  0.19646746706E+04  0.22263142595E+04  0.10100000352E+00 0. -1.
       -3    1    3    3    0  502 -0.87937954212E+03  0.56852460921E+03 -0.14665250067E+04  0.18020056093E+04  0.10100000352E+00 0.  1.
</event>
<event>
 5   0  0.2587493E-08  0.3999950E+04  0.7818609E-02  0.8004557E-01
       -2   -1    0    0    0  501  0.00000000000E+00  0.00000000000E+00  0.19772944013E+04  0.19772944013E+04  0.25500000920E-02 0. -1.
        2   -1    0    0  501    0  0.00000000000E+00  0.00000000000E+00 -0.20229160480E+04  0.20229160480E+04  0.25500000920E-02 0.  1.
    10030    2    1    2    0    0  0.00000000000E+00  0.00000000000E+00 -0.45621646707E+02  0.40002104494E+04  0.39999502878E+04 0.  0.
        5    1    3    3  502    0  0.61058624234E+03 -0.15785886492E+04 -0.10883006016E+04  0.20122569349E+04  0.46999998093E+01 0.  1.
       -5    1    3    3    0  502 -0.61058624234E+03  0.15785886492E+04  0.10426789549E+04  0.19879535145E+04  0.46999998093E+01 0. -1.
</event>
<event>
 5   0  0.2587493E-08  0.3995391E+04  0.7818609E-02  0.8005477E-01
        2   -1    0    0  501    0  0.00000000000E+00  0.00000000000E+00  0.16269173185E+04  0.16269173185E+04  0.25500000920E-02 0.  1.
       -2   -1    0    0    0  501  0.00000000000E+00  0.00000000000E+00 -0.24529752499E+04  0.24529752499E+04  0.25500000920E-02 0. -1.
    10030    2    1    2    0    0  0.00000000000E+00  0.00000000000E+00 -0.82605793144E+03  0.40798925684E+04  0.39953913030E+04 0.  0.
        5    1    3    3  502    0 -0.77356873308E+03  0.41913539821E+03 -0.22444724570E+04  0.24107595830E+04  0.46999998093E+01 0. -1.
       -5    1    3    3    0  502  0.77356873308E+03 -0.41913539821E+03  0.14184145255E+04  0.16691329854E+04  0.46999998093E+01 0.  1.
</event>
<event>
 5   0  0.8329875E-09  0.4007059E+04  0.7818609E-02  0.8003124E-01
       -1   -1    0    0    0  501  0.00000000000E+00  0.00000000000E+00  0.15318687530E+04  0.15318687530E+04  0.50400001928E-02 0. -1.
        1   -1    0    0  501    0  0.00000000000E+00  0.00000000000E+00 -0.26204147090E+04  0.26204147090E+04  0.50400001928E-02 0.  1.
    10030    2    1    2    0    0  0.00000000000E+00  0.00000000000E+00 -0.10885459560E+04  0.41522834619E+04  0.40070594767E+04 0.  0.
        3    1    3    3  502    0  0.74526481980E+03 -0.29823307561E+03  0.13579492679E+04  0.15774627867E+04  0.10100000352E+00 0. -1.
       -3    1    3    3    0  502 -0.74526481980E+03  0.29823307561E+03 -0.24464952239E+04  0.25748206752E+04  0.10100000352E+00 0.  1.
</event>
<event>
 5   0  0.2612363E-08  0.3995534E+04  0.7818609E-02  0.8005448E-01
       -2   -1    0    0    0  501  0.00000000000E+00  0.00000000000E+00  0.19021737769E+04  0.19021737769E+04  0.25500000920E-02 0. -1.
        2   -1    0    0  501    0  0.00000000000E+00  0.00000000000E+00 -0.20981646470E+04  0.20981646470E+04  0.25500000920E-02 0.  1.
    10030    2    1    2    0    0  0.00000000000E+00  0.00000000000E+00 -0.19599087016E+03  0.40003384239E+04  0.39955343929E+04 0.  0.
        4    1    3    3  502    0  0.11875007107E+04 -0.18092354921E+03  0.15002261342E+04  0.19218666278E+04  0.12699999809E+01 0. -1.
       -4    1    3    3    0  502 -0.11875007107E+04  0.18092354921E+03 -0.16962170043E+04  0.20784717961E+04  0.12699999809E+01 0.  1.
</event>
<event>
 5   0  0.8329875E-09  0.4012212E+04  0.7818609E-02  0.8002088E-01
        1   -1    0    0  501    0  0.00000000000E+00  0.00000000000E+00  0.15316907614E+04  0.15316907614E+04  0.50400001928E-02 0. -1.
       -1   -1    0    0    0  501  0.00000000000E+00  0.00000000000E+00 -0.26274628009E+04  0.26274628009E+04  0.50400001928E-02 0.  1.
    10030    2    1    2    0    0  0.00000000000E+00  0.00000000000E+00 -0.10957720394E+04  0.41591535623E+04  0.40122116086E+04 0.  0.
        3    1    3    3  502    0 -0.17305395656E+04 -0.96541885263E+03 -0.22393533338E+03  0.19942286210E+04  0.10100000352E+00 0. -1.
       -3    1    3    3    0  502  0.17305395656E+04  0.96541885263E+03 -0.87183670606E+03  0.21649249413E+04  0.10100000352E+00 0.  1.
</event>
<event>
 5   0  0.8329875E-09  0.4000173E+04  0.7818609E-02  0.8004512E-01
       -1   -1    0    0    0  501  0.00000000000E+00  0.00000000000E+00  0.13344091777E+04  0.13344091777E+04  0.50400001928E-02 0.  1.
        1   -1    0    0  501    0  0.00000000000E+00  0.00000000000E+00 -0.29978400306E+04  0.29978400306E+04  0.50400001928E-02 0. -1.
    10030    2    1    2    0    0  0.00000000000E+00  0.00000000000E+00 -0.16634308528E+04  0.43322492083E+04  0.40001726214E+04 0.  0.
        2    1    3    3  502    0 -0.78906579329E+03 -0.12152713272E+04 -0.23248777573E+04  0.27394462599E+04  0.25500000920E-02 0. -1.
       -2    1    3    3    0  502  0.78906579329E+03  0.12152713272E+04  0.66144690443E+03  0.15928029484E+04  0.25500000920E-02 0.  1.
</event>
<event>
 5   0  0.8329875E-09  0.3988107E+04  0.7818609E-02  0.8006950E-01
       -1   -1    0    0    0  501  0.00000000000E+00  0.00000000000E+00  0.17932593920E+04  0.17932593920E+04  0.50400001928E-02 0.  1.
        1   -1    0    0  501    0  0.00000000000E+00  0.00000000000E+00 -0.22173303907E+04  0.22173303907E+04  0.50400001928E-02 0. -1.
    10030    2    1    2    0    0  0.00000000000E+00  0.00000000000E+00 -0.42407099871E+03  0.40105897826E+04  0.39881065924E+04 0.  0.
        4    1    3    3  502    0 -0.30231130460E+02  0.13835166960E+04 -0.16558223663E+04  0.21579577593E+04  0.12699999809E+01 0. -1.
       -4    1    3    3    0  502  0.30231130460E+02 -0.13835166960E+04  0.12317513676E+04  0.18526320233E+04  0.12699999809E+01 0.  1.
</event>
<event>
 5   0  0.2612363E-08  0.4009114E+04  0.7818609E-02  0.8002710E-01
        2   -1    0    0  501    0  0.00000000000E+00  0.00000000000E+00  0.17950825449E+04  0.17950825449E+04  0.25500000920E-02 0.  1.
       -2   -1    0    0    0  501  0.00000000000E+00  0.00000000000E+00 -0.22384760360E+04  0.22384760360E+04  0.25500000920E-02 0. -1.
    10030    2    1    2    0    0  0.00000000000E+00  0.00000000000E+00 -0.44339349111E+03  0.40335585809E+04  0.40091142460E+04 0.  0.
        4    1    3    3  502    0  0.10754239051E+04 -0.10419189676E+04 -0.15625325297E+04  0.21641721812E+04  0.12699999809E+01 0. -1.
       -4    1    3    3    0  502 -0.10754239051E+04  0.10419189676E+04  0.11191390386E+04  0.18693863997E+04  0.12699999809E+01 0.  1.
</event>
<event>
 5   0  0.8329875E-09  0.3999341E+04  0.7818609E-02  0.8004680E-01
        3   -1    0    0  501    0  0.00000000000E+00  0.00000000000E+00  0.14670992661E+04  0.14670992696E+04  0.10100000352E+00 0. -1.
       -3   -1    0    0    0  501  0.00000000000E+00  0.00000000000E+00 -0.27255700036E+04  0.27255700055E+04  0.10100000352E+00 0.  1.
    10030    2    1    2    0    0  0.00000000000E+00  0.00000000000E+00 -0.12584707375E+04  0.41926692750E+04  0.39993408273E+04 0.  0.
        5    1    3    3  502    0 -0.58364894693E+03 -0.17453368664E+04  0.19076013212E+03  0.18502049585E+04  0.46999998093E+01 0.  1.
       -5    1    3    3    0  502  0.58364894693E+03  0.17453368664E+04 -0.14492308696E+04  0.23424643165E+04  0.46999998093E+01 0. -1.
</event>
<event>
 5   0  0.8329875E-09  0.3994222E+04  0.7818609E-02  0.8005713E-01
       -1   -1    0    0    0  501  0.00000000000E+00  0.00000000000E+00  0.14322082265E+04  0.14322082265E+04  0.50400001928E-02 0. -1.
        1   -1    0    0  501    0  0.00000000000E+00  0.00000000000E+00 -0.27848266737E+04  0.27848266737E+04  0.50400001928E-02 0.  1.
    10030    2    1    2    0    0  0.00000000000E+00  0.00000000000E+00 -0.13526184472E+04  0.42170349002E+04  0.39942216621E+04 0.  0.
        5    1    3    3  502    0 -0.15405374555E+04  0.88016867224E+03 -0.16442258701E+04  0.24189777480E+04  0.46999998093E+01 0. -1.
       -5    1    3    3    0  502  0.15405374555E+04 -0.88016867224E+03  0.29160742294E+03  0.17980571522E+04  0.46999998093E+01 0.  1.
</event>
<event>
 5   0  0.8329875E-09  0.3995880E+04  0.7818609E-02  0.8005378E-01
        1   -1    0    0  501    0  0.00000000000E+00  0.00000000000E+00  0.17098464286E+04  0.17098464286E+04  0.50400001928E-02 0. -1.
       -1   -1    0    0    0  501  0.00000000000E+00  0.00000000000E+00 -0.23345745714E+04  0.23345745714E+04  0.50400001928E-02 0.  1.
    10030    2    1    2    0    0  0.00000000000E+00  0.00000000000E+00 -0.62472814285E+03  0.40444210000E+04  0.39958798747E+04 0.  0.
        5    1    3    3  502    0  0.12398351826E+03  0.87880887295E+02  0.17039824264E+04  0.17107522213E+04  0.46999998093E+01 0. -1.
       -5    1    3    3    0  502 -0.12398351826E+03 -0.87880887295E+02 -0.23287105693E+04  0.23336687787E+04  0.46999998093E+01 0.  1.
</event>
<event>
 5   0  0.2587493E-08  0.3997624E+04  0.7818609E-02  0.8005026E-01
        2   -1    0    0  501    0  0.00000000000E+00  0.00000000000E+00  0.15063946627E+04  0.15063946627E+04  0.25500000920E-02 0.  1.
       -2   -1    0    0    0  501  0.00000000000E+00  0.00000000000E+00 -0.26521934896E+04  0.26521934896E+04  0.25500000920E-02 0. -1.
    10030    2    1    2    0    0  0.00000000000E+00  0.00000000000E+00 -0.11457988269E+04  0.41585881523E+04  0.39976243531E+04 0.  0.
        5    1    3    3  502    0  0.37142541239E+03  0.12660813306E+04  0.98899142255E+03  0.16489526665E+04  0.46999998093E+01 0.  1.
       -5    1    3    3    0  502 -0.37142541239E+03 -0.12660813306E+04 -0.21347902494E+04  0.25096354858E+04  0.46999998093E+01 0. -1.
</event>
<event>
 5   0  0.2746876E-08  0.3979793E+04  0.7818609E-02  0.8008635E-01
        2   -1    0    0  501    0  0.00000000000E+00  0.00000000000E+00  0.25022238795E+04  0.25022238795E+04  0.25500000920E-02 0. -1.
       -2   -1    0    0    0  501  0.00000000000E+00  0.00000000000E+00 -0.15824679392E+04  0.15824679392E+04  0.25500000920E-02 0.  1.
    10030    2    1    2    0    0  0.00000000000E+00  0.00000000000E+00  0.91975594039E+03  0.40846918187E+04  0.39797934951E+04 0.  0.
        1    1    3    3  502    0  0.10426611063E+03 -0.65487073720E+03  0.23854853551E+04  0.24759376978E+04  0.50400001928E-02 0. -1.
       -1    1    3    3    0  502 -0.10426611063E+03  0.65487073720E+03 -0.14657294147E+04  0.16087541209E+04  0.50400001928E-02 0.  1.
</event>
<event>
 5   0  0.8329875E-09  0.4010308E+04  0.7818609E-02  0.8002470E-01
        1   -1    0    0  501    0  0.00000000000E+00  0.00000000000E+00  0.12040579397E+04  0.12040579397E+04  0.50400001928E-02 0. -1.
       -1   -1    0    0    0  501  0.00000000000E+00  0.00000000000E+00 -0.33392436261E+04  0.33392436261E+04  0.50400001928E-02 0.  1.
    10030    2    1    2    0    0  0.00000000000E+00  0.00000000000E+00 -0.21351856865E+04  0.45433015658E+04  0.40103081181E+04 0.  0.
        2    1    3    3  502    0  0.65871778412E+03  0.18041632352E+04 -0.17201001028E+04  0.25783053469E+04  0.25500000920E-02 0. -1.
       -2    1    3    3    0  502 -0.65871778412E+03 -0.18041632352E+04 -0.41508558364E+03  0.19649962189E+04  0.25500000920E-02 0.  1.
</event>
<event>
 5   0  0.2587493E-08  0.3986935E+04  0.7818609E-02  0.8007187E-01
       -2   -1    0    0    0  501  0.00000000000E+00  0.00000000000E+00  0.27320843739E+04  0.27320843739E+04  0.25500000920E-02 0.  1.
        2   -1    0    0  501    0  0.00000000000E+00  0.00000000000E+00 -0.14545351340E+04  0.14545351340E+04  0.25500000920E-02 0. -1.
    10030    2    1    2    0    0  0.00000000000E+00  0.00000000000E+00  0.12775492399E+04  0.41866195079E+04  0.39869350187E+04 0.  0.
        5    1    3    3  502    0  0.40380706193E+03 -0.66370495629E+03  0.25665671992E+04  0.26815767173E+04  0.46999998093E+01 0.  1.
       -5    1    3    3    0  502 -0.40380706193E+03  0.66370495629E+03 -0.12890179593E+04  0.15050427906E+04  0.46999998093E+01 0. -1.
</event>
<event>
 5   0  0.2746876E-08  0.4003557E+04  0.7818609E-02  0.8003829E-01
        2   -1    0    0  501    0  0.00000000000E+00  0.00000000000E+00  0.21597417834E+04  0.21597417834E+04  0.25500000920E-02 0.  1.
       -2   -1    0    0    0  501  0.00000000000E+00  0.00000000000E+00 -0.18553688178E+04  0.18553688178E+04  0.25500000920E-02 0. -1.
    10030    2    1    2    0    0  0.00000000000E+00  0.00000000000E+00  0.30437296558E+03  0.40151106012E+04  0.40035571980E+04 0.  0.
        1    1    3    3  502    0  0.60306589300E+03 -0.11297957822E+04 -0.13907560111E+04  0.18905896602E+04  0.50400001928E-02 0. -1.
       -1    1    3    3    0  502 -0.60306589300E+03  0.11297957822E+04  0.16951289767E+04  0.21245209409E+04  0.50400001928E-02 0.  1.
</event>
<event>
 5   0  0.2746876E-08  0.4077190E+04  0.7818609E-02  0.7989153E-01
       -2   -1    0    0    0  501  0.00000000000E+00  0.00000000000E+00  0.18300759710E+04  0.18300759710E+04  0.25500000920E-02 0.  1.
        2   -1    0    0  501    0  0.00000000000E+00  0.00000000000E+00 -0.22708726239E+04  0.22708726239E+04  0.25500000920E-02 0. -1.
    10030    2    1    2    0    0  0.00000000000E+00  0.00000000000E+00 -0.44079665290E+03  0.41009485948E+04  0.40771899254E+04 0.  0.
        1    1    3    3  502    0 -0.97811882366E+03  0.24072287907E+03 -0.20030707918E+04  0.22420875395E+04  0.50400001928E-02 0. -1.
       -1    1    3    3    0  502  0.97811882366E+03 -0.24072287907E+03  0.15622741389E+04  0.18588610553E+04  0.50400001928E-02 0.  1.
</event>
<event>
 5   0  0.2650452E-08  0.3999056E+04  0.7818609E-02  0.8004737E-01
       -2   -1    0    0    0  501  0.00000000000E+00  0.00000000000E+00  0.13053244799E+04  0.13053244799E+04  0.25500000920E-02 0. -1.
        2   -1    0    0  501    0  0.00000000000E+00  0.00000000000E+00 -0.30629264136E+04  0.30629264136E+04  0.25500000920E-02 0.  1.
    10030    2    1    2    0    0  0.00000000000E+00  0.00000000000E+00 -0.17576019337E+04  0.43682508935E+04  0.39990563025E+04 0.  0.
        3    1    3    3  502    0 -0.62744024517E+03 -0.11447052632E+04  0.77565216687E+03  0.15184425228E+04  0.10100000352E+00 0. -1.
       -3    1    3    3    0  502  0.62744024517E+03  0.11447052632E+04 -0.25332541006E+04  0.28498083706E+04  0.10100000352E+00 0.  1.
</event>
<event>
 5   0  0.8329875E-09  0.3998732E+04  0.7818609E-02  0.8004802E-01
       -1   -1    0    0    0  501  0.00000000000E+00  0.00000000000E+00  0.27738019673E+04  0.27738019673E+04  0.50400001928E-02 0. -1.
        1   -1    0    0  501    0  0.00000000000E+00  0.00000000000E+00 -0.14411497517E+04  0.14411497517E+04  0.50400001928E-02 0.  1.
    10030    2    1    2    0    0  0.00000000000E+00  0.00000000000E+00  0.13326522156E+04  0.42149517190E+04  0.39987318072E+04 0.  0.
        4    1    3    3  502    0  0.28870622580E+03 -0.10344081723E+04 -0.11113129617E+04  0.15454351049E+04  0.12699999809E+01 0.  1.
       -4    1    3    3    0  502 -0.28870622580E+03  0.10344081723E+04  0.24439651773E+04  0.26695166141E+04  0.12699999809E+01 0. -1.
</event>
<event>
 5   0  0.8329875E-09  0.3957830E+04  0.7818609E-02  0.8013108E-01
        1   -1    0    0  501    0  0.00000000000E+00  0.00000000000E+00  0.20013403621E+04  0.20013403621E+04  0.50400001928E-02 0.  1.
       -1   -1    0    0    0  501  0.00000000000E+00  0.00000000000E+00 -0.19567404366E+04  0.19567404366E+04  0.50400001928E-02 0. -1.
    10030    2    1    2    0    0  0.00000000000E+00  0.00000000000E+00  0.44599925548E+02  0.39580807987E+04  0.39578295132E+04 0.  0.
        4    1    3    3  502    0  0.18584731715E+04  0.47791495235E+03 -0.46123540979E+03  0.19735918896E+04  0.12699999809E+01 0. -1.
       -4    1    3    3    0  502 -0.18584731715E+04 -0.47791495235E+03  0.50583533533E+03  0.19844889090E+04  0.12699999809E+01 0.  1.
</event>
<event>
 5   0  0.8329875E-09  0.3996631E+04  0.7818609E-02  0.8005226E-01
       -1   -1    0    0    0  501  0.00000000000E+00  0.00000000000E+00  0.18816444483E+04  0.18816444483E+04  0.50400001928E-02 0.  1.
        1   -1    0    0  501    0  0.00000000000E+00  0.00000000000E+00 -0.21222211166E+04  0.21222211166E+04  0.50400001928E-02 0. -1.
    10030    2    1    2    0    0  0.00000000000E+00  0.00000000000E+00 -0.24057666826E+03  0.40038655649E+04  0.39966313726E+04 0.  0.
        1    1    3    3  502    0 -0.14237869286E+04 -0.51577830535E+03  0.11859387404E+04  0.19234466913E+04  0.50400001928E-02 0.  1.
       -1    1    3    3    0  502  0.14237869286E+04  0.51577830535E+03 -0.14265154086E+04  0.20804188736E+04  0.50400001928E-02 0. -1.
</event>
<event>
 5   0  0.2587493E-08  0.4033867E+04  0.7818609E-02  0.7997749E-01
       -2   -1    0    0    0  501  0.00000000000E+00  0.00000000000E+00  0.13072696797E+04  0.13072696797E+04  0.25500000920E-02 0.  1.
        2   -1    0    0  501    0  0.00000000000E+00  0.00000000000E+00 -0.31118456357E+04  0.31118456357E+04  0.25500000920E-02 0. -1.
    10030    2    1    2    0    0  0.00000000000E+00  0.00000000000E+00 -0.18045759561E+04  0.44191153154E+04  0.40338673490E+04 0.  0.
        5    1    3    3  502    0  0.11745901529E+04 -0.14963967708E+04 -0.16364665502E+04  0.25093644978E+04  0.46999998093E+01 0. -1.
       -5    1    3    3    0  502 -0.11745901529E+04  0.14963967708E+04 -0.16810940583E+03  0.19097508176E+04  0.46999998093E+01 0.  1.
</event>
<event>
 5   0  0.8329875E-09  0.3966994E+04  0.7818609E-02  0.8011238E-01
       -1   -1    0    0    0  501  0.00000000000E+00  0.00000000000E+00  0.16128581990E+04  0.16128581990E+04  0.50400001928E-02 0.  1.
        1   -1    0    0  501    0  0.00000000000E+00  0.00000000000E+00 -0.24393092229E+04  0.24393092229E+04  0.50400001928E-02 0. -1.
    10030    2    1    2    0    0  0.00000000000E+00  0.00000000000E+00 -0.82645102392E+03  0.40521674219E+04  0.39669937636E+04 0.  0.
        3    1    3    3  502    0  0.16619039772E+04  0.10820924050E+04 -0.45159621539E+03  0.20339095246E+04  0.10100000352E+00 0. -1.
       -3    1    3    3    0  502 -0.16619039772E+04 -0.10820924050E+04 -0.37485480853E+03  0.20182578973E+04  0.10100000352E+00 0.  1.
</event>
<event>
 5   0  0.2587493E-08  0.4001644E+04  0.7818609E-02  0.8004215E-01
       -2   -1    0    0    0  501  0.00000000000E+00  0.00000000000E+00  0.20067979951E+04  0.20067979951E+04  0.25500000920E-02 0. -1.
        2   -1    0    0  501    0  0.00000000000E+00  0.00000000000E+00 -0.19948634432E+04  0.19948634432E+04  0.25500000920E-02 0.  1.
    10030    2    1    2    0    0  0.00000000000E+00  0.00000000000E+00  0.11934551851E+02  0.40016614383E+04  0.40016436414E+04 0.  0.
        5    1    3    3  502    0 -0.18731359071E+04 -0.40840930683E+03 -0.56659931056E+03  0.19991230970E+04  0.46999998093E+01 0.  1.
       -5    1    3    3    0  502  0.18731359071E+04  0.40840930683E+03  0.57853386242E+03  0.20025383413E+04  0.46999998093E+01 0. -1.
</event>
<event>
 5   0  0.2746876E-08  0.4001232E+04  0.7818609E-02  0.8004298E-01
        2   -1    0    0  501    0  0.00000000000E+00  0.00000000000E+00  0.25037226466E+04  0.25037226466E+04  0.25500000920E-02 0.  1.
       -2   -1    0    0    0  501  0.00000000000E+00  0.00000000000E+00 -0.15986054516E+04  0.15986054516E+04  0.25500000920E-02 0. -1.
    10030    2    1    2    0    0  0.00000000000E+00  0.00000000000E+00  0.90511719498E+03  0.41023280983E+04  0.40012321464E+04 0.  0.
        1    1    3    3  502    0 -0.55946880361E+03  0.77920914340E+03 -0.13474457869E+04  0.16540200664E+04  0.50400001928E-02 0. -1.
       -1    1    3    3    0  502  0.55946880361E+03 -0.77920914340E+03  0.22525629819E+04  0.24483080319E+04  0.50400001928E-02 0.  1.
</event>
<event>
 5   0  0.2612363E-08  0.4003169E+04  0.7818609E-02  0.8003908E-01
       -2   -1    0    0    0  501  0.00000000000E+00  0.00000000000E+00  0.19099507997E+04  0.19099507997E+04  0.25500000920E-02 0.  1.
        2   -1    0    0  501    0  0.00000000000E+00  0.00000000000E+00 -0.20976140866E+04  0.20976140866E+04  0.25500000920E-02 0. -1.
    10030    2    1    2    0    0  0.00000000000E+00  0.00000000000E+00 -0.18766328683E+03  0.40075648863E+04  0.40031685961E+04 0.  0.
        4    1    3    3  502    0  0.19110935158E+04  0.57347455978E+03 -0.25270877410E+03  0.20112222240E+04  0.12699999809E+01 0. -1.
       -4    1    3    3    0  502 -0.19110935158E+04 -0.57347455978E+03  0.65045487271E+02  0.19963426623E+04  0.12699999809E+01 0.  1.
</event>
<event>
 5   0  0.2587493E-08  0.4001200E+04  0.7818609E-02  0.8004305E-01
       -2   -1    0    0    0  501  0.00000000000E+00  0.00000000000E+00  0.13615723881E+04  0.13615723881E+04  0.25500000920E-02 0. -1.
        2   -1    0    0  501    0  0.00000000000E+00  0.00000000000E+00 -0.29395425026E+04  0.29395425026E+04  0.25500000920E-02 0.  1.
    10030    2    1    2    0    0  0.00000000000E+00  0.00000000000E+00 -0.15779701145E+04  0.43011148907E+04  0.40011997727E+04 0.  0.
        5    1    3    3  502    0  0.52501265502E+03  0.62081874157E+03 -0.27539286074E+04  0.28714454657E+04  0.46999998093E+01 0.  1.
       -5    1    3    3    0  502 -0.52501265502E+03 -0.62081874157E+03  0.11759584929E+04  0.14296694250E+04  0.46999998093E+01 0. -1.
</event>
<event>
 5   0  0.8329875E-09  0.3993062E+04  0.7818609E-02  0.8005948E-01
       -1   -1    0    0    0  501  0.00000000000E+00  0.00000000000E+00  0.23126060596E+04  0.23126060596E+04  0.50400001928E-02 0. -1.
        1   -1    0    0  501    0  0.00000000000E+00  0.00000000000E+00 -0.17236551192E+04  0.17236551192E+04  0.50400001928E-02 0.  1.
    10030    2    1    2    0    0  0.00000000000E+00  0.00000000000E+00  0.58895094045E+03  0.40362611788E+04  0.39930616190E+04 0.  0.
        4    1    3    3  502    0 -0.33021597177E+03 -0.12104273330E+04 -0.12753739836E+04  0.17890660489E+04  0.12699999809E+01 0.  1.
       -4    1    3    3    0  502  0.33021597177E+03  0.12104273330E+04  0.18643249240E+04  0.22471951299E+04  0.12699999809E+01 0. -1.
</event>
<event>
 5   0  0.2746876E-08  0.3993500E+04  0.7818609E-02  0.8005859E-01
       -2   -1    0    0    0  501  0.00000000000E+00  0.00000000000E+00  0.25709351542E+04  0.25709351542E+04  0.25500000920E-02 0.  1.
        2   -1    0    0  501    0  0.00000000000E+00  0.00000000000E+00 -0.15508013862E+04  0.15508013862E+04  0.25500000920E-02 0. -1.
    10030    2    1    2    0    0  0.00000000000E+00  0.00000000000E+00  0.10201337681E+04  0.41217365404E+04  0.39934996186E+04 0.  0.
        1    1    3    3  502    0  0.13928742391E+04  0.80537846571E+03  0.17305257278E+04  0.23629330108E+04  0.50400001928E-02 0.  1.
       -1    1    3    3    0  502 -0.13928742391E+04 -0.80537846571E+03 -0.71039195973E+03  0.17588035295E+04  0.50400001928E-02 0. -1.
</event>
<event>
 5   0  0.8329875E-09  0.3995389E+04  0.7818609E-02  0.8005477E-01
       -1   -1    0    0    0  501  0.00000000000E+00  0.00000000000E+00  0.27047892649E+04  0.27047892649E+04  0.50400001928E-02 0. -1.
        1   -1    0    0  501    0  0.00000000000E+00  0.00000000000E+00 -0.14754508717E+04  0.14754508717E+04  0.50400001928E-02 0.  1.
    10030    2    1    2    0    0  0.00000000000E+00  0.00000000000E+00  0.12293383932E+04  0.41802401366E+04  0.39953891819E+04 0.  0.
        1    1    3    3  502    0  0.30478833603E+03 -0.19463000594E+04  0.26797155968E+03  0.19881621180E+04  0.50400001928E-02 0. -1.
       -1    1    3    3    0  502 -0.30478833603E+03  0.19463000594E+04  0.96136683349E+03  0.21920780185E+04  0.50400001928E-02 0.  1.
</event>
<event>
 5   0  0.8329875E-09  0.4009566E+04  0.7818609E-02  0.8002619E-01
        1   -1    0    0  501    0  0.00000000000E+00  0.00000000000E+00  0.22120751006E+04  0.22120751006E+04  0.50400001928E-02 0. -1.
       -1   -1    0    0    0  501  0.00000000000E+00  0.00000000000E+00 -0.18169164482E+04  0.18169164482E+04  0.50400001928E-02 0.  1.
    10030    2    1    2    0    0  0.00000000000E+00  0.00000000000E+00  0.39515865241E+03  0.40289915489E+04  0.40095663781E+04 0.  0.
        2    1    3    3  502    0  0.17214864818E+04 -0.20395613024E+03  0.12094543654E+04  0.21137392630E+04  0.25500000920E-02 0. -1.
       -2    1    3    3    0  502 -0.17214864818E+04  0.20395613024E+03 -0.81429571298E+03  0.19152522858E+04  0.25500000920E-02 0.  1.
</event>
<event>
 5   0  0.8329875E-09  0.3996629E+04  0.7818609E-02  0.8005227E-01
        1   -1    0    0  501    0  0.00000000000E+00  0.00000000000E+00  0.25598653058E+04  0.25598653058E+04  0.50400001928E-02 0.  1.
       -1   -1    0    0    0  501  0.00000000000E+00  0.00000000000E+00 -0.15599494001E+04  0.15599494001E+04  0.50400001928E-02 0. -1.
    10030    2    1    2    0    0  0.00000000000E+00  0.00000000000E+00  0.99991590571E+03  0.41198147059E+04  0.39966287534E+04 0.  0.
        2    1    3    3  502    0  0.35849859048E+03 -0.16842890659E+04  0.15450662716E+04  0.23135644967E+04  0.25500000920E-02 0.  1.
       -2    1    3    3    0  502 -0.35849859048E+03  0.16842890659E+04 -0.54515036588E+03  0.18062502092E+04  0.25500000920E-02 0. -1.
</event>
<event>
 5   0  0.8329875E-09  0.4007353E+04  0.7818609E-02  0.8003065E-01
       -1   -1    0    0    0  501  0.00000000000E+00  0.00000000000E+00  0.21913196570E+04  0.21913196570E+04  0.50400001928E-02 0.  1.
        1   -1    0    0  501    0  0.00000000000E+00  0.00000000000E+00 -0.18321015855E+04  0.18321015855E+04  0.50400001928E-02 0. -1.
    10030    2    1    2    0    0  0.00000000000E+00  0.00000000000E+00  0.35921807146E+03  0.40234212425E+04  0.40073533500E+04 0.  0.
        1    1    3    3  502    0 -0.11257717280E+04  0.85506697431E+03  0.16052385767E+04  0.21389933151E+04  0.50400001928E-02 0.  1.
       -1    1    3    3    0  502  0.11257717280E+04 -0.85506697431E+03 -0.12460205052E+04  0.18844279274E+04  0.50400001928E-02 0. -1.
</event>
<event>
 5   0  0.8329875E-09  0.4001685E+04  0.7818609E-02  0.8004207E-01
       -1   -1    0    0    0  501  0.00000000000E+00  0.00000000000E+00  0.15714344337E+04  0.15714344337E+04  0.50400001928E-02 0.  1.
        1   -1    0    0  501    0  0.00000000000E+00  0.00000000000E+00 -0.25475903043E+04  0.25475903043E+04  0.50400001928E-02 0. -1.
    10030    2    1    2    0    0  0.00000000000E+00  0.00000000000E+00 -0.97615587069E+03  0.41190247380E+04  0.40016852086E+04 0.  0.
        4    1    3    3  502    0  0.20828649655E+03  0.16999960672E+04 -0.15528172496E+04  0.23118418884E+04  0.12699999809E+01 0. -1.
       -4    1    3    3    0  502 -0.20828649655E+03 -0.16999960672E+04  0.57666137895E+03  0.18071828496E+04  0.12699999809E+01 0.  1.
</event>
<event>
 5   0  0.2612363E-08  0.4002704E+04  0.7818609E-02  0.8004001E-01
        2   -1    0    0  501    0  0.00000000000E+00  0.00000000000E+00  0.14505852507E+04  0.14505852507E+04  0.25500000920E-02 0.  1.
       -2   -1    0    0    0  501  0.00000000000E+00  0.00000000000E+00 -0.27612377547E+04  0.27612377547E+04  0.25500000920E-02 0. -1.
    10030    2    1    2    0    0  0.00000000000E+00  0.00000000000E+00 -0.13106525040E+04  0.42118230054E+04  0.40027044660E+04 0.  0.
        4    1    3    3  502    0  0.17668358319E+04 -0.72784192642E+03 -0.29310373198E+02  0.19111052922E+04  0.12699999809E+01 0.  1.
       -4    1    3    3    0  502 -0.17668358319E+04  0.72784192642E+03 -0.12813421308E+04  0.23007177132E+04  0.12699999809E+01 0. -1.
</event>
<event>
 5   0  0.2599332E-08  0.4035863E+04  0.7818609E-02  0.7997351E-01
        2   -1    0    0  501    0  0.00000000000E+00  0.00000000000E+00  0.20650920711E+04  0.20650920711E+04  0.25500000920E-02 0. -1.
       -2   -1    0    0    0  501  0.00000000000E+00  0.00000000000E+00 -0.19718481754E+04  0.19718481754E+04  0.25500000920E-02 0.  1.
    10030    2    1    2    0    0  0.00000000000E+00  0.00000000000E+00  0.93243895678E+02  0.40369402464E+04  0.40358632446E+04 0.  0.
        2    1    3    3  502    0 -0.16245607848E+04 -0.11965527133E+04  0.79975910240E+02  0.20192405219E+04  0.25500000920E-02 0. -1.
       -2    1    3    3    0  502  0.16245607848E+04  0.11965527133E+04  0.13267985438E+02  0.20176997245E+04  0.25500000920E-02 0.  1.
</event>
<event>
 5   0  0.8329875E-09  0.4012937E+04  0.7818609E-02  0.8001942E-01
        1   -1    0    0  501    0  0.00000000000E+00  0.00000000000E+00  0.14726574666E+04  0.14726574666E+04  0.50400001928E-02 0.  1.
       -1   -1    0    0    0  501  0.00000000000E+00  0.00000000000E+00 -0.27337764219E+04  0.27337764219E+04  0.50400001928E-02 0. -1.
    10030    2    1    2    0    0  0.00000000000E+00  0.00000000000E+00 -0.12611189553E+04  0.42064338885E+04  0.40129372085E+04 0.  0.
        5    1    3    3  502    0 -0.15751607773E+04  0.10764133379E+04  0.20768792951E+02  0.19079440718E+04  0.46999998093E+01 0. -1.
       -5    1    3    3    0  502  0.15751607773E+04 -0.10764133379E+04 -0.12818877482E+04  0.22984898167E+04  0.46999998093E+01 0.  1.
</event>
<event>
 5   0  0.2599332E-08  0.4008155E+04  0.7818609E-02  0.8002903E-01
       -2   -1    0    0    0  501  0.00000000000E+00  0.00000000000E+00  0.14754694513E+04  0.14754694513E+04  0.25500000920E-02 0.  1.
        2   -1    0    0  501    0  0.00000000000E+00  0.00000000000E+00 -0.27220671970E+04  0.27220671970E+04  0.25500000920E-02 0. -1.
    10030    2    1    2    0    0  0.00000000000E+00  0.00000000000E+00 -0.12465977457E+04  0.41975366483E+04  0.40081551834E+04 0.  0.
        2    1    3    3  502    0  0.14146570437E+04 -0.14032501215E+04 -0.39878289775E+03  0.20320908578E+04  0.25500000920E-02 0. -1.
       -2    1    3    3    0  502 -0.14146570437E+04  0.14032501215E+04 -0.84781484798E+03  0.21654457905E+04  0.25500000920E-02 0.  1.
</event>
<event>
 5   0  0.8329875E-09  0.4000460E+04  0.7818609E-02  0.8004454E-01
       -3   -1    0    0    0  501  0.00000000000E+00  0.00000000000E+00  0.21304819804E+04  0.21304819828E+04  0.10100000352E+00 0. -1.
        3   -1    0    0  501    0  0.00000000000E+00  0.00000000000E+00 -0.18779410205E+04  0.18779410232E+04  0.10100000352E+00 0.  1.
    10030    2    1    2    0    0  0.00000000000E+00  0.00000000000E+00  0.25254095994E+03  0.40084230060E+04  0.40004597309E+04 0.  0.
        3    1    3    3  502    0  0.44398465667E+03 -0.15088055605E+04  0.13645715052E+04  0.20822276528E+04  0.10100000352E+00 0. -1.
       -3    1    3    3    0  502 -0.44398465667E+03  0.15088055605E+04 -0.11120305453E+04  0.19261953532E+04  0.10100000352E+00 0.  1.
</event>
<event>
 5   0  0.2746876E-08  0.4000112E+04  0.7818609E-02  0.8004524E-01
       -2   -1    0    0    0  501  0.00000000000E+00  0.00000000000E+00  0.13475718732E+04  0.13475718732E+04  0.25500000920E-02 0. -1.
        2   -1    0    0  501    0  0.00000000000E+00  0.00000000000E+00 -0.29684681165E+04  0.29684681165E+04  0.25500000920E-02 0.  1.
    10030    2    1    2    0    0  0.00000000000E+00  0.00000000000E+00 -0.16208962433E+04  0.43160399897E+04  0.40001120685E+04 0.  0.
        1    1    3    3  502    0  0.31921007600E+03 -0.80323769292E+03 -0.27565454788E+04  0.28888802053E+04  0.50400001928E-02 0.  1.
       -1    1    3    3    0  502 -0.31921007600E+03  0.80323769292E+03  0.11356492355E+04  0.14271597843E+04  0.50400001928E-02 0. -1.
</event>
<event>
 5   0  0.2612363E-08  0.4000149E+04  0.7818609E-02  0.8004517E-01
        2   -1    0    0  501    0  0.00000000000E+00  0.00000000000E+00  0.33663938510E+04  0.33663938510E+04  0.25500000920E-02 0. -1.
       -2   -1    0    0    0  501  0.00000000000E+00  0.00000000000E+00 -0.11883033631E+04  0.11883033631E+04  0.25500000920E-02 0.  1.
    10030    2    1    2    0    0  0.00000000000E+00  0.00000000000E+00  0.21780904879E+04  0.45546972140E+04  0.40001485645E+04 0.  0.
        4    1    3    3  502    0 -0.86406499639E+03  0.12681239403E+04  0.25496704238E+04  0.29758305612E+04  0.12699999809E+01 0. -1.
       -4    1    3    3    0  502  0.86406499639E+03 -0.12681239403E+04 -0.37157993588E+03  0.15788666529E+04  0.12699999809E+01 0.  1.
</event>
<event>
 5   0  0.8329875E-09  0.3995268E+04  0.7818609E-02  0.8005502E-01
        1   -1    0    0  501    0  0.00000000000E+00  0.00000000000E+00  0.32309161720E+04  0.32309161720E+04  0.50400001928E-02 0. -1.
       -1   -1    0    0    0  501  0.00000000000E+00  0.00000000000E+00 -0.12351112858E+04  0.12351112858E+04  0.50400001928E-02 0.  1.
    10030    2    1    2    0    0  0.00000000000E+00  0.00000000000E+00  0.19958048862E+04  0.44660274578E+04  0.39952677145E+04 0.  0.
        5    1    3    3  502    0 -0.97153828398E+03 -0.17046763610E+04  0.57858857490E+03  0.20456282560E+04  0.46999998093E+01 0. -1.
       -5    1    3    3    0  502  0.97153828398E+03  0.17046763610E+04  0.14172163113E+04  0.24203992018E+04  0.46999998093E+01 0.  1.
</event>
<event>
 5   0  0.2612363E-08  0.3958121E+04  0.7818609E-02  0.8013049E-01
        2   -1    0    0  501    0  0.00000000000E+00  0.00000000000E+00  0.29456935333E+04  0.29456935333E+04  0.25500000920E-02 0.  1.
       -2   -1    0    0    0  501  0.00000000000E+00  0.00000000000E+00 -0.13296290980E+04  0.13296290980E+04  0.25500000920E-02 0. -1.
    10030    2    1    2    0    0  0.00000000000E+00  0.00000000000E+00  0.16160644353E+04  0.42753226314E+04  0.39581206833E+04 0.  0.
        4    1    3    3  502    0  0.49735697340E+03  0.17281208323E+04 -0.84579208042E+02  0.18002557667E+04  0.12699999809E+01 0. -1.
       -4    1    3    3    0  502 -0.49735697340E+03 -0.17281208323E+04  0.17006436433E+04  0.24750668647E+04  0.12699999809E+01 0.  1.
</event>
<event>
 5   0  0.2587493E-08  0.4000569E+04  0.7818609E-02  0.8004432E-01
       -2   -1    0    0    0  501  0.00000000000E+00  0.00000000000E+00  0.28412937828E+04  0.28412937828E+04  0.25500000920E-02 0.  1.
        2   -1    0    0  501    0  0.00000000000E+00  0.00000000000E+00 -0.14082096957E+04  0.14082096957E+04  0.25500000920E-02 0. -1.
    10030    2    1    2    0    0  0.00000000000E+00  0.00000000000E+00  0.14330840871E+04  0.42495034785E+04  0.40005686862E+04 0.  0.
        5    1    3    3  502    0 -0.43060263138E+03  0.10835112158E+04  0.24430088023E+04  0.27069778867E+04  0.46999998093E+01 0.  1.
       -5    1    3    3    0  502  0.43060263138E+03 -0.10835112158E+04 -0.10099247152E+04  0.15425255918E+04  0.46999998093E+01 0. -1.
</event>
<event>
 5   0  0.2746876E-08  0.4003009E+04  0.7818609E-02  0.8003940E-01
        2   -1    0    0  501    0  0.00000000000E+00  0.00000000000E+00  0.16446647514E+04  0.16446647514E+04  0.25500000920E-02 0. -1.
       -2   -1    0    0    0  501  0.00000000000E+00  0.00000000000E+00 -0.24357669654E+04  0.24357669654E+04  0.25500000920E-02 0.  1.
    10030    2    1    2    0    0  0.00000000000E+00  0.00000000000E+00 -0.79110221402E+03  0.40804317168E+04  0.40030089036E+04 0.  0.
        1    1    3    3  502    0 -0.10578385318E+04 -0.94546391075E+03  0.10435245775E+04  0.17612120570E+04  0.50400001928E-02 0. -1.
       -1    1    3    3    0  502  0.10578385318E+04  0.94546391075E+03 -0.18346267915E+04  0.23192196598E+04  0.50400001928E-02 0.  1.
</event>
<event>
 5   0  0.8329875E-09  0.4000357E+04  0.7818609E-02  0.8004475E-01
        1   -1    0    0  501    0  0.00000000000E+00  0.00000000000E+00  0.18456542939E+04  0.18456542940E+04  0.50400001928E-02 0.  1.
       -1   -1    0    0    0  501  0.00000000000E+00  0.00000000000E+00 -0.21676399440E+04  0.21676399440E+04  0.50400001928E-02 0. -1.
    10030    2    1    2    0    0  0.00000000000E+00  0.00000000000E+00 -0.32198565006E+03  0.40132942380E+04  0.40003569693E+04 0.  0.
        4    1    3    3  502    0  0.26257472237E+03 -0.19360460897E+04  0.26875264598E+03  0.19721687412E+04  0.12699999809E+01 0. -1.
       -4    1    3    3    0  502 -0.26257472237E+03  0.19360460897E+04 -0.59073829604E+03  0.20411254968E+04  0.12699999809E+01 0.  1.
</event>
<event>
 5   0  0.2746876E-08  0.4003123E+04  0.7818609E-02  0.8003917E-01
        2   -1    0    0  501    0  0.00000000000E+00  0.00000000000E+00  0.17321563309E+04  0.17321563309E+04  0.25500000920E-02 0. -1.
       -2   -1    0    0    0  501  0.00000000000E+00  0.00000000000E+00 -0.23128678605E+04  0.23128678605E+04  0.25500000920E-02 0.  1.
    10030    2    1    2    0    0  0.00000000000E+00  0.00000000000E+00 -0.58071152962E+03  0.40450241914E+04  0.40031231343E+04 0.  0.
        1    1    3    3  502    0 -0.10125432056E+04  0.93461967456E+03  0.11765595458E+04  0.18119188845E+04  0.50400001928E-02 0. -1.
       -1    1    3    3    0  502  0.10125432056E+04 -0.93461967456E+03 -0.17572710754E+04  0.22331053069E+04  0.50400001928E-02 0.  1.
</event>
<event>
 5   0  0.8329875E-09  0.3998076E+04  0.7818609E-02  0.8004935E-01
       -1   -1    0    0    0  501  0.00000000000E+00  0.00000000000E+00  0.20825209933E+04  0.20825209933E+04  0.50400001928E-02 0. -1.
        1   -1    0    0  501    0  0.00000000000E+00  0.00000000000E+00 -0.19189020425E+04  0.19189020425E+04  0.50400001928E-02 0.  1.
    10030    2    1    2    0    0  0.00000000000E+00  0.00000000000E+00  0.16361895083E+03  0.40014230358E+04  0.39980764313E+04 0.  0.
        2    1    3    3  502    0  0.16039551474E+04 -0.25345479029E+03 -0.10850319072E+04  0.19529991513E+04  0.25500000920E-02 0.  1.
       -2    1    3    3    0  502 -0.16039551474E+04  0.25345479029E+03  0.12486508580E+04  0.20484238845E+04  0.25500000920E-02 0. -1.
</event>
<event>
 5   0  0.2650452E-08  0.3995669E+04  0.7818609E-02  0.8005421E-01
       -2   -1    0    0    0  501  0.00000000000E+00  0.00000000000E+00  0.32890811998E+04  0.32890811998E+04  0.25500000920E-02 0. -1.
        2   -1    0    0  501    0  0.00000000000E+00  0.00000000000E+00 -0.12135127711E+04  0.12135127711E+04  0.25500000920E-02 0.  1.
    10030    2    1    2    0    0  0.00000000000E+00  0.00000000000E+00  0.20755684287E+04  0.45025939709E+04  0.39956686755E+04 0.  0.
        3    1    3    3  502    0  0.16593531889E+04 -0.43030921708E+02 -0.21503705059E+03  0.16737818284E+04  0.10100000352E+00 0.  1.
       -3    1    3    3    0  502 -0.16593531889E+04  0.43030921708E+02  0.22906054793E+04  0.28288121425E+04  0.10100000352E+00 0. -1.
</event>
<event>
 5   0  0.8329875E-09  0.3994365E+04  0.7818609E-02  0.8005684E-01
        1   -1    0    0  501    0  0.00000000000E+00  0.00000000000E+00  0.22225357534E+04  0.22225357534E+04  0.50400001928E-02 0.  1.
       -1   -1    0    0    0  501  0.00000000000E+00  0.00000000000E+00 -0.17946792298E+04  0.17946792298E+04  0.50400001928E-02 0. -1.
    10030    2    1    2    0    0  0.00000000000E+00  0.00000000000E+00  0.42785652362E+03  0.40172149831E+04  0.39943654084E+04 0.  0.
        4    1    3    3  502    0  0.12661141702E+04 -0.14955237050E+04 -0.17441646271E+03  0.19672465426E+04  0.12699999809E+01 0.  1.
       -4    1    3    3    0  502 -0.12661141702E+04  0.14955237050E+04  0.60227298633E+03  0.20499684405E+04  0.12699999809E+01 0. -1.
</event>
<event>
 5   0  0.8329875E-09  0.4006223E+04  0.7818609E-02  0.8003292E-01
       -1   -1    0    0    0  501  0.00000000000E+00  0.00000000000E+00  0.16700609989E+04  0.16700609989E+04  0.50400001928E-02 0. -1.
        1   -1    0    0  501    0  0.00000000000E+00  0.00000000000E+00 -0.24025804906E+04  0.24025804906E+04  0.50400001928E-02 0.  1.
    10030    2    1    2    0    0  0.00000000000E+00  0.00000000000E+00 -0.73251949165E+03  0.40726414895E+04  0.40062231461E+04 0.  0.
        1    1    3    3  502    0  0.67142111864E+02 -0.11256224196E+04 -0.20492801847E+04  0.23390346663E+04  0.50400001928E-02 0.  1.
       -1    1    3    3    0  502 -0.67142111864E+02  0.11256224196E+04  0.13167606930E+04  0.17336068232E+04  0.50400001928E-02 0. -1.
</event>
<event>
 5   0  0.2746876E-08  0.4005367E+04  0.7818609E-02  0.8003465E-01
        2   -1    0    0  501    0  0.00000000000E+00  0.00000000000E+00  0.20722365412E+04  0.20722365412E+04  0.25500000920E-02 0.  1.
       -2   -1    0    0    0  501  0.00000000000E+00  0.00000000000E+00 -0.19354651127E+04  0.19354651127E+04  0.25500000920E-02 0. -1.
    10030    2    1    2    0    0  0.00000000000E+00  0.00000000000E+00  0.13677142847E+03  0.40077016539E+04  0.40053671645E+04 0.  0.
        1    1    3    3  502    0  0.16389754244E+04  0.89362962935E+03 -0.65724533263E+03  0.19790871086E+04  0.50400001928E-02 0. -1.
       -1    1    3    3    0  502 -0.16389754244E+04 -0.89362962935E+03  0.79401676110E+03  0.20286145452E+04  0.50400001928E-02 0.  1.
</event>
<event>
 5   0  0.2612363E-08  0.3999682E+04  0.7818609E-02  0.8004611E-01
        2   -1    0    0  501    0  0.00000000000E+00  0.00000000000E+00  0.25238447355E+04  0.25238447355E+04  0.25500000920E-02 0.  1.
       -2   -1    0    0    0  501  0.00000000000E+00  0.00000000000E+00 -0.15846314163E+04  0.15846314163E+04  0.25500000920E-02 0. -1.
    10030    2    1    2    0    0  0.00000000000E+00  0.00000000000E+00  0.93921331921E+03  0.41084761518E+04  0.39996818162E+04 0.  0.
        4    1    3    3  502    0  0.98096557096E+03 -0.16730821998E+04  0.97058642396E+03  0.21687639609E+04  0.12699999809E+01 0. -1.
       -4    1    3    3    0  502 -0.98096557096E+03  0.16730821998E+04 -0.31373104747E+02  0.19397121909E+04  0.12699999809E+01 0.  1.
</event>
<event>
 5   0  0.8329875E-09  0.3999509E+04  0.7818609E-02  0.8004646E-01
       -3   -1    0    0    0  501  0.00000000000E+00  0.00000000000E+00  0.14857227264E+04  0.14857227298E+04  0.10100000352E+00 0.  1.
        3   -1    0    0  501    0  0.00000000000E+00  0.00000000000E+00 -0.26916321068E+04  0.26916321087E+04  0.10100000352E+00 0. -1.
    10030    2    1    2    0    0  0.00000000000E+00  0.00000000000E+00 -0.12059093804E+04  0.41773548385E+04  0.39995094715E+04 0.  0.
        3    1    3    3  502    0  0.73706216318E+03  0.13346910271E+03  0.13336637350E+04  0.15296187767E+04  0.10100000352E+00 0.  1.
       -3    1    3    3    0  502 -0.73706216318E+03 -0.13346910271E+03 -0.25395731155E+04  0.26477360618E+04  0.10100000352E+00 0. -1.
</event>
<event>
 5   0  0.2746876E-08  0.4000495E+04  0.7818609E-02  0.8004447E-01
       -2   -1    0    0    0  501  0.00000000000E+00  0.00000000000E+00  0.13886788665E+04  0.13886788665E+04  0.25500000920E-02 0.  1.
        2   -1    0    0  501    0  0.00000000000E+00  0.00000000000E+00 -0.28811485269E+04  0.28811485269E+04  0.25500000920E-02 0. -1.
    10030    2    1    2    0    0  0.00000000000E+00  0.00000000000E+00 -0.14924696604E+04  0.42698273935E+04  0.40004950047E+04 0.  0.
        1    1    3    3  502    0 -0.12485540328E+04 -0.10806070439E+03  0.91770557767E+03  0.15533022294E+04  0.50400001928E-02 0.  1.
       -1    1    3    3    0  502  0.12485540328E+04  0.10806070439E+03 -0.24101752380E+04  0.27165251640E+04  0.50400001928E-02 0. -1.
</event>
<event>
 5   0  0.2650452E-08  0.4009630E+04  0.7818609E-02  0.8002607E-01
       -2   -1    0    0    0  501  0.00000000000E+00  0.00000000000E+00  0.27235870931E+04  0.27235870931E+04  0.25500000920E-02 0.  1.
        2   -1    0    0  501    0  0.00000000000E+00  0.00000000000E+00 -0.14757318080E+04  0.14757318080E+04  0.25500000920E-02 0. -1.
    10030    2    1    2    0    0  0.00000000000E+00  0.00000000000E+00  0.12478552851E+04  0.41993189012E+04  0.40096304594E+04 0.  0.
        3    1    3    3  502    0  0.63449565948E+03 -0.16124984670E+04  0.16798657504E+04  0.24134384180E+04  0.10100000352E+00 0.  1.
       -3    1    3    3    0  502 -0.63449565948E+03  0.16124984670E+04 -0.43201046529E+03  0.17858804832E+04  0.10100000352E+00 0. -1.
</event>
<event>
 5   0  0.8329875E-09  0.3969491E+04  0.7818609E-02  0.8010730E-01
        1   -1    0    0  501    0  0.00000000000E+00  0.00000000000E+00  0.14167355883E+04  0.14167355883E+04  0.50400001928E-02 0. -1.
       -1   -1    0    0    0  501  0.00000000000E+00  0.00000000000E+00 -0.27804874633E+04  0.27804874633E+04  0.50400001928E-02 0.  1.
    10030    2    1    2    0    0  0.00000000000E+00  0.00000000000E+00 -0.13637518750E+04  0.41972230515E+04  0.39694914243E+04 0.  0.
        1    1    3    3  502    0  0.79181157929E+03  0.33199421288E+03 -0.25739575559E+04  0.27133822499E+04  0.50400001928E-02 0.  1.
       -1    1    3    3    0  502 -0.79181157929E+03 -0.33199421288E+03  0.12102056809E+04  0.14838408016E+04  0.50400001928E-02 0. -1.
</event>
<event>
 5   0  0.8329875E-09  0.3998634E+04  0.7818609E-02  0.8004822E-01
        1   -1    0    0  501    0  0.00000000000E+00  0.00000000000E+00  0.14753143834E+04  0.14753143834E+04  0.50400001928E-02 0. -1.
       -1   -1    0    0    0  501  0.00000000000E+00  0.00000000000E+00 -0.27094349356E+04  0.27094349356E+04  0.50400001928E-02 0.  1.
    10030    2    1    2    0    0  0.00000000000E+00  0.00000000000E+00 -0.12341205522E+04  0.41847493190E+04  0.39986339324E+04 0.  0.
        1    1    3    3  502    0  0.19615507035E+04 -0.36590359085E+03 -0.74819918625E+03  0.21310487142E+04  0.50400001928E-02 0. -1.
       -1    1    3    3    0  502 -0.19615507035E+04  0.36590359085E+03 -0.48592136591E+03  0.20537006047E+04  0.50400001928E-02 0.  1.
</event>
<event>
 5   0  0.8329875E-09  0.3994237E+04  0.7818609E-02  0.8005710E-01
       -1   -1    0    0    0  501  0.00000000000E+00  0.00000000000E+00  0.29228608980E+04  0.29228608980E+04  0.50400001928E-02 0. -1.
        1   -1    0    0  501    0  0.00000000000E+00  0.00000000000E+00 -0.13645818157E+04  0.13645818157E+04  0.50400001928E-02 0.  1.
    10030    2    1    2    0    0  0.00000000000E+00  0.00000000000E+00  0.15582790822E+04  0.42874427137E+04  0.39942372645E+04 0.  0.
        3    1    3    3  502    0 -0.18311649970E+03 -0.17090381546E+04 -0.31243673424E+03  0.17469859157E+04  0.10100000352E+00 0.  1.
       -3    1    3    3    0  502  0.18311649970E+03  0.17090381546E+04  0.18707158165E+04  0.25404567980E+04  0.10100000352E+00 0. -1.
</event>
<event>
 5   0  0.8329875E-09  0.3994096E+04  0.7818609E-02  0.8005739E-01
        1   -1    0    0  501    0  0.00000000000E+00  0.00000000000E+00  0.23202669447E+04  0.23202669447E+04  0.50400001928E-02 0.  1.
       -1   -1    0    0    0  501  0.00000000000E+00  0.00000000000E+00 -0.17188540226E+04  0.17188540226E+04  0.50400001928E-02 0. -1.
    10030    2    1    2    0    0  0.00000000000E+00  0.00000000000E+00  0.60141292212E+03  0.40391209673E+04  0.39940957282E+04 0.  0.
        5    1    3    3  502    0  0.12697762383E+04 -0.56543566281E+03 -0.11493788685E+04  0.18036471544E+04  0.46999998093E+01 0. -1.
       -5    1    3    3    0  502 -0.12697762383E+04  0.56543566281E+03  0.17507917906E+04  0.22354738129E+04  0.46999998093E+01 0.  1.
</event>
<event>
 5   0  0.8329875E-09  0.4003255E+04  0.7818609E-02  0.8003890E-01
        1   -1    0    0  501    0  0.00000000000E+00  0.00000000000E+00  0.23211746409E+04  0.23211746410E+04  0.50400001928E-02 0.  1.
       -1   -1    0    0    0  501  0.00000000000E+00  0.00000000000E+00 -0.17260711616E+04  0.17260711616E+04  0.50400001928E-02 0. -1.
    10030    2    1    2    0    0  0.00000000000E+00  0.00000000000E+00  0.59510347931E+03  0.40472458026E+04  0.40032549801E+04 0.  0.
        5    1    3    3  502    0 -0.13978981164E+04  0.64012176919E+03  0.15932810605E+04  0.22141458062E+04  0.46999998093E+01 0.  1.
       -5    1    3    3    0  502  0.13978981164E+04 -0.64012176919E+03 -0.99817758120E+03  0.18330999964E+04  0.46999998093E+01 0. -1.
</event>
<event>
 5   0  0.2612363E-08  0.3935580E+04  0.7818609E-02  0.8017670E-01
        2   -1    0    0  501    0  0.00000000000E+00  0.00000000000E+00  0.22025610480E+04  0.22025610480E+04  0.25500000920E-02 0.  1.
       -2   -1    0    0    0  501  0.00000000000E+00  0.00000000000E+00 -0.17580434736E+04  0.17580434736E+04  0.25500000920E-02 0. -1.
    10030    2    1    2    0    0  0.00000000000E+00  0.00000000000E+00  0.44451757439E+03  0.39606045216E+04  0.39355803006E+04 0.  0.
        4    1    3    3  502    0  0.12131238514E+03  0.18225763405E+04  0.95882467045E+03  0.20629705701E+04  0.12699999809E+01 0.  1.
       -4    1    3    3    0  502 -0.12131238514E+03 -0.18225763405E+04 -0.51430709606E+03  0.18976339514E+04  0.12699999809E+01 0. -1.
</event>
<event>
 5   0  0.2746876E-08  0.3999617E+04  0.7818609E-02  0.8004624E-01
        2   -1    0    0  501    0  0.00000000000E+00  0.00000000000E+00  0.15218882091E+04  0.15218882091E+04  0.25500000920E-02 0. -1.
       -2   -1    0    0    0  501  0.00000000000E+00  0.00000000000E+00 -0.26278102935E+04  0.26278102935E+04  0.25500000920E-02 0.  1.
    10030    2    1    2    0    0  0.00000000000E+00  0.00000000000E+00 -0.11059220844E+04  0.41496985025E+04  0.39996167323E+04 0.  0.
        1    1    3    3  502    0  0.57412716583E+03 -0.16423339761E+04 -0.15760410849E+04  0.23475068462E+04  0.50400001928E-02 0.  1.
       -1    1    3    3    0  502 -0.57412716583E+03  0.16423339761E+04  0.47011900047E+03  0.18021916564E+04  0.50400001928E-02 0. -1.
</event>
<event>
 5   0  0.8329875E-09  0.4004164E+04  0.7818609E-02  0.8003707E-01
        1   -1    0    0  501    0  0.00000000000E+00  0.00000000000E+00  0.21426678491E+04  0.21426678491E+04  0.50400001928E-02 0.  1.
       -1   -1    0    0    0  501  0.00000000000E+00  0.00000000000E+00 -0.18707206606E+04  0.18707206606E+04  0.50400001928E-02 0. -1.
    10030    2    1    2    0    0  0.00000000000E+00  0.00000000000E+00  0.27194718846E+03  0.40133885097E+04  0.40041643394E+04 0.  0.
        2    1    3    3  502    0 -0.43670226645E+03 -0.11535448474E+04 -0.14446686052E+04  0.18995899461E+04  0.25500000920E-02 0. -1.
       -2    1    3    3    0  502  0.43670226645E+03  0.11535448474E+04  0.17166157936E+04  0.21137985636E+04  0.25500000920E-02 0.  1.
</event>
<event>
 5   0  0.2587493E-08  0.4011814E+04  0.7818609E-02  0.8002168E-01
       -2   -1    0    0    0  501  0.00000000000E+00  0.00000000000E+00  0.21309465147E+04  0.21309465147E+04  0.25500000920E-02 0. -1.
        2   -1    0    0  501    0  0.00000000000E+00  0.00000000000E+00 -0.18882042799E+04  0.18882042799E+04  0.25500000920E-02 0.  1.
    10030    2    1    2    0    0  0.00000000000E+00  0.00000000000E+00  0.24274223482E+03  0.40191507946E+04  0.40118137192E+04 0.  0.
        5    1    3    3  502    0 -0.17786382067E+04 -0.23509346431E+03  0.10201279994E+04  0.20638570765E+04  0.46999998093E+01 0. -1.
       -5    1    3    3    0  502  0.17786382067E+04  0.23509346431E+03 -0.77738576457E+03  0.19552937181E+04  0.46999998093E+01 0.  1.
</event>
<event>
 5   0  0.8329875E-09  0.3999445E+04  0.7818609E-02  0.8004659E-01
        1   -1    0    0  501    0  0.00000000000E+00  0.00000000000E+00  0.26556233235E+04  0.26556233235E+04  0.50400001928E-02 0.  1.
       -1   -1    0    0    0  501  0.00000000000E+00  0.00000000000E+00 -0.15058196095E+04  0.15058196095E+04  0.50400001928E-02 0. -1.
    10030    2    1    2    0    0  0.00000000000E+00  0.00000000000E+00  0.11498037140E+04  0.41614429329E+04  0.39994447994E+04 0.  0.
        2    1    3    3  502    0 -0.18817155039E+04 -0.67672328843E+03  0.56547800097E+03  0.20781176618E+04  0.25500000920E-02 0. -1.
       -2    1    3    3    0  502  0.18817155039E+04  0.67672328843E+03  0.58432571302E+03  0.20833252712E+04  0.25500000920E-02 0.  1.
</event>
<event>
 5   0  0.2599332E-08  0.3997020E+04  0.7818609E-02  0.8005148E-01
        2   -1    0    0  501    0  0.00000000000E+00  0.00000000000E+00  0.30804773802E+04  0.30804773802E+04  0.25500000920E-02 0. -1.
       -2   -1    0    0    0  501  0.00000000000E+00  0.00000000000E+00 -0.12965661428E+04  0.12965661428E+04  0.25500000920E-02 0.  1.
    10030    2    1    2    0    0  0.00000000000E+00  0.00000000000E+00  0.17839112374E+04  0.43770435230E+04  0.39970202276E+04 0.  0.
        2    1    3    3  502    0  0.15004719122E+04  0.11246982376E+04  0.13509951747E+03  0.18800569046E+04  0.25500000920E-02 0.  1.
       -2    1    3    3    0  502 -0.15004719122E+04 -0.11246982376E+04  0.16488117199E+04  0.24969866184E+04  0.25500000920E-02 0. -1.
</event>
<event>
 5   0  0.2650452E-08  0.3994998E+04  0.7818609E-02  0.8005556E-01
       -2   -1    0    0    0  501  0.00000000000E+00  0.00000000000E+00  0.17527767121E+04  0.17527767121E+04  0.25500000920E-02 0. -1.
        2   -1    0    0  501    0  0.00000000000E+00  0.00000000000E+00 -0.22763889331E+04  0.22763889331E+04  0.25500000920E-02 0.  1.
    10030    2    1    2    0    0  0.00000000000E+00  0.00000000000E+00 -0.52361222096E+03  0.40291656453E+04  0.39949976269E+04 0.  0.
        3    1    3    3  502    0  0.49381223802E+03 -0.65015700051E+03 -0.21004302822E+04  0.22535221393E+04  0.10100000352E+00 0.  1.
       -3    1    3    3    0  502 -0.49381223802E+03  0.65015700051E+03  0.15768180613E+04  0.17756435059E+04  0.10100000352E+00 0. -1.
</event>
<event>
 5   0  0.2746876E-08  0.4012708E+04  0.7818609E-02  0.8001988E-01
        2   -1    0    0  501    0  0.00000000000E+00  0.00000000000E+00  0.14467227407E+04  0.14467227407E+04  0.25500000920E-02 0. -1.
       -2   -1    0    0    0  501  0.00000000000E+00  0.00000000000E+00 -0.27824652025E+04  0.27824652025E+04  0.25500000920E-02 0.  1.
    10030    2    1    2    0    0  0.00000000000E+00  0.00000000000E+00 -0.13357424618E+04  0.42291879432E+04  0.40127076562E+04 0.  0.
        1    1    3    3  502    0 -0.18161684266E+04 -0.66525464626E+03 -0.12299571764E+04  0.22921226307E+04  0.50400001928E-02 0.  1.
       -1    1    3    3    0  502  0.18161684266E+04  0.66525464626E+03 -0.10578528536E+03  0.19370653125E+04  0.50400001928E-02 0. -1.
</event>
<event>
 5   0  0.2612363E-08  0.4002371E+04  0.7818609E-02  0.8004068E-01
       -2   -1    0    0    0  501  0.00000000000E+00  0.00000000000E+00  0.28297872870E+04  0.28297872870E+04  0.25500000920E-02 0. -1.
        2   -1    0    0  501    0  0.00000000000E+00  0.00000000000E+00 -0.14152097840E+04  0.14152097840E+04  0.25500000920E-02 0.  1.
    10030    2    1    2    0    0  0.00000000000E+00  0.00000000000E+00  0.14145775030E+04  0.42449970709E+04  0.40023706250E+04 0.  0.
        4    1    3    3  502    0 -0.57301704373E+03  0.19036632080E+04  0.95021233737E+03  0.22034489422E+04  0.12699999809E+01 0.  1.
       -4    1    3    3    0  502  0.57301704373E+03 -0.19036632080E+04  0.46436516565E+03  0.20415481287E+04  0.12699999809E+01 0. -1.
</event>
<event>
 5   0  0.8329875E-09  0.3995848E+04  0.7818609E-02  0.8005385E-01
       -1   -1    0    0    0  501  0.00000000000E+00  0.00000000000E+00  0.20163708795E+04  0.20163708795E+04  0.50400001928E-02 0. -1.
        1   -1    0    0  501    0  0.00000000000E+00  0.00000000000E+00 -0.19796461016E+04  0.19796461017E+04  0.50400001928E-02 0.  1.
    10030    2    1    2    0    0  0.00000000000E+00  0.00000000000E+00  0.36724777833E+02  0.39960169811E+04  0.39958482209E+04 0.  0.
        5    1    3    3  502    0 -0.71123968702E+03 -0.25231346963E+03  0.18683471861E+04  0.20150104906E+04  0.46999998093E+01 0. -1.
       -5    1    3    3    0  502  0.71123968702E+03  0.25231346963E+03 -0.18316224082E+04  0.19810064906E+04  0.46999998093E+01 0.  1.
</event>
<event>
 5   0  0.8329875E-09  0.3896789E+04  0.7818609E-02  0.8025697E-01
        1   -1    0    0  501    0  0.00000000000E+00  0.00000000000E+00  0.20477424079E+04  0.20477424079E+04  0.50400001928E-02 0.  1.
       -1   -1    0    0    0  501  0.00000000000E+00  0.00000000000E+00 -0.18538665147E+04  0.18538665147E+04  0.50400001928E-02 0. -1.
    10030    2    1    2    0    0  0.00000000000E+00  0.00000000000E+00  0.19387589315E+03  0.39016089226E+04  0.38967889759E+04 0.  0.
        4    1    3    3  502    0  0.89012781623E+03  0.11367174713E+04  0.14069083927E+04  0.20158985533E+04  0.12699999809E+01 0.  1.
       -4    1    3    3    0  502 -0.89012781623E+03 -0.11367174713E+04 -0.12130324996E+04  0.18857103693E+04  0.12699999809E+01 0. -1.
</event>
<event>
 5   0  0.2650452E-08  0.3987442E+04  0.7818609E-02  0.8007085E-01
       -2   -1    0    0    0  501  0.00000000000E+00  0.00000000000E+00  0.17804387161E+04  0.17804387161E+04  0.25500000920E-02 0. -1.
        2   -1    0    0  501    0  0.00000000000E+00  0.00000000000E+00 -0.22325532693E+04  0.22325532693E+04  0.25500000920E-02 0.  1.
    10030    2    1    2    0    0  0.00000000000E+00  0.00000000000E+00 -0.45211455320E+03  0.40129919855E+04  0.39874424267E+04 0.  0.
        3    1    3    3  502    0  0.19234447659E+04  0.49139913015E+03 -0.41111422832E+03  0.20273450105E+04  0.10100000352E+00 0.  1.
       -3    1    3    3    0  502 -0.19234447659E+04 -0.49139913015E+03 -0.41000324882E+02  0.19856469750E+04  0.10100000352E+00 0. -1.
</event>
<event>
 5   0  0.2599332E-08  0.3989029E+04  0.7818609E-02  0.8006763E-01
       -2   -1    0    0    0  501  0.00000000000E+00  0.00000000000E+00  0.18285609434E+04  0.18285609434E+04  0.25500000920E-02 0.  1.
        2   -1    0    0  501    0  0.00000000000E+00  0.00000000000E+00 -0.21755290526E+04  0.21755290526E+04  0.25500000920E-02 0. -1.
    10030    2    1    2    0    0  0.00000000000E+00  0.00000000000E+00 -0.34696810921E+03  0.40040899960E+04  0.39890286822E+04 0.  0.
        2    1    3    3  502    0  0.30879326976E+03 -0.17857093096E+04  0.66271376911E+03  0.19295855932E+04  0.25500000920E-02 0.  1.
       -2    1    3    3    0  502 -0.30879326976E+03  0.17857093096E+04 -0.10096818783E+04  0.20745044028E+04  0.25500000920E-02 0. -1.
</event>
<event>
 5   0  0.2587493E-08  0.3987897E+04  0.7818609E-02  0.8006993E-01
       -2   -1    0    0    0  501  0.00000000000E+00  0.00000000000E+00  0.12369202271E+04  0.12369202271E+04  0.25500000920E-02 0.  1.
        2   -1    0    0  501    0  0.00000000000E+00  0.00000000000E+00 -0.32142984811E+04  0.32142984811E+04  0.25500000920E-02 0. -1.
    10030    2    1    2    0    0  0.00000000000E+00  0.00000000000E+00 -0.19773782540E+04  0.44512187081E+04  0.39878970935E+04 0.  0.
        5    1    3    3  502    0 -0.14992064648E+04 -0.74556663445E+03 -0.21972204431E+04  0.27624788499E+04  0.46999998093E+01 0. -1.
       -5    1    3    3    0  502  0.14992064648E+04  0.74556663445E+03  0.21984218914E+03  0.16887398582E+04  0.46999998093E+01 0.  1.
</event>
<event>
 5   0  0.8329875E-09  0.4011097E+04  0.7818609E-02  0.8002312E-01
       -1   -1    0    0    0  501  0.00000000000E+00  0.00000000000E+00  0.16919923496E+04  0.16919923496E+04  0.50400001928E-02 0.  1.
        1   -1    0    0  501    0  0.00000000000E+00  0.00000000000E+00 -0.23772127182E+04  0.23772127183E+04  0.50400001928E-02 0. -1.
    10030    2    1    2    0    0  0.00000000000E+00  0.00000000000E+00 -0.68522036866E+03  0.40692050678E+04  0.40110974721E+04 0.  0.
        4    1    3    3  502    0 -0.12196903954E+04  0.14245170105E+04  0.37855412028E+03  0.19131644490E+04  0.12699999809E+01 0.  1.
       -4    1    3    3    0  502  0.12196903954E+04 -0.14245170105E+04 -0.10637744889E+04  0.21560406189E+04  0.12699999809E+01 0. -1.
</event>
<event>
 5   0  0.8329875E-09  0.4009397E+04  0.7818609E-02  0.8002654E-01
       -1   -1    0    0    0  501  0.00000000000E+00  0.00000000000E+00  0.23938572986E+04  0.23938572986E+04  0.50400001928E-02 0. -1.
        1   -1    0    0  501    0  0.00000000000E+00  0.00000000000E+00 -0.16788035088E+04  0.16788035088E+04  0.50400001928E-02 0.  1.
    10030    2    1    2    0    0  0.00000000000E+00  0.00000000000E+00  0.71505378980E+03  0.40726608074E+04  0.40093969783E+04 0.  0.
        3    1    3    3  502    0 -0.43823122230E+03 -0.38109515647E+02  0.23442296886E+04  0.23851439752E+04  0.10100000352E+00 0. -1.
       -3    1    3    3    0  502  0.43823122230E+03  0.38109515647E+02 -0.16291758988E+04  0.16875168322E+04  0.10100000352E+00 0.  1.
</event>
<event>
 5   0  0.2599332E-08  0.4003540E+04  0.7818609E-02  0.8003833E-01
        2   -1    0    0  501    0  0.00000000000E+00  0.00000000000E+00  0.18959183196E+04  0.18959183196E+04  0.25500000920E-02 0.  1.
       -2   -1    0    0    0  501  0.00000000000E+00  0.00000000000E+00 -0.21135316042E+04  0.21135316042E+04  0.25500000920E-02 0. -1.
    10030    2    1    2    0    0  0.00000000000E+00  0.00000000000E+00 -0.21761328464E+03  0.40094499238E+04  0.40035400772E+04 0.  0.
        2    1    3    3  502    0  0.14768435912E+04 -0.57771276579E+03 -0.13321925724E+04  0.20711243523E+04  0.25500000920E-02 0. -1.
       -2    1    3    3    0  502 -0.14768435912E+04  0.57771276579E+03  0.11145792878E+04  0.19383255715E+04  0.25500000920E-02 0.  1.
</event>
<event>
 5   0  0.8329875E-09  0.4000298E+04  0.7818609E-02  0.8004486E-01
        1   -1    0    0  501    0  0.00000000000E+00  0.00000000000E+00  0.19450774519E+04  0.19450774519E+04  0.50400001928E-02 0.  1.
       -1   -1    0    0    0  501  0.00000000000E+00  0.00000000000E+00 -0.20567801970E+04  0.20567801970E+04  0.50400001928E-02 0. -1.
    10030    2    1    2    0    0  0.00000000000E+00  0.00000000000E+00 -0.11170274509E+03  0.40018576489E+04  0.40002983812E+04 0.  0.
        4    1    3    3  502    0 -0.95155569220E+03 -0.13468476857E+04  0.10764635955E+04  0.19693228301E+04  0.12699999809E+01 0.  1.
       -4    1    3    3    0  502  0.95155569220E+03  0.13468476857E+04 -0.11881663406E+04  0.20325348188E+04  0.12699999809E+01 0. -1.
</event>
<event>
 5   0  0.2612363E-08  0.4019734E+04  0.7818609E-02  0.8000577E-01
       -2   -1    0    0    0  501  0.00000000000E+00  0.00000000000E+00  0.16004585858E+04  0.16004585858E+04  0.25500000920E-02 0. -1.
        2   -1    0    0  501    0  0.00000000000E+00  0.00000000000E+00 -0.25240052105E+04  0.25240052105E+04  0.25500000920E-02 0.  1.
    10030    2    1    2    0    0  0.00000000000E+00  0.00000000000E+00 -0.92354662474E+03  0.41244637963E+04  0.40197342249E+04 0.  0.
        4    1    3    3  502    0 -0.13280792302E+04  0.60494808076E+02 -0.20083976701E+04  0.24085507837E+04  0.12699999809E+01 0.  1.
       -4    1    3    3    0  502  0.13280792302E+04 -0.60494808076E+02  0.10848510453E+04  0.17159130126E+04  0.12699999809E+01 0. -1.
</event>
<event>
 5   0  0.8329875E-09  0.3998579E+04  0.7818609E-02  0.8004833E-01
       -1   -1    0    0    0  501  0.00000000000E+00  0.00000000000E+00  0.12008144192E+04  0.12008144192E+04  0.50400001928E-02 0. -1.
        1   -1    0    0  501    0  0.00000000000E+00  0.00000000000E+00 -0.33287069929E+04  0.33287069929E+04  0.50400001928E-02 0.  1.
    10030    2    1    2    0    0  0.00000000000E+00  0.00000000000E+00 -0.21278925737E+04  0.45295214120E+04  0.39985794249E+04 0.  0.
        5    1    3    3  502    0 -0.19124115613E+04 -0.55203829961E+03 -0.12760914082E+04  0.23644228970E+04  0.46999998093E+01 0.  1.
       -5    1    3    3    0  502  0.19124115613E+04  0.55203829961E+03 -0.85180116551E+03  0.21650985150E+04  0.46999998093E+01 0. -1.
</event>
<event>
 5   0  0.2650452E-08  0.3994122E+04  0.7818609E-02  0.8005733E-01
       -2   -1    0    0    0  501  0.00000000000E+00  0.00000000000E+00  0.21484066302E+04  0.21484066302E+04  0.25500000920E-02 0. -1.
        2   -1    0    0  501    0  0.00000000000E+00  0.00000000000E+00 -0.18563766822E+04  0.18563766822E+04  0.25500000920E-02 0.  1.
    10030    2    1    2    0    0  0.00000000000E+00  0.00000000000E+00  0.29202994801E+03  0.40047833124E+04  0.39941216667E+04 0.  0.
        3    1    3    3  502    0  0.16799570465E+04 -0.22400744361E+03  0.12051570213E+04  0.20796245981E+04  0.10100000352E+00 0.  1.
       -3    1    3    3    0  502 -0.16799570465E+04  0.22400744361E+03 -0.91312707326E+03  0.19251587143E+04  0.10100000352E+00 0. -1.
</event>
<event>
 5   0  0.2746876E-08  0.4001795E+04  0.7818609E-02  0.8004185E-01
        2   -1    0    0  501    0  0.00000000000E+00  0.00000000000E+00  0.23928442152E+04  0.23928442152E+04  0.25500000920E-02 0. -1.
       -2   -1    0    0    0  501  0.00000000000E+00  0.00000000000E+00 -0.16731514391E+04  0.16731514391E+04  0.25500000920E-02 0.  1.
    10030    2    1    2    0    0  0.00000000000E+00  0.00000000000E+00  0.71969277606E+03  0.40659956543E+04  0.40017949684E+04 0.  0.
        1    1    3    3  502    0  0.65070983321E+03  0.18882269014E+04  0.48331389614E+03  0.20548519267E+04  0.50400001928E-02 0. -1.
       -1    1    3    3    0  502 -0.65070983321E+03 -0.18882269014E+04  0.23637887991E+03  0.20111437276E+04  0.50400001928E-02 0.  1.
</event>
<event>
 5   0  0.8329875E-09  0.3980163E+04  0.7818609E-02  0.8008560E-01
       -1   -1    0    0    0  501  0.00000000000E+00  0.00000000000E+00  0.21485775084E+04  0.21485775084E+04  0.50400001928E-02 0. -1.
        1   -1    0    0  501    0  0.00000000000E+00  0.00000000000E+00 -0.18432776061E+04  0.18432776061E+04  0.50400001928E-02 0.  1.
    10030    2    1    2    0    0  0.00000000000E+00  0.00000000000E+00  0.30529990229E+03  0.39918551146E+04  0.39801632159E+04 0.  0.
        3    1    3    3  502    0 -0.14975353794E+04  0.38324234673E+03  0.14097023911E+04  0.20920678169E+04  0.10100000352E+00 0. -1.
       -3    1    3    3    0  502  0.14975353794E+04 -0.38324234673E+03 -0.11044024888E+04  0.18997872977E+04  0.10100000352E+00 0.  1.
</event>
<event>
 5   0  0.8329875E-09  0.4019274E+04  0.7818609E-02  0.8000670E-01
       -1   -1    0    0    0  501  0.00000000000E+00  0.00000000000E+00  0.16795078536E+04  0.16795078536E+04  0.50400001928E-02 0. -1.
        1   -1    0    0  501    0  0.00000000000E+00  0.00000000000E+00 -0.24046575631E+04  0.24046575631E+04  0.50400001928E-02 0.  1.
    10030    2    1    2    0    0  0.00000000000E+00  0.00000000000E+00 -0.72514970953E+03  0.40841654167E+04  0.40192741944E+04 0.  0.
        4    1    3    3  502    0 -0.16679389193E+04 -0.22813775559E+03  0.75267499774E+03  0.18440684204E+04  0.12699999809E+01 0. -1.
       -4    1    3    3    0  502  0.16679389193E+04  0.22813775559E+03 -0.14778247073E+04  0.22400969962E+04  0.12699999809E+01 0.  1.
</event>
<event>
 5   0  0.8329875E-09  0.3986495E+04  0.7818609E-02  0.8007277E-01
        1   -1    0    0  501    0  0.00000000000E+00  0.00000000000E+00  0.24620182611E+04  0.24620182611E+04  0.50400001928E-02 0. -1.
       -1   -1    0    0    0  501  0.00000000000E+00  0.00000000000E+00 -0.16137309777E+04  0.16137309777E+04  0.50400001928E-02 0.  1.
    10030    2    1    2    0    0  0.00000000000E+00  0.00000000000E+00  0.84828728342E+03  0.40757492387E+04  0.39864947688E+04 0.  0.
        4    1    3    3  502    0 -0.58952052408E+03  0.92847976013E+03 -0.12754302550E+04  0.16841416394E+04  0.12699999809E+01 0.  1.
       -4    1    3    3    0  502  0.58952052408E+03 -0.92847976013E+03  0.21237175384E+04  0.23916075993E+04  0.12699999809E+01 0. -1.
</event>
<event>
 5   0  0.8329875E-09  0.3997811E+04  0.7818609E-02  0.8004988E-01
       -1   -1    0    0    0  501  0.00000000000E+00  0.00000000000E+00  0.32903841655E+04  0.32903841655E+04  0.50400001928E-02 0.  1.
        1   -1    0    0  501    0  0.00000000000E+00  0.00000000000E+00 -0.12143334620E+04  0.12143334620E+04  0.50400001928E-02 0. -1.
    10030    2    1    2    0    0  0.00000000000E+00  0.00000000000E+00  0.20760507035E+04  0.45047176274E+04  0.39978111986E+04 0.  0.
        4    1    3    3  502    0  0.91397900518E+03  0.17756949460E+04  0.11334498638E+04  0.22963362928E+04  0.12699999809E+01 0. -1.
       -4    1    3    3    0  502 -0.91397900518E+03 -0.17756949460E+04  0.94260083973E+03  0.22083813346E+04  0.12699999809E+01 0.  1.
</event>
<event>
 5   0  0.8329875E-09  0.4032449E+04  0.7818609E-02  0.7998032E-01
        1   -1    0    0  501    0  0.00000000000E+00  0.00000000000E+00  0.13479498820E+04  0.13479498820E+04  0.50400001928E-02 0. -1.
       -1   -1    0    0    0  501  0.00000000000E+00  0.00000000000E+00 -0.30158105904E+04  0.30158105904E+04  0.50400001928E-02 0.  1.
    10030    2    1    2    0    0  0.00000000000E+00  0.00000000000E+00 -0.16678607084E+04  0.43637604723E+04  0.40324491463E+04 0.  0.
        3    1    3    3  502    0 -0.13833269063E+04  0.15297145006E+03 -0.24126134243E+04  0.27852642854E+04  0.10100000352E+00 0.  1.
       -3    1    3    3    0  502  0.13833269063E+04 -0.15297145006E+03  0.74475271588E+03  0.15784961870E+04  0.10100000352E+00 0. -1.
</event>
<event>
 5   0  0.2587493E-08  0.3991153E+04  0.7818609E-02  0.8006334E-01
       -2   -1    0    0    0  501  0.00000000000E+00  0.00000000000E+00  0.13309585507E+04  0.13309585507E+04  0.25500000920E-02 0.  1.
        2   -1    0    0  501    0  0.00000000000E+00  0.00000000000E+00 -0.29920733500E+04  0.29920733500E+04  0.25500000920E-02 0. -1.
    10030    2    1    2    0    0  0.00000000000E+00  0.00000000000E+00 -0.16611147994E+04  0.43230319007E+04  0.39911530211E+04 0.  0.
        5    1    3    3  502    0  0.19011153272E+04  0.30155422372E+03 -0.26035227918E+03  0.19424159793E+04  0.46999998093E+01 0.  1.
       -5    1    3    3    0  502 -0.19011153272E+04 -0.30155422372E+03 -0.14007625202E+04  0.23806159214E+04  0.46999998093E+01 0. -1.
</event>
<event>
 5   0  0.2599332E-08  0.3968704E+04  0.7818609E-02  0.8010890E-01
        2   -1    0    0  501    0  0.00000000000E+00  0.00000000000E+00  0.14770375721E+04  0.14770375721E+04  0.25500000920E-02 0. -1.
       -2   -1    0    0    0  501  0.00000000000E+00  0.00000000000E+00 -0.26659120836E+04  0.26659120836E+04  0.25500000920E-02 0.  1.
    10030    2    1    2    0    0  0.00000000000E+00  0.00000000000E+00 -0.11888745115E+04  0.41429496556E+04  0.39687037235E+04 0.  0.
        2    1    3    3  502    0  0.15577711457E+04 -0.10061842492E+04  0.14267693761E+03  0.18599501053E+04  0.25500000920E-02 0. -1.
       -2    1    3    3    0  502 -0.15577711457E+04  0.10061842492E+04 -0.13315514491E+04  0.22829995504E+04  0.25500000920E-02 0.  1.
</event>
<event>
 5   0  0.8329875E-09  0.4002707E+04  0.7818609E-02  0.8004001E-01
       -1   -1    0    0    0  501  0.00000000000E+00  0.00000000000E+00  0.21841656617E+04  0.21841656618E+04  0.50400001928E-02 0.  1.
        1   -1    0    0  501    0  0.00000000000E+00  0.00000000000E+00 -0.18338428818E+04  0.18338428818E+04  0.50400001928E-02 0. -1.
    10030    2    1    2    0    0  0.00000000000E+00  0.00000000000E+00  0.35032277998E+03  0.40180085435E+04  0.40027074095E+04 0.  0.
        2    1    3    3  502    0 -0.12497177762E+04 -0.13755815551E+04  0.92056143325E+03  0.20739943315E+04  0.25500000920E-02 0.  1.
       -2    1    3    3    0  502  0.12497177762E+04  0.13755815551E+04 -0.57023865328E+03  0.19440142120E+04  0.25500000920E-02 0. -1.
</event>
<event>
 5   0  0.8329875E-09  0.4007819E+04  0.7818609E-02  0.8002971E-01
        1   -1    0    0  501    0  0.00000000000E+00  0.00000000000E+00  0.28928472138E+04  0.28928472138E+04  0.50400001928E-02 0. -1.
       -1   -1    0    0    0  501  0.00000000000E+00  0.00000000000E+00 -0.13881320129E+04  0.13881320129E+04  0.50400001928E-02 0.  1.
    10030    2    1    2    0    0  0.00000000000E+00  0.00000000000E+00  0.15047152009E+04  0.42809792268E+04  0.40078192704E+04 0.  0.
        1    1    3    3  502    0  0.12158092402E+04  0.15909317330E+04  0.83779637665E+03  0.21705203654E+04  0.50400001928E-02 0. -1.
       -1    1    3    3    0  502 -0.12158092402E+04 -0.15909317330E+04  0.66691882424E+03  0.21104588614E+04  0.50400001928E-02 0.  1.
</event>
<event>
 5   0  0.8329875E-09  0.3988607E+04  0.7818609E-02  0.8006849E-01
       -1   -1    0    0    0  501  0.00000000000E+00  0.00000000000E+00  0.14459172268E+04  0.14459172268E+04  0.50400001928E-02 0. -1.
        1   -1    0    0  501    0  0.00000000000E+00  0.00000000000E+00 -0.27506738717E+04  0.27506738717E+04  0.50400001928E-02 0.  1.
    10030    2    1    2    0    0  0.00000000000E+00  0.00000000000E+00 -0.13047566448E+04  0.41965910985E+04  0.39886071436E+04 0.  0.
        3    1    3    3  502    0 -0.15440293568E+03  0.23721341520E+03 -0.27294342349E+04  0.27440702840E+04  0.10100000352E+00 0.  1.
       -3    1    3    3    0  502  0.15440293568E+03 -0.23721341520E+03  0.14246775900E+04  0.14525208145E+04  0.10100000352E+00 0. -1.
</event>
<event>
 5   0  0.8329875E-09  0.3999096E+04  0.7818609E-02  0.8004729E-01
        1   -1    0    0  501    0  0.00000000000E+00  0.00000000000E+00  0.15423646397E+04  0.15423646397E+04  0.50400001928E-02 0. -1.
       -1   -1    0    0    0  501  0.00000000000E+00  0.00000000000E+00 -0.25922486642E+04  0.25922486642E+04  0.50400001928E-02 0.  1.
    10030    2    1    2    0    0  0.00000000000E+00  0.00000000000E+00 -0.10498840245E+04  0.41346133039E+04  0.39990962364E+04 0.  0.
        1    1    3    3  502    0 -0.13720494805E+04 -0.90463149397E+03 -0.17025363859E+04  0.23663279701E+04  0.50400001928E-02 0.  1.
       -1    1    3    3    0  502  0.13720494805E+04  0.90463149397E+03  0.65265236145E+03  0.17682853338E+04  0.50400001928E-02 0. -1.
</event>
<event>
 5   0  0.8329875E-09  0.4014420E+04  0.7818609E-02  0.8001644E-01
        1   -1    0    0  501    0  0.00000000000E+00  0.00000000000E+00  0.28295631852E+04  0.28295631852E+04  0.50400001928E-02 0.  1.
       -1   -1    0    0    0  501  0.00000000000E+00  0.00000000000E+00 -0.14238567312E+04  0.14238567313E+04  0.50400001928E-02 0. -1.
    10030    2    1    2    0    0  0.00000000000E+00  0.00000000000E+00  0.14057064539E+04  0.42534199164E+04  0.40144203007E+04 0.  0.
        4    1    3    3  502    0 -0.78938556237E+03  0.51188737561E+03  0.25814701402E+04  0.27475712819E+04  0.12699999809E+01 0.  1.
       -4    1    3    3    0  502  0.78938556237E+03 -0.51188737561E+03 -0.11757636863E+04  0.15058486346E+04  0.12699999809E+01 0. -1.
</event>
<event>
 5   0  0.8329875E-09  0.4001155E+04  0.7818609E-02  0.8004313E-01
       -1   -1    0    0    0  501  0.00000000000E+00  0.00000000000E+00  0.28428910168E+04  0.28428910168E+04  0.50400001928E-02 0. -1.
        1   -1    0    0  501    0  0.00000000000E+00  0.00000000000E+00 -0.14078314118E+04  0.14078314118E+04  0.50400001928E-02 0.  1.
    10030    2    1    2    0    0  0.00000000000E+00  0.00000000000E+00  0.14350596050E+04  0.42507224286E+04  0.40011554700E+04 0.  0.
        4    1    3    3  502    0 -0.10946420080E+04  0.12332106402E+04  0.19209981081E+04  0.25316565630E+04  0.12699999809E+01 0. -1.
       -4    1    3    3    0  502  0.10946420080E+04 -0.12332106402E+04 -0.48593850304E+03  0.17190658656E+04  0.12699999809E+01 0.  1.
</event>
<event>
 5   0  0.8329875E-09  0.4001440E+04  0.7818609E-02  0.8004256E-01
       -1   -1    0    0    0  501  0.00000000000E+00  0.00000000000E+00  0.14421112471E+04  0.14421112471E+04  0.50400001928E-02 0.  1.
        1   -1    0    0  501    0  0.00000000000E+00  0.00000000000E+00 -0.27757078762E+04  0.27757078762E+04  0.50400001928E-02 0. -1.
    10030    2    1    2    0    0  0.00000000000E+00  0.00000000000E+00 -0.13335966291E+04  0.42178191233E+04  0.40014395145E+04 0.  0.
        3    1    3    3  502    0 -0.12998240583E+04  0.94050839265E+02  0.93334632263E+03  0.16029733345E+04  0.10100000352E+00 0.  1.
       -3    1    3    3    0  502  0.12998240583E+04 -0.94050839265E+02 -0.22669429517E+04  0.26148457888E+04  0.10100000352E+00 0. -1.
</event>
<event>
 5   0  0.2599332E-08  0.3988984E+04  0.7818609E-02  0.8006773E-01
       -2   -1    0    0    0  501  0.00000000000E+00  0.00000000000E+00  0.13154927455E+04  0.13154927455E+04  0.25500000920E-02 0.  1.
        2   -1    0    0  501    0  0.00000000000E+00  0.00000000000E+00 -0.30239606454E+04  0.30239606454E+04  0.25500000920E-02 0. -1.
    10030    2    1    2    0    0  0.00000000000E+00  0.00000000000E+00 -0.17084678999E+04  0.43394533908E+04  0.39889839767E+04 0.  0.
        2    1    3    3  502    0  0.10257953580E+04 -0.11393216063E+04  0.53366669462E+03  0.16233021838E+04  0.25500000920E-02 0.  1.
       -2    1    3    3    0  502 -0.10257953580E+04  0.11393216063E+04 -0.22421345946E+04  0.27161512070E+04  0.25500000920E-02 0. -1.
</event>
<event>
 5   0  0.8329875E-09  0.3999198E+04  0.7818609E-02  0.8004708E-01
        3   -1    0    0  501    0  0.00000000000E+00  0.00000000000E+00  0.22972679907E+04  0.22972679930E+04  0.10100000352E+00 0. -1.
       -3   -1    0    0    0  501  0.00000000000E+00  0.00000000000E+00 -0.17405005387E+04  0.17405005416E+04  0.10100000352E+00 0.  1.
    10030    2    1    2    0    0  0.00000000000E+00  0.00000000000E+00  0.55676745203E+03  0.40377685346E+04  0.39991980125E+04 0.  0.
        5    1    3    3  502    0  0.34336922858E+03  0.84183404185E+03  0.20765114066E+04  0.22668278922E+04  0.46999998093E+01 0. -1.
       -5    1    3    3    0  502 -0.34336922858E+03 -0.84183404185E+03 -0.15197439546E+04  0.17709406423E+04  0.46999998093E+01 0.  1.
</event>
<event>
 5   0  0.2746876E-08  0.3999821E+04  0.7818609E-02  0.8004583E-01
       -2   -1    0    0    0  501  0.00000000000E+00  0.00000000000E+00  0.20965048589E+04  0.20965048589E+04  0.25500000920E-02 0.  1.
        2   -1    0    0  501    0  0.00000000000E+00  0.00000000000E+00 -0.19077667905E+04  0.19077667905E+04  0.25500000920E-02 0. -1.
    10030    2    1    2    0    0  0.00000000000E+00  0.00000000000E+00  0.18873806841E+03  0.40042716494E+04  0.39998211689E+04 0.  0.
        1    1    3    3  502    0  0.18291876420E+04  0.70949359668E+03 -0.29379134806E+03  0.19838402026E+04  0.50400001928E-02 0.  1.
       -1    1    3    3    0  502 -0.18291876420E+04 -0.70949359668E+03  0.48252941648E+03  0.20204314468E+04  0.50400001928E-02 0. -1.
</event>
<event>
 5   0  0.8329875E-09  0.3993162E+04  0.7818609E-02  0.8005927E-01
       -1   -1    0    0    0  501  0.00000000000E+00  0.00000000000E+00  0.13430800831E+04  0.13430800831E+04  0.50400001928E-02 0. -1.
        1   -1    0    0  501    0  0.00000000000E+00  0.00000000000E+00 -0.29680553350E+04  0.29680553350E+04  0.50400001928E-02 0.  1.
    10030    2    1    2    0    0  0.00000000000E+00  0.00000000000E+00 -0.16249752519E+04  0.43111354181E+04  0.39931621585E+04 0.  0.
        3    1    3    3  502    0 -0.23229496198E+03  0.17524054718E+04  0.18956327554E+03  0.17778695488E+04  0.10100000352E+00 0. -1.
       -3    1    3    3    0  502  0.23229496198E+03 -0.17524054718E+04 -0.18145385274E+04  0.25332658693E+04  0.10100000352E+00 0.  1.
</event>
<event>
 5   0  0.2746876E-08  0.3992932E+04  0.7818609E-02  0.8005974E-01
       -2   -1    0    0    0  501  0.00000000000E+00  0.00000000000E+00  0.14703953931E+04  0.14703953931E+04  0.25500000920E-02 0.  1.
        2   -1    0    0  501    0  0.00000000000E+00  0.00000000000E+00 -0.27107521338E+04  0.27107521338E+04  0.25500000920E-02 0. -1.
    10030    2    1    2    0    0  0.00000000000E+00  0.00000000000E+00 -0.12403567407E+04  0.41811475269E+04  0.39929324810E+04 0.  0.
        1    1    3    3  502    0 -0.11371284136E+04 -0.57670162524E+03 -0.22288997752E+04  0.25678084043E+04  0.50400001928E-02 0. -1.
       -1    1    3    3    0  502  0.11371284136E+04  0.57670162524E+03  0.98854303443E+03  0.16133391226E+04  0.50400001928E-02 0.  1.
</event>
<event>
 5   0  0.8329875E-09  0.3996683E+04  0.7818609E-02  0.8005216E-01
       -1   -1    0    0    0  501  0.00000000000E+00  0.00000000000E+00  0.17425030801E+04  0.17425030801E+04  0.50400001928E-02 0. -1.
        1   -1    0    0  501    0  0.00000000000E+00  0.00000000000E+00 -0.22917421901E+04  0.22917421901E+04  0.50400001928E-02 0.  1.
    10030    2    1    2    0    0  0.00000000000E+00  0.00000000000E+00 -0.54923910996E+03  0.40342452702E+04  0.39966825369E+04 0.  0.
        1    1    3    3  502    0  0.14286578903E+04 -0.96396528611E+03 -0.12955977417E+04  0.21561228974E+04  0.50400001928E-02 0.  1.
       -1    1    3    3    0  502 -0.14286578903E+04  0.96396528611E+03  0.74635863175E+03  0.18781223729E+04  0.50400001928E-02 0. -1.
</event>
<event>
 5   0  0.2587493E-08  0.4011017E+04  0.7818609E-02  0.8002328E-01
       -2   -1    0    0    0  501  0.00000000000E+00  0.00000000000E+00  0.15717908983E+04  0.15717908983E+04  0.25500000920E-02 0. -1.
        2   -1    0    0  501    0  0.00000000000E+00  0.00000000000E+00 -0.25589058585E+04  0.25589058585E+04  0.25500000920E-02 0.  1.
    10030    2    1    2    0    0  0.00000000000E+00  0.00000000000E+00 -0.98711496015E+03  0.41306967568E+04  0.40110172965E+04 0.  0.
        5    1    3    3  502    0  0.17843699676E+04  0.16218967856E+03 -0.14214184717E+04  0.22870798489E+04  0.46999998093E+01 0.  1.
       -5    1    3    3    0  502 -0.17843699676E+04 -0.16218967856E+03  0.43430351158E+03  0.18436169080E+04  0.46999998093E+01 0. -1.
</event>
<event>
 5   0  0.8329875E-09  0.3966349E+04  0.7818609E-02  0.8011370E-01
       -1   -1    0    0    0  501  0.00000000000E+00  0.00000000000E+00  0.17267716919E+04  0.17267716919E+04  0.50400001928E-02 0. -1.
        1   -1    0    0  501    0  0.00000000000E+00  0.00000000000E+00 -0.22776500021E+04  0.22776500021E+04  0.50400001928E-02 0.  1.
    10030    2    1    2    0    0  0.00000000000E+00  0.00000000000E+00 -0.55087831016E+03  0.40044216940E+04  0.39663492270E+04 0.  0.
        2    1    3    3  502    0  0.18408401207E+04 -0.15610159960E+03 -0.10034162905E+04  0.21023568468E+04  0.25500000920E-02 0. -1.
       -2    1    3    3    0  502 -0.18408401207E+04  0.15610159960E+03  0.45253798033E+03  0.19020648472E+04  0.25500000920E-02 0.  1.
</event>
<event>
 5   0  0.2650452E-08  0.3997163E+04  0.7818609E-02  0.8005119E-01
        2   -1    0    0  501    0  0.00000000000E+00  0.00000000000E+00  0.25341624995E+04  0.25341624995E+04  0.25500000920E-02 0. -1.
       -2   -1    0    0    0  501  0.00000000000E+00  0.00000000000E+00 -0.15761929074E+04  0.15761929074E+04  0.25500000920E-02 0.  1.
    10030    2    1    2    0    0  0.00000000000E+00  0.00000000000E+00  0.95796959217E+03  0.41103554069E+04  0.39971634732E+04 0.  0.
        3    1    3    3  502    0  0.16718394394E+04 -0.99870339756E+03  0.94101138707E+03  0.21628587629E+04  0.10100000352E+00 0. -1.
       -3    1    3    3    0  502 -0.16718394394E+04  0.99870339756E+03  0.16958205094E+02  0.19474966440E+04  0.10100000352E+00 0.  1.
</event>
<event>
 5   0  0.2599332E-08  0.4053066E+04  0.7818609E-02  0.7993926E-01
        2   -1    0    0  501    0  0.00000000000E+00  0.00000000000E+00  0.22841053107E+04  0.22841053107E+04  0.25500000920E-02 0.  1.
       -2   -1    0    0    0  501  0.00000000000E+00  0.00000000000E+00 -0.17980066973E+04  0.17980066973E+04  0.25500000920E-02 0. -1.
    10030    2    1    2    0    0  0.00000000000E+00  0.00000000000E+00  0.48609861341E+03  0.40821120080E+04  0.40530663187E+04 0.  0.
        2    1    3    3  502    0 -0.16911341063E+04  0.40753356390E+03  0.12901238157E+04  0.21657418201E+04  0.25500000920E-02 0.  1.
       -2    1    3    3    0  502  0.16911341063E+04 -0.40753356390E+03 -0.80402520231E+03  0.19163701879E+04  0.25500000920E-02 0. -1.
</event>
<event>
 5   0  0.8329875E-09  0.4000253E+04  0.7818609E-02  0.8004496E-01
        1   -1    0    0  501    0  0.00000000000E+00  0.00000000000E+00  0.20831200467E+04  0.20831200467E+04  0.50400001928E-02 0.  1.
       -1   -1    0    0    0  501  0.00000000000E+00  0.00000000000E+00 -0.19204390556E+04  0.19204390556E+04  0.50400001928E-02 0. -1.
    10030    2    1    2    0    0  0.00000000000E+00  0.00000000000E+00  0.16268099118E+03  0.40035591023E+04  0.40002525396E+04 0.  0.
        2    1    3    3  502    0 -0.13694039696E+04 -0.49507542411E+03  0.14536552092E+04  0.20575423143E+04  0.25500000920E-02 0.  1.
       -2    1    3    3    0  502  0.13694039696E+04  0.49507542411E+03 -0.12909742181E+04  0.19460167880E+04  0.25500000920E-02 0. -1.
</event>
<event>
 5   0  0.2587493E-08  0.3999869E+04  0.7818609E-02  0.8004573E-01
       -2   -1    0    0    0  501  0.00000000000E+00  0.00000000000E+00  0.19178601955E+04  0.19178601955E+04  0.25500000920E-02 0. -1.
        2   -1    0    0  501    0  0.00000000000E+00  0.00000000000E+00 -0.20855211445E+04  0.20855211445E+04  0.25500000920E-02 0.  1.
    10030    2    1    2    0    0  0.00000000000E+00  0.00000000000E+00 -0.16766094894E+03  0.40033813400E+04  0.39998689928E+04 0.  0.
        5    1    3    3  502    0  0.85976034945E+03  0.41938950566E+03 -0.18416871820E+04  0.20753094184E+04  0.46999998093E+01 0.  1.
       -5    1    3    3    0  502 -0.85976034945E+03 -0.41938950566E+03  0.16740262330E+04  0.19280719216E+04  0.46999998093E+01 0. -1.
</event>
<event>
 5   0  0.2587493E-08  0.4003056E+04  0.7818609E-02  0.8003930E-01
        2   -1    0    0  501    0  0.00000000000E+00  0.00000000000E+00  0.35827286363E+04  0.35827286363E+04  0.25500000920E-02 0. -1.
       -2   -1    0    0    0  501  0.00000000000E+00  0.00000000000E+00 -0.11181741027E+04  0.11181741027E+04  0.25500000920E-02 0.  1.
    10030    2    1    2    0    0  0.00000000000E+00  0.00000000000E+00  0.24645545336E+04  0.47009027390E+04  0.40030560217E+04 0.  0.
        5    1    3    3  502    0  0.36877223626E+03  0.18587106561E+04  0.19890534191E+04  0.27472083757E+04  0.46999998093E+01 0. -1.
       -5    1    3    3    0  502 -0.36877223626E+03 -0.18587106561E+04  0.47550111444E+03  0.19536943633E+04  0.46999998093E+01 0.  1.
</event>
<event>
 5   0  0.2650452E-08  0.3997483E+04  0.7818609E-02  0.8005055E-01
       -2   -1    0    0    0  501  0.00000000000E+00  0.00000000000E+00  0.26845576820E+04  0.26845576820E+04  0.25500000920E-02 0. -1.
        2   -1    0    0  501    0  0.00000000000E+00  0.00000000000E+00 -0.14881286548E+04  0.14881286548E+04  0.25500000920E-02 0.  1.
    10030    2    1    2    0    0  0.00000000000E+00  0.00000000000E+00  0.11964290272E+04  0.41726863369E+04  0.39974828141E+04 0.  0.
        3    1    3    3  502    0  0.84263733155E+03  0.30140640452E+00  0.24900882885E+04  0.26287977211E+04  0.10100000352E+00 0. -1.
       -3    1    3    3    0  502 -0.84263733155E+03 -0.30140640452E+00 -0.12936592613E+04  0.15438886158E+04  0.10100000352E+00 0.  1.
</event>
<event>
 5   0  0.2746876E-08  0.3973466E+04  0.7818609E-02  0.8009921E-01
       -2   -1    0    0    0  501  0.00000000000E+00  0.00000000000E+00  0.34027309870E+04  0.34027309870E+04  0.25500000920E-02 0. -1.
        2   -1    0    0  501    0  0.00000000000E+00  0.00000000000E+00 -0.11599822783E+04  0.11599822783E+04  0.25500000920E-02 0.  1.
    10030    2    1    2    0    0  0.00000000000E+00  0.00000000000E+00  0.22427487087E+04  0.45627132652E+04  0.39734658134E+04 0.  0.
        1    1    3    3  502    0 -0.15689531413E+03  0.89194012232E+03  0.31519214935E+04  0.32794484936E+04  0.50400001928E-02 0. -1.
       -1    1    3    3    0  502  0.15689531413E+03 -0.89194012232E+03 -0.90917278478E+03  0.12832647716E+04  0.50400001928E-02 0.  1.
</event>
<event>
 5   0  0.8329875E-09  0.3918918E+04  0.7818609E-02  0.8021106E-01
        1   -1    0    0  501    0  0.00000000000E+00  0.00000000000E+00  0.24904719120E+04  0.24904719120E+04  0.50400001928E-02 0.  1.
       -1   -1    0    0    0  501  0.00000000000E+00  0.00000000000E+00 -0.15416677096E+04  0.15416677096E+04  0.50400001928E-02 0. -1.
    10030    2    1    2    0    0  0.00000000000E+00  0.00000000000E+00  0.94880420238E+03  0.40321396216E+04  0.39189182837E+04 0.  0.
        5    1    3    3  502    0  0.20846679949E+03 -0.17687949947E+04  0.13149272440E+04  0.22138540799E+04  0.46999998093E+01 0.  1.
       -5    1    3    3    0  502 -0.20846679949E+03  0.17687949947E+04 -0.36612304161E+03  0.18182855418E+04  0.46999998093E+01 0. -1.
</event>
<event>
 5   0  0.8329875E-09  0.4004817E+04  0.7818609E-02  0.8003575E-01
        1   -1    0    0  501    0  0.00000000000E+00  0.00000000000E+00  0.30278285966E+04  0.30278285966E+04  0.50400001928E-02 0. -1.
       -1   -1    0    0    0  501  0.00000000000E+00  0.00000000000E+00 -0.13242625627E+04  0.13242625627E+04  0.50400001928E-02 0.  1.
    10030    2    1    2    0    0  0.00000000000E+00  0.00000000000E+00  0.17035660338E+04  0.43520911593E+04  0.40048171278E+04 0.  0.
        1    1    3    3  502    0 -0.14760500516E+04  0.52513020565E+02 -0.61755677076E+03  0.16008927938E+04  0.50400001928E-02 0.  1.
       -1    1    3    3    0  502  0.14760500516E+04 -0.52513020565E+02  0.23211228046E+04  0.27511983655E+04  0.50400001928E-02 0. -1.
</event>
<event>
 5   0  0.2599332E-08  0.4004538E+04  0.7818609E-02  0.8003632E-01
       -2   -1    0    0    0  501  0.00000000000E+00  0.00000000000E+00  0.19079153238E+04  0.19079153238E+04  0.25500000920E-02 0. -1.
        2   -1    0    0  501    0  0.00000000000E+00  0.00000000000E+00 -0.21012886993E+04  0.21012886993E+04  0.25500000920E-02 0.  1.
    10030    2    1    2    0    0  0.00000000000E+00  0.00000000000E+00 -0.19337337544E+03  0.40092040231E+04  0.40045378805E+04 0.  0.
        2    1    3    3  502    0  0.90422310557E+03 -0.17856544500E+04 -0.15059801413E+03  0.20072022821E+04  0.25500000920E-02 0.  1.
       -2    1    3    3    0  502 -0.90422310557E+03  0.17856544500E+04 -0.42775361306E+02  0.20020017410E+04  0.25500000920E-02 0. -1.
</event>
<event>
 5   0  0.8329875E-09  0.3951729E+04  0.7818609E-02  0.8014356E-01
        1   -1    0    0  501    0  0.00000000000E+00  0.00000000000E+00  0.21078328019E+04  0.21078328019E+04  0.50400001928E-02 0. -1.
       -1   -1    0    0    0  501  0.00000000000E+00  0.00000000000E+00 -0.18521589485E+04  0.18521589486E+04  0.50400001928E-02 0.  1.
    10030    2    1    2    0    0  0.00000000000E+00  0.00000000000E+00  0.25567385336E+03  0.39599917505E+04  0.39517294372E+04 0.  0.
        2    1    3    3  502    0 -0.89613640788E+02  0.35131948867E+03  0.20742123799E+04  0.21056621250E+04  0.25500000920E-02 0. -1.
       -2    1    3    3    0  502  0.89613640788E+02 -0.35131948867E+03 -0.18185385265E+04  0.18543296255E+04  0.25500000920E-02 0.  1.
</event>
<event>
 5   0  0.2746876E-08  0.3991954E+04  0.7818609E-02  0.8006172E-01
       -2   -1    0    0    0  501  0.00000000000E+00  0.00000000000E+00  0.23611257010E+04  0.23611257010E+04  0.25500000920E-02 0. -1.
        2   -1    0    0  501    0  0.00000000000E+00  0.00000000000E+00 -0.16872984098E+04  0.16872984098E+04  0.25500000920E-02 0.  1.
    10030    2    1    2    0    0  0.00000000000E+00  0.00000000000E+00  0.67382729113E+03  0.40484241108E+04  0.39919537275E+04 0.  0.
        1    1    3    3  502    0 -0.28024565846E+03 -0.15338690904E+04  0.16005866798E+04  0.22345401619E+04  0.50400001928E-02 0. -1.
       -1    1    3    3    0  502  0.28024565846E+03  0.15338690904E+04 -0.92675938869E+03  0.18138839489E+04  0.50400001928E-02 0.  1.
</event>
<event>
 5   0  0.2587493E-08  0.4003055E+04  0.7818609E-02  0.8003931E-01
       -2   -1    0    0    0  501  0.00000000000E+00  0.00000000000E+00  0.25623045161E+04  0.25623045161E+04  0.25500000920E-02 0.  1.
        2   -1    0    0  501    0  0.00000000000E+00  0.00000000000E+00 -0.15634800352E+04  0.15634800352E+04  0.25500000920E-02 0. -1.
    10030    2    1    2    0    0  0.00000000000E+00  0.00000000000E+00  0.99882448086E+03  0.41257845513E+04  0.40030548111E+04 0.  0.
        5    1    3    3  502    0 -0.21689043772E+03  0.85355212144E+03  0.23518758776E+04  0.25113611687E+04  0.46999998093E+01 0.  1.
       -5    1    3    3    0  502  0.21689043772E+03 -0.85355212144E+03 -0.13530513968E+04  0.16144233826E+04  0.46999998093E+01 0. -1.
</event>
<event>
 5   0  0.8329875E-09  0.4002038E+04  0.7818609E-02  0.8004136E-01
       -1   -1    0    0    0  501  0.00000000000E+00  0.00000000000E+00  0.15203305928E+04  0.15203305928E+04  0.50400001928E-02 0.  1.
        1   -1    0    0  501    0  0.00000000000E+00  0.00000000000E+00 -0.26336883819E+04  0.26336883819E+04  0.50400001928E-02 0. -1.
    10030    2    1    2    0    0  0.00000000000E+00  0.00000000000E+00 -0.11133577891E+04  0.41540189747E+04  0.40020379903E+04 0.  0.
        5    1    3    3  502    0  0.16943929457E+04 -0.22465404027E+03  0.52332394701E+03  0.17875477436E+04  0.46999998093E+01 0.  1.
       -5    1    3    3    0  502 -0.16943929457E+04  0.22465404027E+03 -0.16366817361E+04  0.23664712311E+04  0.46999998093E+01 0. -1.
</event>
<event>
 5   0  0.8329875E-09  0.4012464E+04  0.7818609E-02  0.8002037E-01
       -1   -1    0    0    0  501  0.00000000000E+00  0.00000000000E+00  0.26604593830E+04  0.26604593830E+04  0.50400001928E-02 0.  1.
        1   -1    0    0  501    0  0.00000000000E+00  0.00000000000E+00 -0.15128840287E+04  0.15128840287E+04  0.50400001928E-02 0. -1.
    10030    2    1    2    0    0  0.00000000000E+00  0.00000000000E+00  0.11475753543E+04  0.41733434118E+04  0.40124638364E+04 0.  0.
        5    1    3    3  502    0 -0.12079315686E+04 -0.10619457987E+04  0.18210852624E+04  0.24296504227E+04  0.46999998093E+01 0.  1.
       -5    1    3    3    0  502  0.12079315686E+04  0.10619457987E+04 -0.67350990812E+03  0.17436929890E+04  0.46999998093E+01 0. -1.
</event>
<event>
 5   0  0.2746876E-08  0.3998059E+04  0.7818609E-02  0.8004938E-01
        2   -1    0    0  501    0  0.00000000000E+00  0.00000000000E+00  0.25485153495E+04  0.25485153495E+04  0.25500000920E-02 0.  1.
       -2   -1    0    0    0  501  0.00000000000E+00  0.00000000000E+00 -0.15680181013E+04  0.15680181013E+04  0.25500000920E-02 0. -1.
    10030    2    1    2    0    0  0.00000000000E+00  0.00000000000E+00  0.98049724820E+03  0.41165334507E+04  0.39980586285E+04 0.  0.
        1    1    3    3  502    0  0.13560983007E+04  0.12049724435E+04  0.13548688759E+04  0.22642064530E+04  0.50400001928E-02 0.  1.
       -1    1    3    3    0  502 -0.13560983007E+04 -0.12049724435E+04 -0.37437162767E+03  0.18523269977E+04  0.50400001928E-02 0. -1.
</event>
<event>
 5   0  0.2612363E-08  0.4001888E+04  0.7818609E-02  0.8004166E-01
       -2   -1    0    0    0  501  0.00000000000E+00  0.00000000000E+00  0.15398520838E+04  0.15398520838E+04  0.25500000920E-02 0.  1.
        2   -1    0    0  501    0  0.00000000000E+00  0.00000000000E+00 -0.26001044689E+04  0.26001044689E+04  0.25500000920E-02 0. -1.
    10030    2    1    2    0    0  0.00000000000E+00  0.00000000000E+00 -0.10602523851E+04  0.41399565527E+04  0.40018876968E+04 0.  0.
        4    1    3    3  502    0  0.17759893719E+04 -0.13000688382E+03 -0.14741527232E+04  0.23117456398E+04  0.12699999809E+01 0. -1.
       -4    1    3    3    0  502 -0.17759893719E+04  0.13000688382E+03  0.41390033812E+03  0.18282109129E+04  0.12699999809E+01 0.  1.
</event>
<event>
 5   0  0.8329875E-09  0.3998046E+04  0.7818609E-02  0.8004941E-01
        1   -1    0    0  501    0  0.00000000000E+00  0.00000000000E+00  0.14472575334E+04  0.14472575334E+04  0.50400001928E-02 0. -1.
       -1   -1    0    0    0  501  0.00000000000E+00  0.00000000000E+00 -0.27611489597E+04  0.27611489597E+04  0.50400001928E-02 0.  1.
    10030    2    1    2    0    0  0.00000000000E+00  0.00000000000E+00 -0.13138914263E+04  0.42084064931E+04  0.39980463393E+04 0.  0.
        2    1    3    3  502    0 -0.17200943446E+01 -0.14691507230E+04 -0.20838853758E+04  0.25497029367E+04  0.25500000920E-02 0.  1.
       -2    1    3    3    0  502  0.17200943446E+01  0.14691507230E+04  0.76999394952E+03  0.16587035564E+04  0.25500000920E-02 0. -1.
</event>
<event>
 5   0  0.8329875E-09  0.3997387E+04  0.7818609E-02  0.8005074E-01
       -1   -1    0    0    0  501  0.00000000000E+00  0.00000000000E+00  0.19075432914E+04  0.19075432914E+04  0.50400001928E-02 0. -1.
        1   -1    0    0  501    0  0.00000000000E+00  0.00000000000E+00 -0.20941994977E+04  0.20941994977E+04  0.50400001928E-02 0.  1.
    10030    2    1    2    0    0  0.00000000000E+00  0.00000000000E+00 -0.18665620626E+03  0.40017427892E+04  0.39973872481E+04 0.  0.
        4    1    3    3  502    0  0.60354085868E+03 -0.16425618144E+04  0.87338639522E+03  0.19557802255E+04  0.12699999809E+01 0. -1.
       -4    1    3    3    0  502 -0.60354085868E+03  0.16425618144E+04 -0.10600426015E+04  0.20459625637E+04  0.12699999809E+01 0.  1.
</event>
<event>
 5   0  0.2650452E-08  0.3998163E+04  0.7818609E-02  0.8004917E-01
       -2   -1    0    0    0  501  0.00000000000E+00  0.00000000000E+00  0.27268562085E+04  0.27268562085E+04  0.25500000920E-02 0.  1.
        2   -1    0    0  501    0  0.00000000000E+00  0.00000000000E+00 -0.14655435526E+04  0.14655435526E+04  0.25500000920E-02 0. -1.
    10030    2    1    2    0    0  0.00000000000E+00  0.00000000000E+00  0.12613126559E+04  0.41923997610E+04  0.39981628456E+04 0.  0.
        3    1    3    3  502    0  0.28290400128E+03  0.98345354967E+02 -0.14418830720E+04  0.14726619729E+04  0.10100000352E+00 0. -1.
       -3    1    3    3    0  502 -0.28290400128E+03 -0.98345354967E+02  0.27031957279E+04  0.27197377882E+04  0.10100000352E+00 0.  1.
</event>
<event>
 5   0  0.8329875E-09  0.3996429E+04  0.7818609E-02  0.8005267E-01
       -1   -1    0    0    0  501  0.00000000000E+00  0.00000000000E+00  0.14362959764E+04  0.14362959764E+04  0.50400001928E-02 0. -1.
        1   -1    0    0  501    0  0.00000000000E+00  0.00000000000E+00 -0.27799707915E+04  0.27799707915E+04  0.50400001928E-02 0.  1.
    10030    2    1    2    0    0  0.00000000000E+00  0.00000000000E+00 -0.13436748151E+04  0.42162667679E+04  0.39964288370E+04 0.  0.
        1    1    3    3  502    0  0.70010189766E+03  0.17715675138E+04 -0.35092095340E+02  0.19052101140E+04  0.50400001928E-02 0. -1.
       -1    1    3    3    0  502 -0.70010189766E+03 -0.17715675138E+04 -0.13085827197E+04  0.23110566539E+04  0.50400001928E-02 0.  1.
</event>
<event>
 5   0  0.2650452E-08  0.4006984E+04  0.7818609E-02  0.8003139E-01
        2   -1    0    0  501    0  0.00000000000E+00  0.00000000000E+00  0.17783360630E+04  0.17783360630E+04  0.25500000920E-02 0.  1.
       -2   -1    0    0    0  501  0.00000000000E+00  0.00000000000E+00 -0.22571550651E+04  0.22571550651E+04  0.25500000920E-02 0. -1.
    10030    2    1    2    0    0  0.00000000000E+00  0.00000000000E+00 -0.47881900211E+03  0.40354911282E+04  0.40069840290E+04 0.  0.
        3    1    3    3  502    0  0.19577407176E+04 -0.22187569389E+02  0.18874942959E+03  0.19669436603E+04  0.10100000352E+00 0.  1.
       -3    1    3    3    0  502 -0.19577407176E+04  0.22187569389E+02 -0.66756843170E+03  0.20685474679E+04  0.10100000352E+00 0. -1.
</event>
<event>
 5   0  0.8329875E-09  0.4001783E+04  0.7818609E-02  0.8004187E-01
        1   -1    0    0  501    0  0.00000000000E+00  0.00000000000E+00  0.15788471524E+04  0.15788471524E+04  0.50400001928E-02 0. -1.
       -1   -1    0    0    0  501  0.00000000000E+00  0.00000000000E+00 -0.25357537087E+04  0.25357537087E+04  0.50400001928E-02 0.  1.
    10030    2    1    2    0    0  0.00000000000E+00  0.00000000000E+00 -0.95690655630E+03  0.41146008611E+04  0.40017833635E+04 0.  0.
        2    1    3    3  502    0  0.82628971761E+02  0.64999544177E+03  0.14654128494E+04  0.16052278469E+04  0.25500000920E-02 0. -1.
       -2    1    3    3    0  502 -0.82628971761E+02 -0.64999544177E+03 -0.24223194057E+04  0.25093730142E+04  0.25500000920E-02 0.  1.
</event>
<event>
 5   0  0.2746876E-08  0.3989924E+04  0.7818609E-02  0.8006582E-01
        2   -1    0    0  501    0  0.00000000000E+00  0.00000000000E+00  0.21725867064E+04  0.21725867064E+04  0.25500000920E-02 0.  1.
       -2   -1    0    0    0  501  0.00000000000E+00  0.00000000000E+00 -0.18318596563E+04  0.18318596563E+04  0.25500000920E-02 0. -1.
    10030    2    1    2    0    0  0.00000000000E+00  0.00000000000E+00  0.34072705010E+03  0.40044463626E+04  0.39899242786E+04 0.  0.
        1    1    3    3  502    0  0.16906202086E+04 -0.96320397715E+03 -0.27159744352E+03  0.19646179687E+04  0.50400001928E-02 0. -1.
       -1    1    3    3    0  502 -0.16906202086E+04  0.96320397715E+03  0.61232449362E+03  0.20398283940E+04  0.50400001928E-02 0.  1.
</event>
<event>
 5   0  0.2599332E-08  0.4017500E+04  0.7818609E-02  0.8001025E-01
        2   -1    0    0  501    0  0.00000000000E+00  0.00000000000E+00  0.13279399178E+04  0.13279399178E+04  0.25500000920E-02 0. -1.
       -2   -1    0    0    0  501  0.00000000000E+00  0.00000000000E+00 -0.30385994819E+04  0.30385994819E+04  0.25500000920E-02 0.  1.
    10030    2    1    2    0    0  0.00000000000E+00  0.00000000000E+00 -0.17106595641E+04  0.43665393997E+04  0.40175004897E+04 0.  0.
        2    1    3    3  502    0  0.13365174562E+04 -0.83547659631E+03 -0.22088233286E+04  0.27135217984E+04  0.25500000920E-02 0.  1.
       -2    1    3    3    0  502 -0.13365174562E+04  0.83547659631E+03  0.49816376452E+03  0.16530176012E+04  0.25500000920E-02 0. -1.
</event>
<event>
 5   0  0.8329875E-09  0.4005546E+04  0.7818609E-02  0.8003429E-01
       -1   -1    0    0    0  501  0.00000000000E+00  0.00000000000E+00  0.24024519543E+04  0.24024519543E+04  0.50400001928E-02 0. -1.
        1   -1    0    0  501    0  0.00000000000E+00  0.00000000000E+00 -0.16695855809E+04  0.16695855809E+04  0.50400001928E-02 0.  1.
    10030    2    1    2    0    0  0.00000000000E+00  0.00000000000E+00  0.73286637343E+03  0.40720375352E+04  0.40055457264E+04 0.  0.
        4    1    3    3  502    0 -0.94522542363E+03  0.49383941653E+03 -0.13569268225E+04  0.17258564498E+04  0.12699999809E+01 0.  1.
       -4    1    3    3    0  502  0.94522542363E+03 -0.49383941653E+03  0.20897931959E+04  0.23461810854E+04  0.12699999809E+01 0. -1.
</event>
<event>
 5   0  0.2612363E-08  0.3996911E+04  0.7818609E-02  0.8005170E-01
       -2   -1    0    0    0  501  0.00000000000E+00  0.00000000000E+00  0.21025276769E+04  0.21025276769E+04  0.25500000920E-02 0.  1.
        2   -1    0    0  501    0  0.00000000000E+00  0.00000000000E+00 -0.18995344901E+04  0.18995344901E+04  0.25500000920E-02 0. -1.
    10030    2    1    2    0    0  0.00000000000E+00  0.00000000000E+00  0.20299318682E+03  0.40020621669E+04  0.39969107263E+04 0.  0.
        4    1    3    3  502    0  0.11576410202E+04  0.56662818379E+03  0.16307574266E+04  0.20785984767E+04  0.12699999809E+01 0.  1.
       -4    1    3    3    0  502 -0.11576410202E+04 -0.56662818379E+03 -0.14277642398E+04  0.19234636902E+04  0.12699999809E+01 0. -1.
</event>
<event>
 5   0  0.2587493E-08  0.3936324E+04  0.7818609E-02  0.8017517E-01
        2   -1    0    0  501    0  0.00000000000E+00  0.00000000000E+00  0.16012237118E+04  0.16012237118E+04  0.25500000920E-02 0.  1.
       -2   -1    0    0    0  501  0.00000000000E+00  0.00000000000E+00 -0.24191882149E+04  0.24191882149E+04  0.25500000920E-02 0. -1.
    10030    2    1    2    0    0  0.00000000000E+00  0.00000000000E+00 -0.81796450316E+03  0.40204119267E+04  0.39363239364E+04 0.  0.
        5    1    3    3  502    0  0.13393425890E+04 -0.13048837406E+04 -0.10361678324E+04  0.21378086945E+04  0.46999998093E+01 0. -1.
       -5    1    3    3    0  502 -0.13393425890E+04  0.13048837406E+04  0.21820332928E+03  0.18826032322E+04  0.46999998093E+01 0.  1.
</event>
<event>
 5   0  0.8329875E-09  0.4032284E+04  0.7818609E-02  0.7998065E-01
        1   -1    0    0  501    0  0.00000000000E+00  0.00000000000E+00  0.15891464874E+04  0.15891464875E+04  0.50400001928E-02 0.  1.
       -1   -1    0    0    0  501  0.00000000000E+00  0.00000000000E+00 -0.25578684225E+04  0.25578684225E+04  0.50400001928E-02 0. -1.
    10030    2    1    2    0    0  0.00000000000E+00  0.00000000000E+00 -0.96872193505E+03  0.41470149099E+04  0.40322835312E+04 0.  0.
        1    1    3    3  502    0  0.41340731990E+03 -0.19697963247E+04 -0.36343810971E+03  0.20452604804E+04  0.50400001928E-02 0. -1.
       -1    1    3    3    0  502 -0.41340731990E+03  0.19697963247E+04 -0.60528382535E+03  0.21017544296E+04  0.50400001928E-02 0.  1.
</event>
<event>
 5   0  0.2612363E-08  0.4000646E+04  0.7818609E-02  0.8004416E-01
       -2   -1    0    0    0  501  0.00000000000E+00  0.00000000000E+00  0.26608696277E+04  0.26608696277E+04  0.25500000920E-02 0.  1.
        2   -1    0    0  501    0  0.00000000000E+00  0.00000000000E+00 -0.15037532026E+04  0.15037532026E+04  0.25500000920E-02 0. -1.
    10030    2    1    2    0    0  0.00000000000E+00  0.00000000000E+00  0.11571164251E+04  0.41646228303E+04  0.40006455601E+04 0.  0.
        4    1    3    3  502    0  0.12567178151E+04 -0.97230447335E+03 -0.68639132639E+03  0.17308524841E+04  0.12699999809E+01 0. -1.
       -4    1    3    3    0  502 -0.12567178151E+04  0.97230447335E+03  0.18435077515E+04  0.24337703463E+04  0.12699999809E+01 0.  1.
</event>
<event>
 5   0  0.8329875E-09  0.3987641E+04  0.7818609E-02  0.8007044E-01
       -1   -1    0    0    0  501  0.00000000000E+00  0.00000000000E+00  0.25426615719E+04  0.25426615720E+04  0.50400001928E-02 0.  1.
        1   -1    0    0  501    0  0.00000000000E+00  0.00000000000E+00 -0.15634482624E+04  0.15634482624E+04  0.50400001928E-02 0. -1.
    10030    2    1    2    0    0  0.00000000000E+00  0.00000000000E+00  0.97921330959E+03  0.41061098343E+04  0.39876408145E+04 0.  0.
        3    1    3    3  502    0  0.53171436362E+03 -0.17360031788E+04  0.13380348031E+04  0.22553856313E+04  0.10100000352E+00 0.  1.
       -3    1    3    3    0  502 -0.53171436362E+03  0.17360031788E+04 -0.35882149348E+03  0.18507242030E+04  0.10100000352E+00 0. -1.
</event>
<event>
 5   0  0.8329875E-09  0.3994703E+04  0.7818609E-02  0.8005616E-01
       -1   -1    0    0    0  501  0.00000000000E+00  0.00000000000E+00  0.21746454512E+04  0.21746454512E+04  0.50400001928E-02 0.  1.
        1   -1    0    0  501    0  0.00000000000E+00  0.00000000000E+00 -0.18345117296E+04  0.18345117296E+04  0.50400001928E-02 0. -1.
    10030    2    1    2    0    0  0.00000000000E+00  0.00000000000E+00  0.34013372167E+03  0.40091571808E+04  0.39947027864E+04 0.  0.
        2    1    3    3  502    0 -0.18510309934E+04 -0.21491730433E+03 -0.55149735312E+03  0.19433616537E+04  0.25500000920E-02 0. -1.
       -2    1    3    3    0  502  0.18510309934E+04  0.21491730433E+03  0.89163107479E+03  0.20657955271E+04  0.25500000920E-02 0.  1.
</event>
<event>
 5   0  0.8329875E-09  0.4028581E+04  0.7818609E-02  0.7998806E-01
       -1   -1    0    0    0  501  0.00000000000E+00  0.00000000000E+00  0.29381401202E+04  0.29381401202E+04  0.50400001928E-02 0. -1.
        1   -1    0    0  501    0  0.00000000000E+00  0.00000000000E+00 -0.13809302618E+04  0.13809302618E+04  0.50400001928E-02 0.  1.
    10030    2    1    2    0    0  0.00000000000E+00  0.00000000000E+00  0.15572098584E+04  0.43190703820E+04  0.40285811921E+04 0.  0.
        2    1    3    3  502    0  0.19992945911E+04 -0.18874667203E+03  0.94662992356E+03  0.22201153980E+04  0.25500000920E-02 0. -1.
       -2    1    3    3    0  502 -0.19992945911E+04  0.18874667203E+03  0.61057993486E+03  0.20989549840E+04  0.25500000920E-02 0.  1.
</event>
<event>
 5   0  0.8329875E-09  0.4000826E+04  0.7818609E-02  0.8004380E-01
        1   -1    0    0  501    0  0.00000000000E+00  0.00000000000E+00  0.14157889046E+04  0.14157889046E+04  0.50400001928E-02 0. -1.
       -1   -1    0    0    0  501  0.00000000000E+00  0.00000000000E+00 -0.28264475153E+04  0.28264475153E+04  0.50400001928E-02 0.  1.
    10030    2    1    2    0    0  0.00000000000E+00  0.00000000000E+00 -0.14106586108E+04  0.42422364199E+04  0.40008264304E+04 0.  0.
        1    1    3    3  502    0  0.18482322064E+03  0.46108782068E+03  0.13493490673E+04  0.14378819516E+04  0.50400001928E-02 0. -1.
       -1    1    3    3    0  502 -0.18482322064E+03 -0.46108782068E+03 -0.27600076780E+04  0.28043544683E+04  0.50400001928E-02 0.  1.
</event>
<event>
 5   0  0.8329875E-09  0.3996785E+04  0.7818609E-02  0.8005195E-01
       -1   -1    0    0    0  501  0.00000000000E+00  0.00000000000E+00  0.13875845311E+04  0.13875845311E+04  0.50400001928E-02 0.  1.
        1   -1    0    0  501    0  0.00000000000E+00  0.00000000000E+00 -0.28780755031E+04  0.28780755031E+04  0.50400001928E-02 0. -1.
    10030    2    1    2    0    0  0.00000000000E+00  0.00000000000E+00 -0.14904909719E+04  0.42656600342E+04  0.39967852319E+04 0.  0.
        5    1    3    3  502    0  0.13771646938E+04 -0.62871074775E+03 -0.21374909105E+04  0.26193032052E+04  0.46999998093E+01 0. -1.
       -5    1    3    3    0  502 -0.13771646938E+04  0.62871074775E+03  0.64699993854E+03  0.16463568291E+04  0.46999998093E+01 0.  1.
</event>
<event>
 5   0  0.8329875E-09  0.4065330E+04  0.7818609E-02  0.7991495E-01
       -1   -1    0    0    0  501  0.00000000000E+00  0.00000000000E+00  0.24079033120E+04  0.24079033120E+04  0.50400001928E-02 0. -1.
        1   -1    0    0  501    0  0.00000000000E+00  0.00000000000E+00 -0.17159027347E+04  0.17159027347E+04  0.50400001928E-02 0.  1.
    10030    2    1    2    0    0  0.00000000000E+00  0.00000000000E+00  0.69200057730E+03  0.41238060468E+04  0.40653304309E+04 0.  0.
        2    1    3    3  502    0  0.16822262922E+04  0.54609237625E+03 -0.67022094796E+03  0.18913747118E+04  0.25500000920E-02 0.  1.
       -2    1    3    3    0  502 -0.16822262922E+04 -0.54609237625E+03  0.13622215253E+04  0.22324313350E+04  0.25500000920E-02 0. -1.
</event>
<event>
 5   0  0.2612363E-08  0.3997502E+04  0.7818609E-02  0.8005051E-01
        2   -1    0    0  501    0  0.00000000000E+00  0.00000000000E+00  0.20636240276E+04  0.20636240276E+04  0.25500000920E-02 0.  1.
       -2   -1    0    0    0  501  0.00000000000E+00  0.00000000000E+00 -0.19359174074E+04  0.19359174074E+04  0.25500000920E-02 0. -1.
    10030    2    1    2    0    0  0.00000000000E+00  0.00000000000E+00  0.12770662015E+03  0.39995414350E+04  0.39975020587E+04 0.  0.
        4    1    3    3  502    0  0.11796041651E+03  0.52163409551E+03 -0.18630023186E+04  0.19382456092E+04  0.12699999809E+01 0. -1.
       -4    1    3    3    0  502 -0.11796041651E+03 -0.52163409551E+03  0.19907089388E+04  0.20612958258E+04  0.12699999809E+01 0.  1.
</event>
<event>
 5   0  0.2612363E-08  0.4001327E+04  0.7818609E-02  0.8004279E-01
        2   -1    0    0  501    0  0.00000000000E+00  0.00000000000E+00  0.20646241430E+04  0.20646241430E+04  0.25500000920E-02 0.  1.
       -2   -1    0    0    0  501  0.00000000000E+00  0.00000000000E+00 -0.19386839307E+04  0.19386839307E+04  0.25500000920E-02 0. -1.
    10030    2    1    2    0    0  0.00000000000E+00  0.00000000000E+00  0.12594021232E+03  0.40033080737E+04  0.40013266045E+04 0.  0.
        4    1    3    3  502    0  0.76443676413E+03 -0.11519900629E+04 -0.13838467524E+04  0.19561385734E+04  0.12699999809E+01 0. -1.
       -4    1    3    3    0  502 -0.76443676413E+03  0.11519900629E+04  0.15097869647E+04  0.20471695003E+04  0.12699999809E+01 0.  1.
</event>
<event>
 5   0  0.2746876E-08  0.3995115E+04  0.7818609E-02  0.8005533E-01
       -2   -1    0    0    0  501  0.00000000000E+00  0.00000000000E+00  0.20670626963E+04  0.20670626963E+04  0.25500000920E-02 0.  1.
        2   -1    0    0  501    0  0.00000000000E+00  0.00000000000E+00 -0.19303890027E+04  0.19303890027E+04  0.25500000920E-02 0. -1.
    10030    2    1    2    0    0  0.00000000000E+00  0.00000000000E+00  0.13667369364E+03  0.39974516990E+04  0.39951145650E+04 0.  0.
        1    1    3    3  502    0 -0.94636112958E+03 -0.11124436423E+04  0.14318904001E+04  0.20453460252E+04  0.50400001928E-02 0.  1.
       -1    1    3    3    0  502  0.94636112958E+03  0.11124436423E+04 -0.12952167065E+04  0.19521056738E+04  0.50400001928E-02 0. -1.
</event>
<event>
 5   0  0.8329875E-09  0.3983421E+04  0.7818609E-02  0.8007899E-01
        1   -1    0    0  501    0  0.00000000000E+00  0.00000000000E+00  0.20089634880E+04  0.20089634880E+04  0.50400001928E-02 0. -1.
       -1   -1    0    0    0  501  0.00000000000E+00  0.00000000000E+00 -0.19746057230E+04  0.19746057230E+04  0.50400001928E-02 0.  1.
    10030    2    1    2    0    0  0.00000000000E+00  0.00000000000E+00  0.34357764992E+02  0.39835692110E+04  0.39834210426E+04 0.  0.
        4    1    3    3  502    0 -0.40387176518E+03 -0.18895636415E+04 -0.46589811899E+03  0.19876181294E+04  0.12699999809E+01 0. -1.
       -4    1    3    3    0  502  0.40387176518E+03  0.18895636415E+04  0.50025588399E+03  0.19959510816E+04  0.12699999809E+01 0.  1.
</event>
<event>
 5   0  0.8329875E-09  0.4082345E+04  0.7818609E-02  0.7988138E-01
        1   -1    0    0  501    0  0.00000000000E+00  0.00000000000E+00  0.16952227165E+04  0.16952227165E+04  0.50400001928E-02 0. -1.
       -1   -1    0    0    0  501  0.00000000000E+00  0.00000000000E+00 -0.24577212201E+04  0.24577212201E+04  0.50400001928E-02 0.  1.
    10030    2    1    2    0    0  0.00000000000E+00  0.00000000000E+00 -0.76249850355E+03  0.41529439366E+04  0.40823448375E+04 0.  0.
        4    1    3    3  502    0  0.14758308068E+04 -0.62855048802E+03  0.90281202052E+03  0.18407127542E+04  0.12699999809E+01 0. -1.
       -4    1    3    3    0  502 -0.14758308068E+04  0.62855048802E+03 -0.16653105241E+04  0.23122311824E+04  0.12699999809E+01 0.  1.
</event>
<event>
 5   0  0.2587493E-08  0.3995085E+04  0.7818609E-02  0.8005539E-01
       -2   -1    0    0    0  501  0.00000000000E+00  0.00000000000E+00  0.25149811621E+04  0.25149811621E+04  0.25500000920E-02 0. -1.
        2   -1    0    0  501    0  0.00000000000E+00  0.00000000000E+00 -0.15865631062E+04  0.15865631062E+04  0.25500000920E-02 0.  1.
    10030    2    1    2    0    0  0.00000000000E+00  0.00000000000E+00  0.92841805587E+03  0.41015442683E+04  0.39950851429E+04 0.  0.
        5    1    3    3  502    0  0.95670067229E+03  0.16044550716E+04  0.11905953304E+04  0.22151956085E+04  0.46999998093E+01 0. -1.
       -5    1    3    3    0  502 -0.95670067229E+03 -0.16044550716E+04 -0.26217727455E+03  0.18863486598E+04  0.46999998093E+01 0.  1.
</event>
<event>
 5   0  0.8329875E-09  0.3999583E+04  0.7818609E-02  0.8004631E-01
        1   -1    0    0  501    0  0.00000000000E+00  0.00000000000E+00  0.17248151399E+04  0.17248151399E+04  0.50400001928E-02 0.  1.
       -1   -1    0    0    0  501  0.00000000000E+00  0.00000000000E+00 -0.23186052668E+04  0.23186052668E+04  0.50400001928E-02 0. -1.
    10030    2    1    2    0    0  0.00000000000E+00  0.00000000000E+00 -0.59379012687E+03  0.40434204067E+04  0.39995827120E+04 0.  0.
        5    1    3    3  502    0  0.17954816324E+04 -0.52388246581E+03 -0.10124211059E+04  0.21267876518E+04  0.46999998093E+01 0. -1.
       -5    1    3    3    0  502 -0.17954816324E+04  0.52388246581E+03  0.41863097899E+03  0.19166327548E+04  0.46999998093E+01 0.  1.
</event>
<event>
 5   0  0.2599332E-08  0.4023270E+04  0.7818609E-02  0.7999869E-01
        2   -1    0    0  501    0  0.00000000000E+00  0.00000000000E+00  0.23513673604E+04  0.23513673604E+04  0.25500000920E-02 0.  1.
       -2   -1    0    0    0  501  0.00000000000E+00  0.00000000000E+00 -0.17209877490E+04  0.17209877490E+04  0.25500000920E-02 0. -1.
    10030    2    1    2    0    0  0.00000000000E+00  0.00000000000E+00  0.63037961133E+03  0.40723551094E+04  0.40232695265E+04 0.  0.
        2    1    3    3  502    0 -0.15311529541E+04  0.86690105835E+03 -0.67175886444E+03  0.18834029802E+04  0.25500000920E-02 0. -1.
       -2    1    3    3    0  502  0.15311529541E+04 -0.86690105835E+03  0.13021384758E+04  0.21889521292E+04  0.25500000920E-02 0.  1.
</event>
<event>
 5   0  0.8329875E-09  0.4011234E+04  0.7818609E-02  0.8002284E-01
        1   -1    0    0  501    0  0.00000000000E+00  0.00000000000E+00  0.25604177219E+04  0.25604177219E+04  0.50400001928E-02 0. -1.
       -1   -1    0    0    0  501  0.00000000000E+00  0.00000000000E+00 -0.15710323024E+04  0.15710323024E+04  0.50400001928E-02 0.  1.
    10030    2    1    2    0    0  0.00000000000E+00  0.00000000000E+00  0.98938541944E+03  0.41314500243E+04  0.40112336999E+04 0.  0.
        3    1    3    3  502    0 -0.19256495217E+04 -0.52442648544E+03  0.69900540759E+03  0.21146531132E+04  0.10100000352E+00 0. -1.
       -3    1    3    3    0  502  0.19256495217E+04  0.52442648544E+03  0.29038001185E+03  0.20167969111E+04  0.10100000352E+00 0.  1.
</event>
<event>
 5   0  0.2650452E-08  0.4033797E+04  0.7818609E-02  0.7997763E-01
       -2   -1    0    0    0  501  0.00000000000E+00  0.00000000000E+00  0.23666041501E+04  0.23666041501E+04  0.25500000920E-02 0.  1.
        2   -1    0    0  501    0  0.00000000000E+00  0.00000000000E+00 -0.17188673300E+04  0.17188673300E+04  0.25500000920E-02 0. -1.
    10030    2    1    2    0    0  0.00000000000E+00  0.00000000000E+00  0.64773682018E+03  0.40854714801E+04  0.40337965029E+04 0.  0.
        3    1    3    3  502    0  0.95240677979E+03 -0.15112173606E+04 -0.62462306587E+03  0.18923558254E+04  0.10100000352E+00 0. -1.
       -3    1    3    3    0  502 -0.95240677979E+03  0.15112173606E+04  0.12723598860E+04  0.21931156547E+04  0.10100000352E+00 0.  1.
</event>
<event>
 5   0  0.2612363E-08  0.3980972E+04  0.7818609E-02  0.8008396E-01
        2   -1    0    0  501    0  0.00000000000E+00  0.00000000000E+00  0.14699958349E+04  0.14699958349E+04  0.25500000920E-02 0. -1.
       -2   -1    0    0    0  501  0.00000000000E+00  0.00000000000E+00 -0.26952688049E+04  0.26952688049E+04  0.25500000920E-02 0.  1.
    10030    2    1    2    0    0  0.00000000000E+00  0.00000000000E+00 -0.12252729700E+04  0.41652646398E+04  0.39809716990E+04 0.  0.
        4    1    3    3  502    0  0.38536430871E+02 -0.18168058158E+04 -0.14624972417E+04  0.23326311804E+04  0.12699999809E+01 0.  1.
       -4    1    3    3    0  502 -0.38536430871E+02  0.18168058158E+04  0.23722427167E+03  0.18326334594E+04  0.12699999809E+01 0. -1.
</event>
<event>
 5   0  0.2612363E-08  0.4001452E+04  0.7818609E-02  0.8004254E-01
       -2   -1    0    0    0  501  0.00000000000E+00  0.00000000000E+00  0.19485549613E+04  0.19485549613E+04  0.25500000920E-02 0. -1.
        2   -1    0    0  501    0  0.00000000000E+00  0.00000000000E+00 -0.20542940994E+04  0.20542940994E+04  0.25500000920E-02 0.  1.
    10030    2    1    2    0    0  0.00000000000E+00  0.00000000000E+00 -0.10573913806E+03  0.40028490607E+04  0.40014522161E+04 0.  0.
        4    1    3    3  502    0  0.17201307727E+04  0.65835827664E+03  0.72882361874E+03  0.19807753471E+04  0.12699999809E+01 0. -1.
       -4    1    3    3    0  502 -0.17201307727E+04 -0.65835827664E+03 -0.83456275681E+03  0.20220737136E+04  0.12699999809E+01 0.  1.
</event>
<event>
 5   0  0.8329875E-09  0.3992423E+04  0.7818609E-02  0.8006077E-01
       -1   -1    0    0    0  501  0.00000000000E+00  0.00000000000E+00  0.17471836548E+04  0.17471836548E+04  0.50400001928E-02 0.  1.
        1   -1    0    0  501    0  0.00000000000E+00  0.00000000000E+00 -0.22807339674E+04  0.22807339674E+04  0.50400001928E-02 0. -1.
    10030    2    1    2    0    0  0.00000000000E+00  0.00000000000E+00 -0.53355031263E+03  0.40279176222E+04  0.39924233788E+04 0.  0.
        2    1    3    3  502    0  0.16728881328E+04  0.63494886843E+03  0.62604801043E+03  0.18956927182E+04  0.25500000920E-02 0.  1.
       -2    1    3    3    0  502 -0.16728881328E+04 -0.63494886843E+03 -0.11595983231E+04  0.21322249040E+04  0.25500000920E-02 0. -1.
</event>
<event>
 5   0  0.2746876E-08  0.3998708E+04  0.7818609E-02  0.8004807E-01
        2   -1    0    0  501    0  0.00000000000E+00  0.00000000000E+00  0.24904496852E+04  0.24904496852E+04  0.25500000920E-02 0.  1.
       -2   -1    0    0    0  501  0.00000000000E+00  0.00000000000E+00 -0.16050984987E+04  0.16050984987E+04  0.25500000920E-02 0. -1.
    10030    2    1    2    0    0  0.00000000000E+00  0.00000000000E+00  0.88535118646E+03  0.40955481838E+04  0.39987083168E+04 0.  0.
        1    1    3    3  502    0  0.19093309082E+04 -0.35065343166E+03  0.93271291692E+03  0.21537074387E+04  0.50400001928E-02 0. -1.
       -1    1    3    3    0  502 -0.19093309082E+04  0.35065343166E+03 -0.47361730458E+02  0.19418407452E+04  0.50400001928E-02 0.  1.
</event>
<event>
 5   0  0.8329875E-09  0.4005504E+04  0.7818609E-02  0.8003437E-01
        1   -1    0    0  501    0  0.00000000000E+00  0.00000000000E+00  0.24290788091E+04  0.24290788091E+04  0.50400001928E-02 0.  1.
       -1   -1    0    0    0  501  0.00000000000E+00  0.00000000000E+00 -0.16512494521E+04  0.16512494521E+04  0.50400001928E-02 0. -1.
    10030    2    1    2    0    0  0.00000000000E+00  0.00000000000E+00  0.77782935700E+03  0.40803282611E+04  0.40055037398E+04 0.  0.
        1    1    3    3  502    0  0.14105534891E+04  0.11306760728E+04 -0.48911784243E+03  0.18727855700E+04  0.50400001928E-02 0. -1.
       -1    1    3    3    0  502 -0.14105534891E+04 -0.11306760728E+04  0.12669471994E+04  0.22075426912E+04  0.50400001928E-02 0.  1.
</event>
<event>
 5   0  0.8329875E-09  0.3945506E+04  0.7818609E-02  0.8015631E-01
       -3   -1    0    0    0  501  0.00000000000E+00  0.00000000000E+00  0.17931216831E+04  0.17931216859E+04  0.10100000352E+00 0.  1.
        3   -1    0    0  501    0  0.00000000000E+00  0.00000000000E+00 -0.21703790698E+04  0.21703790721E+04  0.10100000352E+00 0. -1.
    10030    2    1    2    0    0  0.00000000000E+00  0.00000000000E+00 -0.37725738667E+03  0.39635007580E+04  0.39455056866E+04 0.  0.
        4    1    3    3  502    0 -0.11434152883E+04 -0.14244038646E+04 -0.93729773338E+03  0.20530108487E+04  0.12699999809E+01 0. -1.
       -4    1    3    3    0  502  0.11434152883E+04  0.14244038646E+04  0.56004034671E+03  0.19104899093E+04  0.12699999809E+01 0.  1.
</event>
<event>
 5   0  0.2746876E-08  0.4001588E+04  0.7818609E-02  0.8004226E-01
       -2   -1    0    0    0  501  0.00000000000E+00  0.00000000000E+00  0.18264741172E+04  0.18264741172E+04  0.25500000920E-02 0.  1.
        2   -1    0    0  501    0  0.00000000000E+00  0.00000000000E+00 -0.21917511021E+04  0.21917511021E+04  0.25500000920E-02 0. -1.
    10030    2    1    2    0    0  0.00000000000E+00  0.00000000000E+00 -0.36527698490E+03  0.40182252194E+04  0.40015880145E+04 0.  0.
        1    1    3    3  502    0 -0.14930170888E+04  0.10704803653E+04  0.61321483636E+03  0.19367655190E+04  0.50400001928E-02 0.  1.
       -1    1    3    3    0  502  0.14930170888E+04 -0.10704803653E+04 -0.97849182126E+03  0.20814597004E+04  0.50400001928E-02 0. -1.
</event>
<event>
 5   0  0.8329875E-09  0.4009756E+04  0.7818609E-02  0.8002581E-01
        1   -1    0    0  501    0  0.00000000000E+00  0.00000000000E+00  0.17467841415E+04  0.17467841415E+04  0.50400001928E-02 0.  1.
       -1   -1    0    0    0  501  0.00000000000E+00  0.00000000000E+00 -0.23011064665E+04  0.23011064665E+04  0.50400001928E-02 0. -1.
    10030    2    1    2    0    0  0.00000000000E+00  0.00000000000E+00 -0.55432232503E+03  0.40478906080E+04  0.40097562437E+04 0.  0.
        5    1    3    3  502    0 -0.19244091495E+04 -0.56220213529E+03 -0.28686391002E+03  0.20252740083E+04  0.46999998093E+01 0. -1.
       -5    1    3    3    0  502  0.19244091495E+04  0.56220213529E+03 -0.26745841502E+03  0.20226165997E+04  0.46999998093E+01 0.  1.
</event>
<event>
 5   0  0.8329875E-09  0.4001184E+04  0.7818609E-02  0.8004308E-01
        1   -1    0    0  501    0  0.00000000000E+00  0.00000000000E+00  0.29604187732E+04  0.29604187732E+04  0.50400001928E-02 0.  1.
       -1   -1    0    0    0  501  0.00000000000E+00  0.00000000000E+00 -0.13519602033E+04  0.13519602033E+04  0.50400001928E-02 0. -1.
    10030    2    1    2    0    0  0.00000000000E+00  0.00000000000E+00  0.16084585699E+04  0.43123789765E+04  0.40011840080E+04 0.  0.
        5    1    3    3  502    0  0.39951674239E+03  0.19226667870E+04  0.39229179327E+03  0.20025424196E+04  0.46999998093E+01 0. -1.
       -5    1    3    3    0  502 -0.39951674239E+03 -0.19226667870E+04  0.12161667766E+04  0.23098365569E+04  0.46999998093E+01 0.  1.
</event>
<event>
 5   0  0.8329875E-09  0.4001869E+04  0.7818609E-02  0.8004170E-01
       -1   -1    0    0    0  501  0.00000000000E+00  0.00000000000E+00  0.25275229288E+04  0.25275229288E+04  0.50400001928E-02 0. -1.
        1   -1    0    0  501    0  0.00000000000E+00  0.00000000000E+00 -0.15840563375E+04  0.15840563375E+04  0.50400001928E-02 0.  1.
    10030    2    1    2    0    0  0.00000000000E+00  0.00000000000E+00  0.94346659129E+03  0.41115792663E+04  0.40018689201E+04 0.  0.
        4    1    3    3  502    0 -0.36335919939E+03  0.17666082270E+04 -0.41850993882E+03  0.18515093079E+04  0.12699999809E+01 0. -1.
       -4    1    3    3    0  502  0.36335919939E+03 -0.17666082270E+04  0.13619765301E+04  0.22600699584E+04  0.12699999809E+01 0.  1.
</event>
<event>
 5   0  0.2587493E-08  0.3998736E+04  0.7818609E-02  0.8004802E-01
        2   -1    0    0  501    0  0.00000000000E+00  0.00000000000E+00  0.11382164070E+04  0.11382164070E+04  0.25500000920E-02 0.  1.
       -2   -1    0    0    0  501  0.00000000000E+00  0.00000000000E+00 -0.35120492121E+04  0.35120492121E+04  0.25500000920E-02 0. -1.
    10030    2    1    2    0    0  0.00000000000E+00  0.00000000000E+00 -0.23738328051E+04  0.46502656191E+04  0.39987358179E+04 0.  0.
        5    1    3    3  502    0  0.13001758190E+04  0.15127736874E+04 -0.13451290920E+04  0.24058960397E+04  0.46999998093E+01 0. -1.
       -5    1    3    3    0  502 -0.13001758190E+04 -0.15127736874E+04 -0.10287037131E+04  0.22443695794E+04  0.46999998093E+01 0.  1.
</event>
<event>
 5   0  0.2746876E-08  0.3993328E+04  0.7818609E-02  0.8005894E-01
       -2   -1    0    0    0  501  0.00000000000E+00  0.00000000000E+00  0.23706785414E+04  0.23706785414E+04  0.25500000920E-02 0.  1.
        2   -1    0    0  501    0  0.00000000000E+00  0.00000000000E+00 -0.16816562783E+04  0.16816562783E+04  0.25500000920E-02 0. -1.
    10030    2    1    2    0    0  0.00000000000E+00  0.00000000000E+00  0.68902226306E+03  0.40523348197E+04  0.39933276615E+04 0.  0.
        1    1    3    3  502    0  0.15950177367E+04 -0.10442016745E+04 -0.25774627574E+03  0.19237650221E+04  0.50400001928E-02 0. -1.
       -1    1    3    3    0  502 -0.15950177367E+04  0.10442016745E+04  0.94676853879E+03  0.21285697976E+04  0.50400001928E-02 0.  1.
</event>
<event>
 5   0  0.8329875E-09  0.3961443E+04  0.7818609E-02  0.8012370E-01
        1   -1    0    0  501    0  0.00000000000E+00  0.00000000000E+00  0.15821844061E+04  0.15821844061E+04  0.50400001928E-02 0.  1.
       -1   -1    0    0    0  501  0.00000000000E+00  0.00000000000E+00 -0.24796458396E+04  0.24796458396E+04  0.50400001928E-02 0. -1.
    10030    2    1    2    0    0  0.00000000000E+00  0.00000000000E+00 -0.89746143353E+03  0.40618302457E+04  0.39614426564E+04 0.  0.
        2    1    3    3  502    0  0.11732987801E+02 -0.19358378122E+04 -0.19002316150E+02  0.19359666284E+04  0.25500000920E-02 0.  1.
       -2    1    3    3    0  502 -0.11732987801E+02  0.19358378122E+04 -0.87845911738E+03  0.21258636173E+04  0.25500000920E-02 0. -1.
</event>
<event>
 5   0  0.8329875E-09  0.3993159E+04  0.7818609E-02  0.8005928E-01
        1   -1    0    0  501    0  0.00000000000E+00  0.00000000000E+00  0.16144539955E+04  0.16144539955E+04  0.50400001928E-02 0. -1.
       -1   -1    0    0    0  501  0.00000000000E+00  0.00000000000E+00 -0.24691500678E+04  0.24691500678E+04  0.50400001928E-02 0.  1.
    10030    2    1    2    0    0  0.00000000000E+00  0.00000000000E+00 -0.85469607236E+03  0.40836040633E+04  0.39931587459E+04 0.  0.
        5    1    3    3  502    0  0.17615633621E+04  0.11776640654E+03 -0.13808466344E+04  0.22413687610E+04  0.46999998093E+01 0. -1.
       -5    1    3    3    0  502 -0.17615633621E+04 -0.11776640654E+03  0.52615056204E+03  0.18422353023E+04  0.46999998093E+01 0.  1.
</event>
<event>
 5   0  0.2650452E-08  0.3998728E+04  0.7818609E-02  0.8004803E-01
        2   -1    0    0  501    0  0.00000000000E+00  0.00000000000E+00  0.18894802403E+04  0.18894802403E+04  0.25500000920E-02 0. -1.
       -2   -1    0    0    0  501  0.00000000000E+00  0.00000000000E+00 -0.21156383048E+04  0.21156383048E+04  0.25500000920E-02 0.  1.
    10030    2    1    2    0    0  0.00000000000E+00  0.00000000000E+00 -0.22615806448E+03  0.40051185451E+04  0.39987281841E+04 0.  0.
        3    1    3    3  502    0  0.89416160639E+03  0.14170841804E+04  0.97944561134E+03  0.19408674010E+04  0.10100000352E+00 0. -1.
       -3    1    3    3    0  502 -0.89416160639E+03 -0.14170841804E+04 -0.12056036758E+04  0.20642511441E+04  0.10100000352E+00 0.  1.
</event>
<event>
 5   0  0.2746876E-08  0.4004708E+04  0.7818609E-02  0.8003598E-01
        2   -1    0    0  501    0  0.00000000000E+00  0.00000000000E+00  0.21420342693E+04  0.21420342693E+04  0.25500000920E-02 0.  1.
       -2   -1    0    0    0  501  0.00000000000E+00  0.00000000000E+00 -0.18717820165E+04  0.18717820165E+04  0.25500000920E-02 0. -1.
    10030    2    1    2    0    0  0.00000000000E+00  0.00000000000E+00  0.27025225281E+03  0.40138162858E+04  0.40047078415E+04 0.  0.
        1    1    3    3  502    0 -0.16534138164E+04 -0.10086925576E+04 -0.37414696057E+03  0.19726185319E+04  0.50400001928E-02 0. -1.
       -1    1    3    3    0  502  0.16534138164E+04  0.10086925576E+04  0.64439921338E+03  0.20411977539E+04  0.50400001928E-02 0.  1.
</event>
<event>
 5   0  0.8329875E-09  0.4003564E+04  0.7818609E-02  0.8003828E-01
       -1   -1    0    0    0  501  0.00000000000E+00  0.00000000000E+00  0.17647929873E+04  0.17647929874E+04  0.50400001928E-02 0. -1.
        1   -1    0    0  501    0  0.00000000000E+00  0.00000000000E+00 -0.22705954650E+04  0.22705954650E+04  0.50400001928E-02 0.  1.
    10030    2    1    2    0    0  0.00000000000E+00  0.00000000000E+00 -0.50580247770E+03  0.40353884524E+04  0.40035638892E+04 0.  0.
        2    1    3    3  502    0 -0.10409638954E+04  0.21842374970E+03  0.14564021179E+04  0.18034472254E+04  0.25500000920E-02 0. -1.
       -2    1    3    3    0  502  0.10409638954E+04 -0.21842374970E+03 -0.19622045956E+04  0.22319412270E+04  0.25500000920E-02 0.  1.
</event>
<event>
 5   0  0.8329875E-09  0.4001901E+04  0.7818609E-02  0.8004163E-01
       -1   -1    0    0    0  501  0.00000000000E+00  0.00000000000E+00  0.12820791265E+04  0.12820791265E+04  0.50400001928E-02 0. -1.
        1   -1    0    0  501    0  0.00000000000E+00  0.00000000000E+00 -0.31228990967E+04  0.31228990967E+04  0.50400001928E-02 0.  1.
    10030    2    1    2    0    0  0.00000000000E+00  0.00000000000E+00 -0.18408199702E+04  0.44049782232E+04  0.40019014211E+04 0.  0.
        5    1    3    3  502    0 -0.18362902364E+03 -0.14347235721E+04  0.60146624238E+03  0.15665040943E+04  0.46999998093E+01 0. -1.
       -5    1    3    3    0  502  0.18362902364E+03  0.14347235721E+04 -0.24422862125E+04  0.28384741289E+04  0.46999998093E+01 0.  1.
</event>
<event>
 5   0  0.8329875E-09  0.3995236E+04  0.7818609E-02  0.8005508E-01
        1   -1    0    0  501    0  0.00000000000E+00  0.00000000000E+00  0.16219748128E+04  0.16219748128E+04  0.50400001928E-02 0. -1.
       -1   -1    0    0    0  501  0.00000000000E+00  0.00000000000E+00 -0.24602582083E+04  0.24602582083E+04  0.50400001928E-02 0.  1.
    10030    2    1    2    0    0  0.00000000000E+00  0.00000000000E+00 -0.83828339547E+03  0.40822330212E+04  0.39952355860E+04 0.  0.
        2    1    3    3  502    0  0.23633575613E+03  0.69163740329E+03 -0.23187261142E+04  0.24311947022E+04  0.25500000920E-02 0.  1.
       -2    1    3    3    0  502 -0.23633575613E+03 -0.69163740329E+03  0.14804427187E+04  0.16510383190E+04  0.25500000920E-02 0. -1.
</event>
<event>
 5   0  0.8329875E-09  0.3982366E+04  0.7818609E-02  0.8008113E-01
        3   -1    0    0  501    0  0.00000000000E+00  0.00000000000E+00  0.19577117655E+04  0.19577117681E+04  0.10100000352E+00 0.  1.
       -3   -1    0    0    0  501  0.00000000000E+00  0.00000000000E+00 -0.20252266781E+04  0.20252266806E+04  0.10100000352E+00 0. -1.
    10030    2    1    2    0    0  0.00000000000E+00  0.00000000000E+00 -0.67514912673E+02  0.39829384487E+04  0.39823661839E+04 0.  0.
        4    1    3    3  502    0  0.16652196160E+04 -0.29346877743E+03  0.10179297635E+04  0.19736420418E+04  0.12699999809E+01 0.  1.
       -4    1    3    3    0  502 -0.16652196160E+04  0.29346877743E+03 -0.10854446762E+04  0.20092964069E+04  0.12699999809E+01 0. -1.
</event>
<event>
 5   0  0.8329875E-09  0.3963919E+04  0.7818609E-02  0.8011865E-01
        1   -1    0    0  501    0  0.00000000000E+00  0.00000000000E+00  0.29654236551E+04  0.29654236551E+04  0.50400001928E-02 0. -1.
       -1   -1    0    0    0  501  0.00000000000E+00  0.00000000000E+00 -0.13246550563E+04  0.13246550564E+04  0.50400001928E-02 0.  1.
    10030    2    1    2    0    0  0.00000000000E+00  0.00000000000E+00  0.16407685987E+04  0.42900787114E+04  0.39639189895E+04 0.  0.
        2    1    3    3  502    0  0.17327285514E+04  0.90873996056E+03  0.11626437522E+04  0.22759387169E+04  0.25500000920E-02 0. -1.
       -2    1    3    3    0  502 -0.17327285514E+04 -0.90873996056E+03  0.47812484650E+03  0.20141399945E+04  0.25500000920E-02 0.  1.
</event>
<event>
 5   0  0.2650452E-08  0.3997055E+04  0.7818609E-02  0.8005141E-01
       -2   -1    0    0    0  501  0.00000000000E+00  0.00000000000E+00  0.29137851246E+04  0.29137851246E+04  0.25500000920E-02 0. -1.
        2   -1    0    0  501    0  0.00000000000E+00  0.00000000000E+00 -0.13707642875E+04  0.13707642875E+04  0.25500000920E-02 0.  1.
    10030    2    1    2    0    0  0.00000000000E+00  0.00000000000E+00  0.15430208371E+04  0.42845494122E+04  0.39970552112E+04 0.  0.
        3    1    3    3  502    0 -0.13504347117E+04 -0.46669627791E+03  0.22693846488E+04  0.26817132622E+04  0.10100000352E+00 0. -1.
       -3    1    3    3    0  502  0.13504347117E+04  0.46669627791E+03 -0.72636381170E+03  0.16028361500E+04  0.10100000352E+00 0.  1.
</event>
<event>
 5   0  0.2599332E-08  0.3991485E+04  0.7818609E-02  0.8006267E-01
        2   -1    0    0  501    0  0.00000000000E+00  0.00000000000E+00  0.27577188223E+04  0.27577188223E+04  0.25500000920E-02 0. -1.
       -2   -1    0    0    0  501  0.00000000000E+00  0.00000000000E+00 -0.14443050492E+04  0.14443050492E+04  0.25500000920E-02 0.  1.
    10030    2    1    2    0    0  0.00000000000E+00  0.00000000000E+00  0.13134137731E+04  0.42020238715E+04  0.39914845455E+04 0.  0.
        2    1    3    3  502    0 -0.19383191140E+03 -0.12972009969E+04  0.22402730244E+04  0.25959823689E+04  0.25500000920E-02 0. -1.
       -2    1    3    3    0  502  0.19383191140E+03  0.12972009969E+04 -0.92685925123E+03  0.16060415025E+04  0.25500000920E-02 0.  1.
</event>
<event>
 5   0  0.2746876E-08  0.4000616E+04  0.7818609E-02  0.8004422E-01
       -2   -1    0    0    0  501  0.00000000000E+00  0.00000000000E+00  0.15925118373E+04  0.15925118373E+04  0.25500000920E-02 0. -1.
        2   -1    0    0  501    0  0.00000000000E+00  0.00000000000E+00 -0.25125290745E+04  0.25125290745E+04  0.25500000920E-02 0.  1.
    10030    2    1    2    0    0  0.00000000000E+00  0.00000000000E+00 -0.92001723722E+03  0.41050409119E+04  0.40006160990E+04 0.  0.
        1    1    3    3  502    0 -0.12090260620E+04 -0.14876392749E+04 -0.10462513030E+04  0.21839085192E+04  0.50400001928E-02 0.  1.
       -1    1    3    3    0  502  0.12090260620E+04  0.14876392749E+04  0.12623406579E+03  0.19211323927E+04  0.50400001928E-02 0. -1.
</event>
<event>
 5   0  0.8329875E-09  0.4004771E+04  0.7818609E-02  0.8003585E-01
        1   -1    0    0  501    0  0.00000000000E+00  0.00000000000E+00  0.23395928647E+04  0.23395928647E+04  0.50400001928E-02 0. -1.
       -1   -1    0    0    0  501  0.00000000000E+00  0.00000000000E+00 -0.17137804939E+04  0.17137804939E+04  0.50400001928E-02 0.  1.
    10030    2    1    2    0    0  0.00000000000E+00  0.00000000000E+00  0.62581237081E+03  0.40533733586E+04  0.40047714618E+04 0.  0.
        2    1    3    3  502    0  0.10024037802E+04 -0.62551433434E+03 -0.13233352616E+04  0.17740624948E+04  0.25500000920E-02 0.  1.
       -2    1    3    3    0  502 -0.10024037802E+04  0.62551433434E+03  0.19491476324E+04  0.22793108638E+04  0.25500000920E-02 0. -1.
</event>
<event>
 5   0  0.2612363E-08  0.3994736E+04  0.7818609E-02  0.8005609E-01
        2   -1    0    0  501    0  0.00000000000E+00  0.00000000000E+00  0.15573560642E+04  0.15573560642E+04  0.25500000920E-02 0.  1.
       -2   -1    0    0    0  501  0.00000000000E+00  0.00000000000E+00 -0.25616993237E+04  0.25616993237E+04  0.25500000920E-02 0. -1.
    10030    2    1    2    0    0  0.00000000000E+00  0.00000000000E+00 -0.10043432595E+04  0.41190553879E+04  0.39947355238E+04 0.  0.
        4    1    3    3  502    0  0.18911152234E+04 -0.24468732111E+03 -0.11150493767E+04  0.22089647799E+04  0.12699999809E+01 0. -1.
       -4    1    3    3    0  502 -0.18911152234E+04  0.24468732111E+03  0.11070611718E+03  0.19100906080E+04  0.12699999809E+01 0.  1.
</event>
<event>
 5   0  0.8329875E-09  0.4018806E+04  0.7818609E-02  0.8000764E-01
       -1   -1    0    0    0  501  0.00000000000E+00  0.00000000000E+00  0.20465122177E+04  0.20465122177E+04  0.50400001928E-02 0.  1.
        1   -1    0    0  501    0  0.00000000000E+00  0.00000000000E+00 -0.19729666583E+04  0.19729666583E+04  0.50400001928E-02 0. -1.
    10030    2    1    2    0    0  0.00000000000E+00  0.00000000000E+00  0.73545559402E+02  0.40194788760E+04  0.40188059776E+04 0.  0.
        1    1    3    3  502    0 -0.11680285456E+04 -0.10245716750E+04 -0.12376707617E+04  0.19864205785E+04  0.50400001928E-02 0. -1.
       -1    1    3    3    0  502  0.11680285456E+04  0.10245716750E+04  0.13112163211E+04  0.20330582975E+04  0.50400001928E-02 0.  1.
</event>
<event>
 5   0  0.8329875E-09  0.4008562E+04  0.7818609E-02  0.8002821E-01
       -1   -1    0    0    0  501  0.00000000000E+00  0.00000000000E+00  0.18212936066E+04  0.18212936066E+04  0.50400001928E-02 0. -1.
        1   -1    0    0  501    0  0.00000000000E+00  0.00000000000E+00 -0.22056538361E+04  0.22056538361E+04  0.50400001928E-02 0.  1.
    10030    2    1    2    0    0  0.00000000000E+00  0.00000000000E+00 -0.38436022949E+03  0.40269474427E+04  0.40085624506E+04 0.  0.
        4    1    3    3  502    0 -0.19135172373E+03 -0.12678606300E+04  0.13553576663E+04  0.18657658148E+04  0.12699999809E+01 0. -1.
       -4    1    3    3    0  502  0.19135172373E+03  0.12678606300E+04 -0.17397178957E+04  0.21611816279E+04  0.12699999809E+01 0.  1.
</event>
<event>
 5   0  0.2650452E-08  0.3884341E+04  0.7818609E-02  0.8028294E-01
       -2   -1    0    0    0  501  0.00000000000E+00  0.00000000000E+00  0.20959751996E+04  0.20959751996E+04  0.25500000920E-02 0.  1.
        2   -1    0    0  501    0  0.00000000000E+00  0.00000000000E+00 -0.17996520175E+04  0.17996520175E+04  0.25500000920E-02 0. -1.
    10030    2    1    2    0    0  0.00000000000E+00  0.00000000000E+00  0.29632318214E+03  0.38956272171E+04  0.38843408689E+04 0.  0.
        3    1    3    3  502    0 -0.60291721858E+03 -0.15431057838E+04 -0.86836195371E+03  0.18704911455E+04  0.10100000352E+00 0. -1.
       -3    1    3    3    0  502  0.60291721858E+03  0.15431057838E+04  0.11646851359E+04  0.20251360716E+04  0.10100000352E+00 0.  1.
</event>
<event>
 5   0  0.8329875E-09  0.4056177E+04  0.7818609E-02  0.7993309E-01
       -1   -1    0    0    0  501  0.00000000000E+00  0.00000000000E+00  0.17940032915E+04  0.17940032916E+04  0.50400001928E-02 0.  1.
        1   -1    0    0  501    0  0.00000000000E+00  0.00000000000E+00 -0.22927177998E+04  0.22927177998E+04  0.50400001928E-02 0. -1.
    10030    2    1    2    0    0  0.00000000000E+00  0.00000000000E+00 -0.49871450825E+03  0.40867210914E+04  0.40561771556E+04 0.  0.
        5    1    3    3  502    0  0.89337008350E+03  0.30341167182E+02  0.15848156192E+04  0.18195310741E+04  0.46999998093E+01 0.  1.
       -5    1    3    3    0  502 -0.89337008350E+03 -0.30341167182E+02 -0.20835301275E+04  0.22671900173E+04  0.46999998093E+01 0. -1.
</event>
<event>
 5   0  0.2650452E-08  0.3996398E+04  0.7818609E-02  0.8005274E-01
        2   -1    0    0  501    0  0.00000000000E+00  0.00000000000E+00  0.13862468159E+04  0.13862468159E+04  0.25500000920E-02 0.  1.
       -2   -1    0    0    0  501  0.00000000000E+00  0.00000000000E+00 -0.28802943481E+04  0.28802943481E+04  0.25500000920E-02 0. -1.
    10030    2    1    2    0    0  0.00000000000E+00  0.00000000000E+00 -0.14940475322E+04  0.42665411640E+04  0.39963978125E+04 0.  0.
        3    1    3    3  502    0  0.57690803964E+03  0.12947834210E+04 -0.22505971487E+04  0.26597884369E+04  0.10100000352E+00 0. -1.
       -3    1    3    3    0  502 -0.57690803964E+03 -0.12947834210E+04  0.75654961650E+03  0.16067527271E+04  0.10100000352E+00 0.  1.
</event>
<event>
 5   0  0.8329875E-09  0.3944811E+04  0.7818609E-02  0.8015773E-01
        1   -1    0    0  501    0  0.00000000000E+00  0.00000000000E+00  0.26943090413E+04  0.26943090413E+04  0.50400001928E-02 0. -1.
       -1   -1    0    0    0  501  0.00000000000E+00  0.00000000000E+00 -0.14439264579E+04  0.14439264579E+04  0.50400001928E-02 0.  1.
    10030    2    1    2    0    0  0.00000000000E+00  0.00000000000E+00  0.12503825834E+04  0.41382354991E+04  0.39448113315E+04 0.  0.
        4    1    3    3  502    0 -0.96382152769E+03  0.31589622476E+03 -0.11493923508E+04  0.15329209865E+04  0.12699999809E+01 0.  1.
       -4    1    3    3    0  502  0.96382152769E+03 -0.31589622476E+03  0.23997749342E+04  0.26053145126E+04  0.12699999809E+01 0. -1.
</event>
<event>
 5   0  0.8329875E-09  0.4019029E+04  0.7818609E-02  0.8000719E-01
        3   -1    0    0  501    0  0.00000000000E+00  0.00000000000E+00  0.20988964405E+04  0.20988964429E+04  0.10100000352E+00 0. -1.
       -3   -1    0    0    0  501  0.00000000000E+00  0.00000000000E+00 -0.19239390555E+04  0.19239390581E+04  0.10100000352E+00 0.  1.
    10030    2    1    2    0    0  0.00000000000E+00  0.00000000000E+00  0.17495738500E+03  0.40228355011E+04  0.40190291592E+04 0.  0.
        4    1    3    3  502    0 -0.10077399161E+04  0.81296273555E+03 -0.14507588180E+04  0.19445181688E+04  0.12699999809E+01 0.  1.
       -4    1    3    3    0  502  0.10077399161E+04 -0.81296273555E+03  0.16257162030E+04  0.20783173323E+04  0.12699999809E+01 0. -1.
</event>
<event>
 5   0  0.2587493E-08  0.4000667E+04  0.7818609E-02  0.8004412E-01
       -2   -1    0    0    0  501  0.00000000000E+00  0.00000000000E+00  0.30953935589E+04  0.30953935589E+04  0.25500000920E-02 0. -1.
        2   -1    0    0  501    0  0.00000000000E+00  0.00000000000E+00 -0.12926735107E+04  0.12926735107E+04  0.25500000920E-02 0.  1.
    10030    2    1    2    0    0  0.00000000000E+00  0.00000000000E+00  0.18027200482E+04  0.43880670695E+04  0.40006665738E+04 0.  0.
        5    1    3    3  502    0 -0.82145562867E+03 -0.15028111213E+04 -0.23219577510E+03  0.17283424383E+04  0.46999998093E+01 0.  1.
       -5    1    3    3    0  502  0.82145562867E+03  0.15028111213E+04  0.20349158233E+04  0.26597246312E+04  0.46999998093E+01 0. -1.
</event>
<event>
 5   0  0.8329875E-09  0.4001597E+04  0.7818609E-02  0.8004224E-01
       -1   -1    0    0    0  501  0.00000000000E+00  0.00000000000E+00  0.11817436027E+04  0.11817436027E+04  0.50400001928E-02 0.  1.
        1   -1    0    0  501    0  0.00000000000E+00  0.00000000000E+00 -0.33875321716E+04  0.33875321716E+04  0.50400001928E-02 0. -1.
    10030    2    1    2    0    0  0.00000000000E+00  0.00000000000E+00 -0.22057885689E+04  0.45692757743E+04  0.40015969176E+04 0.  0.
        1    1    3    3  502    0 -0.41173367996E+03 -0.32640951460E+03 -0.33073486218E+04  0.33488240773E+04  0.50400001928E-02 0. -1.
       -1    1    3    3    0  502  0.41173367996E+03  0.32640951460E+03  0.11015600529E+04  0.12204516970E+04  0.50400001928E-02 0.  1.
</event>
<event>
 5   0  0.2587493E-08  0.4012716E+04  0.7818609E-02  0.8001986E-01
        2   -1    0    0  501    0  0.00000000000E+00  0.00000000000E+00  0.25175955411E+04  0.25175955411E+04  0.25500000920E-02 0.  1.
       -2   -1    0    0    0  501  0.00000000000E+00  0.00000000000E+00 -0.15989349473E+04  0.15989349473E+04  0.25500000920E-02 0. -1.
    10030    2    1    2    0    0  0.00000000000E+00  0.00000000000E+00  0.91866059386E+03  0.41165304884E+04  0.40127155363E+04 0.  0.
        5    1    3    3  502    0  0.36271534922E+03  0.18613073461E+04 -0.21292630990E+03  0.19082419041E+04  0.46999998093E+01 0. -1.
       -5    1    3    3    0  502 -0.36271534922E+03 -0.18613073461E+04  0.11315869038E+04  0.22082885844E+04  0.46999998093E+01 0.  1.
</event>
<event>
 5   0  0.8329875E-09  0.4013854E+04  0.7818609E-02  0.8001758E-01
        1   -1    0    0  501    0  0.00000000000E+00  0.00000000000E+00  0.27330149873E+04  0.27330149873E+04  0.50400001928E-02 0. -1.
       -1   -1    0    0    0  501  0.00000000000E+00  0.00000000000E+00 -0.14737406407E+04  0.14737406407E+04  0.50400001928E-02 0.  1.
    10030    2    1    2    0    0  0.00000000000E+00  0.00000000000E+00  0.12592743466E+04  0.42067556280E+04  0.40138536388E+04 0.  0.
        2    1    3    3  502    0  0.18361217264E+04 -0.48150178316E+03 -0.53266632542E+02  0.18989534738E+04  0.25500000920E-02 0. -1.
       -2    1    3    3    0  502 -0.18361217264E+04  0.48150178316E+03  0.13125409791E+04  0.23078021543E+04  0.25500000920E-02 0.  1.
</event>
<event>
 5   0  0.8329875E-09  0.3996089E+04  0.7818609E-02  0.8005336E-01
        1   -1    0    0  501    0  0.00000000000E+00  0.00000000000E+00  0.20260621044E+04  0.20260621044E+04  0.50400001928E-02 0.  1.
       -1   -1    0    0    0  501  0.00000000000E+00  0.00000000000E+00 -0.19704141393E+04  0.19704141393E+04  0.50400001928E-02 0. -1.
    10030    2    1    2    0    0  0.00000000000E+00  0.00000000000E+00  0.55647965148E+02  0.39964762437E+04  0.39960887966E+04 0.  0.
        3    1    3    3  502    0  0.36794657382E+03  0.15598717222E+04 -0.11654375160E+04  0.19816228412E+04  0.10100000352E+00 0. -1.
       -3    1    3    3    0  502 -0.36794657382E+03 -0.15598717222E+04  0.12210854811E+04  0.20148534025E+04  0.10100000352E+00 0.  1.
</event>
<event>
 5   0  0.8329875E-09  0.4000129E+04  0.7818609E-02  0.8004520E-01
        1   -1    0    0  501    0  0.00000000000E+00  0.00000000000E+00  0.17177867062E+04  0.17177867062E+04  0.50400001928E-02 0. -1.
       -1   -1    0    0    0  501  0.00000000000E+00  0.00000000000E+00 -0.23287284384E+04  0.23287284384E+04  0.50400001928E-02 0.  1.
    10030    2    1    2    0    0  0.00000000000E+00  0.00000000000E+00 -0.61094173220E+03  0.40465151447E+04  0.40001293749E+04 0.  0.
        5    1    3    3  502    0 -0.17983708802E+04  0.31839903681E+03 -0.11302293612E+04  0.21477793808E+04  0.46999998093E+01 0. -1.
       -5    1    3    3    0  502  0.17983708802E+04 -0.31839903681E+03  0.51928762900E+03  0.18987357639E+04  0.46999998093E+01 0.  1.
</event>
<event>
 5   0  0.2599332E-08  0.4006293E+04  0.7818609E-02  0.8003278E-01
       -2   -1    0    0    0  501  0.00000000000E+00  0.00000000000E+00  0.12051257632E+04  0.12051257632E+04  0.25500000920E-02 0. -1.
        2   -1    0    0  501    0  0.00000000000E+00  0.00000000000E+00 -0.33296068412E+04  0.33296068412E+04  0.25500000920E-02 0.  1.
    10030    2    1    2    0    0  0.00000000000E+00  0.00000000000E+00 -0.21244810779E+04  0.45347326044E+04  0.40062925433E+04 0.  0.
        2    1    3    3  502    0  0.14323817798E+04  0.11329106252E+04 -0.13064217753E+03  0.18309209230E+04  0.25500000920E-02 0. -1.
       -2    1    3    3    0  502 -0.14323817798E+04 -0.11329106252E+04 -0.19938389004E+04  0.27038116814E+04  0.25500000920E-02 0.  1.
</event>
<event>
 5   0  0.2746876E-08  0.4000386E+04  0.7818609E-02  0.8004469E-01
       -2   -1    0    0    0  501  0.00000000000E+00  0.00000000000E+00  0.13922693401E+04  0.13922693401E+04  0.25500000920E-02 0.  1.
        2   -1    0    0  501    0  0.00000000000E+00  0.00000000000E+00 -0.28735614981E+04  0.28735614981E+04  0.25500000920E-02 0. -1.
    10030    2    1    2    0    0  0.00000000000E+00  0.00000000000E+00 -0.14812921580E+04  0.42658308382E+04  0.40003857667E+04 0.  0.
        1    1    3    3  502    0  0.39191063549E+03 -0.23848356198E+03  0.13354083383E+04  0.14120140883E+04  0.50400001928E-02 0.  1.
       -1    1    3    3    0  502 -0.39191063549E+03  0.23848356198E+03 -0.28167004963E+04  0.28538167498E+04  0.50400001928E-02 0. -1.
</event>
<event>
 5   0  0.8329875E-09  0.4006932E+04  0.7818609E-02  0.8003150E-01
        1   -1    0    0  501    0  0.00000000000E+00  0.00000000000E+00  0.24106651200E+04  0.24106651200E+04  0.50400001928E-02 0. -1.
       -1   -1    0    0    0  501  0.00000000000E+00  0.00000000000E+00 -0.16650493813E+04  0.16650493813E+04  0.50400001928E-02 0.  1.
    10030    2    1    2    0    0  0.00000000000E+00  0.00000000000E+00  0.74561573865E+03  0.40757145013E+04  0.40069322264E+04 0.  0.
        1    1    3    3  502    0 -0.71251106831E+02  0.18974735591E+04 -0.27721905945E+03  0.19189406022E+04  0.50400001928E-02 0.  1.
       -1    1    3    3    0  502  0.71251106831E+02 -0.18974735591E+04  0.10228347981E+04  0.21567738991E+04  0.50400001928E-02 0. -1.
</event>
<event>
 5   0  0.8329875E-09  0.3999330E+04  0.7818609E-02  0.8004682E-01
        1   -1    0    0  501    0  0.00000000000E+00  0.00000000000E+00  0.26593203875E+04  0.26593203876E+04  0.50400001928E-02 0.  1.
       -1   -1    0    0    0  501  0.00000000000E+00  0.00000000000E+00 -0.15036400816E+04  0.15036400816E+04  0.50400001928E-02 0. -1.
    10030    2    1    2    0    0  0.00000000000E+00  0.00000000000E+00  0.11556803060E+04  0.41629604691E+04  0.39993303062E+04 0.  0.
        3    1    3    3  502    0  0.12703983356E+04 -0.10740799594E+04 -0.57710632560E+03  0.17608553068E+04  0.10100000352E+00 0. -1.
       -3    1    3    3    0  502 -0.12703983356E+04  0.10740799594E+04  0.17327866316E+04  0.24021051623E+04  0.10100000352E+00 0.  1.
</event>
<event>
 5   0  0.8329875E-09  0.4009086E+04  0.7818609E-02  0.8002716E-01
        1   -1    0    0  501    0  0.00000000000E+00  0.00000000000E+00  0.18039209933E+04  0.18039209933E+04  0.50400001928E-02 0. -1.
       -1   -1    0    0    0  501  0.00000000000E+00  0.00000000000E+00 -0.22274770939E+04  0.22274770939E+04  0.50400001928E-02 0.  1.
    10030    2    1    2    0    0  0.00000000000E+00  0.00000000000E+00 -0.42355610067E+03  0.40313980872E+04  0.40090860264E+04 0.  0.
        3    1    3    3  502    0 -0.78042127791E+03 -0.52426060454E+03 -0.19920224588E+04  0.22027392127E+04  0.10100000352E+00 0.  1.
       -3    1    3    3    0  502  0.78042127791E+03  0.52426060454E+03  0.15684663581E+04  0.18286588745E+04  0.10100000352E+00 0. -1.
</event>
<event>
 5   0  0.8329875E-09  0.4003655E+04  0.7818609E-02  0.8003810E-01
        1   -1    0    0  501    0  0.00000000000E+00  0.00000000000E+00  0.21518115534E+04  0.21518115534E+04  0.50400001928E-02 0. -1.
       -1   -1    0    0    0  501  0.00000000000E+00  0.00000000000E+00 -0.18622978556E+04  0.18622978556E+04  0.50400001928E-02 0.  1.
    10030    2    1    2    0    0  0.00000000000E+00  0.00000000000E+00  0.28951369774E+03  0.40141094090E+04  0.40036553506E+04 0.  0.
        4    1    3    3  502    0 -0.12884257318E+04 -0.14200720849E+04 -0.43178102298E+03  0.19654724769E+04  0.12699999809E+01 0. -1.
       -4    1    3    3    0  502  0.12884257318E+04  0.14200720849E+04  0.72129472072E+03  0.20486369321E+04  0.12699999809E+01 0.  1.
</event>
<event>
 5   0  0.2746876E-08  0.3976855E+04  0.7818609E-02  0.8009232E-01
       -2   -1    0    0    0  501  0.00000000000E+00  0.00000000000E+00  0.14682457783E+04  0.14682457783E+04  0.25500000920E-02 0. -1.
        2   -1    0    0  501    0  0.00000000000E+00  0.00000000000E+00 -0.26929035412E+04  0.26929035413E+04  0.25500000920E-02 0.  1.
    10030    2    1    2    0    0  0.00000000000E+00  0.00000000000E+00 -0.12246577629E+04  0.41611493196E+04  0.39768551675E+04 0.  0.
        1    1    3    3  502    0  0.13230330114E+04 -0.47039581186E+03 -0.20854634033E+04  0.25141293077E+04  0.50400001928E-02 0.  1.
       -1    1    3    3    0  502 -0.13230330114E+04  0.47039581186E+03  0.86080564034E+03  0.16470200119E+04  0.50400001928E-02 0. -1.
</event>
<event>
 5   0  0.2650452E-08  0.4000634E+04  0.7818609E-02  0.8004419E-01
       -2   -1    0    0    0  501  0.00000000000E+00  0.00000000000E+00  0.17839748066E+04  0.17839748066E+04  0.25500000920E-02 0. -1.
        2   -1    0    0  501    0  0.00000000000E+00  0.00000000000E+00 -0.22428946779E+04  0.22428946779E+04  0.25500000920E-02 0.  1.
    10030    2    1    2    0    0  0.00000000000E+00  0.00000000000E+00 -0.45891987130E+03  0.40268694844E+04  0.40006337493E+04 0.  0.
        3    1    3    3  502    0  0.34591463377E+03 -0.18893772411E+03 -0.22034206183E+04  0.22383960393E+04  0.10100000352E+00 0.  1.
       -3    1    3    3    0  502 -0.34591463377E+03  0.18893772411E+03  0.17445007470E+04  0.17884734451E+04  0.10100000352E+00 0. -1.
</event>
<event>
 5   0  0.8329875E-09  0.3993042E+04  0.7818609E-02  0.8005952E-01
        1   -1    0    0  501    0  0.00000000000E+00  0.00000000000E+00  0.16963015321E+04  0.16963015321E+04  0.50400001928E-02 0. -1.
       -1   -1    0    0    0  501  0.00000000000E+00  0.00000000000E+00 -0.23498749762E+04  0.23498749762E+04  0.50400001928E-02 0.  1.
    10030    2    1    2    0    0  0.00000000000E+00  0.00000000000E+00 -0.65357344412E+03  0.40461765083E+04  0.39930422099E+04 0.  0.
        3    1    3    3  502    0 -0.13405314016E+04 -0.14225418665E+04  0.85377217941E+02  0.19565119678E+04  0.10100000352E+00 0. -1.
       -3    1    3    3    0  502  0.13405314016E+04  0.14225418665E+04 -0.73895066206E+03  0.20896645405E+04  0.10100000352E+00 0.  1.
</event>
<event>
 5   0  0.2612363E-08  0.4000620E+04  0.7818609E-02  0.8004422E-01
        2   -1    0    0  501    0  0.00000000000E+00  0.00000000000E+00  0.23315046664E+04  0.23315046664E+04  0.25500000920E-02 0.  1.
       -2   -1    0    0    0  501  0.00000000000E+00  0.00000000000E+00 -0.17161617961E+04  0.17161617961E+04  0.25500000920E-02 0. -1.
    10030    2    1    2    0    0  0.00000000000E+00  0.00000000000E+00  0.61534287030E+03  0.40476664626E+04  0.40006195701E+04 0.  0.
        4    1    3    3  502    0  0.66528064945E+03  0.91339482969E+03 -0.13622992492E+04  0.17699574330E+04  0.12699999809E+01 0. -1.
       -4    1    3    3    0  502 -0.66528064945E+03 -0.91339482969E+03  0.19776421195E+04  0.22777090295E+04  0.12699999809E+01 0.  1.
</event>
<event>
 5   0  0.8329875E-09  0.4002961E+04  0.7818609E-02  0.8003949E-01
        1   -1    0    0  501    0  0.00000000000E+00  0.00000000000E+00  0.17311702914E+04  0.17311702914E+04  0.50400001928E-02 0.  1.
       -1   -1    0    0    0  501  0.00000000000E+00  0.00000000000E+00 -0.23139978499E+04  0.23139978500E+04  0.50400001928E-02 0. -1.
    10030    2    1    2    0    0  0.00000000000E+00  0.00000000000E+00 -0.58282755854E+03  0.40451681414E+04  0.40029610701E+04 0.  0.
        3    1    3    3  502    0  0.14114245697E+04  0.20625795148E+03  0.11274067372E+04  0.18181605044E+04  0.10100000352E+00 0.  1.
       -3    1    3    3    0  502 -0.14114245697E+04 -0.20625795148E+03 -0.17102342958E+04  0.22270076370E+04  0.10100000352E+00 0. -1.
</event>
<event>
 5   0  0.8329875E-09  0.3998336E+04  0.7818609E-02  0.8004882E-01
        1   -1    0    0  501    0  0.00000000000E+00  0.00000000000E+00  0.17847199693E+04  0.17847199694E+04  0.50400001928E-02 0.  1.
       -1   -1    0    0    0  501  0.00000000000E+00  0.00000000000E+00 -0.22393839012E+04  0.22393839012E+04  0.50400001928E-02 0. -1.
    10030    2    1    2    0    0  0.00000000000E+00  0.00000000000E+00 -0.45466393186E+03  0.40241038706E+04  0.39983362378E+04 0.  0.
        3    1    3    3  502    0  0.57683174751E+03  0.28089975263E+03  0.16782888391E+04  0.17967451053E+04  0.10100000352E+00 0.  1.
       -3    1    3    3    0  502 -0.57683174751E+03 -0.28089975263E+03 -0.21329527709E+04  0.22273587653E+04  0.10100000352E+00 0. -1.
</event>
<event>
 5   0  0.2650452E-08  0.4016608E+04  0.7818609E-02  0.8001205E-01
        2   -1    0    0  501    0  0.00000000000E+00  0.00000000000E+00  0.24657864953E+04  0.24657864953E+04  0.25500000920E-02 0.  1.
       -2   -1    0    0    0  501  0.00000000000E+00  0.00000000000E+00 -0.16356989509E+04  0.16356989509E+04  0.25500000920E-02 0. -1.
    10030    2    1    2    0    0  0.00000000000E+00  0.00000000000E+00  0.83008754448E+03  0.41014854462E+04  0.40166077147E+04 0.  0.
        3    1    3    3  502    0 -0.18723261772E+04  0.54579046669E+03 -0.74452112230E+02  0.19516750945E+04  0.10100000352E+00 0.  1.
       -3    1    3    3    0  502  0.18723261772E+04 -0.54579046669E+03  0.90453965671E+03  0.21498103517E+04  0.10100000352E+00 0. -1.
</event>
<event>
 5   0  0.8329875E-09  0.3999642E+04  0.7818609E-02  0.8004619E-01
        1   -1    0    0  501    0  0.00000000000E+00  0.00000000000E+00  0.22633119742E+04  0.22633119742E+04  0.50400001928E-02 0.  1.
       -1   -1    0    0    0  501  0.00000000000E+00  0.00000000000E+00 -0.17670049802E+04  0.17670049802E+04  0.50400001928E-02 0. -1.
    10030    2    1    2    0    0  0.00000000000E+00  0.00000000000E+00  0.49630699396E+03  0.40303169544E+04  0.39996417490E+04 0.  0.
        4    1    3    3  502    0  0.19101057744E+04 -0.58416612463E+03  0.34651250042E+03  0.20272707408E+04  0.12699999809E+01 0.  1.
       -4    1    3    3    0  502 -0.19101057744E+04  0.58416612463E+03  0.14979449354E+03  0.20030462136E+04  0.12699999809E+01 0. -1.
</event>
<event>
 5   0  0.8329875E-09  0.4000469E+04  0.7818609E-02  0.8004452E-01
       -1   -1    0    0    0  501  0.00000000000E+00  0.00000000000E+00  0.19065919355E+04  0.19065919355E+04  0.50400001928E-02 0. -1.
        1   -1    0    0  501    0  0.00000000000E+00  0.00000000000E+00 -0.20984765268E+04  0.20984765268E+04  0.50400001928E-02 0.  1.
    10030    2    1    2    0    0  0.00000000000E+00  0.00000000000E+00 -0.19188459133E+03  0.40050684624E+04  0.40004691840E+04 0.  0.
        3    1    3    3  502    0  0.16868540593E+04  0.50947869795E+03  0.85166227672E+03  0.19571340794E+04  0.10100000352E+00 0. -1.
       -3    1    3    3    0  502 -0.16868540593E+04 -0.50947869795E+03 -0.10435468681E+04  0.20479343830E+04  0.10100000352E+00 0.  1.
</event>
<event>
 5   0  0.2599332E-08  0.3992440E+04  0.7818609E-02  0.8006073E-01
       -2   -1    0    0    0  501  0.00000000000E+00  0.00000000000E+00  0.26905594315E+04  0.26905594315E+04  0.25500000920E-02 0.  1.
        2   -1    0    0  501    0  0.00000000000E+00  0.00000000000E+00 -0.14810650178E+04  0.14810650178E+04  0.25500000920E-02 0. -1.
    10030    2    1    2    0    0  0.00000000000E+00  0.00000000000E+00  0.12094944136E+04  0.41716244493E+04  0.39924395811E+04 0.  0.
        2    1    3    3  502    0 -0.17654848563E+04 -0.91534824855E+03  0.78601000257E+03  0.21383664134E+04  0.25500000920E-02 0. -1.
       -2    1    3    3    0  502  0.17654848563E+04  0.91534824855E+03  0.42348441108E+03  0.20332580358E+04  0.25500000920E-02 0.  1.
</event>
<event>
 5   0  0.8329875E-09  0.4001332E+04  0.7818609E-02  0.8004278E-01
       -1   -1    0    0    0  501  0.00000000000E+00  0.00000000000E+00  0.24415863212E+04  0.24415863212E+04  0.50400001928E-02 0. -1.
        1   -1    0    0  501    0  0.00000000000E+00  0.00000000000E+00 -0.16393702311E+04  0.16393702311E+04  0.50400001928E-02 0.  1.
    10030    2    1    2    0    0  0.00000000000E+00  0.00000000000E+00  0.80221609007E+03  0.40809565524E+04  0.40013317442E+04 0.  0.
        1    1    3    3  502    0 -0.41248908956E+03 -0.10099210856E+04  0.21115547679E+04  0.23767102024E+04  0.50400001928E-02 0. -1.
       -1    1    3    3    0  502  0.41248908956E+03  0.10099210856E+04 -0.13093386778E+04  0.17042463500E+04  0.50400001928E-02 0.  1.
</event>
<event>
 5   0  0.2746876E-08  0.3990951E+04  0.7818609E-02  0.8006375E-01
       -2   -1    0    0    0  501  0.00000000000E+00  0.00000000000E+00  0.19059189737E+04  0.19059189737E+04  0.25500000920E-02 0. -1.
        2   -1    0    0  501    0  0.00000000000E+00  0.00000000000E+00 -0.20892397864E+04  0.20892397864E+04  0.25500000920E-02 0.  1.
    10030    2    1    2    0    0  0.00000000000E+00  0.00000000000E+00 -0.18332081267E+03  0.39951587601E+04  0.39909506384E+04 0.  0.
        1    1    3    3  502    0  0.83124576721E+03 -0.11141154455E+04  0.13415261647E+04  0.19318165549E+04  0.50400001928E-02 0.  1.
       -1    1    3    3    0  502 -0.83124576721E+03  0.11141154455E+04 -0.15248469773E+04  0.20633422052E+04  0.50400001928E-02 0. -1.
</event>
<event>
 5   0  0.8329875E-09  0.4006096E+04  0.7818609E-02  0.8003318E-01
        1   -1    0    0  501    0  0.00000000000E+00  0.00000000000E+00  0.23167848006E+04  0.23167848006E+04  0.50400001928E-02 0.  1.
       -1   -1    0    0    0  501  0.00000000000E+00  0.00000000000E+00 -0.17317968654E+04  0.17317968654E+04  0.50400001928E-02 0. -1.
    10030    2    1    2    0    0  0.00000000000E+00  0.00000000000E+00  0.58498793516E+03  0.40485816660E+04  0.40060956830E+04 0.  0.
        2    1    3    3  502    0  0.56972494530E+03 -0.11666412037E+03  0.22295910026E+04  0.23041859884E+04  0.25500000920E-02 0.  1.
       -2    1    3    3    0  502 -0.56972494530E+03  0.11666412037E+03 -0.16446030675E+04  0.17443956775E+04  0.25500000920E-02 0. -1.
</event>
<event>
 5   0  0.8329875E-09  0.3969598E+04  0.7818609E-02  0.8010708E-01
       -1   -1    0    0    0  501  0.00000000000E+00  0.00000000000E+00  0.30523368577E+04  0.30523368577E+04  0.50400001928E-02 0. -1.
        1   -1    0    0  501    0  0.00000000000E+00  0.00000000000E+00 -0.12906266919E+04  0.12906266919E+04  0.50400001928E-02 0.  1.
    10030    2    1    2    0    0  0.00000000000E+00  0.00000000000E+00  0.17617101658E+04  0.43429635496E+04  0.39695981767E+04 0.  0.
        4    1    3    3  502    0 -0.17336920923E+04  0.90055147654E+03  0.49755334282E+03  0.20159965711E+04  0.12699999809E+01 0. -1.
       -4    1    3    3    0  502  0.17336920923E+04 -0.90055147654E+03  0.12641568230E+04  0.23269669785E+04  0.12699999809E+01 0.  1.
</event>
<event>
 5   0  0.2650452E-08  0.3999914E+04  0.7818609E-02  0.8004564E-01
       -2   -1    0    0    0  501  0.00000000000E+00  0.00000000000E+00  0.28969073517E+04  0.28969073517E+04  0.25500000920E-02 0. -1.
        2   -1    0    0  501    0  0.00000000000E+00  0.00000000000E+00 -0.13807232638E+04  0.13807232638E+04  0.25500000920E-02 0.  1.
    10030    2    1    2    0    0  0.00000000000E+00  0.00000000000E+00  0.15161840879E+04  0.42776306155E+04  0.39999136858E+04 0.  0.
        3    1    3    3  502    0 -0.13503136660E+04 -0.88020554750E+03  0.20242359576E+04  0.25875934813E+04  0.10100000352E+00 0. -1.
       -3    1    3    3    0  502  0.13503136660E+04  0.88020554750E+03 -0.50805186968E+03  0.16900371342E+04  0.10100000352E+00 0.  1.
</event>
<event>
 5   0  0.8329875E-09  0.3985757E+04  0.7818609E-02  0.8007426E-01
       -1   -1    0    0    0  501  0.00000000000E+00  0.00000000000E+00  0.12668485927E+04  0.12668485927E+04  0.50400001928E-02 0. -1.
        1   -1    0    0  501    0  0.00000000000E+00  0.00000000000E+00 -0.31349948546E+04  0.31349948546E+04  0.50400001928E-02 0.  1.
    10030    2    1    2    0    0  0.00000000000E+00  0.00000000000E+00 -0.18681462618E+04  0.44018434473E+04  0.39857565504E+04 0.  0.
        3    1    3    3  502    0 -0.17352067930E+04  0.79521603750E+03 -0.30132926472E+03  0.19323846658E+04  0.10100000352E+00 0.  1.
       -3    1    3    3    0  502  0.17352067930E+04 -0.79521603750E+03 -0.15668169971E+04  0.24694587815E+04  0.10100000352E+00 0. -1.
</event>
<event>
 5   0  0.2599332E-08  0.3999142E+04  0.7818609E-02  0.8004720E-01
        2   -1    0    0  501    0  0.00000000000E+00  0.00000000000E+00  0.19116798153E+04  0.19116798153E+04  0.25500000920E-02 0. -1.
       -2   -1    0    0    0  501  0.00000000000E+00  0.00000000000E+00 -0.20915027909E+04  0.20915027909E+04  0.25500000920E-02 0.  1.
    10030    2    1    2    0    0  0.00000000000E+00  0.00000000000E+00 -0.17982297560E+03  0.40031826061E+04  0.39991417423E+04 0.  0.
        2    1    3    3  502    0  0.14622899955E+04 -0.12696315687E+04  0.40861514196E+03  0.19791974852E+04  0.25500000920E-02 0.  1.
       -2    1    3    3    0  502 -0.14622899955E+04  0.12696315687E+04 -0.58843811755E+03  0.20239851209E+04  0.25500000920E-02 0. -1.
</event>
<event>
 5   0  0.2650452E-08  0.3997998E+04  0.7818609E-02  0.8004951E-01
       -2   -1    0    0    0  501  0.00000000000E+00  0.00000000000E+00  0.18723980678E+04  0.18723980678E+04  0.25500000920E-02 0. -1.
        2   -1    0    0  501    0  0.00000000000E+00  0.00000000000E+00 -0.21341594938E+04  0.21341594938E+04  0.25500000920E-02 0.  1.
    10030    2    1    2    0    0  0.00000000000E+00  0.00000000000E+00 -0.26176142599E+03  0.40065575617E+04  0.39979975551E+04 0.  0.
        3    1    3    3  502    0  0.74318236365E+03 -0.69628710027E+03 -0.18546974636E+04  0.21159013312E+04  0.10100000352E+00 0.  1.
       -3    1    3    3    0  502 -0.74318236365E+03  0.69628710027E+03  0.15929360376E+04  0.18906562305E+04  0.10100000352E+00 0. -1.
</event>
<event>
 5   0  0.2599332E-08  0.3999060E+04  0.7818609E-02  0.8004736E-01
        2   -1    0    0  501    0  0.00000000000E+00  0.00000000000E+00  0.30201766143E+04  0.30201766143E+04  0.25500000920E-02 0. -1.
       -2   -1    0    0    0  501  0.00000000000E+00  0.00000000000E+00 -0.13238033498E+04  0.13238033498E+04  0.25500000920E-02 0.  1.
    10030    2    1    2    0    0  0.00000000000E+00  0.00000000000E+00  0.16963732646E+04  0.43439799641E+04  0.39990598490E+04 0.  0.
        2    1    3    3  502    0 -0.20499240948E+03 -0.16601608199E+04 -0.34172314572E+03  0.17073167673E+04  0.25500000920E-02 0.  1.
       -2    1    3    3    0  502  0.20499240948E+03  0.16601608199E+04  0.20380964103E+04  0.26366631968E+04  0.25500000920E-02 0. -1.
</event>
<event>
 5   0  0.2599332E-08  0.4002181E+04  0.7818609E-02  0.8004107E-01
       -2   -1    0    0    0  501  0.00000000000E+00  0.00000000000E+00  0.27536943175E+04  0.27536943175E+04  0.25500000920E-02 0. -1.
        2   -1    0    0  501    0  0.00000000000E+00  0.00000000000E+00 -0.14541786692E+04  0.14541786692E+04  0.25500000920E-02 0.  1.
    10030    2    1    2    0    0  0.00000000000E+00  0.00000000000E+00  0.12995156483E+04  0.42078729866E+04  0.40021811743E+04 0.  0.
        2    1    3    3  502    0  0.13998233834E+04 -0.10957632192E+04  0.16157609232E+04  0.24022668249E+04  0.25500000920E-02 0. -1.
       -2    1    3    3    0  502 -0.13998233834E+04  0.10957632192E+04 -0.31624527492E+03  0.18056061617E+04  0.25500000920E-02 0.  1.
</event>
<event>
 5   0  0.8329875E-09  0.4000485E+04  0.7818609E-02  0.8004449E-01
        1   -1    0    0  501    0  0.00000000000E+00  0.00000000000E+00  0.30482997375E+04  0.30482997375E+04  0.50400001928E-02 0.  1.
       -1   -1    0    0    0  501  0.00000000000E+00  0.00000000000E+00 -0.13125249581E+04  0.13125249581E+04  0.50400001928E-02 0. -1.
    10030    2    1    2    0    0  0.00000000000E+00  0.00000000000E+00  0.17357747794E+04  0.43608246956E+04  0.40004847132E+04 0.  0.
        5    1    3    3  502    0 -0.34602919794E+03  0.96395281091E+03  0.27407876220E+04  0.29258981709E+04  0.46999998093E+01 0.  1.
       -5    1    3    3    0  502  0.34602919794E+03 -0.96395281091E+03 -0.10050128426E+04  0.14349265247E+04  0.46999998093E+01 0. -1.
</event>
<event>
 5   0  0.8329875E-09  0.3953407E+04  0.7818609E-02  0.8014012E-01
        1   -1    0    0  501    0  0.00000000000E+00  0.00000000000E+00  0.29604611801E+04  0.29604611801E+04  0.50400001928E-02 0. -1.
       -1   -1    0    0    0  501  0.00000000000E+00  0.00000000000E+00 -0.13198475119E+04  0.13198475119E+04  0.50400001928E-02 0.  1.
    10030    2    1    2    0    0  0.00000000000E+00  0.00000000000E+00  0.16406136681E+04  0.42803086920E+04  0.39534073014E+04 0.  0.
        1    1    3    3  502    0  0.33332700860E+03 -0.36068447607E+03  0.28933534536E+04  0.29347392378E+04  0.50400001928E-02 0. -1.
       -1    1    3    3    0  502 -0.33332700860E+03  0.36068447607E+03 -0.12527397855E+04  0.13455694542E+04  0.50400001928E-02 0.  1.
</event>
<event>
 5   0  0.2599332E-08  0.3996640E+04  0.7818609E-02  0.8005225E-01
        2   -1    0    0  501    0  0.00000000000E+00  0.00000000000E+00  0.18776370467E+04  0.18776370467E+04  0.25500000920E-02 0.  1.
       -2   -1    0    0    0  501  0.00000000000E+00  0.00000000000E+00 -0.21267598214E+04  0.21267598214E+04  0.25500000920E-02 0. -1.
    10030    2    1    2    0    0  0.00000000000E+00  0.00000000000E+00 -0.24912277470E+03  0.40043968681E+04  0.39966401039E+04 0.  0.
        2    1    3    3  502    0 -0.79805605960E+03 -0.80448051948E+03  0.15245980965E+04  0.18996004149E+04  0.25500000920E-02 0.  1.
       -2    1    3    3    0  502  0.79805605960E+03  0.80448051948E+03 -0.17737208712E+04  0.21047964532E+04  0.25500000920E-02 0. -1.
</event>
<event>
 5   0  0.2599332E-08  0.3999929E+04  0.7818609E-02  0.8004561E-01
       -2   -1    0    0    0  501  0.00000000000E+00  0.00000000000E+00  0.14137634468E+04  0.14137634468E+04  0.25500000920E-02 0.  1.
        2   -1    0    0  501    0  0.00000000000E+00  0.00000000000E+00 -0.28292273123E+04  0.28292273123E+04  0.25500000920E-02 0. -1.
    10030    2    1    2    0    0  0.00000000000E+00  0.00000000000E+00 -0.14154638655E+04  0.42429907591E+04  0.39999290778E+04 0.  0.
        2    1    3    3  502    0 -0.13782756730E+04  0.56715650758E+03  0.70692967831E+03  0.16495635498E+04  0.25500000920E-02 0.  1.
       -2    1    3    3    0  502  0.13782756730E+04 -0.56715650758E+03 -0.21223935438E+04  0.25934272092E+04  0.25500000920E-02 0. -1.
</event>
<event>
 5   0  0.2650452E-08  0.4021229E+04  0.7818609E-02  0.8000278E-01
        2   -1    0    0  501    0  0.00000000000E+00  0.00000000000E+00  0.19305508033E+04  0.19305508033E+04  0.25500000920E-02 0.  1.
       -2   -1    0    0    0  501  0.00000000000E+00  0.00000000000E+00 -0.20939982291E+04  0.20939982291E+04  0.25500000920E-02 0. -1.
    10030    2    1    2    0    0  0.00000000000E+00  0.00000000000E+00 -0.16344742587E+03  0.40245490324E+04  0.40212286497E+04 0.  0.
        3    1    3    3  502    0 -0.12377237549E+04 -0.12078109617E+04  0.94469736667E+03  0.19705888809E+04  0.10100000352E+00 0.  1.
       -3    1    3    3    0  502  0.12377237549E+04  0.12078109617E+04 -0.11081447925E+04  0.20539601515E+04  0.10100000352E+00 0. -1.
</event>
<event>
 5   0  0.8329875E-09  0.4001696E+04  0.7818609E-02  0.8004205E-01
       -1   -1    0    0    0  501  0.00000000000E+00  0.00000000000E+00  0.20979419634E+04  0.20979419634E+04  0.50400001928E-02 0.  1.
        1   -1    0    0  501    0  0.00000000000E+00  0.00000000000E+00 -0.19082475395E+04  0.19082475396E+04  0.50400001928E-02 0. -1.
    10030    2    1    2    0    0  0.00000000000E+00  0.00000000000E+00  0.18969442387E+03  0.40061895030E+04  0.40016959354E+04 0.  0.
        2    1    3    3  502    0  0.45335404541E+03 -0.18697976726E+04 -0.45505946567E+03  0.19770564849E+04  0.25500000920E-02 0.  1.
       -2    1    3    3    0  502 -0.45335404541E+03  0.18697976726E+04  0.64475388955E+03  0.20291330181E+04  0.25500000920E-02 0. -1.
</event>
<event>
 5   0  0.8329875E-09  0.4004573E+04  0.7818609E-02  0.8003625E-01
        1   -1    0    0  501    0  0.00000000000E+00  0.00000000000E+00  0.30776068264E+04  0.30776068264E+04  0.50400001928E-02 0.  1.
       -1   -1    0    0    0  501  0.00000000000E+00  0.00000000000E+00 -0.13026846994E+04  0.13026846994E+04  0.50400001928E-02 0. -1.
    10030    2    1    2    0    0  0.00000000000E+00  0.00000000000E+00  0.17749221270E+04  0.43802915258E+04  0.40045730477E+04 0.  0.
        1    1    3    3  502    0  0.19277348099E+04 -0.29804232937E+03  0.39322690495E+03  0.19898789225E+04  0.50400001928E-02 0. -1.
       -1    1    3    3    0  502 -0.19277348099E+04  0.29804232937E+03  0.13816952220E+04  0.23904126033E+04  0.50400001928E-02 0.  1.
</event>
<event>
 5   0  0.2599332E-08  0.4002430E+04  0.7818609E-02  0.8004057E-01
       -2   -1    0    0    0  501  0.00000000000E+00  0.00000000000E+00  0.17008275754E+04  0.17008275754E+04  0.25500000920E-02 0. -1.
        2   -1    0    0  501    0  0.00000000000E+00  0.00000000000E+00 -0.23546546639E+04  0.23546546639E+04  0.25500000920E-02 0.  1.
    10030    2    1    2    0    0  0.00000000000E+00  0.00000000000E+00 -0.65382708843E+03  0.40554822393E+04  0.40024300533E+04 0.  0.
        2    1    3    3  502    0 -0.86082993541E+03  0.18055274159E+04 -0.39022500294E+03  0.20379482280E+04  0.25500000920E-02 0.  1.
       -2    1    3    3    0  502  0.86082993541E+03 -0.18055274159E+04 -0.26360208549E+03  0.20175340113E+04  0.25500000920E-02 0. -1.
</event>
<event>
 5   0  0.2587493E-08  0.4001468E+04  0.7818609E-02  0.8004250E-01
       -2   -1    0    0    0  501  0.00000000000E+00  0.00000000000E+00  0.19066386880E+04  0.19066386880E+04  0.25500000920E-02 0.  1.
        2   -1    0    0  501    0  0.00000000000E+00  0.00000000000E+00 -0.20994735036E+04  0.20994735036E+04  0.25500000920E-02 0. -1.
    10030    2    1    2    0    0  0.00000000000E+00  0.00000000000E+00 -0.19283481566E+03  0.40061121916E+04  0.40014684337E+04 0.  0.
        5    1    3    3  502    0  0.12729317378E+04  0.48888674135E+03  0.13693683833E+04  0.19325002753E+04  0.46999998093E+01 0.  1.
       -5    1    3    3    0  502 -0.12729317378E+04 -0.48888674135E+03 -0.15622031989E+04  0.20736119163E+04  0.46999998093E+01 0. -1.
</event>
<event>
 5   0  0.8329875E-09  0.4015270E+04  0.7818609E-02  0.8001473E-01
       -1   -1    0    0    0  501  0.00000000000E+00  0.00000000000E+00  0.25040705944E+04  0.25040705944E+04  0.50400001928E-02 0.  1.
        1   -1    0    0  501    0  0.00000000000E+00  0.00000000000E+00 -0.16096184412E+04  0.16096184412E+04  0.50400001928E-02 0. -1.
    10030    2    1    2    0    0  0.00000000000E+00  0.00000000000E+00  0.89445215321E+03  0.41136890356E+04  0.40152699569E+04 0.  0.
        2    1    3    3  502    0  0.11591402338E+04  0.73328745364E+03  0.19492033929E+04  0.23834240995E+04  0.25500000920E-02 0.  1.
       -2    1    3    3    0  502 -0.11591402338E+04 -0.73328745364E+03 -0.10547512397E+04  0.17302649360E+04  0.25500000920E-02 0. -1.
</event>
<event>
 5   0  0.8329875E-09  0.4011447E+04  0.7818609E-02  0.8002241E-01
        1   -1    0    0  501    0  0.00000000000E+00  0.00000000000E+00  0.12880478840E+04  0.12880478840E+04  0.50400001928E-02 0. -1.
       -1   -1    0    0    0  501  0.00000000000E+00  0.00000000000E+00 -0.31232738074E+04  0.31232738074E+04  0.50400001928E-02 0.  1.
    10030    2    1    2    0    0  0.00000000000E+00  0.00000000000E+00 -0.18352259234E+04  0.44113216914E+04  0.40114467309E+04 0.  0.
        5    1    3    3  502    0 -0.99902435882E+03  0.12667452066E+04  0.39290851414E+03  0.16604494206E+04  0.46999998093E+01 0. -1.
       -5    1    3    3    0  502  0.99902435882E+03 -0.12667452066E+04 -0.22281344376E+04  0.27508722707E+04  0.46999998093E+01 0.  1.
</event>
<event>
 5   0  0.2612363E-08  0.4008607E+04  0.7818609E-02  0.8002812E-01
       -2   -1    0    0    0  501  0.00000000000E+00  0.00000000000E+00  0.17351021482E+04  0.17351021482E+04  0.25500000920E-02 0.  1.
        2   -1    0    0  501    0  0.00000000000E+00  0.00000000000E+00 -0.23152720281E+04  0.23152720281E+04  0.25500000920E-02 0. -1.
    10030    2    1    2    0    0  0.00000000000E+00  0.00000000000E+00 -0.58016987985E+03  0.40503741763E+04  0.40086074737E+04 0.  0.
        4    1    3    3  502    0 -0.12862107715E+04  0.33815671755E+03  0.12250533859E+04  0.18081608130E+04  0.12699999809E+01 0.  1.
       -4    1    3    3    0  502  0.12862107715E+04 -0.33815671755E+03 -0.18052232658E+04  0.22422133633E+04  0.12699999809E+01 0. -1.
</event>
<event>
 5   0  0.8329875E-09  0.3993530E+04  0.7818609E-02  0.8005853E-01
       -1   -1    0    0    0  501  0.00000000000E+00  0.00000000000E+00  0.22494989160E+04  0.22494989160E+04  0.50400001928E-02 0.  1.
        1   -1    0    0  501    0  0.00000000000E+00  0.00000000000E+00 -0.17724262319E+04  0.17724262319E+04  0.50400001928E-02 0. -1.
    10030    2    1    2    0    0  0.00000000000E+00  0.00000000000E+00  0.47707268408E+03  0.40219251480E+04  0.39935302115E+04 0.  0.
        3    1    3    3  502    0  0.17248556159E+04  0.43820174881E+03  0.11504707439E+04  0.21191344014E+04  0.10100000352E+00 0.  1.
       -3    1    3    3    0  502 -0.17248556159E+04 -0.43820174881E+03 -0.67339805983E+03  0.19027907466E+04  0.10100000352E+00 0. -1.
</event>
<event>
 5   0  0.8329875E-09  0.3997854E+04  0.7818609E-02  0.8004980E-01
       -1   -1    0    0    0  501  0.00000000000E+00  0.00000000000E+00  0.27938385196E+04  0.27938385196E+04  0.50400001928E-02 0.  1.
        1   -1    0    0  501    0  0.00000000000E+00  0.00000000000E+00 -0.14301861788E+04  0.14301861788E+04  0.50400001928E-02 0. -1.
    10030    2    1    2    0    0  0.00000000000E+00  0.00000000000E+00  0.13636523408E+04  0.42240246984E+04  0.39978540426E+04 0.  0.
        2    1    3    3  502    0  0.15885641140E+04  0.61263076269E+03 -0.42473260979E+03  0.17547792413E+04  0.25500000920E-02 0. -1.
       -2    1    3    3    0  502 -0.15885641140E+04 -0.61263076269E+03  0.17883849506E+04  0.24692454571E+04  0.25500000920E-02 0.  1.
</event>
<event>
 5   0  0.2599332E-08  0.3945891E+04  0.7818609E-02  0.8015552E-01
        2   -1    0    0  501    0  0.00000000000E+00  0.00000000000E+00  0.23698572167E+04  0.23698572167E+04  0.25500000920E-02 0. -1.
       -2   -1    0    0    0  501  0.00000000000E+00  0.00000000000E+00 -0.16425095547E+04  0.16425095547E+04  0.25500000920E-02 0.  1.
    10030    2    1    2    0    0  0.00000000000E+00  0.00000000000E+00  0.72734766201E+03  0.40123667714E+04  0.39458905822E+04 0.  0.
        2    1    3    3  502    0  0.73128966178E+03 -0.69950834782E+03  0.20858465378E+04  0.23183727650E+04  0.25500000920E-02 0. -1.
       -2    1    3    3    0  502 -0.73128966178E+03  0.69950834782E+03 -0.13584988758E+04  0.16939940064E+04  0.25500000920E-02 0.  1.
</event>
<event>
 5   0  0.2650452E-08  0.3997753E+04  0.7818609E-02  0.8005000E-01
       -2   -1    0    0    0  501  0.00000000000E+00  0.00000000000E+00  0.22392317071E+04  0.22392317071E+04  0.25500000920E-02 0.  1.
        2   -1    0    0  501    0  0.00000000000E+00  0.00000000000E+00 -0.17843202082E+04  0.17843202082E+04  0.25500000920E-02 0. -1.
    10030    2    1    2    0    0  0.00000000000E+00  0.00000000000E+00  0.45491149896E+03  0.40235519153E+04  0.39977525615E+04 0.  0.
        3    1    3    3  502    0 -0.11533406262E+04 -0.16280769228E+04  0.34938753057E+03  0.20255618290E+04  0.10100000352E+00 0.  1.
       -3    1    3    3    0  502  0.11533406262E+04  0.16280769228E+04  0.10552396839E+03  0.19979900862E+04  0.10100000352E+00 0. -1.
</event>
<event>
 5   0  0.8329875E-09  0.4002278E+04  0.7818609E-02  0.8004087E-01
       -1   -1    0    0    0  501  0.00000000000E+00  0.00000000000E+00  0.18173634649E+04  0.18173634649E+04  0.50400001928E-02 0.  1.
        1   -1    0    0  501    0  0.00000000000E+00  0.00000000000E+00 -0.22034985570E+04  0.22034985570E+04  0.50400001928E-02 0. -1.
    10030    2    1    2    0    0  0.00000000000E+00  0.00000000000E+00 -0.38613509213E+03  0.40208620219E+04  0.40022782374E+04 0.  0.
        4    1    3    3  502    0  0.73072920588E+03  0.59175115613E+03  0.15816062126E+04  0.18400039205E+04  0.12699999809E+01 0.  1.
       -4    1    3    3    0  502 -0.73072920588E+03 -0.59175115613E+03 -0.19677413047E+04  0.21808581013E+04  0.12699999809E+01 0. -1.
</event>
<event>
 5   0  0.2650452E-08  0.3996223E+04  0.7818609E-02  0.8005309E-01
        2   -1    0    0  501    0  0.00000000000E+00  0.00000000000E+00  0.22647109391E+04  0.22647109391E+04  0.25500000920E-02 0.  1.
       -2   -1    0    0    0  501  0.00000000000E+00  0.00000000000E+00 -0.17628960046E+04  0.17628960046E+04  0.25500000920E-02 0. -1.
    10030    2    1    2    0    0  0.00000000000E+00  0.00000000000E+00  0.50181493450E+03  0.40276069436E+04  0.39962231499E+04 0.  0.
        3    1    3    3  502    0 -0.72247538773E+03  0.17345642514E+04 -0.43396284180E+03  0.19284728638E+04  0.10100000352E+00 0. -1.
       -3    1    3    3    0  502  0.72247538773E+03 -0.17345642514E+04  0.93577777630E+03  0.20991340798E+04  0.10100000352E+00 0.  1.
</event>
<event>
 5   0  0.8329875E-09  0.4019814E+04  0.7818609E-02  0.8000561E-01
        1   -1    0    0  501    0  0.00000000000E+00  0.00000000000E+00  0.21107522933E+04  0.21107522933E+04  0.50400001928E-02 0. -1.
       -1   -1    0    0    0  501  0.00000000000E+00  0.00000000000E+00 -0.19138801229E+04  0.19138801229E+04  0.50400001928E-02 0.  1.
    10030    2    1    2    0    0  0.00000000000E+00  0.00000000000E+00  0.19687217037E+03  0.40246324162E+04  0.40198143532E+04 0.  0.
        3    1    3    3  502    0 -0.68159916849E+03  0.40088171778E+03  0.19484720664E+04  0.21028140626E+04  0.10100000352E+00 0. -1.
       -3    1    3    3    0  502  0.68159916849E+03 -0.40088171778E+03 -0.17515998961E+04  0.19218183536E+04  0.10100000352E+00 0.  1.
</event>
<event>
 5   0  0.2599332E-08  0.3996975E+04  0.7818609E-02  0.8005157E-01
        2   -1    0    0  501    0  0.00000000000E+00  0.00000000000E+00  0.24189183375E+04  0.24189183375E+04  0.25500000920E-02 0.  1.
       -2   -1    0    0    0  501  0.00000000000E+00  0.00000000000E+00 -0.16511318752E+04  0.16511318752E+04  0.25500000920E-02 0. -1.
    10030    2    1    2    0    0  0.00000000000E+00  0.00000000000E+00  0.76778646231E+03  0.40700502126E+04  0.39969754417E+04 0.  0.
        2    1    3    3  502    0  0.17250205527E+04 -0.32482849023E+03  0.13567361295E+04  0.22185451044E+04  0.25500000920E-02 0.  1.
       -2    1    3    3    0  502 -0.17250205527E+04  0.32482849023E+03 -0.58894966714E+03  0.18515051082E+04  0.25500000920E-02 0. -1.
</event>
<event>
 5   0  0.2650452E-08  0.3999546E+04  0.7818609E-02  0.8004638E-01
        2   -1    0    0  501    0  0.00000000000E+00  0.00000000000E+00  0.21055022579E+04  0.21055022579E+04  0.25500000920E-02 0.  1.
       -2   -1    0    0    0  501  0.00000000000E+00  0.00000000000E+00 -0.18993534220E+04  0.18993534220E+04  0.25500000920E-02 0. -1.
    10030    2    1    2    0    0  0.00000000000E+00  0.00000000000E+00  0.20614883585E+03  0.40048556799E+04  0.39995464336E+04 0.  0.
        3    1    3    3  502    0 -0.19447206496E+04 -0.10178376253E+03  0.55842478561E+03  0.20258668739E+04  0.10100000352E+00 0. -1.
       -3    1    3    3    0  502  0.19447206496E+04  0.10178376253E+03 -0.35227594975E+03  0.19789888060E+04  0.10100000352E+00 0.  1.
</event>
<event>
 5   0  0.2746876E-08  0.3950394E+04  0.7818609E-02  0.8014629E-01
        2   -1    0    0  501    0  0.00000000000E+00  0.00000000000E+00  0.29226582237E+04  0.29226582237E+04  0.25500000920E-02 0. -1.
       -2   -1    0    0    0  501  0.00000000000E+00  0.00000000000E+00 -0.13348817554E+04  0.13348817554E+04  0.25500000920E-02 0.  1.
    10030    2    1    2    0    0  0.00000000000E+00  0.00000000000E+00  0.15877764682E+04  0.42575399791E+04  0.39503939754E+04 0.  0.
        1    1    3    3  502    0 -0.11707601454E+04 -0.33032331353E+03 -0.88325615973E+03  0.15033077707E+04  0.50400001928E-02 0.  1.
       -1    1    3    3    0  502  0.11707601454E+04  0.33032331353E+03  0.24710326280E+04  0.27542322085E+04  0.50400001928E-02 0. -1.
</event>
<event>
 5   0  0.8329875E-09  0.4004919E+04  0.7818609E-02  0.8003555E-01
       -1   -1    0    0    0  501  0.00000000000E+00  0.00000000000E+00  0.13001032719E+04  0.13001032719E+04  0.50400001928E-02 0.  1.
        1   -1    0    0  501    0  0.00000000000E+00  0.00000000000E+00 -0.30842509746E+04  0.30842509746E+04  0.50400001928E-02 0. -1.
    10030    2    1    2    0    0  0.00000000000E+00  0.00000000000E+00 -0.17841477027E+04  0.43843542464E+04  0.40049193666E+04 0.  0.
        1    1    3    3  502    0  0.18929539113E+04 -0.49230496343E+03 -0.42221884406E+03  0.20009766215E+04  0.50400001928E-02 0.  1.
       -1    1    3    3    0  502 -0.18929539113E+04  0.49230496343E+03 -0.13619288586E+04  0.23833776250E+04  0.50400001928E-02 0. -1.
</event>
<event>
 5   0  0.2650452E-08  0.3993042E+04  0.7818609E-02  0.8005952E-01
        2   -1    0    0  501    0  0.00000000000E+00  0.00000000000E+00  0.15469979853E+04  0.15469979853E+04  0.25500000920E-02 0. -1.
       -2   -1    0    0    0  501  0.00000000000E+00  0.00000000000E+00 -0.25766654282E+04  0.25766654282E+04  0.25500000920E-02 0.  1.
    10030    2    1    2    0    0  0.00000000000E+00  0.00000000000E+00 -0.10296674429E+04  0.41236634135E+04  0.39930420615E+04 0.  0.
        3    1    3    3  502    0 -0.83081035338E+03  0.24009545925E+03 -0.23732006300E+04  0.25258608262E+04  0.10100000352E+00 0.  1.
       -3    1    3    3    0  502  0.83081035338E+03 -0.24009545925E+03  0.13435331871E+04  0.15978025873E+04  0.10100000352E+00 0. -1.
</event>
<event>
 5   0  0.8329875E-09  0.3999588E+04  0.7818609E-02  0.8004630E-01
       -1   -1    0    0    0  501  0.00000000000E+00  0.00000000000E+00  0.21442251262E+04  0.21442251262E+04  0.50400001928E-02 0. -1.
        1   -1    0    0  501    0  0.00000000000E+00  0.00000000000E+00 -0.18650914081E+04  0.18650914081E+04  0.50400001928E-02 0.  1.
    10030    2    1    2    0    0  0.00000000000E+00  0.00000000000E+00  0.27913371811E+03  0.40093165343E+04  0.39995879088E+04 0.  0.
        4    1    3    3  502    0  0.97873839294E+03  0.12222648281E+04 -0.11073696451E+04  0.19178449613E+04  0.12699999809E+01 0.  1.
       -4    1    3    3    0  502 -0.97873839294E+03 -0.12222648281E+04  0.13865033632E+04  0.20914715730E+04  0.12699999809E+01 0. -1.
</event>
<event>
 5   0  0.2587493E-08  0.4001216E+04  0.7818609E-02  0.8004301E-01
        2   -1    0    0  501    0  0.00000000000E+00  0.00000000000E+00  0.26471097690E+04  0.26471097690E+04  0.25500000920E-02 0. -1.
       -2   -1    0    0    0  501  0.00000000000E+00  0.00000000000E+00 -0.15120005513E+04  0.15120005513E+04  0.25500000920E-02 0.  1.
    10030    2    1    2    0    0  0.00000000000E+00  0.00000000000E+00  0.11351092177E+04  0.41591103202E+04  0.40012155303E+04 0.  0.
        5    1    3    3  502    0 -0.62387765943E+03 -0.78288941915E+03  0.23680361610E+04  0.25709446758E+04  0.46999998093E+01 0. -1.
       -5    1    3    3    0  502  0.62387765943E+03  0.78288941915E+03 -0.12329269433E+04  0.15881656444E+04  0.46999998093E+01 0.  1.
</event>
<event>
 5   0  0.8329875E-09  0.3997076E+04  0.7818609E-02  0.8005137E-01
        1   -1    0    0  501    0  0.00000000000E+00  0.00000000000E+00  0.15625201215E+04  0.15625201215E+04  0.50400001928E-02 0.  1.
       -1   -1    0    0    0  501  0.00000000000E+00  0.00000000000E+00 -0.25562259056E+04  0.25562259056E+04  0.50400001928E-02 0. -1.
    10030    2    1    2    0    0  0.00000000000E+00  0.00000000000E+00 -0.99370578407E+03  0.41187460271E+04  0.39970761377E+04 0.  0.
        4    1    3    3  502    0 -0.12983425481E+04 -0.35639595125E+03 -0.20187817886E+04  0.24265599043E+04  0.12699999809E+01 0. -1.
       -4    1    3    3    0  502  0.12983425481E+04  0.35639595125E+03  0.10250760045E+04  0.16921861228E+04  0.12699999809E+01 0.  1.
</event>
<event>
 5   0  0.8329875E-09  0.4000527E+04  0.7818609E-02  0.8004440E-01
       -1   -1    0    0    0  501  0.00000000000E+00  0.00000000000E+00  0.25760605327E+04  0.25760605327E+04  0.50400001928E-02 0. -1.
        1   -1    0    0  501    0  0.00000000000E+00  0.00000000000E+00 -0.15531680214E+04  0.15531680214E+04  0.50400001928E-02 0.  1.
    10030    2    1    2    0    0  0.00000000000E+00  0.00000000000E+00  0.10228925113E+04  0.41292285541E+04  0.40005273856E+04 0.  0.
        5    1    3    3  502    0 -0.15244394704E+03 -0.19598704489E+04  0.89307245531E+03  0.21591507205E+04  0.46999998093E+01 0. -1.
       -5    1    3    3    0  502  0.15244394704E+03  0.19598704489E+04  0.12982005596E+03  0.19700778336E+04  0.46999998093E+01 0.  1.
</event>
<event>
 5   0  0.2746876E-08  0.4001510E+04  0.7818609E-02  0.8004242E-01
        2   -1    0    0  501    0  0.00000000000E+00  0.00000000000E+00  0.22167428448E+04  0.22167428448E+04  0.25500000920E-02 0. -1.
       -2   -1    0    0    0  501  0.00000000000E+00  0.00000000000E+00 -0.18058121694E+04  0.18058121694E+04  0.25500000920E-02 0.  1.
    10030    2    1    2    0    0  0.00000000000E+00  0.00000000000E+00  0.41093067540E+03  0.40225550143E+04  0.40015103177E+04 0.  0.
        1    1    3    3  502    0 -0.14857624983E+04  0.13298642351E+04  0.37062217310E+03  0.20281493733E+04  0.50400001928E-02 0. -1.
       -1    1    3    3    0  502  0.14857624983E+04 -0.13298642351E+04  0.40308502294E+02  0.19944056409E+04  0.50400001928E-02 0.  1.
</event>
<event>
 5   0  0.2612363E-08  0.3999646E+04  0.7818609E-02  0.8004618E-01
        2   -1    0    0  501    0  0.00000000000E+00  0.00000000000E+00  0.26287330948E+04  0.26287330948E+04  0.25500000920E-02 0. -1.
       -2   -1    0    0    0  501  0.00000000000E+00  0.00000000000E+00 -0.15213759753E+04  0.15213759753E+04  0.25500000920E-02 0.  1.
    10030    2    1    2    0    0  0.00000000000E+00  0.00000000000E+00  0.11073571195E+04  0.41501090701E+04  0.39996456723E+04 0.  0.
        4    1    3    3  502    0 -0.11617488922E+04 -0.82548151146E+03 -0.90202739623E+03  0.16866342967E+04  0.12699999809E+01 0.  1.
       -4    1    3    3    0  502  0.11617488922E+04  0.82548151146E+03  0.20093845157E+04  0.24634747734E+04  0.12699999809E+01 0. -1.
</event>
<event>
 5   0  0.2650452E-08  0.3905067E+04  0.7818609E-02  0.8023976E-01
        2   -1    0    0  501    0  0.00000000000E+00  0.00000000000E+00  0.28488266800E+04  0.28488266800E+04  0.25500000920E-02 0. -1.
       -2   -1    0    0    0  501  0.00000000000E+00  0.00000000000E+00 -0.13382307054E+04  0.13382307054E+04  0.25500000920E-02 0.  1.
    10030    2    1    2    0    0  0.00000000000E+00  0.00000000000E+00  0.15105959746E+04  0.41870573854E+04  0.39050671377E+04 0.  0.
        3    1    3    3  502    0  0.80660452559E+03 -0.60679775049E+03  0.25473904662E+04  0.27400752851E+04  0.10100000352E+00 0. -1.
       -3    1    3    3    0  502 -0.80660452559E+03  0.60679775049E+03 -0.10367944916E+04  0.14469821003E+04  0.10100000352E+00 0.  1.
</event>
<event>
 5   0  0.8329875E-09  0.4006858E+04  0.7818609E-02  0.8003164E-01
       -1   -1    0    0    0  501  0.00000000000E+00  0.00000000000E+00  0.20538558926E+04  0.20538558926E+04  0.50400001928E-02 0. -1.
        1   -1    0    0  501    0  0.00000000000E+00  0.00000000000E+00 -0.19542404358E+04  0.19542404358E+04  0.50400001928E-02 0.  1.
    10030    2    1    2    0    0  0.00000000000E+00  0.00000000000E+00  0.99615456818E+02  0.40080963284E+04  0.40068582379E+04 0.  0.
        4    1    3    3  502    0 -0.52418452441E+03  0.16831336086E+04  0.10019518639E+04  0.20277123342E+04  0.12699999809E+01 0.  1.
       -4    1    3    3    0  502  0.52418452441E+03 -0.16831336086E+04 -0.90233640703E+03  0.19803839942E+04  0.12699999809E+01 0. -1.
</event>
<event>
 5   0  0.8329875E-09  0.3997519E+04  0.7818609E-02  0.8005047E-01
        1   -1    0    0  501    0  0.00000000000E+00  0.00000000000E+00  0.33484179423E+04  0.33484179423E+04  0.50400001928E-02 0.  1.
       -1   -1    0    0    0  501  0.00000000000E+00  0.00000000000E+00 -0.11931128321E+04  0.11931128321E+04  0.50400001928E-02 0. -1.
    10030    2    1    2    0    0  0.00000000000E+00  0.00000000000E+00  0.21553051102E+04  0.45415307745E+04  0.39975194380E+04 0.  0.
        2    1    3    3  502    0 -0.83958849255E+03 -0.25590068431E+03 -0.96245341994E+03  0.13025784363E+04  0.25500000920E-02 0. -1.
       -2    1    3    3    0  502  0.83958849255E+03  0.25590068431E+03  0.31177585301E+04  0.32389523382E+04  0.25500000920E-02 0.  1.
</event>
<event>
 5   0  0.2587493E-08  0.3999036E+04  0.7818609E-02  0.8004741E-01
        2   -1    0    0  501    0  0.00000000000E+00  0.00000000000E+00  0.24423571982E+04  0.24423571982E+04  0.25500000920E-02 0. -1.
       -2   -1    0    0    0  501  0.00000000000E+00  0.00000000000E+00 -0.16369728165E+04  0.16369728165E+04  0.25500000920E-02 0.  1.
    10030    2    1    2    0    0  0.00000000000E+00  0.00000000000E+00  0.80538438168E+03  0.40793300146E+04  0.39990360546E+04 0.  0.
        5    1    3    3  502    0  0.64306927176E+03 -0.11158034264E+04  0.19629435529E+04  0.23477062969E+04  0.46999998093E+01 0. -1.
       -5    1    3    3    0  502 -0.64306927176E+03  0.11158034264E+04 -0.11575591712E+04  0.17316237177E+04  0.46999998093E+01 0.  1.
</event>
<event>
 5   0  0.8329875E-09  0.3998859E+04  0.7818609E-02  0.8004777E-01
       -1   -1    0    0    0  501  0.00000000000E+00  0.00000000000E+00  0.20424413470E+04  0.20424413470E+04  0.50400001928E-02 0. -1.
        1   -1    0    0  501    0  0.00000000000E+00  0.00000000000E+00 -0.19573232103E+04  0.19573232103E+04  0.50400001928E-02 0.  1.
    10030    2    1    2    0    0  0.00000000000E+00  0.00000000000E+00  0.85118136659E+02  0.39997645573E+04  0.39988587642E+04 0.  0.
        1    1    3    3  502    0  0.13252899362E+04 -0.22414772400E+03  0.15231248271E+04  0.20313898828E+04  0.50400001928E-02 0. -1.
       -1    1    3    3    0  502 -0.13252899362E+04  0.22414772400E+03 -0.14380066905E+04  0.19683746744E+04  0.50400001928E-02 0.  1.
</event>
<event>
 5   0  0.2650452E-08  0.3987919E+04  0.7818609E-02  0.8006988E-01
       -2   -1    0    0    0  501  0.00000000000E+00  0.00000000000E+00  0.19638591991E+04  0.19638591991E+04  0.25500000920E-02 0.  1.
        2   -1    0    0  501    0  0.00000000000E+00  0.00000000000E+00 -0.20245208564E+04  0.20245208564E+04  0.25500000920E-02 0. -1.
    10030    2    1    2    0    0  0.00000000000E+00  0.00000000000E+00 -0.60661657306E+02  0.39883800555E+04  0.39879187091E+04 0.  0.
        3    1    3    3  502    0  0.25486768301E+03 -0.78180692457E+03  0.17863853834E+04  0.19665585045E+04  0.10100000352E+00 0.  1.
       -3    1    3    3    0  502 -0.25486768301E+03  0.78180692457E+03 -0.18470470407E+04  0.20218215510E+04  0.10100000352E+00 0. -1.
</event>
<event>
 5   0  0.8329875E-09  0.3994769E+04  0.7818609E-02  0.8005603E-01
        1   -1    0    0  501    0  0.00000000000E+00  0.00000000000E+00  0.16887247855E+04  0.16887247855E+04  0.50400001928E-02 0. -1.
       -1   -1    0    0    0  501  0.00000000000E+00  0.00000000000E+00 -0.23624596884E+04  0.23624596884E+04  0.50400001928E-02 0.  1.
    10030    2    1    2    0    0  0.00000000000E+00  0.00000000000E+00 -0.67373490290E+03  0.40511844740E+04  0.39947686945E+04 0.  0.
        2    1    3    3  502    0 -0.33716760391E+03 -0.17856263431E+04 -0.11776726699E+04  0.21654229028E+04  0.25500000920E-02 0. -1.
       -2    1    3    3    0  502  0.33716760391E+03  0.17856263431E+04  0.50393776699E+03  0.18857615712E+04  0.25500000920E-02 0.  1.
</event>
<event>
 5   0  0.8329875E-09  0.4001740E+04  0.7818609E-02  0.8004196E-01
        1   -1    0    0  501    0  0.00000000000E+00  0.00000000000E+00  0.13597909477E+04  0.13597909477E+04  0.50400001928E-02 0.  1.
       -1   -1    0    0    0  501  0.00000000000E+00  0.00000000000E+00 -0.29441888056E+04  0.29441888056E+04  0.50400001928E-02 0. -1.
    10030    2    1    2    0    0  0.00000000000E+00  0.00000000000E+00 -0.15843978579E+04  0.43039797534E+04  0.40017402646E+04 0.  0.
        4    1    3    3  502    0  0.91100602910E+03  0.17716143087E+04 -0.59118632715E+03  0.20779923316E+04  0.12699999809E+01 0. -1.
       -4    1    3    3    0  502 -0.91100602910E+03 -0.17716143087E+04 -0.99321153078E+03  0.22259874217E+04  0.12699999809E+01 0.  1.
</event>
<event>
 5   0  0.2612363E-08  0.4000471E+04  0.7818609E-02  0.8004452E-01
        2   -1    0    0  501    0  0.00000000000E+00  0.00000000000E+00  0.15361042259E+04  0.15361042259E+04  0.25500000920E-02 0. -1.
       -2   -1    0    0    0  501  0.00000000000E+00  0.00000000000E+00 -0.26046029461E+04  0.26046029461E+04  0.25500000920E-02 0.  1.
    10030    2    1    2    0    0  0.00000000000E+00  0.00000000000E+00 -0.10684987202E+04  0.41407071721E+04  0.40004707685E+04 0.  0.
        4    1    3    3  502    0 -0.13041424711E+04 -0.12919229558E+04  0.28800880787E+03  0.18581720036E+04  0.12699999809E+01 0. -1.
       -4    1    3    3    0  502  0.13041424711E+04  0.12919229558E+04 -0.13565075281E+04  0.22825351685E+04  0.12699999809E+01 0.  1.
</event>
<event>
 5   0  0.8329875E-09  0.3990339E+04  0.7818609E-02  0.8006498E-01
       -1   -1    0    0    0  501  0.00000000000E+00  0.00000000000E+00  0.33560483986E+04  0.33560483986E+04  0.50400001928E-02 0.  1.
        1   -1    0    0  501    0  0.00000000000E+00  0.00000000000E+00 -0.11861275565E+04  0.11861275565E+04  0.50400001928E-02 0. -1.
    10030    2    1    2    0    0  0.00000000000E+00  0.00000000000E+00  0.21699208422E+04  0.45421759551E+04  0.39903390766E+04 0.  0.
        5    1    3    3  502    0 -0.20918942987E+03 -0.13130383472E+04  0.27782455314E+04  0.30800162729E+04  0.46999998093E+01 0.  1.
       -5    1    3    3    0  502  0.20918942987E+03  0.13130383472E+04 -0.60832468924E+03  0.14621596822E+04  0.46999998093E+01 0. -1.
</event>
<event>
 5   0  0.2599332E-08  0.3998970E+04  0.7818609E-02  0.8004754E-01
        2   -1    0    0  501    0  0.00000000000E+00  0.00000000000E+00  0.14403018059E+04  0.14403018059E+04  0.25500000920E-02 0. -1.
       -2   -1    0    0    0  501  0.00000000000E+00  0.00000000000E+00 -0.27757662917E+04  0.27757662917E+04  0.25500000920E-02 0.  1.
    10030    2    1    2    0    0  0.00000000000E+00  0.00000000000E+00 -0.13354644859E+04  0.42160680976E+04  0.39989704688E+04 0.  0.
        2    1    3    3  502    0 -0.13761782450E+04  0.34505994425E+03  0.81765804766E+03  0.16375278960E+04  0.25500000920E-02 0. -1.
       -2    1    3    3    0  502  0.13761782450E+04 -0.34505994425E+03 -0.21531225335E+04  0.25785402016E+04  0.25500000920E-02 0.  1.
</event>
<event>
 5   0  0.8329875E-09  0.4007607E+04  0.7818609E-02  0.8003014E-01
        1   -1    0    0  501    0  0.00000000000E+00  0.00000000000E+00  0.14344018753E+04  0.14344018753E+04  0.50400001928E-02 0. -1.
       -1   -1    0    0    0  501  0.00000000000E+00  0.00000000000E+00 -0.27992347593E+04  0.27992347593E+04  0.50400001928E-02 0.  1.
    10030    2    1    2    0    0  0.00000000000E+00  0.00000000000E+00 -0.13648328840E+04  0.42336366346E+04  0.40076065616E+04 0.  0.
        4    1    3    3  502    0  0.60826899447E+03  0.35458188861E+03  0.12994271955E+04  0.14779147928E+04  0.12699999809E+01 0. -1.
       -4    1    3    3    0  502 -0.60826899447E+03 -0.35458188861E+03 -0.26642600795E+04  0.27557218418E+04  0.12699999809E+01 0.  1.
</event>
<event>
 5   0  0.8329875E-09  0.4023844E+04  0.7818609E-02  0.7999754E-01
       -1   -1    0    0    0  501  0.00000000000E+00  0.00000000000E+00  0.14627734832E+04  0.14627734832E+04  0.50400001928E-02 0. -1.
        1   -1    0    0  501    0  0.00000000000E+00  0.00000000000E+00 -0.27672296847E+04  0.27672296847E+04  0.50400001928E-02 0.  1.
    10030    2    1    2    0    0  0.00000000000E+00  0.00000000000E+00 -0.13044562016E+04  0.42300031679E+04  0.40238440351E+04 0.  0.
        1    1    3    3  502    0  0.95170683649E+03 -0.14609254272E+04  0.40308828005E+03  0.17895611663E+04  0.50400001928E-02 0. -1.
       -1    1    3    3    0  502 -0.95170683649E+03  0.14609254272E+04 -0.17075444816E+04  0.24404420016E+04  0.50400001928E-02 0.  1.
</event>
<event>
 5   0  0.2599332E-08  0.4001202E+04  0.7818609E-02  0.8004304E-01
       -2   -1    0    0    0  501  0.00000000000E+00  0.00000000000E+00  0.28497973188E+04  0.28497973188E+04  0.25500000920E-02 0.  1.
        2   -1    0    0  501    0  0.00000000000E+00  0.00000000000E+00 -0.14044525454E+04  0.14044525454E+04  0.25500000920E-02 0. -1.
    10030    2    1    2    0    0  0.00000000000E+00  0.00000000000E+00  0.14453447733E+04  0.42542498642E+04  0.40012023685E+04 0.  0.
        2    1    3    3  502    0 -0.22233579909E+03  0.18942822331E+04  0.80605108766E+02  0.19089881010E+04  0.25500000920E-02 0. -1.
       -2    1    3    3    0  502  0.22233579909E+03 -0.18942822331E+04  0.13647396646E+04  0.23452617633E+04  0.25500000920E-02 0.  1.
</event>
<event>
 5   0  0.2612363E-08  0.3994356E+04  0.7818609E-02  0.8005686E-01
       -2   -1    0    0    0  501  0.00000000000E+00  0.00000000000E+00  0.12714059596E+04  0.12714059596E+04  0.25500000920E-02 0. -1.
        2   -1    0    0  501    0  0.00000000000E+00  0.00000000000E+00 -0.31372519192E+04  0.31372519192E+04  0.25500000920E-02 0.  1.
    10030    2    1    2    0    0  0.00000000000E+00  0.00000000000E+00 -0.18658459596E+04  0.44086578788E+04  0.39943564121E+04 0.  0.
        4    1    3    3  502    0 -0.43668453122E+03 -0.17679300560E+04 -0.18380078311E+04  0.25873817775E+04  0.12699999809E+01 0.  1.
       -4    1    3    3    0  502  0.43668453122E+03  0.17679300560E+04 -0.27838128543E+02  0.18212761012E+04  0.12699999809E+01 0. -1.
</event>
<event>
 5   0  0.8329875E-09  0.3999512E+04  0.7818609E-02  0.8004645E-01
        1   -1    0    0  501    0  0.00000000000E+00  0.00000000000E+00  0.18365205303E+04  0.18365205303E+04  0.50400001928E-02 0.  1.
       -1   -1    0    0    0  501  0.00000000000E+00  0.00000000000E+00 -0.21775001584E+04  0.21775001584E+04  0.50400001928E-02 0. -1.
    10030    2    1    2    0    0  0.00000000000E+00  0.00000000000E+00 -0.34097962806E+03  0.40140206887E+04  0.39995118430E+04 0.  0.
        2    1    3    3  502    0 -0.12230539081E+04  0.15773840531E+04 -0.29350047429E+03  0.20174597497E+04  0.25500000920E-02 0.  1.
       -2    1    3    3    0  502  0.12230539081E+04 -0.15773840531E+04 -0.47479153769E+02  0.19965609390E+04  0.25500000920E-02 0. -1.
</event>
<event>
 5   0  0.8329875E-09  0.4003102E+04  0.7818609E-02  0.8003921E-01
        1   -1    0    0  501    0  0.00000000000E+00  0.00000000000E+00  0.28668416644E+04  0.28668416644E+04  0.50400001928E-02 0.  1.
       -1   -1    0    0    0  501  0.00000000000E+00  0.00000000000E+00 -0.13974284282E+04  0.13974284282E+04  0.50400001928E-02 0. -1.
    10030    2    1    2    0    0  0.00000000000E+00  0.00000000000E+00  0.14694132362E+04  0.42642700926E+04  0.40031018178E+04 0.  0.
        3    1    3    3  502    0 -0.89964051917E+03 -0.16409457739E+04 -0.21652288566E+02  0.18715033873E+04  0.10100000352E+00 0. -1.
       -3    1    3    3    0  502  0.89964051917E+03  0.16409457739E+04  0.14910655248E+04  0.23927667053E+04  0.10100000352E+00 0.  1.
</event>
<event>
 5   0  0.8329875E-09  0.3996240E+04  0.7818609E-02  0.8005305E-01
        1   -1    0    0  501    0  0.00000000000E+00  0.00000000000E+00  0.14821472070E+04  0.14821472070E+04  0.50400001928E-02 0. -1.
       -1   -1    0    0    0  501  0.00000000000E+00  0.00000000000E+00 -0.26937159549E+04  0.26937159549E+04  0.50400001928E-02 0.  1.
    10030    2    1    2    0    0  0.00000000000E+00  0.00000000000E+00 -0.12115687479E+04  0.41758631619E+04  0.39962400224E+04 0.  0.
        1    1    3    3  502    0  0.19797893337E+02  0.19453303923E+04 -0.10821033789E+04  0.22261289304E+04  0.50400001928E-02 0.  1.
       -1    1    3    3    0  502 -0.19797893337E+02 -0.19453303923E+04 -0.12946536901E+03  0.19497342316E+04  0.50400001928E-02 0. -1.
</event>
<event>
 5   0  0.2612363E-08  0.4006872E+04  0.7818609E-02  0.8003162E-01
        2   -1    0    0  501    0  0.00000000000E+00  0.00000000000E+00  0.24137444111E+04  0.24137444111E+04  0.25500000920E-02 0. -1.
       -2   -1    0    0    0  501  0.00000000000E+00  0.00000000000E+00 -0.16628748893E+04  0.16628748893E+04  0.25500000920E-02 0.  1.
    10030    2    1    2    0    0  0.00000000000E+00  0.00000000000E+00  0.75086952182E+03  0.40766193004E+04  0.40068715829E+04 0.  0.
        4    1    3    3  502    0 -0.15411042014E+03 -0.42030257839E+03  0.23622066837E+04  0.24042517149E+04  0.12699999809E+01 0. -1.
       -4    1    3    3    0  502  0.15411042014E+03  0.42030257839E+03 -0.16113371619E+04  0.16723675855E+04  0.12699999809E+01 0.  1.
</event>
<event>
 5   0  0.8329875E-09  0.3997657E+04  0.7818609E-02  0.8005019E-01
       -1   -1    0    0    0  501  0.00000000000E+00  0.00000000000E+00  0.23428568494E+04  0.23428568494E+04  0.50400001928E-02 0. -1.
        1   -1    0    0  501    0  0.00000000000E+00  0.00000000000E+00 -0.17053179668E+04  0.17053179669E+04  0.50400001928E-02 0.  1.
    10030    2    1    2    0    0  0.00000000000E+00  0.00000000000E+00  0.63753888258E+03  0.40481748163E+04  0.39976572535E+04 0.  0.
        3    1    3    3  502    0 -0.22627091475E+03 -0.89437423885E+02  0.23278056922E+04  0.23404864731E+04  0.10100000352E+00 0. -1.
       -3    1    3    3    0  502  0.22627091475E+03  0.89437423885E+02 -0.16902668096E+04  0.17076883432E+04  0.10100000352E+00 0.  1.
</event>
<event>
 5   0  0.8329875E-09  0.4012419E+04  0.7818609E-02  0.8002046E-01
       -1   -1    0    0    0  501  0.00000000000E+00  0.00000000000E+00  0.27582251459E+04  0.27582251459E+04  0.50400001928E-02 0. -1.
        1   -1    0    0  501    0  0.00000000000E+00  0.00000000000E+00 -0.14592267151E+04  0.14592267151E+04  0.50400001928E-02 0.  1.
    10030    2    1    2    0    0  0.00000000000E+00  0.00000000000E+00  0.12989984308E+04  0.42174518610E+04  0.40124186317E+04 0.  0.
        1    1    3    3  502    0 -0.13933367018E+04 -0.95800191652E+03  0.17843563767E+04  0.24582681945E+04  0.50400001928E-02 0. -1.
       -1    1    3    3    0  502  0.13933367018E+04  0.95800191652E+03 -0.48535794595E+03  0.17591836665E+04  0.50400001928E-02 0.  1.
</event>
<event>
 5   0  0.8329875E-09  0.4008333E+04  0.7818609E-02  0.8002868E-01
       -1   -1    0    0    0  501  0.00000000000E+00  0.00000000000E+00  0.15192651116E+04  0.15192651116E+04  0.50400001928E-02 0.  1.
        1   -1    0    0  501    0  0.00000000000E+00  0.00000000000E+00 -0.26438327832E+04  0.26438327832E+04  0.50400001928E-02 0. -1.
    10030    2    1    2    0    0  0.00000000000E+00  0.00000000000E+00 -0.11245676716E+04  0.41630978949E+04  0.40083327749E+04 0.  0.
        1    1    3    3  502    0 -0.10689471641E+04 -0.16350838784E+04 -0.97181444748E+02  0.19559119516E+04  0.50400001928E-02 0.  1.
       -1    1    3    3    0  502  0.10689471641E+04  0.16350838784E+04 -0.10273862268E+04  0.22071859433E+04  0.50400001928E-02 0. -1.
</event>
<event>
 5   0  0.2612363E-08  0.3996822E+04  0.7818609E-02  0.8005188E-01
        2   -1    0    0  501    0  0.00000000000E+00  0.00000000000E+00  0.14555934956E+04  0.14555934956E+04  0.25500000920E-02 0. -1.
       -2   -1    0    0    0  501  0.00000000000E+00  0.00000000000E+00 -0.27436548529E+04  0.27436548529E+04  0.25500000920E-02 0.  1.
    10030    2    1    2    0    0  0.00000000000E+00  0.00000000000E+00 -0.12880613573E+04  0.41992483485E+04  0.39968218164E+04 0.  0.
        4    1    3    3  502    0  0.64132763845E+02 -0.12534140737E+04 -0.22779418584E+04  0.26008038324E+04  0.12699999809E+01 0.  1.
       -4    1    3    3    0  502 -0.64132763845E+02  0.12534140737E+04  0.98988050111E+03  0.15984445161E+04  0.12699999809E+01 0. -1.
</event>
<event>
 5   0  0.2650452E-08  0.3988098E+04  0.7818609E-02  0.8006952E-01
       -2   -1    0    0    0  501  0.00000000000E+00  0.00000000000E+00  0.25384441845E+04  0.25384441845E+04  0.25500000920E-02 0. -1.
        2   -1    0    0  501    0  0.00000000000E+00  0.00000000000E+00 -0.15664047623E+04  0.15664047623E+04  0.25500000920E-02 0.  1.
    10030    2    1    2    0    0  0.00000000000E+00  0.00000000000E+00  0.97203942221E+03  0.41048489468E+04  0.39880978220E+04 0.  0.
        3    1    3    3  502    0  0.44564399152E+03 -0.86365211891E+03  0.22781813445E+04  0.24768132344E+04  0.10100000352E+00 0. -1.
       -3    1    3    3    0  502 -0.44564399152E+03  0.86365211891E+03 -0.13061419222E+04  0.16280357124E+04  0.10100000352E+00 0.  1.
</event>
<event>
 5   0  0.2587493E-08  0.3997196E+04  0.7818609E-02  0.8005112E-01
        2   -1    0    0  501    0  0.00000000000E+00  0.00000000000E+00  0.18929206663E+04  0.18929206663E+04  0.25500000920E-02 0.  1.
       -2   -1    0    0    0  501  0.00000000000E+00  0.00000000000E+00 -0.21101748821E+04  0.21101748821E+04  0.25500000920E-02 0. -1.
    10030    2    1    2    0    0  0.00000000000E+00  0.00000000000E+00 -0.21725421589E+03  0.40030955484E+04  0.39971958390E+04 0.  0.
        5    1    3    3  502    0  0.44569836734E+03 -0.52980664858E+03  0.17689812622E+04  0.18996470503E+04  0.46999998093E+01 0.  1.
       -5    1    3    3    0  502 -0.44569836734E+03  0.52980664858E+03 -0.19862354781E+04  0.21034484981E+04  0.46999998093E+01 0. -1.
</event>
<event>
 5   0  0.2650452E-08  0.3997158E+04  0.7818609E-02  0.8005120E-01
        2   -1    0    0  501    0  0.00000000000E+00  0.00000000000E+00  0.24697944777E+04  0.24697944777E+04  0.25500000920E-02 0. -1.
       -2   -1    0    0    0  501  0.00000000000E+00  0.00000000000E+00 -0.16172676719E+04  0.16172676719E+04  0.25500000920E-02 0.  1.
    10030    2    1    2    0    0  0.00000000000E+00  0.00000000000E+00  0.85252680586E+03  0.40870621496E+04  0.39971583732E+04 0.  0.
        3    1    3    3  502    0 -0.55114879484E+03  0.17561155739E+04 -0.37010740416E+03  0.18774148193E+04  0.10100000352E+00 0. -1.
       -3    1    3    3    0  502  0.55114879484E+03 -0.17561155739E+04  0.12226342100E+04  0.22096473304E+04  0.10100000352E+00 0.  1.
</event>
<event>
 5   0  0.8329875E-09  0.3999157E+04  0.7818609E-02  0.8004717E-01
       -1   -1    0    0    0  501  0.00000000000E+00  0.00000000000E+00  0.18233069365E+04  0.18233069365E+04  0.50400001928E-02 0.  1.
        1   -1    0    0  501    0  0.00000000000E+00  0.00000000000E+00 -0.21928910803E+04  0.21928910803E+04  0.50400001928E-02 0. -1.
    10030    2    1    2    0    0  0.00000000000E+00  0.00000000000E+00 -0.36958414380E+03  0.40161980168E+04  0.39991566700E+04 0.  0.
        5    1    3    3  502    0  0.14437180467E+04  0.11567420190E+04  0.57733405183E+03  0.19379655813E+04  0.46999998093E+01 0.  1.
       -5    1    3    3    0  502 -0.14437180467E+04 -0.11567420190E+04 -0.94691819564E+03  0.20782324355E+04  0.46999998093E+01 0. -1.
</event>
<event>
 5   0  0.2587493E-08  0.3998311E+04  0.7818609E-02  0.8004887E-01
        2   -1    0    0  501    0  0.00000000000E+00  0.00000000000E+00  0.14137463681E+04  0.14137463681E+04  0.25500000920E-02 0.  1.
       -2   -1    0    0    0  501  0.00000000000E+00  0.00000000000E+00 -0.28269722461E+04  0.28269722461E+04  0.25500000920E-02 0. -1.
    10030    2    1    2    0    0  0.00000000000E+00  0.00000000000E+00 -0.14132258780E+04  0.42407186142E+04  0.39983105160E+04 0.  0.
        5    1    3    3  502    0  0.17962512047E+04  0.74743759840E+03 -0.21893374523E+03  0.19578394798E+04  0.46999998093E+01 0.  1.
       -5    1    3    3    0  502 -0.17962512047E+04 -0.74743759840E+03 -0.11942921328E+04  0.22828791344E+04  0.46999998093E+01 0. -1.
</event>
<event>
 5   0  0.2599332E-08  0.3999687E+04  0.7818609E-02  0.8004610E-01
       -2   -1    0    0    0  501  0.00000000000E+00  0.00000000000E+00  0.20167603024E+04  0.20167603024E+04  0.25500000920E-02 0. -1.
        2   -1    0    0  501    0  0.00000000000E+00  0.00000000000E+00 -0.19830682064E+04  0.19830682064E+04  0.25500000920E-02 0.  1.
    10030    2    1    2    0    0  0.00000000000E+00  0.00000000000E+00  0.33692095977E+02  0.39998285089E+04  0.39996866056E+04 0.  0.
        2    1    3    3  502    0  0.14456277666E+04  0.46255457278E+03 -0.12853433311E+04  0.19889454118E+04  0.25500000920E-02 0.  1.
       -2    1    3    3    0  502 -0.14456277666E+04 -0.46255457278E+03  0.13190354270E+04  0.20108830971E+04  0.25500000920E-02 0. -1.
</event>
<event>
 5   0  0.2587493E-08  0.4002164E+04  0.7818609E-02  0.8004110E-01
       -2   -1    0    0    0  501  0.00000000000E+00  0.00000000000E+00  0.26625633671E+04  0.26625633671E+04  0.25500000920E-02 0. -1.
        2   -1    0    0  501    0  0.00000000000E+00  0.00000000000E+00 -0.15039376686E+04  0.15039376686E+04  0.25500000920E-02 0.  1.
    10030    2    1    2    0    0  0.00000000000E+00  0.00000000000E+00  0.11586256985E+04  0.41665010357E+04  0.40021640860E+04 0.  0.
        5    1    3    3  502    0 -0.17073896515E+03 -0.23072932863E+02 -0.14961959538E+04  0.15060904941E+04  0.46999998093E+01 0.  1.
       -5    1    3    3    0  502  0.17073896515E+03  0.23072932863E+02  0.26548216522E+04  0.26604105416E+04  0.46999998093E+01 0. -1.
</event>
<event>
 5   0  0.8329875E-09  0.4001320E+04  0.7818609E-02  0.8004280E-01
        1   -1    0    0  501    0  0.00000000000E+00  0.00000000000E+00  0.15125284861E+04  0.15125284861E+04  0.50400001928E-02 0.  1.
       -1   -1    0    0    0  501  0.00000000000E+00  0.00000000000E+00 -0.26463244712E+04  0.26463244712E+04  0.50400001928E-02 0. -1.
    10030    2    1    2    0    0  0.00000000000E+00  0.00000000000E+00 -0.11337959851E+04  0.41588529573E+04  0.40013203552E+04 0.  0.
        1    1    3    3  502    0  0.12951475340E+04  0.14593347955E+04 -0.10265487543E+04  0.22047375184E+04  0.50400001928E-02 0. -1.
       -1    1    3    3    0  502 -0.12951475340E+04 -0.14593347955E+04 -0.10724723079E+03  0.19541154389E+04  0.50400001928E-02 0.  1.
</event>
<event>
 5   0  0.2599332E-08  0.4004130E+04  0.7818609E-02  0.8003714E-01
       -2   -1    0    0    0  501  0.00000000000E+00  0.00000000000E+00  0.23258545357E+04  0.23258545357E+04  0.25500000920E-02 0.  1.
        2   -1    0    0  501    0  0.00000000000E+00  0.00000000000E+00 -0.17233513151E+04  0.17233513151E+04  0.25500000920E-02 0. -1.
    10030    2    1    2    0    0  0.00000000000E+00  0.00000000000E+00  0.60250322060E+03  0.40492058509E+04  0.40041301043E+04 0.  0.
        2    1    3    3  502    0  0.16595105750E+04  0.11186864382E+04  0.35504610277E+03  0.20326072987E+04  0.25500000920E-02 0. -1.
       -2    1    3    3    0  502 -0.16595105750E+04 -0.11186864382E+04  0.24745711784E+03  0.20165985522E+04  0.25500000920E-02 0.  1.
</event>
<event>
 5   0  0.8329875E-09  0.3999262E+04  0.7818609E-02  0.8004695E-01
       -1   -1    0    0    0  501  0.00000000000E+00  0.00000000000E+00  0.28365499689E+04  0.28365499689E+04  0.50400001928E-02 0.  1.
        1   -1    0    0  501    0  0.00000000000E+00  0.00000000000E+00 -0.14096433770E+04  0.14096433770E+04  0.50400001928E-02 0. -1.
    10030    2    1    2    0    0  0.00000000000E+00  0.00000000000E+00  0.14269065919E+04  0.42461933459E+04  0.39992618704E+04 0.  0.
        5    1    3    3  502    0  0.66268068062E+03 -0.18464978586E+04  0.11243932630E+04  0.22611904666E+04  0.46999998093E+01 0. -1.
       -5    1    3    3    0  502 -0.66268068062E+03  0.18464978586E+04  0.30251332889E+03  0.19850028792E+04  0.46999998093E+01 0.  1.
</event>
<event>
 5   0  0.8329875E-09  0.3999440E+04  0.7818609E-02  0.8004659E-01
        1   -1    0    0  501    0  0.00000000000E+00  0.00000000000E+00  0.15356510113E+04  0.15356510113E+04  0.50400001928E-02 0. -1.
       -1   -1    0    0    0  501  0.00000000000E+00  0.00000000000E+00 -0.26040296130E+04  0.26040296130E+04  0.50400001928E-02 0.  1.
    10030    2    1    2    0    0  0.00000000000E+00  0.00000000000E+00 -0.10683786017E+04  0.41396806243E+04  0.39994403152E+04 0.  0.
        5    1    3    3  502    0 -0.12052083512E+04 -0.15450705661E+04 -0.94703414619E+03  0.21763882898E+04  0.46999998093E+01 0.  1.
       -5    1    3    3    0  502  0.12052083512E+04  0.15450705661E+04 -0.12134445547E+03  0.19632923345E+04  0.46999998093E+01 0. -1.
</event>
<event>
 5   0  0.2612363E-08  0.3999535E+04  0.7818609E-02  0.8004640E-01
        2   -1    0    0  501    0  0.00000000000E+00  0.00000000000E+00  0.24106915479E+04  0.24106915479E+04  0.25500000920E-02 0. -1.
       -2   -1    0    0    0  501  0.00000000000E+00  0.00000000000E+00 -0.16588893118E+04  0.16588893118E+04  0.25500000920E-02 0.  1.
    10030    2    1    2    0    0  0.00000000000E+00  0.00000000000E+00  0.75180223614E+03  0.40695808597E+04  0.39995351944E+04 0.  0.
        4    1    3    3  502    0 -0.51793270012E+02  0.15062001806E+04  0.17133594824E+04  0.22818685010E+04  0.12699999809E+01 0. -1.
       -4    1    3    3    0  502  0.51793270012E+02 -0.15062001806E+04 -0.96155724627E+03  0.17877123587E+04  0.12699999809E+01 0.  1.
</event>
<event>
 5   0  0.8329875E-09  0.3978153E+04  0.7818609E-02  0.8008968E-01
       -1   -1    0    0    0  501  0.00000000000E+00  0.00000000000E+00  0.25756965427E+04  0.25756965427E+04  0.50400001928E-02 0. -1.
        1   -1    0    0  501    0  0.00000000000E+00  0.00000000000E+00 -0.15360606338E+04  0.15360606338E+04  0.50400001928E-02 0.  1.
    10030    2    1    2    0    0  0.00000000000E+00  0.00000000000E+00  0.10396359089E+04  0.41117571765E+04  0.39781533726E+04 0.  0.
        5    1    3    3  502    0  0.45067432245E+03  0.16525582099E+04  0.15648877848E+04  0.23201189303E+04  0.46999998093E+01 0.  1.
       -5    1    3    3    0  502 -0.45067432245E+03 -0.16525582099E+04 -0.52525187589E+03  0.17916382462E+04  0.46999998093E+01 0. -1.
</event>
<event>
 5   0  0.8329875E-09  0.4011994E+04  0.7818609E-02  0.8002131E-01
       -1   -1    0    0    0  501  0.00000000000E+00  0.00000000000E+00  0.22957563822E+04  0.22957563822E+04  0.50400001928E-02 0. -1.
        1   -1    0    0  501    0  0.00000000000E+00  0.00000000000E+00 -0.17528094278E+04  0.17528094278E+04  0.50400001928E-02 0.  1.
    10030    2    1    2    0    0  0.00000000000E+00  0.00000000000E+00  0.54294695442E+03  0.40485658100E+04  0.40119937341E+04 0.  0.
        1    1    3    3  502    0 -0.16268314055E+04  0.11973148989E+03 -0.90669118262E+03  0.18662810486E+04  0.50400001928E-02 0.  1.
       -1    1    3    3    0  502  0.16268314055E+04 -0.11973148989E+03  0.14496381370E+04  0.21822847614E+04  0.50400001928E-02 0. -1.
</event>
<event>
 5   0  0.8329875E-09  0.3996633E+04  0.7818609E-02  0.8005226E-01
        1   -1    0    0  501    0  0.00000000000E+00  0.00000000000E+00  0.23373755519E+04  0.23373755519E+04  0.50400001928E-02 0. -1.
       -1   -1    0    0    0  501  0.00000000000E+00  0.00000000000E+00 -0.17084412806E+04  0.17084412807E+04  0.50400001928E-02 0.  1.
    10030    2    1    2    0    0  0.00000000000E+00  0.00000000000E+00  0.62893427121E+03  0.40458168325E+04  0.39966330235E+04 0.  0.
        5    1    3    3  502    0  0.19624547188E+04  0.31685835027E+03  0.52098519998E+03  0.20550122642E+04  0.46999998093E+01 0.  1.
       -5    1    3    3    0  502 -0.19624547188E+04 -0.31685835027E+03  0.10794907122E+03  0.19908045683E+04  0.46999998093E+01 0. -1.
</event>
<event>
 5   0  0.2587493E-08  0.3990892E+04  0.7818609E-02  0.8006386E-01
       -2   -1    0    0    0  501  0.00000000000E+00  0.00000000000E+00  0.19270460122E+04  0.19270460122E+04  0.25500000920E-02 0.  1.
        2   -1    0    0  501    0  0.00000000000E+00  0.00000000000E+00 -0.20662738137E+04  0.20662738137E+04  0.25500000920E-02 0. -1.
    10030    2    1    2    0    0  0.00000000000E+00  0.00000000000E+00 -0.13922780152E+03  0.39933198259E+04  0.39908919869E+04 0.  0.
        5    1    3    3  502    0  0.17424678823E+03  0.34866417118E+03  0.18885779023E+04  0.19283872097E+04  0.46999998093E+01 0.  1.
       -5    1    3    3    0  502 -0.17424678823E+03 -0.34866417118E+03 -0.20278057038E+04  0.20649326163E+04  0.46999998093E+01 0. -1.
</event>
<event>
 5   0  0.8329875E-09  0.3997575E+04  0.7818609E-02  0.8005036E-01
        1   -1    0    0  501    0  0.00000000000E+00  0.00000000000E+00  0.24908164606E+04  0.24908164606E+04  0.50400001928E-02 0. -1.
       -1   -1    0    0    0  501  0.00000000000E+00  0.00000000000E+00 -0.16039526658E+04  0.16039526658E+04  0.50400001928E-02 0.  1.
    10030    2    1    2    0    0  0.00000000000E+00  0.00000000000E+00  0.88686379486E+03  0.40947691264E+04  0.39975751160E+04 0.  0.
        1    1    3    3  502    0  0.12106888238E+04  0.27349962849E+03  0.20482343513E+04  0.23949600065E+04  0.50400001928E-02 0. -1.
       -1    1    3    3    0  502 -0.12106888238E+04 -0.27349962849E+03 -0.11613705564E+04  0.16998091199E+04  0.50400001928E-02 0.  1.
</event>
<event>
 5   0  0.2587493E-08  0.4026631E+04  0.7818609E-02  0.7999196E-01
       -2   -1    0    0    0  501  0.00000000000E+00  0.00000000000E+00  0.25994064674E+04  0.25994064674E+04  0.25500000920E-02 0. -1.
        2   -1    0    0  501    0  0.00000000000E+00  0.00000000000E+00 -0.15593712733E+04  0.15593712733E+04  0.25500000920E-02 0.  1.
    10030    2    1    2    0    0  0.00000000000E+00  0.00000000000E+00  0.10400351942E+04  0.41587777407E+04  0.40266312336E+04 0.  0.
        5    1    3    3  502    0 -0.95306933413E+03 -0.15805324257E+04 -0.31073920352E+03  0.18716316003E+04  0.46999998093E+01 0.  1.
       -5    1    3    3    0  502  0.95306933413E+03  0.15805324257E+04  0.13507743977E+04  0.22871461405E+04  0.46999998093E+01 0. -1.
</event>
<event>
 5   0  0.8329875E-09  0.3996647E+04  0.7818609E-02  0.8005223E-01
        1   -1    0    0  501    0  0.00000000000E+00  0.00000000000E+00  0.20549932164E+04  0.20549932164E+04  0.50400001928E-02 0.  1.
       -1   -1    0    0    0  501  0.00000000000E+00  0.00000000000E+00 -0.19432163704E+04  0.19432163704E+04  0.50400001928E-02 0. -1.
    10030    2    1    2    0    0  0.00000000000E+00  0.00000000000E+00  0.11177684606E+03  0.39982095868E+04  0.39966468241E+04 0.  0.
        5    1    3    3  502    0  0.68143869067E+03 -0.14838977531E+04  0.12082777129E+04  0.20313218239E+04  0.46999998093E+01 0.  1.
       -5    1    3    3    0  502 -0.68143869067E+03  0.14838977531E+04 -0.10965008669E+04  0.19668877629E+04  0.46999998093E+01 0. -1.
</event>
<event>
 5   0  0.2612363E-08  0.4002323E+04  0.7818609E-02  0.8004078E-01
        2   -1    0    0  501    0  0.00000000000E+00  0.00000000000E+00  0.18520937185E+04  0.18520937185E+04  0.25500000920E-02 0. -1.
       -2   -1    0    0    0  501  0.00000000000E+00  0.00000000000E+00 -0.21622269289E+04  0.21622269289E+04  0.25500000920E-02 0.  1.
    10030    2    1    2    0    0  0.00000000000E+00  0.00000000000E+00 -0.31013321043E+03  0.40143206474E+04  0.40023227821E+04 0.  0.
        4    1    3    3  502    0  0.10229664756E+04 -0.15725585417E+04  0.54361654412E+03  0.19531823615E+04  0.12699999809E+01 0. -1.
       -4    1    3    3    0  502 -0.10229664756E+04  0.15725585417E+04 -0.85374975455E+03  0.20611382859E+04  0.12699999809E+01 0.  1.
</event>
<event>
 5   0  0.8329875E-09  0.3998833E+04  0.7818609E-02  0.8004782E-01
       -1   -1    0    0    0  501  0.00000000000E+00  0.00000000000E+00  0.15473163851E+04  0.15473163851E+04  0.50400001928E-02 0.  1.
        1   -1    0    0  501    0  0.00000000000E+00  0.00000000000E+00 -0.25836123774E+04  0.25836123774E+04  0.50400001928E-02 0. -1.
    10030    2    1    2    0    0  0.00000000000E+00  0.00000000000E+00 -0.10362959923E+04  0.41309287625E+04  0.39988327118E+04 0.  0.
        4    1    3    3  502    0 -0.51403645095E+02  0.30205661245E+03 -0.25592153588E+04  0.25774920751E+04  0.12699999809E+01 0. -1.
       -4    1    3    3    0  502  0.51403645095E+02 -0.30205661245E+03  0.15229193665E+04  0.15534366873E+04  0.12699999809E+01 0.  1.
</event>
<event>
 5   0  0.8329875E-09  0.4016910E+04  0.7818609E-02  0.8001144E-01
       -1   -1    0    0    0  501  0.00000000000E+00  0.00000000000E+00  0.16990791507E+04  0.16990791507E+04  0.50400001928E-02 0.  1.
        1   -1    0    0  501    0  0.00000000000E+00  0.00000000000E+00 -0.23741631258E+04  0.23741631258E+04  0.50400001928E-02 0. -1.
    10030    2    1    2    0    0  0.00000000000E+00  0.00000000000E+00 -0.67508397511E+03  0.40732422766E+04  0.40169097911E+04 0.  0.
        2    1    3    3  502    0 -0.54032809217E+03 -0.37695207432E+03 -0.22614751899E+04  0.23554866479E+04  0.25500000920E-02 0. -1.
       -2    1    3    3    0  502  0.54032809217E+03  0.37695207432E+03  0.15863912148E+04  0.17177556287E+04  0.25500000920E-02 0.  1.
</event>
<event>
 5   0  0.8329875E-09  0.4000779E+04  0.7818609E-02  0.8004389E-01
        1   -1    0    0  501    0  0.00000000000E+00  0.00000000000E+00  0.32230520459E+04  0.32230520459E+04  0.50400001928E-02 0. -1.
       -1   -1    0    0    0  501  0.00000000000E+00  0.00000000000E+00 -0.12415433824E+04  0.12415433824E+04  0.50400001928E-02 0.  1.
    10030    2    1    2    0    0  0.00000000000E+00  0.00000000000E+00  0.19815086634E+04  0.44645954283E+04  0.40007793935E+04 0.  0.
        3    1    3    3  502    0 -0.17864839513E+04  0.80288288951E+03  0.53689377894E+03  0.20308620787E+04  0.10100000352E+00 0. -1.
       -3    1    3    3    0  502  0.17864839513E+04 -0.80288288951E+03  0.14446148845E+04  0.24337333496E+04  0.10100000352E+00 0.  1.
</event>
<event>
 5   0  0.2650452E-08  0.3999016E+04  0.7818609E-02  0.8004745E-01
        2   -1    0    0  501    0  0.00000000000E+00  0.00000000000E+00  0.19891149853E+04  0.19891149853E+04  0.25500000920E-02 0.  1.
       -2   -1    0    0    0  501  0.00000000000E+00  0.00000000000E+00 -0.20099553241E+04  0.20099553241E+04  0.25500000920E-02 0. -1.
    10030    2    1    2    0    0  0.00000000000E+00  0.00000000000E+00 -0.20840338766E+02  0.39990703094E+04  0.39990160064E+04 0.  0.
        3    1    3    3  502    0  0.99821245959E+03 -0.56594882048E+03  0.16270714742E+04  0.19910017012E+04  0.10100000352E+00 0.  1.
       -3    1    3    3    0  502 -0.99821245959E+03  0.56594882048E+03 -0.16479118129E+04  0.20080686082E+04  0.10100000352E+00 0. -1.
</event>
<event>
 5   0  0.8329875E-09  0.4003355E+04  0.7818609E-02  0.8003870E-01
       -1   -1    0    0    0  501  0.00000000000E+00  0.00000000000E+00  0.18593558369E+04  0.18593558369E+04  0.50400001928E-02 0.  1.
        1   -1    0    0  501    0  0.00000000000E+00  0.00000000000E+00 -0.21548925812E+04  0.21548925812E+04  0.50400001928E-02 0. -1.
    10030    2    1    2    0    0  0.00000000000E+00  0.00000000000E+00 -0.29553674432E+03  0.40142484181E+04  0.40033546427E+04 0.  0.
        2    1    3    3  502    0  0.16500828185E+02  0.12617546474E+04  0.14102986793E+04  0.18924162947E+04  0.25500000920E-02 0.  1.
       -2    1    3    3    0  502 -0.16500828185E+02 -0.12617546474E+04 -0.17058354236E+04  0.21218321234E+04  0.25500000920E-02 0. -1.
</event>
<event>
 5   0  0.8329875E-09  0.4001758E+04  0.7818609E-02  0.8004192E-01
        1   -1    0    0  501    0  0.00000000000E+00  0.00000000000E+00  0.17127248941E+04  0.17127248941E+04  0.50400001928E-02 0. -1.
       -1   -1    0    0    0  501  0.00000000000E+00  0.00000000000E+00 -0.23375135450E+04  0.23375135450E+04  0.50400001928E-02 0.  1.
    10030    2    1    2    0    0  0.00000000000E+00  0.00000000000E+00 -0.62478865083E+03  0.40502384391E+04  0.40017584329E+04 0.  0.
        2    1    3    3  502    0  0.75989422018E+03 -0.11323330964E+04  0.11695503878E+04  0.17965148418E+04  0.25500000920E-02 0. -1.
       -2    1    3    3    0  502 -0.75989422018E+03  0.11323330964E+04 -0.17943390387E+04  0.22537235973E+04  0.25500000920E-02 0.  1.
</event>
<event>
 5   0  0.2587493E-08  0.4008092E+04  0.7818609E-02  0.8002916E-01
        2   -1    0    0  501    0  0.00000000000E+00  0.00000000000E+00  0.12215287909E+04  0.12215287909E+04  0.25500000920E-02 0.  1.
       -2   -1    0    0    0  501  0.00000000000E+00  0.00000000000E+00 -0.32878476338E+04  0.32878476338E+04  0.25500000920E-02 0. -1.
    10030    2    1    2    0    0  0.00000000000E+00  0.00000000000E+00 -0.20663188428E+04  0.45093764247E+04  0.40080920872E+04 0.  0.
        5    1    3    3  502    0 -0.14243602983E+04  0.27433672053E+02  0.55259741707E+03  0.15280513280E+04  0.46999998093E+01 0. -1.
       -5    1    3    3    0  502  0.14243602983E+04 -0.27433672053E+02 -0.26189162599E+04  0.29813250967E+04  0.46999998093E+01 0.  1.
</event>
<event>
 5   0  0.2612363E-08  0.4000540E+04  0.7818609E-02  0.8004438E-01
       -2   -1    0    0    0  501  0.00000000000E+00  0.00000000000E+00  0.18354898756E+04  0.18354898756E+04  0.25500000920E-02 0.  1.
        2   -1    0    0  501    0  0.00000000000E+00  0.00000000000E+00 -0.21798428636E+04  0.21798428636E+04  0.25500000920E-02 0. -1.
    10030    2    1    2    0    0  0.00000000000E+00  0.00000000000E+00 -0.34435298805E+03  0.40153327392E+04  0.40005397168E+04 0.  0.
        4    1    3    3  502    0 -0.19995170084E+04 -0.82908924286E+01 -0.22660697796E+03  0.20123343015E+04  0.12699999809E+01 0. -1.
       -4    1    3    3    0  502  0.19995170084E+04  0.82908924286E+01 -0.11774601010E+03  0.20029984377E+04  0.12699999809E+01 0.  1.
</event>
<event>
 5   0  0.8329875E-09  0.3995919E+04  0.7818609E-02  0.8005370E-01
       -1   -1    0    0    0  501  0.00000000000E+00  0.00000000000E+00  0.19113387329E+04  0.19113387329E+04  0.50400001928E-02 0.  1.
        1   -1    0    0  501    0  0.00000000000E+00  0.00000000000E+00 -0.20885061391E+04  0.20885061391E+04  0.50400001928E-02 0. -1.
    10030    2    1    2    0    0  0.00000000000E+00  0.00000000000E+00 -0.17716740618E+03  0.39998448720E+04  0.39959192572E+04 0.  0.
        2    1    3    3  502    0  0.61809202923E+03 -0.11968258335E+04  0.13884718657E+04  0.19344983727E+04  0.25500000920E-02 0.  1.
       -2    1    3    3    0  502 -0.61809202923E+03  0.11968258335E+04 -0.15656392719E+04  0.20653464992E+04  0.25500000920E-02 0. -1.
</event>
<event>
 5   0  0.8329875E-09  0.3999488E+04  0.7818609E-02  0.8004650E-01
        1   -1    0    0  501    0  0.00000000000E+00  0.00000000000E+00  0.13813460157E+04  0.13813460157E+04  0.50400001928E-02 0. -1.
       -1   -1    0    0    0  501  0.00000000000E+00  0.00000000000E+00 -0.28949844091E+04  0.28949844091E+04  0.50400001928E-02 0.  1.
    10030    2    1    2    0    0  0.00000000000E+00  0.00000000000E+00 -0.15136383934E+04  0.42763304248E+04  0.39994875566E+04 0.  0.
        3    1    3    3  502    0 -0.12575917797E+04  0.59807734168E+03 -0.22913417400E+04  0.26813206766E+04  0.10100000352E+00 0.  1.
       -3    1    3    3    0  502  0.12575917797E+04 -0.59807734168E+03  0.77770334660E+03  0.15950097481E+04  0.10100000352E+00 0. -1.
</event>
<event>
 5   0  0.8329875E-09  0.3994372E+04  0.7818609E-02  0.8005683E-01
        1   -1    0    0  501    0  0.00000000000E+00  0.00000000000E+00  0.27679799896E+04  0.27679799896E+04  0.50400001928E-02 0.  1.
       -1   -1    0    0    0  501  0.00000000000E+00  0.00000000000E+00 -0.14410335308E+04  0.14410335308E+04  0.50400001928E-02 0. -1.
    10030    2    1    2    0    0  0.00000000000E+00  0.00000000000E+00  0.13269464588E+04  0.42090135204E+04  0.39943720295E+04 0.  0.
        5    1    3    3  502    0  0.15724883327E+04 -0.11783053115E+04  0.28705648977E+03  0.19858364691E+04  0.46999998093E+01 0.  1.
       -5    1    3    3    0  502 -0.15724883327E+04  0.11783053115E+04  0.10398899690E+04  0.22231770513E+04  0.46999998093E+01 0. -1.
</event>
<event>
 5   0  0.2599332E-08  0.4006624E+04  0.7818609E-02  0.8003212E-01
       -2   -1    0    0    0  501  0.00000000000E+00  0.00000000000E+00  0.13143455850E+04  0.13143455850E+04  0.25500000920E-02 0. -1.
        2   -1    0    0  501    0  0.00000000000E+00  0.00000000000E+00 -0.30534269008E+04  0.30534269008E+04  0.25500000920E-02 0.  1.
    10030    2    1    2    0    0  0.00000000000E+00  0.00000000000E+00 -0.17390813158E+04  0.43677724858E+04  0.40066235990E+04 0.  0.
        2    1    3    3  502    0  0.85476242078E+03 -0.15588721711E+04  0.13702742774E+03  0.17831090146E+04  0.25500000920E-02 0. -1.
       -2    1    3    3    0  502 -0.85476242078E+03  0.15588721711E+04 -0.18761087435E+04  0.25846634712E+04  0.25500000920E-02 0.  1.
</event>
<event>
 5   0  0.8329875E-09  0.3898589E+04  0.7818609E-02  0.8025323E-01
       -1   -1    0    0    0  501  0.00000000000E+00  0.00000000000E+00  0.17827082180E+04  0.17827082180E+04  0.50400001928E-02 0.  1.
        1   -1    0    0  501    0  0.00000000000E+00  0.00000000000E+00 -0.21314470606E+04  0.21314470607E+04  0.50400001928E-02 0. -1.
    10030    2    1    2    0    0  0.00000000000E+00  0.00000000000E+00 -0.34873884266E+03  0.39141552787E+04  0.38985885606E+04 0.  0.
        1    1    3    3  502    0 -0.10905095121E+04 -0.11577655068E+04 -0.13058637426E+04  0.20578902009E+04  0.50400001928E-02 0. -1.
       -1    1    3    3    0  502  0.10905095121E+04  0.11577655068E+04  0.95712489998E+03  0.18562650777E+04  0.50400001928E-02 0.  1.
</event>
<event>
 5   0  0.2587493E-08  0.3958826E+04  0.7818609E-02  0.8012905E-01
        2   -1    0    0  501    0  0.00000000000E+00  0.00000000000E+00  0.29793051896E+04  0.29793051896E+04  0.25500000920E-02 0.  1.
       -2   -1    0    0    0  501  0.00000000000E+00  0.00000000000E+00 -0.13150969853E+04  0.13150969853E+04  0.25500000920E-02 0. -1.
    10030    2    1    2    0    0  0.00000000000E+00  0.00000000000E+00  0.16642082043E+04  0.42944021749E+04  0.39588257214E+04 0.  0.
        5    1    3    3  502    0 -0.47434578160E+03 -0.94607605661E+03  0.26466140769E+04  0.28503775166E+04  0.46999998093E+01 0.  1.
       -5    1    3    3    0  502  0.47434578160E+03  0.94607605661E+03 -0.98240587254E+03  0.14440246583E+04  0.46999998093E+01 0. -1.
</event>
<event>
 5   0  0.8329875E-09  0.4001192E+04  0.7818609E-02  0.8004306E-01
       -1   -1    0    0    0  501  0.00000000000E+00  0.00000000000E+00  0.19500694397E+04  0.19500694397E+04  0.50400001928E-02 0.  1.
        1   -1    0    0  501    0  0.00000000000E+00  0.00000000000E+00 -0.20524316077E+04  0.20524316077E+04  0.50400001928E-02 0. -1.
    10030    2    1    2    0    0  0.00000000000E+00  0.00000000000E+00 -0.10236216795E+03  0.40025010474E+04  0.40011919000E+04 0.  0.
        3    1    3    3  502    0  0.77225838340E+03  0.17758274096E+02  0.17948727481E+04  0.19540385254E+04  0.10100000352E+00 0.  1.
       -3    1    3    3    0  502 -0.77225838340E+03 -0.17758274096E+02 -0.18972349160E+04  0.20484625219E+04  0.10100000352E+00 0. -1.
</event>
<event>
 5   0  0.2599332E-08  0.3996414E+04  0.7818609E-02  0.8005270E-01
       -2   -1    0    0    0  501  0.00000000000E+00  0.00000000000E+00  0.19777998190E+04  0.19777998190E+04  0.25500000920E-02 0.  1.
        2   -1    0    0  501    0  0.00000000000E+00  0.00000000000E+00 -0.20188245078E+04  0.20188245078E+04  0.25500000920E-02 0. -1.
    10030    2    1    2    0    0  0.00000000000E+00  0.00000000000E+00 -0.41024688835E+02  0.39966243268E+04  0.39964137655E+04 0.  0.
        2    1    3    3  502    0 -0.12711160834E+04  0.14577764984E+04 -0.52251720752E+03  0.20034651604E+04  0.25500000920E-02 0. -1.
       -2    1    3    3    0  502  0.12711160834E+04 -0.14577764984E+04  0.48149251868E+03  0.19931591664E+04  0.25500000920E-02 0.  1.
</event>
<event>
 5   0  0.2587493E-08  0.3998767E+04  0.7818609E-02  0.8004795E-01
        2   -1    0    0  501    0  0.00000000000E+00  0.00000000000E+00  0.18790724337E+04  0.18790724337E+04  0.25500000920E-02 0. -1.
       -2   -1    0    0    0  501  0.00000000000E+00  0.00000000000E+00 -0.21273979006E+04  0.21273979006E+04  0.25500000920E-02 0.  1.
    10030    2    1    2    0    0  0.00000000000E+00  0.00000000000E+00 -0.24832546685E+03  0.40064703343E+04  0.39987671853E+04 0.  0.
        5    1    3    3  502    0 -0.15624489076E+04 -0.83497995969E+03 -0.10528109640E+04  0.20607938126E+04  0.46999998093E+01 0.  1.
       -5    1    3    3    0  502  0.15624489076E+04  0.83497995969E+03  0.80448549712E+03  0.19456765217E+04  0.46999998093E+01 0. -1.
</event>
<event>
 5   0  0.8329875E-09  0.4001827E+04  0.7818609E-02  0.8004178E-01
       -1   -1    0    0    0  501  0.00000000000E+00  0.00000000000E+00  0.18963382953E+04  0.18963382953E+04  0.50400001928E-02 0.  1.
        1   -1    0    0  501    0  0.00000000000E+00  0.00000000000E+00 -0.21112552609E+04  0.21112552609E+04  0.50400001928E-02 0. -1.
    10030    2    1    2    0    0  0.00000000000E+00  0.00000000000E+00 -0.21491696559E+03  0.40075935562E+04  0.40018266841E+04 0.  0.
        1    1    3    3  502    0 -0.18062231930E+04 -0.86093388997E+03 -0.10965629306E+03  0.20039146410E+04  0.50400001928E-02 0.  1.
       -1    1    3    3    0  502  0.18062231930E+04  0.86093388997E+03 -0.10526067254E+03  0.20036789152E+04  0.50400001928E-02 0. -1.
</event>
<event>
 5   0  0.8329875E-09  0.4044112E+04  0.7818609E-02  0.7995706E-01
        1   -1    0    0  501    0  0.00000000000E+00  0.00000000000E+00  0.30599122520E+04  0.30599122520E+04  0.50400001928E-02 0.  1.
       -1   -1    0    0    0  501  0.00000000000E+00  0.00000000000E+00 -0.13362180112E+04  0.13362180112E+04  0.50400001928E-02 0. -1.
    10030    2    1    2    0    0  0.00000000000E+00  0.00000000000E+00  0.17236942409E+04  0.43961302632E+04  0.40441117016E+04 0.  0.
        4    1    3    3  502    0 -0.10182811731E+04 -0.11463345767E+04 -0.57112718173E+03  0.16362051766E+04  0.12699999809E+01 0. -1.
       -4    1    3    3    0  502  0.10182811731E+04  0.11463345767E+04  0.22948214226E+04  0.27599250866E+04  0.12699999809E+01 0.  1.
</event>
<event>
 5   0  0.2650452E-08  0.3989656E+04  0.7818609E-02  0.8006637E-01
        2   -1    0    0  501    0  0.00000000000E+00  0.00000000000E+00  0.18552842573E+04  0.18552842573E+04  0.25500000920E-02 0. -1.
       -2   -1    0    0    0  501  0.00000000000E+00  0.00000000000E+00 -0.21448669782E+04  0.21448669782E+04  0.25500000920E-02 0.  1.
    10030    2    1    2    0    0  0.00000000000E+00  0.00000000000E+00 -0.28958272085E+03  0.40001512355E+04  0.39896555935E+04 0.  0.
        3    1    3    3  502    0  0.83743656313E+03  0.36566816231E+03  0.16330978723E+04  0.18713689837E+04  0.10100000352E+00 0. -1.
       -3    1    3    3    0  502 -0.83743656313E+03 -0.36566816231E+03 -0.19226805932E+04  0.21287822518E+04  0.10100000352E+00 0.  1.
</event>
<event>
 5   0  0.8329875E-09  0.4007798E+04  0.7818609E-02  0.8002975E-01
        1   -1    0    0  501    0  0.00000000000E+00  0.00000000000E+00  0.15350269038E+04  0.15350269038E+04  0.50400001928E-02 0. -1.
       -1   -1    0    0    0  501  0.00000000000E+00  0.00000000000E+00 -0.26159872436E+04  0.26159872436E+04  0.50400001928E-02 0.  1.
    10030    2    1    2    0    0  0.00000000000E+00  0.00000000000E+00 -0.10809603398E+04  0.41510141475E+04  0.40077977988E+04 0.  0.
        5    1    3    3  502    0  0.12058312592E+04 -0.42112572954E+03 -0.21397469605E+04  0.24919701143E+04  0.46999998093E+01 0.  1.
       -5    1    3    3    0  502 -0.12058312592E+04  0.42112572954E+03  0.10587866207E+04  0.16590440331E+04  0.46999998093E+01 0. -1.
</event>
<event>
 5   0  0.2746876E-08  0.3994996E+04  0.7818609E-02  0.8005557E-01
       -2   -1    0    0    0  501  0.00000000000E+00  0.00000000000E+00  0.13258581757E+04  0.13258581757E+04  0.25500000920E-02 0. -1.
        2   -1    0    0  501    0  0.00000000000E+00  0.00000000000E+00 -0.30093696461E+04  0.30093696461E+04  0.25500000920E-02 0.  1.
    10030    2    1    2    0    0  0.00000000000E+00  0.00000000000E+00 -0.16835114705E+04  0.43352278218E+04  0.39949955439E+04 0.  0.
        1    1    3    3  502    0 -0.16104659286E+04 -0.67296482221E+03  0.21231577219E+03  0.17582832952E+04  0.50400001928E-02 0. -1.
       -1    1    3    3    0  502  0.16104659286E+04  0.67296482221E+03 -0.18958272427E+04  0.25769445266E+04  0.50400001928E-02 0.  1.
</event>
<event>
 5   0  0.8329875E-09  0.3998970E+04  0.7818609E-02  0.8004754E-01
       -1   -1    0    0    0  501  0.00000000000E+00  0.00000000000E+00  0.19009341465E+04  0.19009341465E+04  0.50400001928E-02 0. -1.
        1   -1    0    0  501    0  0.00000000000E+00  0.00000000000E+00 -0.21031455075E+04  0.21031455075E+04  0.50400001928E-02 0.  1.
    10030    2    1    2    0    0  0.00000000000E+00  0.00000000000E+00 -0.20221136100E+03  0.40040796539E+04  0.39989704225E+04 0.  0.
        1    1    3    3  502    0  0.55448735739E+03 -0.90906103389E+03 -0.17956310220E+04  0.20876156159E+04  0.50400001928E-02 0.  1.
       -1    1    3    3    0  502 -0.55448735739E+03  0.90906103389E+03  0.15934196610E+04  0.19164640380E+04  0.50400001928E-02 0. -1.
</event>
<event>
 5   0  0.2599332E-08  0.4000526E+04  0.7818609E-02  0.8004440E-01
       -2   -1    0    0    0  501  0.00000000000E+00  0.00000000000E+00  0.14552428162E+04  0.14552428162E+04  0.25500000920E-02 0.  1.
        2   -1    0    0  501    0  0.00000000000E+00  0.00000000000E+00 -0.27494050483E+04  0.27494050483E+04  0.25500000920E-02 0. -1.
    10030    2    1    2    0    0  0.00000000000E+00  0.00000000000E+00 -0.12941622320E+04  0.42046478645E+04  0.40005259381E+04 0.  0.
        2    1    3    3  502    0 -0.82193741116E+03  0.21678892776E+03  0.12559608758E+04  0.15165804524E+04  0.25500000920E-02 0.  1.
       -2    1    3    3    0  502  0.82193741116E+03 -0.21678892776E+03 -0.25501231078E+04  0.26880674121E+04  0.25500000920E-02 0. -1.
</event>
<event>
 5   0  0.8329875E-09  0.4001119E+04  0.7818609E-02  0.8004321E-01
        1   -1    0    0  501    0  0.00000000000E+00  0.00000000000E+00  0.25228532605E+04  0.25228532605E+04  0.50400001928E-02 0. -1.
       -1   -1    0    0    0  501  0.00000000000E+00  0.00000000000E+00 -0.15863936889E+04  0.15863936889E+04  0.50400001928E-02 0.  1.
    10030    2    1    2    0    0  0.00000000000E+00  0.00000000000E+00  0.93645957163E+03  0.41092469494E+04  0.40011190887E+04 0.  0.
        3    1    3    3  502    0  0.88278782970E+03  0.57922604848E+03  0.22133921659E+04  0.24523299243E+04  0.10100000352E+00 0. -1.
       -3    1    3    3    0  502 -0.88278782970E+03 -0.57922604848E+03 -0.12769325943E+04  0.16569170251E+04  0.10100000352E+00 0.  1.
</event>
<event>
 5   0  0.2612363E-08  0.3995050E+04  0.7818609E-02  0.8005546E-01
       -2   -1    0    0    0  501  0.00000000000E+00  0.00000000000E+00  0.23927095185E+04  0.23927095185E+04  0.25500000920E-02 0.  1.
        2   -1    0    0  501    0  0.00000000000E+00  0.00000000000E+00 -0.16676097585E+04  0.16676097585E+04  0.25500000920E-02 0. -1.
    10030    2    1    2    0    0  0.00000000000E+00  0.00000000000E+00  0.72509976007E+03  0.40603192770E+04  0.39950498081E+04 0.  0.
        4    1    3    3  502    0 -0.11850303097E+03  0.17022112955E+04 -0.69294391717E+03  0.18416674912E+04  0.12699999809E+01 0. -1.
       -4    1    3    3    0  502  0.11850303097E+03 -0.17022112955E+04  0.14180436772E+04  0.22186517858E+04  0.12699999809E+01 0.  1.
</event>
<event>
 5   0  0.2746876E-08  0.3998156E+04  0.7818609E-02  0.8004919E-01
        2   -1    0    0  501    0  0.00000000000E+00  0.00000000000E+00  0.14978700348E+04  0.14978700348E+04  0.25500000920E-02 0. -1.
       -2   -1    0    0    0  501  0.00000000000E+00  0.00000000000E+00 -0.26679969196E+04  0.26679969196E+04  0.25500000920E-02 0.  1.
    10030    2    1    2    0    0  0.00000000000E+00  0.00000000000E+00 -0.11701268848E+04  0.41658669544E+04  0.39981558943E+04 0.  0.
        1    1    3    3  502    0  0.41697985781E+03  0.61001277201E+02  0.14510620382E+04  0.15110176691E+04  0.50400001928E-02 0. -1.
       -1    1    3    3    0  502 -0.41697985781E+03 -0.61001277201E+02 -0.26211889230E+04  0.26548492853E+04  0.50400001928E-02 0.  1.
</event>
<event>
 5   0  0.8329875E-09  0.4005484E+04  0.7818609E-02  0.8003441E-01
        1   -1    0    0  501    0  0.00000000000E+00  0.00000000000E+00  0.26256222656E+04  0.26256222656E+04  0.50400001928E-02 0. -1.
       -1   -1    0    0    0  501  0.00000000000E+00  0.00000000000E+00 -0.15276287960E+04  0.15276287960E+04  0.50400001928E-02 0.  1.
    10030    2    1    2    0    0  0.00000000000E+00  0.00000000000E+00  0.10979934697E+04  0.41532510616E+04  0.40054843304E+04 0.  0.
        3    1    3    3  502    0  0.17119751976E+04 -0.83279448212E+02  0.16231586791E+04  0.23606013326E+04  0.10100000352E+00 0. -1.
       -3    1    3    3    0  502 -0.17119751976E+04  0.83279448212E+02 -0.52516520942E+03  0.17926497290E+04  0.10100000352E+00 0.  1.
</event>
<event>
 5   0  0.8329875E-09  0.4001201E+04  0.7818609E-02  0.8004304E-01
       -1   -1    0    0    0  501  0.00000000000E+00  0.00000000000E+00  0.18281186121E+04  0.18281186121E+04  0.50400001928E-02 0.  1.
        1   -1    0    0  501    0  0.00000000000E+00  0.00000000000E+00 -0.21893558761E+04  0.21893558761E+04  0.50400001928E-02 0. -1.
    10030    2    1    2    0    0  0.00000000000E+00  0.00000000000E+00 -0.36123726397E+03  0.40174744882E+04  0.40012009325E+04 0.  0.
        5    1    3    3  502    0  0.12540486170E+04  0.11774102019E+04 -0.12062659545E+04  0.21009598665E+04  0.46999998093E+01 0. -1.
       -5    1    3    3    0  502 -0.12540486170E+04 -0.11774102019E+04  0.84502869053E+03  0.19165146217E+04  0.46999998093E+01 0.  1.
</event>
<event>
 5   0  0.8329875E-09  0.3999820E+04  0.7818609E-02  0.8004583E-01
        1   -1    0    0  501    0  0.00000000000E+00  0.00000000000E+00  0.19533575292E+04  0.19533575292E+04  0.50400001928E-02 0. -1.
       -1   -1    0    0    0  501  0.00000000000E+00  0.00000000000E+00 -0.20475718517E+04  0.20475718517E+04  0.50400001928E-02 0.  1.
    10030    2    1    2    0    0  0.00000000000E+00  0.00000000000E+00 -0.94214322486E+02  0.40009293809E+04  0.39998199425E+04 0.  0.
        3    1    3    3  502    0  0.10040898735E+04  0.43510619572E+03 -0.17215266684E+04  0.20398941041E+04  0.10100000352E+00 0.  1.
       -3    1    3    3    0  502 -0.10040898735E+04 -0.43510619572E+03  0.16273123459E+04  0.19610352768E+04  0.10100000352E+00 0. -1.
</event>
<event>
 5   0  0.2599332E-08  0.4005338E+04  0.7818609E-02  0.8003471E-01
       -2   -1    0    0    0  501  0.00000000000E+00  0.00000000000E+00  0.13097673591E+04  0.13097673591E+04  0.25500000920E-02 0.  1.
        2   -1    0    0  501    0  0.00000000000E+00  0.00000000000E+00 -0.30621335705E+04  0.30621335705E+04  0.25500000920E-02 0. -1.
    10030    2    1    2    0    0  0.00000000000E+00  0.00000000000E+00 -0.17523662114E+04  0.43719009295E+04  0.40053377384E+04 0.  0.
        2    1    3    3  502    0 -0.16288386552E+04 -0.10994650459E+04 -0.12971526480E+04  0.23546854873E+04  0.25500000920E-02 0.  1.
       -2    1    3    3    0  502  0.16288386552E+04  0.10994650459E+04 -0.45521356339E+03  0.20172154422E+04  0.25500000920E-02 0. -1.
</event>
<event>
 5   0  0.8329875E-09  0.3982215E+04  0.7818609E-02  0.8008144E-01
       -1   -1    0    0    0  501  0.00000000000E+00  0.00000000000E+00  0.18649141648E+04  0.18649141648E+04  0.50400001928E-02 0. -1.
        1   -1    0    0  501    0  0.00000000000E+00  0.00000000000E+00 -0.21258396470E+04  0.21258396470E+04  0.50400001928E-02 0.  1.
    10030    2    1    2    0    0  0.00000000000E+00  0.00000000000E+00 -0.26092548221E+03  0.39907538117E+04  0.39822146952E+04 0.  0.
        3    1    3    3  502    0  0.72575020046E+02 -0.14148744317E+04 -0.15325237617E+04  0.20870471680E+04  0.10100000352E+00 0.  1.
       -3    1    3    3    0  502 -0.72575020046E+02  0.14148744317E+04  0.12715982794E+04  0.19037066438E+04  0.10100000352E+00 0. -1.
</event>
<event>
 5   0  0.2746876E-08  0.3997787E+04  0.7818609E-02  0.8004993E-01
        2   -1    0    0  501    0  0.00000000000E+00  0.00000000000E+00  0.25101965440E+04  0.25101965440E+04  0.25500000920E-02 0. -1.
       -2   -1    0    0    0  501  0.00000000000E+00  0.00000000000E+00 -0.15917383813E+04  0.15917383813E+04  0.25500000920E-02 0.  1.
    10030    2    1    2    0    0  0.00000000000E+00  0.00000000000E+00  0.91845816274E+03  0.41019349253E+04  0.39977874799E+04 0.  0.
        1    1    3    3  502    0  0.19429436530E+04 -0.45319844048E+03  0.33290671609E+03  0.20226828093E+04  0.50400001928E-02 0. -1.
       -1    1    3    3    0  502 -0.19429436530E+04  0.45319844048E+03  0.58555144665E+03  0.20792521160E+04  0.50400001928E-02 0.  1.
</event>
<event>
 5   0  0.2612363E-08  0.3992792E+04  0.7818609E-02  0.8006002E-01
        2   -1    0    0  501    0  0.00000000000E+00  0.00000000000E+00  0.21349715643E+04  0.21349715643E+04  0.25500000920E-02 0. -1.
       -2   -1    0    0    0  501  0.00000000000E+00  0.00000000000E+00 -0.18668150080E+04  0.18668150080E+04  0.25500000920E-02 0.  1.
    10030    2    1    2    0    0  0.00000000000E+00  0.00000000000E+00  0.26815655638E+03  0.40017865723E+04  0.39927919845E+04 0.  0.
        4    1    3    3  502    0  0.19147856616E+03  0.12173376424E+04 -0.14401351230E+04  0.18954064899E+04  0.12699999809E+01 0.  1.
       -4    1    3    3    0  502 -0.19147856616E+03 -0.12173376424E+04  0.17082916793E+04  0.21063800824E+04  0.12699999809E+01 0. -1.
</event>
<event>
 5   0  0.8329875E-09  0.4025585E+04  0.7818609E-02  0.7999405E-01
       -1   -1    0    0    0  501  0.00000000000E+00  0.00000000000E+00  0.19478635888E+04  0.19478635888E+04  0.50400001928E-02 0. -1.
        1   -1    0    0  501    0  0.00000000000E+00  0.00000000000E+00 -0.20798861130E+04  0.20798861130E+04  0.50400001928E-02 0.  1.
    10030    2    1    2    0    0  0.00000000000E+00  0.00000000000E+00 -0.13202252420E+03  0.40277497018E+04  0.40255853877E+04 0.  0.
        5    1    3    3  502    0  0.10606571019E+04 -0.76433227566E+03 -0.15972310790E+04  0.20640655331E+04  0.46999998093E+01 0.  1.
       -5    1    3    3    0  502 -0.10606571019E+04  0.76433227566E+03  0.14652085548E+04  0.19636841687E+04  0.46999998093E+01 0. -1.
</event>
<event>
 5   0  0.2650452E-08  0.3993201E+04  0.7818609E-02  0.8005920E-01
        2   -1    0    0  501    0  0.00000000000E+00  0.00000000000E+00  0.14407460990E+04  0.14407460990E+04  0.25500000920E-02 0. -1.
       -2   -1    0    0    0  501  0.00000000000E+00  0.00000000000E+00 -0.27669087509E+04  0.27669087509E+04  0.25500000920E-02 0.  1.
    10030    2    1    2    0    0  0.00000000000E+00  0.00000000000E+00 -0.13261626519E+04  0.42076548499E+04  0.39932007158E+04 0.  0.
        3    1    3    3  502    0 -0.17821407619E+04 -0.82129984947E+03 -0.10514596006E+04  0.22262359354E+04  0.10100000352E+00 0.  1.
       -3    1    3    3    0  502  0.17821407619E+04  0.82129984947E+03 -0.27470305135E+03  0.19814189145E+04  0.10100000352E+00 0. -1.
</event>
<event>
 5   0  0.2650452E-08  0.3978060E+04  0.7818609E-02  0.8008987E-01
        2   -1    0    0  501    0  0.00000000000E+00  0.00000000000E+00  0.14322400275E+04  0.14322400275E+04  0.25500000920E-02 0.  1.
       -2   -1    0    0    0  501  0.00000000000E+00  0.00000000000E+00 -0.27622746853E+04  0.27622746853E+04  0.25500000920E-02 0. -1.
    10030    2    1    2    0    0  0.00000000000E+00  0.00000000000E+00 -0.13300346578E+04  0.41945147128E+04  0.39780600153E+04 0.  0.
        3    1    3    3  502    0  0.29659126181E+03  0.18701256005E+04 -0.22860241577E+02  0.18936363799E+04  0.10100000352E+00 0. -1.
       -3    1    3    3    0  502 -0.29659126181E+03 -0.18701256005E+04 -0.13071744162E+04  0.23008783329E+04  0.10100000352E+00 0.  1.
</event>
<event>
 5   0  0.8329875E-09  0.4002797E+04  0.7818609E-02  0.8003983E-01
       -1   -1    0    0    0  501  0.00000000000E+00  0.00000000000E+00  0.19609003636E+04  0.19609003636E+04  0.50400001928E-02 0.  1.
        1   -1    0    0  501    0  0.00000000000E+00  0.00000000000E+00 -0.20427327381E+04  0.20427327381E+04  0.50400001928E-02 0. -1.
    10030    2    1    2    0    0  0.00000000000E+00  0.00000000000E+00 -0.81832374534E+02  0.40036331017E+04  0.40027967068E+04 0.  0.
        2    1    3    3  502    0  0.15513972765E+04 -0.73203306411E+03 -0.10720969115E+04  0.20228933991E+04  0.25500000920E-02 0. -1.
       -2    1    3    3    0  502 -0.15513972765E+04  0.73203306411E+03  0.99026453699E+03  0.19807397026E+04  0.25500000920E-02 0.  1.
</event>
<event>
 5   0  0.8329875E-09  0.3999218E+04  0.7818609E-02  0.8004704E-01
        1   -1    0    0  501    0  0.00000000000E+00  0.00000000000E+00  0.16243566568E+04  0.16243566568E+04  0.50400001928E-02 0.  1.
       -1   -1    0    0    0  501  0.00000000000E+00  0.00000000000E+00 -0.24615509737E+04  0.24615509737E+04  0.50400001928E-02 0. -1.
    10030    2    1    2    0    0  0.00000000000E+00  0.00000000000E+00 -0.83719431687E+03  0.40859076305E+04  0.39992182787E+04 0.  0.
        5    1    3    3  502    0  0.11286256305E+04 -0.15286203663E+04  0.21775119219E+03  0.19125673085E+04  0.46999998093E+01 0.  1.
       -5    1    3    3    0  502 -0.11286256305E+04  0.15286203663E+04 -0.10549455091E+04  0.21733403219E+04  0.46999998093E+01 0. -1.
</event>
<event>
 5   0  0.8329875E-09  0.3996969E+04  0.7818609E-02  0.8005158E-01
        1   -1    0    0  501    0  0.00000000000E+00  0.00000000000E+00  0.21855559128E+04  0.21855559128E+04  0.50400001928E-02 0. -1.
       -1   -1    0    0    0  501  0.00000000000E+00  0.00000000000E+00 -0.18274251639E+04  0.18274251639E+04  0.50400001928E-02 0.  1.
    10030    2    1    2    0    0  0.00000000000E+00  0.00000000000E+00  0.35813074891E+03  0.40129810767E+04  0.39969687875E+04 0.  0.
        1    1    3    3  502    0 -0.11548012902E+04  0.15795338744E+04  0.58744612913E+03  0.20429356904E+04  0.50400001928E-02 0. -1.
       -1    1    3    3    0  502  0.11548012902E+04 -0.15795338744E+04 -0.22931538021E+03  0.19700453863E+04  0.50400001928E-02 0.  1.
</event>
<event>
 5   0  0.2587493E-08  0.3987961E+04  0.7818609E-02  0.8006980E-01
       -2   -1    0    0    0  501  0.00000000000E+00  0.00000000000E+00  0.15750532170E+04  0.15750532170E+04  0.25500000920E-02 0. -1.
        2   -1    0    0  501    0  0.00000000000E+00  0.00000000000E+00 -0.25243329084E+04  0.25243329084E+04  0.25500000920E-02 0.  1.
    10030    2    1    2    0    0  0.00000000000E+00  0.00000000000E+00 -0.94927969139E+03  0.40993861253E+04  0.39879612175E+04 0.  0.
        5    1    3    3  502    0  0.20361674545E+03 -0.19768029414E+04 -0.30658832823E+03  0.20107779940E+04  0.46999998093E+01 0. -1.
       -5    1    3    3    0  502 -0.20361674545E+03  0.19768029414E+04 -0.64269136316E+03  0.20886081314E+04  0.46999998093E+01 0.  1.
</event>
<event>
 5   0  0.2650452E-08  0.4000485E+04  0.7818609E-02  0.8004449E-01
       -2   -1    0    0    0  501  0.00000000000E+00  0.00000000000E+00  0.13242267227E+04  0.13242267227E+04  0.25500000920E-02 0.  1.
        2   -1    0    0  501    0  0.00000000000E+00  0.00000000000E+00 -0.30213631458E+04  0.30213631458E+04  0.25500000920E-02 0. -1.
    10030    2    1    2    0    0  0.00000000000E+00  0.00000000000E+00 -0.16971364231E+04  0.43455898685E+04  0.40004848790E+04 0.  0.
        3    1    3    3  502    0 -0.91719121259E+03 -0.11866727343E+04 -0.22861940609E+04  0.27342485609E+04  0.10100000352E+00 0. -1.
       -3    1    3    3    0  502  0.91719121259E+03  0.11866727343E+04  0.58905763780E+03  0.16113413076E+04  0.10100000352E+00 0.  1.
</event>
<event>
 5   0  0.2612363E-08  0.3994470E+04  0.7818609E-02  0.8005663E-01
        2   -1    0    0  501    0  0.00000000000E+00  0.00000000000E+00  0.13775099379E+04  0.13775099379E+04  0.25500000920E-02 0. -1.
       -2   -1    0    0    0  501  0.00000000000E+00  0.00000000000E+00 -0.28957666573E+04  0.28957666573E+04  0.25500000920E-02 0.  1.
    10030    2    1    2    0    0  0.00000000000E+00  0.00000000000E+00 -0.15182567194E+04  0.42732765952E+04  0.39944698513E+04 0.  0.
        4    1    3    3  502    0  0.18816913947E+04  0.64784530939E+03 -0.93966670281E+03  0.22007819462E+04  0.12699999809E+01 0. -1.
       -4    1    3    3    0  502 -0.18816913947E+04 -0.64784530939E+03 -0.57859001662E+03  0.20724946489E+04  0.12699999809E+01 0.  1.
</event>
<event>
 5   0  0.2650452E-08  0.4004698E+04  0.7818609E-02  0.8003599E-01
        2   -1    0    0  501    0  0.00000000000E+00  0.00000000000E+00  0.17973489083E+04  0.17973489083E+04  0.25500000920E-02 0.  1.
       -2   -1    0    0    0  501  0.00000000000E+00  0.00000000000E+00 -0.22307312216E+04  0.22307312216E+04  0.25500000920E-02 0. -1.
    10030    2    1    2    0    0  0.00000000000E+00  0.00000000000E+00 -0.43338231326E+03  0.40280801299E+04  0.40046984036E+04 0.  0.
        3    1    3    3  502    0 -0.57193244678E+03  0.19409518132E+03 -0.21369269987E+04  0.22206387979E+04  0.10100000352E+00 0. -1.
       -3    1    3    3    0  502  0.57193244678E+03 -0.19409518132E+03  0.17035446854E+04  0.18074413320E+04  0.10100000352E+00 0.  1.
</event>
<event>
 5   0  0.8329875E-09  0.3993379E+04  0.7818609E-02  0.8005884E-01
        1   -1    0    0  501    0  0.00000000000E+00  0.00000000000E+00  0.19424559092E+04  0.19424559092E+04  0.50400001928E-02 0.  1.
       -1   -1    0    0    0  501  0.00000000000E+00  0.00000000000E+00 -0.20524368179E+04  0.20524368179E+04  0.50400001928E-02 0. -1.
    10030    2    1    2    0    0  0.00000000000E+00  0.00000000000E+00 -0.10998090873E+03  0.39948927272E+04  0.39933785322E+04 0.  0.
        5    1    3    3  502    0  0.16195463745E+04  0.97520291756E+03  0.58774421039E+03  0.19797516350E+04  0.46999998093E+01 0.  1.
       -5    1    3    3    0  502 -0.16195463745E+04 -0.97520291756E+03 -0.69772511912E+03  0.20151410922E+04  0.46999998093E+01 0. -1.
</event>
<event>
 5   0  0.8329875E-09  0.4003206E+04  0.7818609E-02  0.8003900E-01
        1   -1    0    0  501    0  0.00000000000E+00  0.00000000000E+00  0.13004701747E+04  0.13004701747E+04  0.50400001928E-02 0. -1.
       -1   -1    0    0    0  501  0.00000000000E+00  0.00000000000E+00 -0.30807425458E+04  0.30807425458E+04  0.50400001928E-02 0.  1.
    10030    2    1    2    0    0  0.00000000000E+00  0.00000000000E+00 -0.17802723711E+04  0.43812127205E+04  0.40032056139E+04 0.  0.
        4    1    3    3  502    0 -0.16484324851E+04  0.78774325346E+03  0.47156759474E+01  0.18269901318E+04  0.12699999809E+01 0. -1.
       -4    1    3    3    0  502  0.16484324851E+04 -0.78774325346E+03 -0.17849880471E+04  0.25542225887E+04  0.12699999809E+01 0.  1.
</event>
<event>
 5   0  0.8329875E-09  0.4028175E+04  0.7818609E-02  0.7998887E-01
       -1   -1    0    0    0  501  0.00000000000E+00  0.00000000000E+00  0.26719916406E+04  0.26719916406E+04  0.50400001928E-02 0. -1.
        1   -1    0    0  501    0  0.00000000000E+00  0.00000000000E+00 -0.15181738339E+04  0.15181738339E+04  0.50400001928E-02 0.  1.
    10030    2    1    2    0    0  0.00000000000E+00  0.00000000000E+00  0.11538178067E+04  0.41901654745E+04  0.40281746700E+04 0.  0.
        5    1    3    3  502    0  0.14749339637E+04  0.74948935817E+02 -0.84764499583E+03  0.17028128697E+04  0.46999998093E+01 0.  1.
       -5    1    3    3    0  502 -0.14749339637E+04 -0.74948935817E+02  0.20014628025E+04  0.24873526047E+04  0.46999998093E+01 0. -1.
</event>
<event>
 5   0  0.8329875E-09  0.4002791E+04  0.7818609E-02  0.8003984E-01
        1   -1    0    0  501    0  0.00000000000E+00  0.00000000000E+00  0.16012585960E+04  0.16012585960E+04  0.50400001928E-02 0. -1.
       -1   -1    0    0    0  501  0.00000000000E+00  0.00000000000E+00 -0.25015217843E+04  0.25015217843E+04  0.50400001928E-02 0.  1.
    10030    2    1    2    0    0  0.00000000000E+00  0.00000000000E+00 -0.90026318835E+03  0.41027803803E+04  0.40027906566E+04 0.  0.
        4    1    3    3  502    0 -0.18172171333E+04  0.55852387814E+03 -0.10913420900E+04  0.21920894604E+04  0.12699999809E+01 0.  1.
       -4    1    3    3    0  502  0.18172171333E+04 -0.55852387814E+03  0.19107890161E+03  0.19106909199E+04  0.12699999809E+01 0. -1.
</event>
<event>
 5   0  0.2650452E-08  0.4021436E+04  0.7818609E-02  0.8000236E-01
       -2   -1    0    0    0  501  0.00000000000E+00  0.00000000000E+00  0.21981726668E+04  0.21981726668E+04  0.25500000920E-02 0. -1.
        2   -1    0    0  501    0  0.00000000000E+00  0.00000000000E+00 -0.18392487852E+04  0.18392487852E+04  0.25500000920E-02 0.  1.
    10030    2    1    2    0    0  0.00000000000E+00  0.00000000000E+00  0.35892388156E+03  0.40374214520E+04  0.40214357671E+04 0.  0.
        3    1    3    3  502    0 -0.12717280923E+04  0.39200157828E+03 -0.13338549096E+04  0.18841779396E+04  0.10100000352E+00 0.  1.
       -3    1    3    3    0  502  0.12717280923E+04 -0.39200157828E+03  0.16927787911E+04  0.21532435125E+04  0.10100000352E+00 0. -1.
</event>
<event>
 5   0  0.8329875E-09  0.4000821E+04  0.7818609E-02  0.8004381E-01
        1   -1    0    0  501    0  0.00000000000E+00  0.00000000000E+00  0.16900666214E+04  0.16900666214E+04  0.50400001928E-02 0.  1.
       -1   -1    0    0    0  501  0.00000000000E+00  0.00000000000E+00 -0.23677425765E+04  0.23677425765E+04  0.50400001928E-02 0. -1.
    10030    2    1    2    0    0  0.00000000000E+00  0.00000000000E+00 -0.67767595513E+03  0.40578091979E+04  0.40008212639E+04 0.  0.
        3    1    3    3  502    0 -0.14726829894E+04 -0.13151720346E+04 -0.13061872928E+02  0.19744982377E+04  0.10100000352E+00 0.  1.
       -3    1    3    3    0  502  0.14726829894E+04  0.13151720346E+04 -0.66461408220E+03  0.20833109601E+04  0.10100000352E+00 0. -1.
</event>
<event>
 5   0  0.2587493E-08  0.3998940E+04  0.7818609E-02  0.8004760E-01
        2   -1    0    0  501    0  0.00000000000E+00  0.00000000000E+00  0.26127752670E+04  0.26127752670E+04  0.25500000920E-02 0. -1.
       -2   -1    0    0    0  501  0.00000000000E+00  0.00000000000E+00 -0.15301279498E+04  0.15301279498E+04  0.25500000920E-02 0.  1.
    10030    2    1    2    0    0  0.00000000000E+00  0.00000000000E+00  0.10826473172E+04  0.41429032168E+04  0.39989400909E+04 0.  0.
        5    1    3    3  502    0 -0.10646770342E+04 -0.65163087156E+03 -0.10768605545E+04  0.16485783948E+04  0.46999998093E+01 0.  1.
       -5    1    3    3    0  502  0.10646770342E+04  0.65163087156E+03  0.21595078717E+04  0.24943248220E+04  0.46999998093E+01 0. -1.
</event>
<event>
 5   0  0.2650452E-08  0.4000218E+04  0.7818609E-02  0.8004503E-01
        2   -1    0    0  501    0  0.00000000000E+00  0.00000000000E+00  0.20801833593E+04  0.20801833593E+04  0.25500000920E-02 0.  1.
       -2   -1    0    0    0  501  0.00000000000E+00  0.00000000000E+00 -0.19231167901E+04  0.19231167901E+04  0.25500000920E-02 0. -1.
    10030    2    1    2    0    0  0.00000000000E+00  0.00000000000E+00  0.15706656917E+03  0.40033001493E+04  0.40002177664E+04 0.  0.
        3    1    3    3  502    0 -0.75284121034E+03 -0.10782526807E+04  0.15866904592E+04  0.20608215243E+04  0.10100000352E+00 0.  1.
       -3    1    3    3    0  502  0.75284121034E+03  0.10782526807E+04 -0.14296238901E+04  0.19424786250E+04  0.10100000352E+00 0. -1.
</event>
<event>
 5   0  0.8329875E-09  0.3998216E+04  0.7818609E-02  0.8004906E-01
        1   -1    0    0  501    0  0.00000000000E+00  0.00000000000E+00  0.16672640024E+04  0.16672640025E+04  0.50400001928E-02 0.  1.
       -1   -1    0    0    0  501  0.00000000000E+00  0.00000000000E+00 -0.23970010208E+04  0.23970010208E+04  0.50400001928E-02 0. -1.
    10030    2    1    2    0    0  0.00000000000E+00  0.00000000000E+00 -0.72973701838E+03  0.40642650233E+04  0.39982163603E+04 0.  0.
        3    1    3    3  502    0  0.23955300163E+03 -0.82424232403E+03 -0.22001501037E+04  0.23616565242E+04  0.10100000352E+00 0. -1.
       -3    1    3    3    0  502 -0.23955300163E+03  0.82424232403E+03  0.14704130853E+04  0.17026084991E+04  0.10100000352E+00 0.  1.
</event>
<event>
 5   0  0.2612363E-08  0.3993836E+04  0.7818609E-02  0.8005791E-01
       -2   -1    0    0    0  501  0.00000000000E+00  0.00000000000E+00  0.17473139358E+04  0.17473139358E+04  0.25500000920E-02 0. -1.
        2   -1    0    0  501    0  0.00000000000E+00  0.00000000000E+00 -0.22821783342E+04  0.22821783342E+04  0.25500000920E-02 0.  1.
    10030    2    1    2    0    0  0.00000000000E+00  0.00000000000E+00 -0.53486439842E+03  0.40294922699E+04  0.39938362546E+04 0.  0.
        4    1    3    3  502    0  0.19270190347E+04  0.42115429585E+03 -0.58151044450E+03  0.20564360702E+04  0.12699999809E+01 0. -1.
       -4    1    3    3    0  502 -0.19270190347E+04 -0.42115429585E+03  0.46646046081E+02  0.19730561997E+04  0.12699999809E+01 0.  1.
</event>
<event>
 5   0  0.2587493E-08  0.3996598E+04  0.7818609E-02  0.8005233E-01
       -2   -1    0    0    0  501  0.00000000000E+00  0.00000000000E+00  0.15876223607E+04  0.15876223607E+04  0.25500000920E-02 0. -1.
        2   -1    0    0  501    0  0.00000000000E+00  0.00000000000E+00 -0.25152066489E+04  0.25152066489E+04  0.25500000920E-02 0.  1.
    10030    2    1    2    0    0  0.00000000000E+00  0.00000000000E+00 -0.92758428823E+03  0.41028290097E+04  0.39965977119E+04 0.  0.
        5    1    3    3  502    0  0.12752431320E+04  0.10865871017E+04 -0.15818978450E+04  0.23042003943E+04  0.46999998093E+01 0.  1.
       -5    1    3    3    0  502 -0.12752431320E+04 -0.10865871017E+04  0.65431355679E+03  0.17986286153E+04  0.46999998093E+01 0. -1.
</event>
<event>
 5   0  0.8329875E-09  0.3984704E+04  0.7818609E-02  0.8007639E-01
        1   -1    0    0  501    0  0.00000000000E+00  0.00000000000E+00  0.28871090489E+04  0.28871090489E+04  0.50400001928E-02 0.  1.
       -1   -1    0    0    0  501  0.00000000000E+00  0.00000000000E+00 -0.13748929810E+04  0.13748929810E+04  0.50400001928E-02 0. -1.
    10030    2    1    2    0    0  0.00000000000E+00  0.00000000000E+00  0.15122160679E+04  0.42620020300E+04  0.39847037364E+04 0.  0.
        2    1    3    3  502    0  0.43761306027E+03 -0.19317863108E+04  0.98591433133E+03  0.22125394030E+04  0.25500000920E-02 0.  1.
       -2    1    3    3    0  502 -0.43761306027E+03  0.19317863108E+04  0.52630173662E+03  0.20494626269E+04  0.25500000920E-02 0. -1.
</event>
<event>
 5   0  0.8329875E-09  0.4003666E+04  0.7818609E-02  0.8003807E-01
        1   -1    0    0  501    0  0.00000000000E+00  0.00000000000E+00  0.17829706831E+04  0.17829706831E+04  0.50400001928E-02 0.  1.
       -1   -1    0    0    0  501  0.00000000000E+00  0.00000000000E+00 -0.22475610086E+04  0.22475610086E+04  0.50400001928E-02 0. -1.
    10030    2    1    2    0    0  0.00000000000E+00  0.00000000000E+00 -0.46459032544E+03  0.40305316917E+04  0.40036660135E+04 0.  0.
        4    1    3    3  502    0 -0.16650127151E+04 -0.70514406934E+03  0.63244392191E+03  0.19155893159E+04  0.12699999809E+01 0.  1.
       -4    1    3    3    0  502  0.16650127151E+04  0.70514406934E+03 -0.10970342474E+04  0.21149423758E+04  0.12699999809E+01 0. -1.
</event>
<event>
 5   0  0.8329875E-09  0.3995418E+04  0.7818609E-02  0.8005472E-01
       -1   -1    0    0    0  501  0.00000000000E+00  0.00000000000E+00  0.29040606462E+04  0.29040606462E+04  0.50400001928E-02 0. -1.
        1   -1    0    0  501    0  0.00000000000E+00  0.00000000000E+00 -0.13742278152E+04  0.13742278152E+04  0.50400001928E-02 0.  1.
    10030    2    1    2    0    0  0.00000000000E+00  0.00000000000E+00  0.15298328310E+04  0.42782884614E+04  0.39954178340E+04 0.  0.
        3    1    3    3  502    0 -0.11253152468E+04 -0.47926919028E+03 -0.92640591911E+03  0.15343602245E+04  0.10100000352E+00 0.  1.
       -3    1    3    3    0  502  0.11253152468E+04  0.47926919028E+03  0.24562387501E+04  0.27439282369E+04  0.10100000352E+00 0. -1.
</event>
<event>
 5   0  0.8329875E-09  0.3998373E+04  0.7818609E-02  0.8004875E-01
       -1   -1    0    0    0  501  0.00000000000E+00  0.00000000000E+00  0.24879797264E+04  0.24879797264E+04  0.50400001928E-02 0. -1.
        1   -1    0    0  501    0  0.00000000000E+00  0.00000000000E+00 -0.16064226262E+04  0.16064226262E+04  0.50400001928E-02 0.  1.
    10030    2    1    2    0    0  0.00000000000E+00  0.00000000000E+00  0.88155710024E+03  0.40944023526E+04  0.39983731322E+04 0.  0.
        5    1    3    3  502    0  0.46235804652E+03  0.18213898417E+04 -0.25787500035E+03  0.18967755598E+04  0.46999998093E+01 0.  1.
       -5    1    3    3    0  502 -0.46235804652E+03 -0.18213898417E+04  0.11394321006E+04  0.21976267928E+04  0.46999998093E+01 0. -1.
</event>
<event>
 5   0  0.2746876E-08  0.3995686E+04  0.7818609E-02  0.8005417E-01
       -2   -1    0    0    0  501  0.00000000000E+00  0.00000000000E+00  0.19441323438E+04  0.19441323438E+04  0.25500000920E-02 0. -1.
        2   -1    0    0  501    0  0.00000000000E+00  0.00000000000E+00 -0.20530371472E+04  0.20530371472E+04  0.25500000920E-02 0.  1.
    10030    2    1    2    0    0  0.00000000000E+00  0.00000000000E+00 -0.10890480340E+03  0.39971694910E+04  0.39956856337E+04 0.  0.
        1    1    3    3  502    0 -0.77600297999E+03 -0.13038672512E+03  0.17825831701E+04  0.19485338286E+04  0.50400001928E-02 0. -1.
       -1    1    3    3    0  502  0.77600297999E+03  0.13038672512E+03 -0.18914879735E+04  0.20486356623E+04  0.50400001928E-02 0.  1.
</event>
<event>
 5   0  0.8329875E-09  0.4004299E+04  0.7818609E-02  0.8003680E-01
        1   -1    0    0  501    0  0.00000000000E+00  0.00000000000E+00  0.13970589609E+04  0.13970589609E+04  0.50400001928E-02 0. -1.
       -1   -1    0    0    0  501  0.00000000000E+00  0.00000000000E+00 -0.28693159338E+04  0.28693159338E+04  0.50400001928E-02 0.  1.
    10030    2    1    2    0    0  0.00000000000E+00  0.00000000000E+00 -0.14722569729E+04  0.42663748946E+04  0.40042994578E+04 0.  0.
        1    1    3    3  502    0  0.13500533100E+03 -0.46166057755E+03 -0.28068425674E+04  0.28477573855E+04  0.50400001928E-02 0.  1.
       -1    1    3    3    0  502 -0.13500533100E+03  0.46166057755E+03  0.13345855945E+04  0.14186175092E+04  0.50400001928E-02 0. -1.
</event>
<event>
 5   0  0.2746876E-08  0.3999298E+04  0.7818609E-02  0.8004688E-01
       -2   -1    0    0    0  501  0.00000000000E+00  0.00000000000E+00  0.18065433712E+04  0.18065433712E+04  0.25500000920E-02 0. -1.
        2   -1    0    0  501    0  0.00000000000E+00  0.00000000000E+00 -0.22133966068E+04  0.22133966068E+04  0.25500000920E-02 0.  1.
    10030    2    1    2    0    0  0.00000000000E+00  0.00000000000E+00 -0.40685323568E+03  0.40199399780E+04  0.39992984224E+04 0.  0.
        1    1    3    3  502    0 -0.43109211528E+03 -0.14576222677E+04  0.11025459500E+04  0.18777940939E+04  0.50400001928E-02 0. -1.
       -1    1    3    3    0  502  0.43109211528E+03  0.14576222677E+04 -0.15093991857E+04  0.21421458841E+04  0.50400001928E-02 0.  1.
</event>
<event>
 5   0  0.8329875E-09  0.4001868E+04  0.7818609E-02  0.8004170E-01
       -1   -1    0    0    0  501  0.00000000000E+00  0.00000000000E+00  0.15053366682E+04  0.15053366682E+04  0.50400001928E-02 0.  1.
        1   -1    0    0  501    0  0.00000000000E+00  0.00000000000E+00 -0.26596947227E+04  0.26596947227E+04  0.50400001928E-02 0. -1.
    10030    2    1    2    0    0  0.00000000000E+00  0.00000000000E+00 -0.11543580544E+04  0.41650313909E+04  0.40018675602E+04 0.  0.
        3    1    3    3  502    0  0.11512001959E+04  0.59960081420E+03  0.10077197713E+04  0.16432535334E+04  0.10100000352E+00 0.  1.
       -3    1    3    3    0  502 -0.11512001959E+04 -0.59960081420E+03 -0.21620778258E+04  0.25217778574E+04  0.10100000352E+00 0. -1.
</event>
<event>
 5   0  0.8329875E-09  0.3952155E+04  0.7818609E-02  0.8014269E-01
       -1   -1    0    0    0  501  0.00000000000E+00  0.00000000000E+00  0.14516156951E+04  0.14516156951E+04  0.50400001928E-02 0.  1.
        1   -1    0    0  501    0  0.00000000000E+00  0.00000000000E+00 -0.26900243708E+04  0.26900243708E+04  0.50400001928E-02 0. -1.
    10030    2    1    2    0    0  0.00000000000E+00  0.00000000000E+00 -0.12384086756E+04  0.41416400659E+04  0.39521546513E+04 0.  0.
        2    1    3    3  502    0  0.18347266673E+04 -0.64952820890E+03 -0.97730835560E+03  0.21778981748E+04  0.25500000920E-02 0. -1.
       -2    1    3    3    0  502 -0.18347266673E+04  0.64952820890E+03 -0.26110032002E+03  0.19637418911E+04  0.25500000920E-02 0.  1.
</event>
<event>
 5   0  0.8329875E-09  0.3994295E+04  0.7818609E-02  0.8005698E-01
        3   -1    0    0  501    0  0.00000000000E+00  0.00000000000E+00  0.23516250039E+04  0.23516250060E+04  0.10100000352E+00 0.  1.
       -3   -1    0    0    0  501  0.00000000000E+00  0.00000000000E+00 -0.16961028174E+04  0.16961028204E+04  0.10100000352E+00 0. -1.
    10030    2    1    2    0    0  0.00000000000E+00  0.00000000000E+00  0.65552218642E+03  0.40477278265E+04  0.39942948339E+04 0.  0.
        1    1    3    3  502    0  0.16630112810E+04 -0.99774196003E+03  0.81111367959E+03  0.21021419887E+04  0.50400001928E-02 0.  1.
       -1    1    3    3    0  502 -0.16630112810E+04  0.99774196003E+03 -0.15559149316E+03  0.19455858378E+04  0.50400001928E-02 0. -1.
</event>
<event>
 5   0  0.2587493E-08  0.4027555E+04  0.7818609E-02  0.7999011E-01
        2   -1    0    0  501    0  0.00000000000E+00  0.00000000000E+00  0.23761291401E+04  0.23761291401E+04  0.25500000920E-02 0.  1.
       -2   -1    0    0    0  501  0.00000000000E+00  0.00000000000E+00 -0.17066835323E+04  0.17066835323E+04  0.25500000920E-02 0. -1.
    10030    2    1    2    0    0  0.00000000000E+00  0.00000000000E+00  0.66944560776E+03  0.40828126724E+04  0.40275553251E+04 0.  0.
        5    1    3    3  502    0 -0.47516323857E+03  0.76830146217E+03  0.21591963393E+04  0.23405593694E+04  0.46999998093E+01 0.  1.
       -5    1    3    3    0  502  0.47516323857E+03 -0.76830146217E+03 -0.14897507315E+04  0.17422533031E+04  0.46999998093E+01 0. -1.
</event>
<event>
 5   0  0.2587493E-08  0.3959854E+04  0.7818609E-02  0.8012695E-01
       -2   -1    0    0    0  501  0.00000000000E+00  0.00000000000E+00  0.13593411906E+04  0.13593411906E+04  0.25500000920E-02 0. -1.
        2   -1    0    0  501    0  0.00000000000E+00  0.00000000000E+00 -0.28838317480E+04  0.28838317480E+04  0.25500000920E-02 0.  1.
    10030    2    1    2    0    0  0.00000000000E+00  0.00000000000E+00 -0.15244905574E+04  0.42431729386E+04  0.39598541800E+04 0.  0.
        5    1    3    3  502    0  0.81580632852E+02  0.16773033593E+04  0.36164807098E+03  0.17177931703E+04  0.46999998093E+01 0. -1.
       -5    1    3    3    0  502 -0.81580632852E+02 -0.16773033593E+04 -0.18861386284E+04  0.25253797683E+04  0.46999998093E+01 0.  1.
</event>
<event>
 5   0  0.2587493E-08  0.3998802E+04  0.7818609E-02  0.8004788E-01
       -2   -1    0    0    0  501  0.00000000000E+00  0.00000000000E+00  0.31599986075E+04  0.31599986075E+04  0.25500000920E-02 0.  1.
        2   -1    0    0  501    0  0.00000000000E+00  0.00000000000E+00 -0.12650654652E+04  0.12650654652E+04  0.25500000920E-02 0. -1.
    10030    2    1    2    0    0  0.00000000000E+00  0.00000000000E+00  0.18949331423E+04  0.44250640727E+04  0.39988023750E+04 0.  0.
        5    1    3    3  502    0  0.19751334997E+04  0.16073851278E+03  0.65344924458E+03  0.20866257970E+04  0.46999998093E+01 0. -1.
       -5    1    3    3    0  502 -0.19751334997E+04 -0.16073851278E+03  0.12414838977E+04  0.23384382758E+04  0.46999998093E+01 0.  1.
</event>
<event>
 5   0  0.8329875E-09  0.3986384E+04  0.7818609E-02  0.8007299E-01
       -1   -1    0    0    0  501  0.00000000000E+00  0.00000000000E+00  0.34198093365E+04  0.34198093365E+04  0.50400001928E-02 0. -1.
        1   -1    0    0  501    0  0.00000000000E+00  0.00000000000E+00 -0.11617061587E+04  0.11617061587E+04  0.50400001928E-02 0.  1.
    10030    2    1    2    0    0  0.00000000000E+00  0.00000000000E+00  0.22581031778E+04  0.45815154951E+04  0.39863836080E+04 0.  0.
        4    1    3    3  502    0 -0.93751680962E+03 -0.59435760461E+03 -0.77357668326E+03  0.13530045189E+04  0.12699999809E+01 0.  1.
       -4    1    3    3    0  502  0.93751680962E+03  0.59435760461E+03  0.30316798611E+04  0.32285109762E+04  0.12699999809E+01 0. -1.
</event>
<event>
 5   0  0.2599332E-08  0.3999800E+04  0.7818609E-02  0.8004587E-01
       -2   -1    0    0    0  501  0.00000000000E+00  0.00000000000E+00  0.20228800851E+04  0.20228800851E+04  0.25500000920E-02 0.  1.
        2   -1    0    0  501    0  0.00000000000E+00  0.00000000000E+00 -0.19771807417E+04  0.19771807417E+04  0.25500000920E-02 0. -1.
    10030    2    1    2    0    0  0.00000000000E+00  0.00000000000E+00  0.45699343383E+02  0.40000608268E+04  0.39997997685E+04 0.  0.
        2    1    3    3  502    0 -0.47777167953E+03  0.22364601194E+03 -0.19063475735E+04  0.19779899867E+04  0.25500000920E-02 0. -1.
       -2    1    3    3    0  502  0.47777167953E+03 -0.22364601194E+03  0.19520469169E+04  0.20220708401E+04  0.25500000920E-02 0.  1.
</event>
<event>
 5   0  0.2650452E-08  0.3996763E+04  0.7818609E-02  0.8005200E-01
       -2   -1    0    0    0  501  0.00000000000E+00  0.00000000000E+00  0.24773461583E+04  0.24773461583E+04  0.25500000920E-02 0. -1.
        2   -1    0    0  501    0  0.00000000000E+00  0.00000000000E+00 -0.16120186341E+04  0.16120186341E+04  0.25500000920E-02 0.  1.
    10030    2    1    2    0    0  0.00000000000E+00  0.00000000000E+00  0.86532752419E+03  0.40893647924E+04  0.39967627752E+04 0.  0.
        3    1    3    3  502    0 -0.67736860964E+03 -0.18721588568E+04  0.25627121701E+03  0.20073569601E+04  0.10100000352E+00 0. -1.
       -3    1    3    3    0  502  0.67736860964E+03  0.18721588568E+04  0.60905630717E+03  0.20820078323E+04  0.10100000352E+00 0.  1.
</event>
<event>
 5   0  0.8329875E-09  0.3981986E+04  0.7818609E-02  0.8008191E-01
        1   -1    0    0  501    0  0.00000000000E+00  0.00000000000E+00  0.16116840706E+04  0.16116840706E+04  0.50400001928E-02 0.  1.
       -1   -1    0    0    0  501  0.00000000000E+00  0.00000000000E+00 -0.24595716267E+04  0.24595716267E+04  0.50400001928E-02 0. -1.
    10030    2    1    2    0    0  0.00000000000E+00  0.00000000000E+00 -0.84788755610E+03  0.40712556973E+04  0.39819856410E+04 0.  0.
        3    1    3    3  502    0 -0.70231566637E+03 -0.17495388239E+04  0.23065881151E+03  0.18992990520E+04  0.10100000352E+00 0. -1.
       -3    1    3    3    0  502  0.70231566637E+03  0.17495388239E+04 -0.10785463676E+04  0.21719566453E+04  0.10100000352E+00 0.  1.
</event>
<event>
 5   0  0.2650452E-08  0.3997397E+04  0.7818609E-02  0.8005072E-01
       -2   -1    0    0    0  501  0.00000000000E+00  0.00000000000E+00  0.14159268188E+04  0.14159268188E+04  0.25500000920E-02 0.  1.
        2   -1    0    0  501    0  0.00000000000E+00  0.00000000000E+00 -0.28213285802E+04  0.28213285802E+04  0.25500000920E-02 0. -1.
    10030    2    1    2    0    0  0.00000000000E+00  0.00000000000E+00 -0.14054017614E+04  0.42372553990E+04  0.39973965535E+04 0.  0.
        3    1    3    3  502    0 -0.16805815774E+04 -0.58423240333E+03  0.26249227049E+03  0.17984949657E+04  0.10100000352E+00 0.  1.
       -3    1    3    3    0  502  0.16805815774E+04  0.58423240333E+03 -0.16678940319E+04  0.24387604333E+04  0.10100000352E+00 0. -1.
</event>
<event>
 5   0  0.8329875E-09  0.4090525E+04  0.7818609E-02  0.7986530E-01
       -1   -1    0    0    0  501  0.00000000000E+00  0.00000000000E+00  0.16112559490E+04  0.16112559490E+04  0.50400001928E-02 0.  1.
        1   -1    0    0  501    0  0.00000000000E+00  0.00000000000E+00 -0.25961726806E+04  0.25961726806E+04  0.50400001928E-02 0. -1.
    10030    2    1    2    0    0  0.00000000000E+00  0.00000000000E+00 -0.98491673162E+03  0.42074286297E+04  0.40905249914E+04 0.  0.
        1    1    3    3  502    0  0.13850617258E+04  0.23099494091E+03 -0.20220160634E+04  0.24617683904E+04  0.50400001928E-02 0. -1.
       -1    1    3    3    0  502 -0.13850617258E+04 -0.23099494091E+03  0.10370993318E+04  0.17456602393E+04  0.50400001928E-02 0.  1.
</event>
<event>
 5   0  0.2587493E-08  0.3991510E+04  0.7818609E-02  0.8006262E-01
       -2   -1    0    0    0  501  0.00000000000E+00  0.00000000000E+00  0.14894174879E+04  0.14894174879E+04  0.25500000920E-02 0. -1.
        2   -1    0    0  501    0  0.00000000000E+00  0.00000000000E+00 -0.26742247223E+04  0.26742247223E+04  0.25500000920E-02 0.  1.
    10030    2    1    2    0    0  0.00000000000E+00  0.00000000000E+00 -0.11848072344E+04  0.41636422101E+04  0.39915095229E+04 0.  0.
        5    1    3    3  502    0 -0.16362760293E+04  0.13787173158E+03 -0.17756064698E+04  0.24185136518E+04  0.46999998093E+01 0.  1.
       -5    1    3    3    0  502  0.16362760293E+04 -0.13787173158E+03  0.59079923541E+03  0.17451285583E+04  0.46999998093E+01 0. -1.
</event>
<event>
 5   0  0.8329875E-09  0.4003475E+04  0.7818609E-02  0.8003846E-01
       -1   -1    0    0    0  501  0.00000000000E+00  0.00000000000E+00  0.17053618769E+04  0.17053618769E+04  0.50400001928E-02 0.  1.
        1   -1    0    0  501    0  0.00000000000E+00  0.00000000000E+00 -0.23496205011E+04  0.23496205011E+04  0.50400001928E-02 0. -1.
    10030    2    1    2    0    0  0.00000000000E+00  0.00000000000E+00 -0.64425862421E+03  0.40549823780E+04  0.40034751043E+04 0.  0.
        3    1    3    3  502    0  0.14967205866E+04  0.12001858189E+04  0.25647740251E+03  0.19355617227E+04  0.10100000352E+00 0.  1.
       -3    1    3    3    0  502 -0.14967205866E+04 -0.12001858189E+04 -0.90073602672E+03  0.21194206553E+04  0.10100000352E+00 0. -1.
</event>
<event>
 5   0  0.2599332E-08  0.3997410E+04  0.7818609E-02  0.8005069E-01
        2   -1    0    0  501    0  0.00000000000E+00  0.00000000000E+00  0.21243599568E+04  0.21243599568E+04  0.25500000920E-02 0. -1.
       -2   -1    0    0    0  501  0.00000000000E+00  0.00000000000E+00 -0.18804822842E+04  0.18804822842E+04  0.25500000920E-02 0.  1.
    10030    2    1    2    0    0  0.00000000000E+00  0.00000000000E+00  0.24387767258E+03  0.40048422410E+04  0.39974097934E+04 0.  0.
        2    1    3    3  502    0 -0.14386650305E+03  0.11735211766E+04  0.17364473996E+04  0.21007377500E+04  0.25500000920E-02 0. -1.
       -2    1    3    3    0  502  0.14386650305E+03 -0.11735211766E+04 -0.14925697270E+04  0.19041044910E+04  0.25500000920E-02 0.  1.
</event>
<event>
 5   0  0.8329875E-09  0.3996125E+04  0.7818609E-02  0.8005329E-01
        1   -1    0    0  501    0  0.00000000000E+00  0.00000000000E+00  0.17774253807E+04  0.17774253807E+04  0.50400001928E-02 0.  1.
       -1   -1    0    0    0  501  0.00000000000E+00  0.00000000000E+00 -0.22460875063E+04  0.22460875063E+04  0.50400001928E-02 0. -1.
    10030    2    1    2    0    0  0.00000000000E+00  0.00000000000E+00 -0.46866212563E+03  0.40235128871E+04  0.39961245932E+04 0.  0.
        5    1    3    3  502    0 -0.67098548207E+03  0.14001200934E+04  0.10319343213E+04  0.18642607990E+04  0.46999998093E+01 0.  1.
       -5    1    3    3    0  502  0.67098548207E+03 -0.14001200934E+04 -0.15005964470E+04  0.21592520881E+04  0.46999998093E+01 0. -1.
</event>
<event>
 5   0  0.8329875E-09  0.3995510E+04  0.7818609E-02  0.8005453E-01
       -1   -1    0    0    0  501  0.00000000000E+00  0.00000000000E+00  0.21153510197E+04  0.21153510197E+04  0.50400001928E-02 0. -1.
        1   -1    0    0  501    0  0.00000000000E+00  0.00000000000E+00 -0.18866965926E+04  0.18866965926E+04  0.50400001928E-02 0.  1.
    10030    2    1    2    0    0  0.00000000000E+00  0.00000000000E+00  0.22865442709E+03  0.40020476123E+04  0.39955102608E+04 0.  0.
        2    1    3    3  502    0 -0.14507185893E+04 -0.13331197616E+04 -0.21671746220E+03  0.19821097806E+04  0.25500000920E-02 0.  1.
       -2    1    3    3    0  502  0.14507185893E+04  0.13331197616E+04  0.44537188929E+03  0.20199378317E+04  0.25500000920E-02 0. -1.
</event>
<event>
 5   0  0.8329875E-09  0.3997195E+04  0.7818609E-02  0.8005113E-01
       -3   -1    0    0    0  501  0.00000000000E+00  0.00000000000E+00  0.18456837603E+04  0.18456837630E+04  0.10100000352E+00 0.  1.
        3   -1    0    0  501    0  0.00000000000E+00  0.00000000000E+00 -0.21641802442E+04  0.21641802465E+04  0.10100000352E+00 0. -1.
    10030    2    1    2    0    0  0.00000000000E+00  0.00000000000E+00 -0.31849648389E+03  0.40098640096E+04  0.39971951872E+04 0.  0.
        3    1    3    3  502    0  0.11385976442E+04 -0.26191378093E+03 -0.17859266483E+04  0.21341362251E+04  0.10100000352E+00 0. -1.
       -3    1    3    3    0  502 -0.11385976442E+04  0.26191378093E+03  0.14674301644E+04  0.18757277845E+04  0.10100000352E+00 0.  1.
</event>
<event>
 5   0  0.2587493E-08  0.3980852E+04  0.7818609E-02  0.8008421E-01
       -2   -1    0    0    0  501  0.00000000000E+00  0.00000000000E+00  0.16113184462E+04  0.16113184462E+04  0.25500000920E-02 0. -1.
        2   -1    0    0  501    0  0.00000000000E+00  0.00000000000E+00 -0.24587290203E+04  0.24587290203E+04  0.25500000920E-02 0.  1.
    10030    2    1    2    0    0  0.00000000000E+00  0.00000000000E+00 -0.84741057401E+03  0.40700474665E+04  0.39808518810E+04 0.  0.
        5    1    3    3  502    0  0.27834713847E+03  0.11994161073E+04  0.11752075866E+04  0.17021195873E+04  0.46999998093E+01 0. -1.
       -5    1    3    3    0  502 -0.27834713847E+03 -0.11994161073E+04 -0.20226181606E+04  0.23679278792E+04  0.46999998093E+01 0.  1.
</event>
<event>
 5   0  0.8329875E-09  0.3913213E+04  0.7818609E-02  0.8022287E-01
       -3   -1    0    0    0  501  0.00000000000E+00  0.00000000000E+00  0.27658906996E+04  0.27658907015E+04  0.10100000352E+00 0. -1.
        3   -1    0    0  501    0  0.00000000000E+00  0.00000000000E+00 -0.13841142685E+04  0.13841142721E+04  0.10100000352E+00 0.  1.
    10030    2    1    2    0    0  0.00000000000E+00  0.00000000000E+00  0.13817764312E+04  0.41500049736E+04  0.39132128967E+04 0.  0.
        4    1    3    3  502    0  0.16805892060E+04  0.93589754493E+03  0.10703420533E+04  0.22013445931E+04  0.12699999809E+01 0. -1.
       -4    1    3    3    0  502 -0.16805892060E+04 -0.93589754493E+03  0.31143437789E+03  0.19486603805E+04  0.12699999809E+01 0.  1.
</event>
<event>
 5   0  0.2746876E-08  0.4003421E+04  0.7818609E-02  0.8003857E-01
       -2   -1    0    0    0  501  0.00000000000E+00  0.00000000000E+00  0.19410675629E+04  0.19410675629E+04  0.25500000920E-02 0.  1.
        2   -1    0    0  501    0  0.00000000000E+00  0.00000000000E+00 -0.20642478711E+04  0.20642478711E+04  0.25500000920E-02 0. -1.
    10030    2    1    2    0    0  0.00000000000E+00  0.00000000000E+00 -0.12318030824E+03  0.40053154340E+04  0.40034208294E+04 0.  0.
        1    1    3    3  502    0 -0.10085640584E+04 -0.10196272406E+04  0.13354959262E+04  0.19596914396E+04  0.50400001928E-02 0.  1.
       -1    1    3    3    0  502  0.10085640584E+04  0.10196272406E+04 -0.14586762344E+04  0.20456239944E+04  0.50400001928E-02 0. -1.
</event>
<event>
 5   0  0.2587493E-08  0.3996110E+04  0.7818609E-02  0.8005332E-01
       -2   -1    0    0    0  501  0.00000000000E+00  0.00000000000E+00  0.25213911062E+04  0.25213911062E+04  0.25500000920E-02 0.  1.
        2   -1    0    0  501    0  0.00000000000E+00  0.00000000000E+00 -0.15833420362E+04  0.15833420363E+04  0.25500000920E-02 0. -1.
    10030    2    1    2    0    0  0.00000000000E+00  0.00000000000E+00  0.93804906992E+03  0.41047331424E+04  0.39961103730E+04 0.  0.
        5    1    3    3  502    0  0.10643795729E+04 -0.15979348238E+04  0.10371434160E+04  0.21821980047E+04  0.46999998093E+01 0.  1.
       -5    1    3    3    0  502 -0.10643795729E+04  0.15979348238E+04 -0.99094346091E+02  0.19225351377E+04  0.46999998093E+01 0. -1.
</event>
<event>
 5   0  0.2587493E-08  0.3994507E+04  0.7818609E-02  0.8005655E-01
        2   -1    0    0  501    0  0.00000000000E+00  0.00000000000E+00  0.14992360410E+04  0.14992360410E+04  0.25500000920E-02 0.  1.
       -2   -1    0    0    0  501  0.00000000000E+00  0.00000000000E+00 -0.26607034635E+04  0.26607034635E+04  0.25500000920E-02 0. -1.
    10030    2    1    2    0    0  0.00000000000E+00  0.00000000000E+00 -0.11614674225E+04  0.41599395044E+04  0.39945074924E+04 0.  0.
        5    1    3    3  502    0 -0.15035629852E+03  0.12436256198E+04 -0.22007243333E+04  0.25322759288E+04  0.46999998093E+01 0. -1.
       -5    1    3    3    0  502  0.15035629852E+03 -0.12436256198E+04  0.10392569108E+04  0.16276635756E+04  0.46999998093E+01 0.  1.
</event>
<event>
 5   0  0.8329875E-09  0.4005921E+04  0.7818609E-02  0.8003353E-01
       -1   -1    0    0    0  501  0.00000000000E+00  0.00000000000E+00  0.22127962287E+04  0.22127962287E+04  0.50400001928E-02 0.  1.
        1   -1    0    0  501    0  0.00000000000E+00  0.00000000000E+00 -0.18130227062E+04  0.18130227062E+04  0.50400001928E-02 0. -1.
    10030    2    1    2    0    0  0.00000000000E+00  0.00000000000E+00  0.39977352250E+03  0.40258189349E+04  0.40059205218E+04 0.  0.
        5    1    3    3  502    0  0.16070637209E+04  0.11197856630E+04 -0.22082616697E+03  0.19711316597E+04  0.46999998093E+01 0. -1.
       -5    1    3    3    0  502 -0.16070637209E+04 -0.11197856630E+04  0.62059968947E+03  0.20546872751E+04  0.46999998093E+01 0.  1.
</event>
<event>
 5   0  0.8329875E-09  0.4011431E+04  0.7818609E-02  0.8002245E-01
       -3   -1    0    0    0  501  0.00000000000E+00  0.00000000000E+00  0.15086270987E+04  0.15086271020E+04  0.10100000352E+00 0.  1.
        3   -1    0    0  501    0  0.00000000000E+00  0.00000000000E+00 -0.26665928219E+04  0.26665928238E+04  0.10100000352E+00 0. -1.
    10030    2    1    2    0    0  0.00000000000E+00  0.00000000000E+00 -0.11579657233E+04  0.41752199259E+04  0.40114307689E+04 0.  0.
        1    1    3    3  502    0 -0.18655505363E+04 -0.21259945482E+03  0.15509193089E+03  0.18840198615E+04  0.50400001928E-02 0.  1.
       -1    1    3    3    0  502  0.18655505363E+04  0.21259945482E+03 -0.13130576542E+04  0.22912000643E+04  0.50400001928E-02 0. -1.
</event>
<event>
 5   0  0.2587493E-08  0.3996938E+04  0.7818609E-02  0.8005164E-01
        2   -1    0    0  501    0  0.00000000000E+00  0.00000000000E+00  0.21699349510E+04  0.21699349510E+04  0.25500000920E-02 0. -1.
       -2   -1    0    0    0  501  0.00000000000E+00  0.00000000000E+00 -0.18405525046E+04  0.18405525046E+04  0.25500000920E-02 0.  1.
    10030    2    1    2    0    0  0.00000000000E+00  0.00000000000E+00  0.32938244637E+03  0.40104874557E+04  0.39969384328E+04 0.  0.
        5    1    3    3  502    0  0.16928574579E+03 -0.12158132629E+04  0.17470588297E+04  0.21352040180E+04  0.46999998093E+01 0. -1.
       -5    1    3    3    0  502 -0.16928574579E+03  0.12158132629E+04 -0.14176763833E+04  0.18752834377E+04  0.46999998093E+01 0.  1.
</event>
<event>
 5   0  0.8329875E-09  0.4003865E+04  0.7818609E-02  0.8003767E-01
        1   -1    0    0  501    0  0.00000000000E+00  0.00000000000E+00  0.14683435837E+04  0.14683435837E+04  0.50400001928E-02 0. -1.
       -1   -1    0    0    0  501  0.00000000000E+00  0.00000000000E+00 -0.27294246997E+04  0.27294246997E+04  0.50400001928E-02 0.  1.
    10030    2    1    2    0    0  0.00000000000E+00  0.00000000000E+00 -0.12610811160E+04  0.41977682834E+04  0.40038647555E+04 0.  0.
        4    1    3    3  502    0 -0.17937481729E+04 -0.72569022518E+03 -0.92283943502E+02  0.19371826836E+04  0.12699999809E+01 0.  1.
       -4    1    3    3    0  502  0.17937481729E+04  0.72569022518E+03 -0.11687971725E+04  0.22605855998E+04  0.12699999809E+01 0. -1.
</event>
<event>
 5   0  0.2746876E-08  0.4000715E+04  0.7818609E-02  0.8004402E-01
        2   -1    0    0  501    0  0.00000000000E+00  0.00000000000E+00  0.26386251019E+04  0.26386251019E+04  0.25500000920E-02 0.  1.
       -2   -1    0    0    0  501  0.00000000000E+00  0.00000000000E+00 -0.15164826870E+04  0.15164826870E+04  0.25500000920E-02 0. -1.
    10030    2    1    2    0    0  0.00000000000E+00  0.00000000000E+00  0.11221424149E+04  0.41551077889E+04  0.40007145784E+04 0.  0.
        1    1    3    3  502    0 -0.15160973785E+04 -0.11064002979E+04  0.12796957147E+04  0.22716280511E+04  0.50400001928E-02 0.  1.
       -1    1    3    3    0  502  0.15160973785E+04  0.11064002979E+04 -0.15755329974E+03  0.18834797378E+04  0.50400001928E-02 0. -1.
</event>
<event>
 5   0  0.8329875E-09  0.4010382E+04  0.7818609E-02  0.8002455E-01
       -1   -1    0    0    0  501  0.00000000000E+00  0.00000000000E+00  0.21676981820E+04  0.21676981820E+04  0.50400001928E-02 0.  1.
        1   -1    0    0  501    0  0.00000000000E+00  0.00000000000E+00 -0.18548666844E+04  0.18548666844E+04  0.50400001928E-02 0. -1.
    10030    2    1    2    0    0  0.00000000000E+00  0.00000000000E+00  0.31283149767E+03  0.40225648664E+04  0.40103820963E+04 0.  0.
        5    1    3    3  502    0 -0.17374364436E+04  0.85331875634E+03  0.68138963387E+03  0.20521092122E+04  0.46999998093E+01 0.  1.
       -5    1    3    3    0  502  0.17374364436E+04 -0.85331875634E+03 -0.36855813620E+03  0.19704556542E+04  0.46999998093E+01 0. -1.
</event>
<event>
 5   0  0.8329875E-09  0.3999591E+04  0.7818609E-02  0.8004629E-01
       -1   -1    0    0    0  501  0.00000000000E+00  0.00000000000E+00  0.23089804362E+04  0.23089804362E+04  0.50400001928E-02 0. -1.
        1   -1    0    0  501    0  0.00000000000E+00  0.00000000000E+00 -0.17320120672E+04  0.17320120672E+04  0.50400001928E-02 0.  1.
    10030    2    1    2    0    0  0.00000000000E+00  0.00000000000E+00  0.57696836897E+03  0.40409925034E+04  0.39995909683E+04 0.  0.
        1    1    3    3  502    0 -0.10975833105E+04  0.13357276202E+04  0.13040379601E+04  0.21654958786E+04  0.50400001928E-02 0. -1.
       -1    1    3    3    0  502  0.10975833105E+04 -0.13357276202E+04 -0.72706959114E+03  0.18754966247E+04  0.50400001928E-02 0.  1.
</event>
<event>
 5   0  0.8329875E-09  0.3977499E+04  0.7818609E-02  0.8009101E-01
        1   -1    0    0  501    0  0.00000000000E+00  0.00000000000E+00  0.20824752714E+04  0.20824752714E+04  0.50400001928E-02 0. -1.
       -1   -1    0    0    0  501  0.00000000000E+00  0.00000000000E+00 -0.18992423173E+04  0.18992423173E+04  0.50400001928E-02 0.  1.
    10030    2    1    2    0    0  0.00000000000E+00  0.00000000000E+00  0.18323295410E+03  0.39817175887E+04  0.39774992948E+04 0.  0.
        1    1    3    3  502    0 -0.31815108984E+03  0.19234733679E+04 -0.30142600903E+03  0.19727715407E+04  0.50400001928E-02 0.  1.
       -1    1    3    3    0  502  0.31815108984E+03 -0.19234733679E+04  0.48465896313E+03  0.20089460479E+04  0.50400001928E-02 0. -1.
</event>
<event>
 5   0  0.8329875E-09  0.4004283E+04  0.7818609E-02  0.8003683E-01
       -1   -1    0    0    0  501  0.00000000000E+00  0.00000000000E+00  0.16866282395E+04  0.16866282395E+04  0.50400001928E-02 0. -1.
        1   -1    0    0  501    0  0.00000000000E+00  0.00000000000E+00 -0.23766766777E+04  0.23766766777E+04  0.50400001928E-02 0.  1.
    10030    2    1    2    0    0  0.00000000000E+00  0.00000000000E+00 -0.69004843822E+03  0.40633049172E+04  0.40042827077E+04 0.  0.
        4    1    3    3  502    0 -0.66979640579E+03  0.15396007840E+04 -0.14517748827E+04  0.22196057583E+04  0.12699999809E+01 0.  1.
       -4    1    3    3    0  502  0.66979640579E+03 -0.15396007840E+04  0.76172644452E+03  0.18436991589E+04  0.12699999809E+01 0. -1.
</event>
<event>
 5   0  0.2612363E-08  0.4004324E+04  0.7818609E-02  0.8003675E-01
       -2   -1    0    0    0  501  0.00000000000E+00  0.00000000000E+00  0.19639042577E+04  0.19639042577E+04  0.25500000920E-02 0. -1.
        2   -1    0    0  501    0  0.00000000000E+00  0.00000000000E+00 -0.20411645645E+04  0.20411645645E+04  0.25500000920E-02 0.  1.
    10030    2    1    2    0    0  0.00000000000E+00  0.00000000000E+00 -0.77260306829E+02  0.40050688222E+04  0.40043235528E+04 0.  0.
        4    1    3    3  502    0  0.10213998200E+04  0.78261810359E+03  0.14955723707E+04  0.19729386755E+04  0.12699999809E+01 0. -1.
       -4    1    3    3    0  502 -0.10213998200E+04 -0.78261810359E+03 -0.15728326776E+04  0.20321301466E+04  0.12699999809E+01 0.  1.
</event>
<event>
 5   0  0.2746876E-08  0.3974984E+04  0.7818609E-02  0.8009612E-01
        2   -1    0    0  501    0  0.00000000000E+00  0.00000000000E+00  0.23667547307E+04  0.23667547307E+04  0.25500000920E-02 0.  1.
       -2   -1    0    0    0  501  0.00000000000E+00  0.00000000000E+00 -0.16690047757E+04  0.16690047757E+04  0.25500000920E-02 0. -1.
    10030    2    1    2    0    0  0.00000000000E+00  0.00000000000E+00  0.69774995504E+03  0.40357595064E+04  0.39749842508E+04 0.  0.
        1    1    3    3  502    0  0.75970230224E+03  0.65042105567E+03 -0.13949211445E+04  0.17163916036E+04  0.50400001928E-02 0. -1.
       -1    1    3    3    0  502 -0.75970230224E+03 -0.65042105567E+03  0.20926710995E+04  0.23193679028E+04  0.50400001928E-02 0.  1.
</event>
<event>
 5   0  0.8329875E-09  0.4048979E+04  0.7818609E-02  0.7994738E-01
        1   -1    0    0  501    0  0.00000000000E+00  0.00000000000E+00  0.24263911735E+04  0.24263911735E+04  0.50400001928E-02 0.  1.
       -1   -1    0    0    0  501  0.00000000000E+00  0.00000000000E+00 -0.16891578771E+04  0.16891578771E+04  0.50400001928E-02 0. -1.
    10030    2    1    2    0    0  0.00000000000E+00  0.00000000000E+00  0.73723329641E+03  0.41155490506E+04  0.40489790138E+04 0.  0.
        1    1    3    3  502    0  0.17092427655E+04 -0.10434487085E+04  0.66643406486E+02  0.20036809583E+04  0.50400001928E-02 0.  1.
       -1    1    3    3    0  502 -0.17092427655E+04  0.10434487085E+04  0.67058988993E+03  0.21118680923E+04  0.50400001928E-02 0. -1.
</event>
<event>
 5   0  0.2587493E-08  0.3989690E+04  0.7818609E-02  0.8006630E-01
       -2   -1    0    0    0  501  0.00000000000E+00  0.00000000000E+00  0.12937195679E+04  0.12937195679E+04  0.25500000920E-02 0.  1.
        2   -1    0    0  501    0  0.00000000000E+00  0.00000000000E+00 -0.30759423597E+04  0.30759423597E+04  0.25500000920E-02 0. -1.
    10030    2    1    2    0    0  0.00000000000E+00  0.00000000000E+00 -0.17822227919E+04  0.43696619276E+04  0.39896901235E+04 0.  0.
        5    1    3    3  502    0  0.10893825397E+04 -0.37169395195E+03 -0.26755348036E+04  0.29126309905E+04  0.46999998093E+01 0. -1.
       -5    1    3    3    0  502 -0.10893825397E+04  0.37169395195E+03  0.89331201168E+03  0.14570309372E+04  0.46999998093E+01 0.  1.
</event>
<event>
 5   0  0.2650452E-08  0.4001997E+04  0.7818609E-02  0.8004144E-01
       -2   -1    0    0    0  501  0.00000000000E+00  0.00000000000E+00  0.14896029408E+04  0.14896029408E+04  0.25500000920E-02 0. -1.
        2   -1    0    0  501    0  0.00000000000E+00  0.00000000000E+00 -0.26879615079E+04  0.26879615079E+04  0.25500000920E-02 0.  1.
    10030    2    1    2    0    0  0.00000000000E+00  0.00000000000E+00 -0.11983585672E+04  0.41775644487E+04  0.40019971848E+04 0.  0.
        3    1    3    3  502    0  0.14459383097E+04  0.20654039266E+03 -0.20268784591E+04  0.24983260050E+04  0.10100000352E+00 0.  1.
       -3    1    3    3    0  502 -0.14459383097E+04 -0.20654039266E+03  0.82851989189E+03  0.16792384437E+04  0.10100000352E+00 0. -1.
</event>
<event>
 5   0  0.2612363E-08  0.3999958E+04  0.7818609E-02  0.8004555E-01
       -2   -1    0    0    0  501  0.00000000000E+00  0.00000000000E+00  0.27725509796E+04  0.27725509796E+04  0.25500000920E-02 0. -1.
        2   -1    0    0  501    0  0.00000000000E+00  0.00000000000E+00 -0.14426845463E+04  0.14426845463E+04  0.25500000920E-02 0.  1.
    10030    2    1    2    0    0  0.00000000000E+00  0.00000000000E+00  0.13298664333E+04  0.42152355258E+04  0.39999582258E+04 0.  0.
        4    1    3    3  502    0  0.68105844026E+03  0.89226358566E+03  0.24092963971E+04  0.26579476382E+04  0.12699999809E+01 0. -1.
       -4    1    3    3    0  502 -0.68105844026E+03 -0.89226358566E+03 -0.10794299638E+04  0.15572878876E+04  0.12699999809E+01 0.  1.
</event>
<event>
 5   0  0.2599332E-08  0.4000232E+04  0.7818609E-02  0.8004500E-01
        2   -1    0    0  501    0  0.00000000000E+00  0.00000000000E+00  0.17005732905E+04  0.17005732905E+04  0.25500000920E-02 0.  1.
       -2   -1    0    0    0  501  0.00000000000E+00  0.00000000000E+00 -0.23524205295E+04  0.23524205295E+04  0.25500000920E-02 0. -1.
    10030    2    1    2    0    0  0.00000000000E+00  0.00000000000E+00 -0.65184723900E+03  0.40529938200E+04  0.40002317535E+04 0.  0.
        2    1    3    3  502    0 -0.49737111231E+03  0.15186443412E+04  0.89277345434E+03  0.18304925838E+04  0.25500000920E-02 0.  1.
       -2    1    3    3    0  502  0.49737111231E+03 -0.15186443412E+04 -0.15446206933E+04  0.22225012362E+04  0.25500000920E-02 0. -1.
</event>
<event>
 5   0  0.2599332E-08  0.3993934E+04  0.7818609E-02  0.8005771E-01
       -2   -1    0    0    0  501  0.00000000000E+00  0.00000000000E+00  0.17983548975E+04  0.17983548975E+04  0.25500000920E-02 0. -1.
        2   -1    0    0  501    0  0.00000000000E+00  0.00000000000E+00 -0.22175136356E+04  0.22175136356E+04  0.25500000920E-02 0.  1.
    10030    2    1    2    0    0  0.00000000000E+00  0.00000000000E+00 -0.41915873811E+03  0.40158685330E+04  0.39939336533E+04 0.  0.
        2    1    3    3  502    0 -0.66450833499E+03 -0.10188426735E+04  0.13828688934E+04  0.18417215037E+04  0.25500000920E-02 0. -1.
       -2    1    3    3    0  502  0.66450833499E+03  0.10188426735E+04 -0.18020276315E+04  0.21741470294E+04  0.25500000920E-02 0.  1.
</event>
<event>
 5   0  0.2599332E-08  0.3993675E+04  0.7818609E-02  0.8005824E-01
       -2   -1    0    0    0  501  0.00000000000E+00  0.00000000000E+00  0.27225945095E+04  0.27225945095E+04  0.25500000920E-02 0. -1.
        2   -1    0    0  501    0  0.00000000000E+00  0.00000000000E+00 -0.14645438656E+04  0.14645438656E+04  0.25500000920E-02 0.  1.
    10030    2    1    2    0    0  0.00000000000E+00  0.00000000000E+00  0.12580506439E+04  0.41871383751E+04  0.39936745423E+04 0.  0.
        2    1    3    3  502    0  0.32335119008E+03 -0.14786821666E+04  0.19945396120E+04  0.25038460826E+04  0.25500000920E-02 0. -1.
       -2    1    3    3    0  502 -0.32335119008E+03  0.14786821666E+04 -0.73648896804E+03  0.16832922925E+04  0.25500000920E-02 0.  1.
</event>
<event>
 5   0  0.2650452E-08  0.4015296E+04  0.7818609E-02  0.8001468E-01
       -2   -1    0    0    0  501  0.00000000000E+00  0.00000000000E+00  0.27924837997E+04  0.27924837997E+04  0.25500000920E-02 0.  1.
        2   -1    0    0  501    0  0.00000000000E+00  0.00000000000E+00 -0.14433926461E+04  0.14433926461E+04  0.25500000920E-02 0. -1.
    10030    2    1    2    0    0  0.00000000000E+00  0.00000000000E+00  0.13490911536E+04  0.42358764458E+04  0.40152960443E+04 0.  0.
        3    1    3    3  502    0 -0.11479267056E+04 -0.16172626329E+04  0.10037401194E+04  0.22227839262E+04  0.10100000352E+00 0.  1.
       -3    1    3    3    0  502  0.11479267056E+04  0.16172626329E+04  0.34535103424E+03  0.20130925196E+04  0.10100000352E+00 0. -1.
</event>
<event>
 5   0  0.2612363E-08  0.4006117E+04  0.7818609E-02  0.8003314E-01
        2   -1    0    0  501    0  0.00000000000E+00  0.00000000000E+00  0.17544852998E+04  0.17544852998E+04  0.25500000920E-02 0. -1.
       -2   -1    0    0    0  501  0.00000000000E+00  0.00000000000E+00 -0.22868492050E+04  0.22868492050E+04  0.25500000920E-02 0.  1.
    10030    2    1    2    0    0  0.00000000000E+00  0.00000000000E+00 -0.53236390518E+03  0.40413345048E+04  0.40061169793E+04 0.  0.
        4    1    3    3  502    0 -0.57215192092E+03  0.13788536984E+04 -0.16134547712E+04  0.21981431377E+04  0.12699999809E+01 0.  1.
       -4    1    3    3    0  502  0.57215192092E+03 -0.13788536984E+04  0.10810908660E+04  0.18431913671E+04  0.12699999809E+01 0. -1.
</event>
<event>
 5   0  0.2746876E-08  0.4011345E+04  0.7818609E-02  0.8002262E-01
        2   -1    0    0  501    0  0.00000000000E+00  0.00000000000E+00  0.15247654775E+04  0.15247654775E+04  0.25500000920E-02 0. -1.
       -2   -1    0    0    0  501  0.00000000000E+00  0.00000000000E+00 -0.26382566980E+04  0.26382566980E+04  0.25500000920E-02 0.  1.
    10030    2    1    2    0    0  0.00000000000E+00  0.00000000000E+00 -0.11134912205E+04  0.41630221755E+04  0.40113452775E+04 0.  0.
        1    1    3    3  502    0  0.28745294474E+02  0.10307209867E+04  0.12286260433E+04  0.16039744382E+04  0.50400001928E-02 0. -1.
       -1    1    3    3    0  502 -0.28745294474E+02 -0.10307209867E+04 -0.23421172637E+04  0.25590477373E+04  0.50400001928E-02 0.  1.
</event>
<event>
 5   0  0.8329875E-09  0.4000708E+04  0.7818609E-02  0.8004404E-01
        1   -1    0    0  501    0  0.00000000000E+00  0.00000000000E+00  0.12344906489E+04  0.12344906490E+04  0.50400001928E-02 0.  1.
       -1   -1    0    0    0  501  0.00000000000E+00  0.00000000000E+00 -0.32413496846E+04  0.32413496846E+04  0.50400001928E-02 0. -1.
    10030    2    1    2    0    0  0.00000000000E+00  0.00000000000E+00 -0.20068590357E+04  0.44758403336E+04  0.40007078752E+04 0.  0.
        1    1    3    3  502    0 -0.17380870340E+04 -0.37554393245E+02  0.10355660768E+03  0.17415742423E+04  0.50400001928E-02 0.  1.
       -1    1    3    3    0  502  0.17380870340E+04  0.37554393245E+02 -0.21104156434E+04  0.27342660913E+04  0.50400001928E-02 0. -1.
</event>
<event>
 5   0  0.8329875E-09  0.3997962E+04  0.7818609E-02  0.8004958E-01
        1   -1    0    0  501    0  0.00000000000E+00  0.00000000000E+00  0.18606405679E+04  0.18606405679E+04  0.50400001928E-02 0. -1.
       -1   -1    0    0    0  501  0.00000000000E+00  0.00000000000E+00 -0.21476068016E+04  0.21476068016E+04  0.50400001928E-02 0.  1.
    10030    2    1    2    0    0  0.00000000000E+00  0.00000000000E+00 -0.28696623367E+03  0.40082473695E+04  0.39979616501E+04 0.  0.
        3    1    3    3  502    0 -0.16833428706E+04  0.23265866773E+03 -0.11988789473E+04  0.20796836337E+04  0.10100000352E+00 0.  1.
       -3    1    3    3    0  502  0.16833428706E+04 -0.23265866773E+03  0.91191271361E+03  0.19285637358E+04  0.10100000352E+00 0. -1.
</event>
<event>
 5   0  0.8329875E-09  0.3997990E+04  0.7818609E-02  0.8004952E-01
        1   -1    0    0  501    0  0.00000000000E+00  0.00000000000E+00  0.27900034084E+04  0.27900034084E+04  0.50400001928E-02 0.  1.
       -1   -1    0    0    0  501  0.00000000000E+00  0.00000000000E+00 -0.14322497724E+04  0.14322497724E+04  0.50400001928E-02 0. -1.
    10030    2    1    2    0    0  0.00000000000E+00  0.00000000000E+00  0.13577536359E+04  0.42222531808E+04  0.39979903685E+04 0.  0.
        1    1    3    3  502    0 -0.20759687153E+03  0.19029327474E+04  0.70606854368E+02  0.19155246880E+04  0.50400001928E-02 0. -1.
       -1    1    3    3    0  502  0.20759687153E+03 -0.19029327474E+04  0.12871467816E+04  0.23067284928E+04  0.50400001928E-02 0.  1.
</event>
<event>
 5   0  0.2612363E-08  0.3995099E+04  0.7818609E-02  0.8005536E-01
       -2   -1    0    0    0  501  0.00000000000E+00  0.00000000000E+00  0.18023363728E+04  0.18023363729E+04  0.25500000920E-02 0. -1.
        2   -1    0    0  501    0  0.00000000000E+00  0.00000000000E+00 -0.22139069128E+04  0.22139069128E+04  0.25500000920E-02 0.  1.
    10030    2    1    2    0    0  0.00000000000E+00  0.00000000000E+00 -0.41157053997E+03  0.40162432857E+04  0.39950994756E+04 0.  0.
        4    1    3    3  502    0 -0.15667009352E+04 -0.98791614631E+03 -0.95785771044E+03  0.20851913915E+04  0.12699999809E+01 0. -1.
       -4    1    3    3    0  502  0.15667009352E+04  0.98791614631E+03  0.54628717047E+03  0.19310518942E+04  0.12699999809E+01 0.  1.
</event>
<event>
 5   0  0.2599332E-08  0.4004073E+04  0.7818609E-02  0.8003725E-01
        2   -1    0    0  501    0  0.00000000000E+00  0.00000000000E+00  0.24036635922E+04  0.24036635922E+04  0.25500000920E-02 0. -1.
       -2   -1    0    0    0  501  0.00000000000E+00  0.00000000000E+00 -0.16675167284E+04  0.16675167284E+04  0.25500000920E-02 0.  1.
    10030    2    1    2    0    0  0.00000000000E+00  0.00000000000E+00  0.73614686376E+03  0.40711803207E+04  0.40040725516E+04 0.  0.
        2    1    3    3  502    0  0.16708439823E+03 -0.65959916862E+03  0.22824897234E+04  0.23817530512E+04  0.25500000920E-02 0. -1.
       -2    1    3    3    0  502 -0.16708439823E+03  0.65959916862E+03 -0.15463428596E+04  0.16894272695E+04  0.25500000920E-02 0.  1.
</event>
<event>
 5   0  0.2599332E-08  0.3997618E+04  0.7818609E-02  0.8005027E-01
        2   -1    0    0  501    0  0.00000000000E+00  0.00000000000E+00  0.15420700448E+04  0.15420700448E+04  0.25500000920E-02 0.  1.
       -2   -1    0    0    0  501  0.00000000000E+00  0.00000000000E+00 -0.25908272359E+04  0.25908272359E+04  0.25500000920E-02 0. -1.
    10030    2    1    2    0    0  0.00000000000E+00  0.00000000000E+00 -0.10487571911E+04  0.41328972807E+04  0.39976178266E+04 0.  0.
        2    1    3    3  502    0 -0.17368225652E+02 -0.24933170754E+03 -0.25746084996E+04  0.25867115962E+04  0.25500000920E-02 0. -1.
       -2    1    3    3    0  502  0.17368225652E+02  0.24933170754E+03  0.15258513085E+04  0.15461856846E+04  0.25500000920E-02 0.  1.
</event>
<event>
 5   0  0.2746876E-08  0.4006089E+04  0.7818609E-02  0.8003319E-01
        2   -1    0    0  501    0  0.00000000000E+00  0.00000000000E+00  0.27678520440E+04  0.27678520440E+04  0.25500000920E-02 0.  1.
       -2   -1    0    0    0  501  0.00000000000E+00  0.00000000000E+00 -0.14495670936E+04  0.14495670936E+04  0.25500000920E-02 0. -1.
    10030    2    1    2    0    0  0.00000000000E+00  0.00000000000E+00  0.13182849504E+04  0.42174191376E+04  0.40060889870E+04 0.  0.
        1    1    3    3  502    0  0.17699702419E+04 -0.81762906650E+02  0.16426110899E+04  0.24161231390E+04  0.50400001928E-02 0. -1.
       -1    1    3    3    0  502 -0.17699702419E+04  0.81762906650E+02 -0.32432613949E+03  0.18012959987E+04  0.50400001928E-02 0.  1.
</event>
<event>
 5   0  0.2587493E-08  0.4009046E+04  0.7818609E-02  0.8002724E-01
       -2   -1    0    0    0  501  0.00000000000E+00  0.00000000000E+00  0.22938389018E+04  0.22938389018E+04  0.25500000920E-02 0. -1.
        2   -1    0    0  501    0  0.00000000000E+00  0.00000000000E+00 -0.17516980312E+04  0.17516980312E+04  0.25500000920E-02 0.  1.
    10030    2    1    2    0    0  0.00000000000E+00  0.00000000000E+00  0.54214087057E+03  0.40455369330E+04  0.40090463146E+04 0.  0.
        5    1    3    3  502    0 -0.18463473909E+04  0.37810828750E+03  0.96001925864E+03  0.21150942371E+04  0.46999998093E+01 0. -1.
       -5    1    3    3    0  502  0.18463473909E+04 -0.37810828750E+03 -0.41787838807E+03  0.19304426959E+04  0.46999998093E+01 0.  1.
</event>
<event>
 5   0  0.8329875E-09  0.3996919E+04  0.7818609E-02  0.8005168E-01
       -1   -1    0    0    0  501  0.00000000000E+00  0.00000000000E+00  0.15792194555E+04  0.15792194555E+04  0.50400001928E-02 0. -1.
        1   -1    0    0  501    0  0.00000000000E+00  0.00000000000E+00 -0.25289959816E+04  0.25289959816E+04  0.50400001928E-02 0.  1.
    10030    2    1    2    0    0  0.00000000000E+00  0.00000000000E+00 -0.94977652614E+03  0.41082154372E+04  0.39969186417E+04 0.  0.
        2    1    3    3  502    0 -0.23773776105E+03  0.97860065179E+03 -0.22491240845E+04  0.24642925204E+04  0.25500000920E-02 0.  1.
       -2    1    3    3    0  502  0.23773776105E+03 -0.97860065179E+03  0.12993475584E+04  0.16439229167E+04  0.25500000920E-02 0. -1.
</event>
<event>
 5   0  0.8329875E-09  0.3990331E+04  0.7818609E-02  0.8006500E-01
       -1   -1    0    0    0  501  0.00000000000E+00  0.00000000000E+00  0.26275423258E+04  0.26275423258E+04  0.50400001928E-02 0. -1.
        1   -1    0    0  501    0  0.00000000000E+00  0.00000000000E+00 -0.15149843266E+04  0.15149843266E+04  0.50400001928E-02 0.  1.
    10030    2    1    2    0    0  0.00000000000E+00  0.00000000000E+00  0.11125579993E+04  0.41425266524E+04  0.39903310344E+04 0.  0.
        3    1    3    3  502    0  0.23898659169E+03  0.19405138496E+04  0.96890167973E+03  0.21820813612E+04  0.10100000352E+00 0. -1.
       -3    1    3    3    0  502 -0.23898659169E+03 -0.19405138496E+04  0.14365631955E+03  0.19604452912E+04  0.10100000352E+00 0.  1.
</event>
<event>
 5   0  0.8329875E-09  0.3997940E+04  0.7818609E-02  0.8004962E-01
       -1   -1    0    0    0  501  0.00000000000E+00  0.00000000000E+00  0.23619238379E+04  0.23619238380E+04  0.50400001928E-02 0. -1.
        1   -1    0    0  501    0  0.00000000000E+00  0.00000000000E+00 -0.16917904316E+04  0.16917904316E+04  0.50400001928E-02 0.  1.
    10030    2    1    2    0    0  0.00000000000E+00  0.00000000000E+00  0.67013340635E+03  0.40537142696E+04  0.39979395439E+04 0.  0.
        1    1    3    3  502    0 -0.16266093609E+04  0.85741440128E+03  0.11301378227E+04  0.21582930679E+04  0.50400001928E-02 0. -1.
       -1    1    3    3    0  502  0.16266093609E+04 -0.85741440128E+03 -0.46000441635E+03  0.18954212017E+04  0.50400001928E-02 0.  1.
</event>
<event>
 5   0  0.8329875E-09  0.4006911E+04  0.7818609E-02  0.8003154E-01
        1   -1    0    0  501    0  0.00000000000E+00  0.00000000000E+00  0.31037691924E+04  0.31037691924E+04  0.50400001928E-02 0. -1.
       -1   -1    0    0    0  501  0.00000000000E+00  0.00000000000E+00 -0.12932128193E+04  0.12932128193E+04  0.50400001928E-02 0.  1.
    10030    2    1    2    0    0  0.00000000000E+00  0.00000000000E+00  0.18105563731E+04  0.43969820117E+04  0.40069110835E+04 0.  0.
        2    1    3    3  502    0 -0.70627293084E+03  0.67792824863E+03 -0.10128642988E+04  0.14086526367E+04  0.25500000920E-02 0.  1.
       -2    1    3    3    0  502  0.70627293084E+03 -0.67792824863E+03  0.28234206719E+04  0.29883293750E+04  0.25500000920E-02 0. -1.
</event>
<event>
 5   0  0.2650452E-08  0.3999560E+04  0.7818609E-02  0.8004635E-01
        2   -1    0    0  501    0  0.00000000000E+00  0.00000000000E+00  0.14122621823E+04  0.14122621823E+04  0.25500000920E-02 0.  1.
       -2   -1    0    0    0  501  0.00000000000E+00  0.00000000000E+00 -0.28317126456E+04  0.28317126456E+04  0.25500000920E-02 0. -1.
    10030    2    1    2    0    0  0.00000000000E+00  0.00000000000E+00 -0.14194504633E+04  0.42439748279E+04  0.39995603161E+04 0.  0.
        3    1    3    3  502    0 -0.88092853557E+03 -0.15523938712E+04  0.24713442989E+03  0.18019537321E+04  0.10100000352E+00 0.  1.
       -3    1    3    3    0  502  0.88092853557E+03  0.15523938712E+04 -0.16665848931E+04  0.24420210958E+04  0.10100000352E+00 0. -1.
</event>
<event>
 5   0  0.8329875E-09  0.3999466E+04  0.7818609E-02  0.8004654E-01
       -1   -1    0    0    0  501  0.00000000000E+00  0.00000000000E+00  0.17124900142E+04  0.17124900142E+04  0.50400001928E-02 0. -1.
        1   -1    0    0  501    0  0.00000000000E+00  0.00000000000E+00 -0.23351567020E+04  0.23351567020E+04  0.50400001928E-02 0.  1.
    10030    2    1    2    0    0  0.00000000000E+00  0.00000000000E+00 -0.62266668776E+03  0.40476467163E+04  0.39994662313E+04 0.  0.
        2    1    3    3  502    0  0.13242145870E+04  0.46005203482E+03  0.11319391073E+04  0.18017986263E+04  0.25500000920E-02 0. -1.
       -2    1    3    3    0  502 -0.13242145870E+04 -0.46005203482E+03 -0.17546057951E+04  0.22458480900E+04  0.25500000920E-02 0.  1.
</event>
<event>
 5   0  0.2587493E-08  0.4004077E+04  0.7818609E-02  0.8003725E-01
       -2   -1    0    0    0  501  0.00000000000E+00  0.00000000000E+00  0.14224655042E+04  0.14224655042E+04  0.25500000920E-02 0.  1.
        2   -1    0    0  501    0  0.00000000000E+00  0.00000000000E+00 -0.28177536391E+04  0.28177536391E+04  0.25500000920E-02 0. -1.
    10030    2    1    2    0    0  0.00000000000E+00  0.00000000000E+00 -0.13952881350E+04  0.42402191433E+04  0.40040765981E+04 0.  0.
        5    1    3    3  502    0 -0.10291273241E+04  0.55531267528E+03 -0.24184907248E+04  0.26863720317E+04  0.46999998093E+01 0. -1.
       -5    1    3    3    0  502  0.10291273241E+04 -0.55531267528E+03  0.10232025899E+04  0.15538471116E+04  0.46999998093E+01 0.  1.
</event>
<event>
 5   0  0.2612363E-08  0.3999117E+04  0.7818609E-02  0.8004725E-01
       -2   -1    0    0    0  501  0.00000000000E+00  0.00000000000E+00  0.22016779634E+04  0.22016779634E+04  0.25500000920E-02 0. -1.
        2   -1    0    0  501    0  0.00000000000E+00  0.00000000000E+00 -0.18159938224E+04  0.18159938224E+04  0.25500000920E-02 0.  1.
    10030    2    1    2    0    0  0.00000000000E+00  0.00000000000E+00  0.38568414102E+03  0.40176717859E+04  0.39991166927E+04 0.  0.
        4    1    3    3  502    0 -0.15117109449E+04 -0.10303395837E+04  0.10036569264E+04  0.20866716266E+04  0.12699999809E+01 0. -1.
       -4    1    3    3    0  502  0.15117109449E+04  0.10303395837E+04 -0.61797278540E+03  0.19310001592E+04  0.12699999809E+01 0.  1.
</event>
<event>
 5   0  0.8329875E-09  0.3993263E+04  0.7818609E-02  0.8005907E-01
       -1   -1    0    0    0  501  0.00000000000E+00  0.00000000000E+00  0.24044636368E+04  0.24044636368E+04  0.50400001928E-02 0.  1.
        1   -1    0    0  501    0  0.00000000000E+00  0.00000000000E+00 -0.16579735138E+04  0.16579735138E+04  0.50400001928E-02 0. -1.
    10030    2    1    2    0    0  0.00000000000E+00  0.00000000000E+00  0.74649012297E+03  0.40624371506E+04  0.39932628387E+04 0.  0.
        5    1    3    3  502    0 -0.71329631456E+03  0.17785451719E+04  0.94376304892E+03  0.21360536846E+04  0.46999998093E+01 0.  1.
       -5    1    3    3    0  502  0.71329631456E+03 -0.17785451719E+04 -0.19727292596E+03  0.19263834660E+04  0.46999998093E+01 0. -1.
</event>
<event>
 5   0  0.8329875E-09  0.4005898E+04  0.7818609E-02  0.8003358E-01
        1   -1    0    0  501    0  0.00000000000E+00  0.00000000000E+00  0.27312890233E+04  0.27312890233E+04  0.50400001928E-02 0.  1.
       -1   -1    0    0    0  501  0.00000000000E+00  0.00000000000E+00 -0.14688316693E+04  0.14688316693E+04  0.50400001928E-02 0. -1.
    10030    2    1    2    0    0  0.00000000000E+00  0.00000000000E+00  0.12624573540E+04  0.42001206927E+04  0.40058975601E+04 0.  0.
        3    1    3    3  502    0  0.38445572057E+03  0.11077086750E+04  0.23338390483E+04  0.26118249220E+04  0.10100000352E+00 0.  1.
       -3    1    3    3    0  502 -0.38445572057E+03 -0.11077086750E+04 -0.10713816943E+04  0.15882957706E+04  0.10100000352E+00 0. -1.
</event>
<event>
 5   0  0.8329875E-09  0.3991710E+04  0.7818609E-02  0.8006221E-01
        1   -1    0    0  501    0  0.00000000000E+00  0.00000000000E+00  0.12364217308E+04  0.12364217308E+04  0.50400001928E-02 0. -1.
       -1   -1    0    0    0  501  0.00000000000E+00  0.00000000000E+00 -0.32217455892E+04  0.32217455892E+04  0.50400001928E-02 0.  1.
    10030    2    1    2    0    0  0.00000000000E+00  0.00000000000E+00 -0.19853238584E+04  0.44581673200E+04  0.39917095373E+04 0.  0.
        1    1    3    3  502    0  0.58603554878E+03  0.17245321373E+04 -0.81216919429E+02  0.18231963539E+04  0.50400001928E-02 0. -1.
       -1    1    3    3    0  502 -0.58603554878E+03 -0.17245321373E+04 -0.19041069390E+04  0.26349709661E+04  0.50400001928E-02 0.  1.
</event>
<event>
 5   0  0.8329875E-09  0.3999495E+04  0.7818609E-02  0.8004648E-01
        1   -1    0    0  501    0  0.00000000000E+00  0.00000000000E+00  0.16338976171E+04  0.16338976171E+04  0.50400001928E-02 0.  1.
       -1   -1    0    0    0  501  0.00000000000E+00  0.00000000000E+00 -0.24475160804E+04  0.24475160804E+04  0.50400001928E-02 0. -1.
    10030    2    1    2    0    0  0.00000000000E+00  0.00000000000E+00 -0.81361846326E+03  0.40814136975E+04  0.39994953140E+04 0.  0.
        5    1    3    3  502    0  0.81916274053E+03  0.18053343564E+04 -0.67430186218E+03  0.20940307603E+04  0.46999998093E+01 0. -1.
       -5    1    3    3    0  502 -0.81916274053E+03 -0.18053343564E+04 -0.13931660108E+03  0.19873829372E+04  0.46999998093E+01 0.  1.
</event>
<event>
 5   0  0.2599332E-08  0.4000137E+04  0.7818609E-02  0.8004519E-01
        2   -1    0    0  501    0  0.00000000000E+00  0.00000000000E+00  0.22284875726E+04  0.22284875726E+04  0.25500000920E-02 0.  1.
       -2   -1    0    0    0  501  0.00000000000E+00  0.00000000000E+00 -0.17950619963E+04  0.17950619963E+04  0.25500000920E-02 0. -1.
    10030    2    1    2    0    0  0.00000000000E+00  0.00000000000E+00  0.43342557626E+03  0.40235495689E+04  0.40001366731E+04 0.  0.
        2    1    3    3  502    0 -0.23900552850E+03 -0.19854957215E+04  0.24782029758E+03  0.20151257535E+04  0.25500000920E-02 0. -1.
       -2    1    3    3    0  502  0.23900552850E+03  0.19854957215E+04  0.18560527868E+03  0.20084238154E+04  0.25500000920E-02 0.  1.
</event>
<event>
 5   0  0.8329875E-09  0.3998522E+04  0.7818609E-02  0.8004845E-01
       -1   -1    0    0    0  501  0.00000000000E+00  0.00000000000E+00  0.22468047990E+04  0.22468047990E+04  0.50400001928E-02 0. -1.
        1   -1    0    0  501    0  0.00000000000E+00  0.00000000000E+00 -0.17789903230E+04  0.17789903230E+04  0.50400001928E-02 0.  1.
    10030    2    1    2    0    0  0.00000000000E+00  0.00000000000E+00  0.46781447596E+03  0.40257951220E+04  0.39985217244E+04 0.  0.
        2    1    3    3  502    0  0.11067797259E+04 -0.16151317569E+04 -0.17311750624E+03  0.19655995586E+04  0.25500000920E-02 0. -1.
       -2    1    3    3    0  502 -0.11067797259E+04  0.16151317569E+04  0.64093198220E+03  0.20601955634E+04  0.25500000920E-02 0.  1.
</event>
<event>
 5   0  0.2587493E-08  0.4004559E+04  0.7818609E-02  0.8003627E-01
        2   -1    0    0  501    0  0.00000000000E+00  0.00000000000E+00  0.16736229863E+04  0.16736229863E+04  0.25500000920E-02 0. -1.
       -2   -1    0    0    0  501  0.00000000000E+00  0.00000000000E+00 -0.23954759132E+04  0.23954759132E+04  0.25500000920E-02 0.  1.
    10030    2    1    2    0    0  0.00000000000E+00  0.00000000000E+00 -0.72185292684E+03  0.40690988995E+04  0.40045591774E+04 0.  0.
        5    1    3    3  502    0  0.67520853317E+03 -0.18794774931E+04 -0.50732925913E+03  0.20605211180E+04  0.46999998093E+01 0. -1.
       -5    1    3    3    0  502 -0.67520853317E+03  0.18794774931E+04 -0.21452366770E+03  0.20085777815E+04  0.46999998093E+01 0.  1.
</event>
<event>
 5   0  0.8329875E-09  0.3978654E+04  0.7818609E-02  0.8008867E-01
        1   -1    0    0  501    0  0.00000000000E+00  0.00000000000E+00  0.24761671317E+04  0.24761671317E+04  0.50400001928E-02 0.  1.
       -1   -1    0    0    0  501  0.00000000000E+00  0.00000000000E+00 -0.15982050823E+04  0.15982050823E+04  0.50400001928E-02 0. -1.
    10030    2    1    2    0    0  0.00000000000E+00  0.00000000000E+00  0.87796204936E+03  0.40743722140E+04  0.39786544934E+04 0.  0.
        3    1    3    3  502    0 -0.37869694965E+03  0.17420098729E+04  0.13430640751E+04  0.22320015451E+04  0.10100000352E+00 0. -1.
       -3    1    3    3    0  502  0.37869694965E+03 -0.17420098729E+04 -0.46510202576E+03  0.18423706689E+04  0.10100000352E+00 0.  1.
</event>
<event>
 5   0  0.2650452E-08  0.3980700E+04  0.7818609E-02  0.8008451E-01
       -2   -1    0    0    0  501  0.00000000000E+00  0.00000000000E+00  0.20397593651E+04  0.20397593651E+04  0.25500000920E-02 0.  1.
        2   -1    0    0  501    0  0.00000000000E+00  0.00000000000E+00 -0.19421370903E+04  0.19421370903E+04  0.25500000920E-02 0. -1.
    10030    2    1    2    0    0  0.00000000000E+00  0.00000000000E+00  0.97622274738E+02  0.39818964554E+04  0.39806995959E+04 0.  0.
        3    1    3    3  502    0 -0.32861307914E+03 -0.48771922309E+03 -0.18532430767E+04  0.19443164629E+04  0.10100000352E+00 0. -1.
       -3    1    3    3    0  502  0.32861307914E+03  0.48771922309E+03  0.19508653514E+04  0.20375799925E+04  0.10100000352E+00 0.  1.
</event>
<event>
 5   0  0.2587493E-08  0.3999257E+04  0.7818609E-02  0.8004696E-01
       -2   -1    0    0    0  501  0.00000000000E+00  0.00000000000E+00  0.18438079078E+04  0.18438079078E+04  0.25500000920E-02 0. -1.
        2   -1    0    0  501    0  0.00000000000E+00  0.00000000000E+00 -0.21686173056E+04  0.21686173056E+04  0.25500000920E-02 0.  1.
    10030    2    1    2    0    0  0.00000000000E+00  0.00000000000E+00 -0.32480939775E+03  0.40124252134E+04  0.39992567995E+04 0.  0.
        5    1    3    3  502    0  0.22420961006E+03 -0.13637979289E+04 -0.16122501218E+04  0.21235788861E+04  0.46999998093E+01 0.  1.
       -5    1    3    3    0  502 -0.22420961006E+03  0.13637979289E+04  0.12874407241E+04  0.18888463273E+04  0.46999998093E+01 0. -1.
</event>
<event>
 5   0  0.2587493E-08  0.3996394E+04  0.7818609E-02  0.8005274E-01
       -2   -1    0    0    0  501  0.00000000000E+00  0.00000000000E+00  0.13586285322E+04  0.13586285322E+04  0.25500000920E-02 0.  1.
        2   -1    0    0  501    0  0.00000000000E+00  0.00000000000E+00 -0.29388399376E+04  0.29388399376E+04  0.25500000920E-02 0. -1.
    10030    2    1    2    0    0  0.00000000000E+00  0.00000000000E+00 -0.15802114054E+04  0.42974684698E+04  0.39963942702E+04 0.  0.
        5    1    3    3  502    0  0.50125262256E+02  0.68627088088E+03 -0.28074120934E+04  0.28905129330E+04  0.46999998093E+01 0. -1.
       -5    1    3    3    0  502 -0.50125262256E+02 -0.68627088088E+03  0.12272006880E+04  0.14069555368E+04  0.46999998093E+01 0.  1.
</event>
<event>
 5   0  0.2650452E-08  0.4003258E+04  0.7818609E-02  0.8003890E-01
       -2   -1    0    0    0  501  0.00000000000E+00  0.00000000000E+00  0.13236542907E+04  0.13236542908E+04  0.25500000920E-02 0. -1.
        2   -1    0    0  501    0  0.00000000000E+00  0.00000000000E+00 -0.30268623317E+04  0.30268623317E+04  0.25500000920E-02 0.  1.
    10030    2    1    2    0    0  0.00000000000E+00  0.00000000000E+00 -0.17032080410E+04  0.43505166225E+04  0.40032583294E+04 0.  0.
        3    1    3    3  502    0  0.18330315572E+02 -0.17948328576E+04 -0.18143133478E+04  0.25521547605E+04  0.10100000352E+00 0.  1.
       -3    1    3    3    0  502 -0.18330315572E+02  0.17948328576E+04  0.11110530683E+03  0.17983618620E+04  0.10100000352E+00 0. -1.
</event>
<event>
 5   0  0.8329875E-09  0.4002164E+04  0.7818609E-02  0.8004110E-01
        1   -1    0    0  501    0  0.00000000000E+00  0.00000000000E+00  0.17079934055E+04  0.17079934055E+04  0.50400001928E-02 0.  1.
       -1   -1    0    0    0  501  0.00000000000E+00  0.00000000000E+00 -0.23444635261E+04  0.23444635261E+04  0.50400001928E-02 0. -1.
    10030    2    1    2    0    0  0.00000000000E+00  0.00000000000E+00 -0.63647012053E+03  0.40524569316E+04  0.40021635359E+04 0.  0.
        1    1    3    3  502    0  0.61373877721E+03 -0.17575569721E+04  0.42491321846E+03  0.19095112045E+04  0.50400001928E-02 0.  1.
       -1    1    3    3    0  502 -0.61373877721E+03  0.17575569721E+04 -0.10613833390E+04  0.21429457271E+04  0.50400001928E-02 0. -1.
</event>
<event>
 5   0  0.8329875E-09  0.3997523E+04  0.7818609E-02  0.8005047E-01
        1   -1    0    0  501    0  0.00000000000E+00  0.00000000000E+00  0.20656813702E+04  0.20656813702E+04  0.50400001928E-02 0. -1.
       -1   -1    0    0    0  501  0.00000000000E+00  0.00000000000E+00 -0.19340091296E+04  0.19340091296E+04  0.50400001928E-02 0.  1.
    10030    2    1    2    0    0  0.00000000000E+00  0.00000000000E+00  0.13167224062E+03  0.39996904998E+04  0.39975225472E+04 0.  0.
        4    1    3    3  502    0  0.14048971974E+04  0.12449806593E+03  0.14828700999E+04  0.20464948692E+04  0.12699999809E+01 0. -1.
       -4    1    3    3    0  502 -0.14048971974E+04 -0.12449806593E+03 -0.13511978592E+04  0.19531956306E+04  0.12699999809E+01 0.  1.
</event>
<event>
 5   0  0.8329875E-09  0.3977337E+04  0.7818609E-02  0.8009134E-01
       -3   -1    0    0    0  501  0.00000000000E+00  0.00000000000E+00  0.20654620363E+04  0.20654620388E+04  0.10100000352E+00 0.  1.
        3   -1    0    0  501    0  0.00000000000E+00  0.00000000000E+00 -0.19147300116E+04  0.19147300143E+04  0.10100000352E+00 0. -1.
    10030    2    1    2    0    0  0.00000000000E+00  0.00000000000E+00  0.15073202471E+03  0.39801920531E+04  0.39773368774E+04 0.  0.
        2    1    3    3  502    0 -0.15267405276E+03  0.16390490415E+04  0.11919676261E+04  0.20323823333E+04  0.25500000920E-02 0.  1.
       -2    1    3    3    0  502  0.15267405276E+03 -0.16390490415E+04 -0.10412356014E+04  0.19478097198E+04  0.25500000920E-02 0. -1.
</event>
<event>
 5   0  0.2599332E-08  0.3984726E+04  0.7818609E-02  0.8007635E-01
       -2   -1    0    0    0  501  0.00000000000E+00  0.00000000000E+00  0.16898554763E+04  0.16898554763E+04  0.25500000920E-02 0.  1.
        2   -1    0    0  501    0  0.00000000000E+00  0.00000000000E+00 -0.23490233673E+04  0.23490233673E+04  0.25500000920E-02 0. -1.
    10030    2    1    2    0    0  0.00000000000E+00  0.00000000000E+00 -0.65916789104E+03  0.40388788436E+04  0.39847258380E+04 0.  0.
        2    1    3    3  502    0  0.11419381350E+04 -0.16077679774E+04 -0.41878872718E+02  0.19724843252E+04  0.25500000920E-02 0. -1.
       -2    1    3    3    0  502 -0.11419381350E+04  0.16077679774E+04 -0.61728901832E+03  0.20663945183E+04  0.25500000920E-02 0.  1.
</event>
<event>
 5   0  0.8329875E-09  0.3996559E+04  0.7818609E-02  0.8005241E-01
        1   -1    0    0  501    0  0.00000000000E+00  0.00000000000E+00  0.18131219597E+04  0.18131219597E+04  0.50400001928E-02 0.  1.
       -1   -1    0    0    0  501  0.00000000000E+00  0.00000000000E+00 -0.22023450432E+04  0.22023450432E+04  0.50400001928E-02 0. -1.
    10030    2    1    2    0    0  0.00000000000E+00  0.00000000000E+00 -0.38922308352E+03  0.40154670029E+04  0.39965585999E+04 0.  0.
        3    1    3    3  502    0 -0.93142608822E+03 -0.11571798274E+04  0.11483124723E+04  0.18775625835E+04  0.10100000352E+00 0.  1.
       -3    1    3    3    0  502  0.93142608822E+03  0.11571798274E+04 -0.15375355558E+04  0.21379044194E+04  0.10100000352E+00 0. -1.
</event>
<event>
 5   0  0.8329875E-09  0.3991953E+04  0.7818609E-02  0.8006172E-01
        1   -1    0    0  501    0  0.00000000000E+00  0.00000000000E+00  0.26614122464E+04  0.26614122464E+04  0.50400001928E-02 0. -1.
       -1   -1    0    0    0  501  0.00000000000E+00  0.00000000000E+00 -0.14969205448E+04  0.14969205448E+04  0.50400001928E-02 0.  1.
    10030    2    1    2    0    0  0.00000000000E+00  0.00000000000E+00  0.11644917015E+04  0.41583327912E+04  0.39919532412E+04 0.  0.
        4    1    3    3  502    0 -0.11688706887E+04  0.88912358879E+03  0.19902940610E+04  0.24734735707E+04  0.12699999809E+01 0. -1.
       -4    1    3    3    0  502  0.11688706887E+04 -0.88912358879E+03 -0.82580235943E+03  0.16848592205E+04  0.12699999809E+01 0.  1.
</event>
<event>
 5   0  0.2612363E-08  0.3979224E+04  0.7818609E-02  0.8008751E-01
       -2   -1    0    0    0  501  0.00000000000E+00  0.00000000000E+00  0.18478348584E+04  0.18478348584E+04  0.25500000920E-02 0.  1.
        2   -1    0    0  501    0  0.00000000000E+00  0.00000000000E+00 -0.21422674265E+04  0.21422674265E+04  0.25500000920E-02 0. -1.
    10030    2    1    2    0    0  0.00000000000E+00  0.00000000000E+00 -0.29443256817E+03  0.39901022849E+04  0.39792242594E+04 0.  0.
        4    1    3    3  502    0 -0.15470517878E+04 -0.77890695517E+03 -0.11289174368E+04  0.20674915891E+04  0.12699999809E+01 0.  1.
       -4    1    3    3    0  502  0.15470517878E+04  0.77890695517E+03  0.83448486859E+03  0.19226106958E+04  0.12699999809E+01 0. -1.
</event>
<event>
 5   0  0.8329875E-09  0.4003027E+04  0.7818609E-02  0.8003936E-01
        1   -1    0    0  501    0  0.00000000000E+00  0.00000000000E+00  0.24770905428E+04  0.24770905428E+04  0.50400001928E-02 0.  1.
       -1   -1    0    0    0  501  0.00000000000E+00  0.00000000000E+00 -0.16172425661E+04  0.16172425661E+04  0.50400001928E-02 0. -1.
    10030    2    1    2    0    0  0.00000000000E+00  0.00000000000E+00  0.85984797669E+03  0.40943331088E+04  0.40030269875E+04 0.  0.
        4    1    3    3  502    0 -0.10336634846E+04  0.12482906234E+04 -0.77132836653E+03  0.17948924039E+04  0.12699999809E+01 0. -1.
       -4    1    3    3    0  502  0.10336634846E+04 -0.12482906234E+04  0.16311763432E+04  0.22994407049E+04  0.12699999809E+01 0.  1.
</event>
<event>
 5   0  0.8329875E-09  0.3998304E+04  0.7818609E-02  0.8004889E-01
       -1   -1    0    0    0  501  0.00000000000E+00  0.00000000000E+00  0.22989728846E+04  0.22989728846E+04  0.50400001928E-02 0.  1.
        1   -1    0    0  501    0  0.00000000000E+00  0.00000000000E+00 -0.17384325653E+04  0.17384325654E+04  0.50400001928E-02 0. -1.
    10030    2    1    2    0    0  0.00000000000E+00  0.00000000000E+00  0.56054031923E+03  0.40374054499E+04  0.39983043053E+04 0.  0.
        4    1    3    3  502    0  0.11714813089E+04 -0.15231965842E+04 -0.27658582140E+03  0.19413906410E+04  0.12699999809E+01 0. -1.
       -4    1    3    3    0  502 -0.11714813089E+04  0.15231965842E+04  0.83712614062E+03  0.20960148090E+04  0.12699999809E+01 0.  1.
</event>
<event>
 5   0  0.8329875E-09  0.4001395E+04  0.7818609E-02  0.8004265E-01
       -1   -1    0    0    0  501  0.00000000000E+00  0.00000000000E+00  0.25898802417E+04  0.25898802417E+04  0.50400001928E-02 0. -1.
        1   -1    0    0  501    0  0.00000000000E+00  0.00000000000E+00 -0.15455505373E+04  0.15455505373E+04  0.50400001928E-02 0.  1.
    10030    2    1    2    0    0  0.00000000000E+00  0.00000000000E+00  0.10443297044E+04  0.41354307789E+04  0.40013951562E+04 0.  0.
        1    1    3    3  502    0 -0.12157654765E+04 -0.70003734746E+03 -0.95202857568E+03  0.16954339830E+04  0.50400001928E-02 0.  1.
       -1    1    3    3    0  502  0.12157654765E+04  0.70003734746E+03  0.19963582801E+04  0.24399967960E+04  0.50400001928E-02 0. -1.
</event>
<event>
 5   0  0.2746876E-08  0.3993769E+04  0.7818609E-02  0.8005805E-01
       -2   -1    0    0    0  501  0.00000000000E+00  0.00000000000E+00  0.16247325612E+04  0.16247325612E+04  0.25500000920E-02 0.  1.
        2   -1    0    0  501    0  0.00000000000E+00  0.00000000000E+00 -0.24542797491E+04  0.24542797491E+04  0.25500000920E-02 0. -1.
    10030    2    1    2    0    0  0.00000000000E+00  0.00000000000E+00 -0.82954718786E+03  0.40790123103E+04  0.39937692586E+04 0.  0.
        1    1    3    3  502    0 -0.12385456412E+04  0.45022022688E+03  0.11175333626E+04  0.17278814701E+04  0.50400001928E-02 0.  1.
       -1    1    3    3    0  502  0.12385456412E+04 -0.45022022688E+03 -0.19470805504E+04  0.23511308403E+04  0.50400001928E-02 0. -1.
</event>
<event>
 5   0  0.8329875E-09  0.3999072E+04  0.7818609E-02  0.8004734E-01
       -1   -1    0    0    0  501  0.00000000000E+00  0.00000000000E+00  0.28442866404E+04  0.28442866404E+04  0.50400001928E-02 0.  1.
        1   -1    0    0  501    0  0.00000000000E+00  0.00000000000E+00 -0.14056754860E+04  0.14056754860E+04  0.50400001928E-02 0. -1.
    10030    2    1    2    0    0  0.00000000000E+00  0.00000000000E+00  0.14386111544E+04  0.42499621264E+04  0.39990718951E+04 0.  0.
        3    1    3    3  502    0  0.15388264990E+04  0.86396197184E+03  0.17183500911E+04  0.24631573901E+04  0.10100000352E+00 0. -1.
       -3    1    3    3    0  502 -0.15388264990E+04 -0.86396197184E+03 -0.27973893666E+03  0.17868047363E+04  0.10100000352E+00 0.  1.
</event>
<event>
 5   0  0.2599332E-08  0.3997672E+04  0.7818609E-02  0.8005016E-01
        2   -1    0    0  501    0  0.00000000000E+00  0.00000000000E+00  0.13358512408E+04  0.13358512408E+04  0.25500000920E-02 0. -1.
       -2   -1    0    0    0  501  0.00000000000E+00  0.00000000000E+00 -0.29908604650E+04  0.29908604650E+04  0.25500000920E-02 0.  1.
    10030    2    1    2    0    0  0.00000000000E+00  0.00000000000E+00 -0.16550092242E+04  0.43267117058E+04  0.39976716539E+04 0.  0.
        2    1    3    3  502    0  0.16457678440E+04  0.14333568249E+03 -0.20454005472E+04  0.26292128694E+04  0.25500000920E-02 0.  1.
       -2    1    3    3    0  502 -0.16457678440E+04 -0.14333568249E+03  0.39039132296E+03  0.16974988363E+04  0.25500000920E-02 0. -1.
</event>
<event>
 5   0  0.2650452E-08  0.3997332E+04  0.7818609E-02  0.8005085E-01
       -2   -1    0    0    0  501  0.00000000000E+00  0.00000000000E+00  0.26250166679E+04  0.26250166679E+04  0.25500000920E-02 0. -1.
        2   -1    0    0  501    0  0.00000000000E+00  0.00000000000E+00 -0.15217677815E+04  0.15217677815E+04  0.25500000920E-02 0.  1.
    10030    2    1    2    0    0  0.00000000000E+00  0.00000000000E+00  0.11032488864E+04  0.41467844494E+04  0.39973320058E+04 0.  0.
        3    1    3    3  502    0  0.12799519415E+04  0.98102122700E+03 -0.67319048631E+03  0.17475311331E+04  0.10100000352E+00 0.  1.
       -3    1    3    3    0  502 -0.12799519415E+04 -0.98102122700E+03  0.17764393727E+04  0.23992533162E+04  0.10100000352E+00 0. -1.
</event>
<event>
 5   0  0.8329875E-09  0.4005033E+04  0.7818609E-02  0.8003532E-01
       -1   -1    0    0    0  501  0.00000000000E+00  0.00000000000E+00  0.17477038687E+04  0.17477038687E+04  0.50400001928E-02 0.  1.
        1   -1    0    0  501    0  0.00000000000E+00  0.00000000000E+00 -0.22944806905E+04  0.22944806905E+04  0.50400001928E-02 0. -1.
    10030    2    1    2    0    0  0.00000000000E+00  0.00000000000E+00 -0.54677682184E+03  0.40421845592E+04  0.40050332230E+04 0.  0.
        5    1    3    3  502    0  0.92583396957E+03  0.73327562490E+03 -0.19055440011E+04  0.22418701370E+04  0.46999998093E+01 0. -1.
       -5    1    3    3    0  502 -0.92583396957E+03 -0.73327562490E+03  0.13587671792E+04  0.18003144222E+04  0.46999998093E+01 0.  1.
</event>
<event>
 5   0  0.2612363E-08  0.3998720E+04  0.7818609E-02  0.8004805E-01
        2   -1    0    0  501    0  0.00000000000E+00  0.00000000000E+00  0.21965434772E+04  0.21965434772E+04  0.25500000920E-02 0.  1.
       -2   -1    0    0    0  501  0.00000000000E+00  0.00000000000E+00 -0.18198778818E+04  0.18198778818E+04  0.25500000920E-02 0. -1.
    10030    2    1    2    0    0  0.00000000000E+00  0.00000000000E+00  0.37666559542E+03  0.40164213590E+04  0.39987202405E+04 0.  0.
        4    1    3    3  502    0  0.14157219795E+04 -0.17720028586E+03 -0.12184995942E+04  0.18762759761E+04  0.12699999809E+01 0. -1.
       -4    1    3    3    0  502 -0.14157219795E+04  0.17720028586E+03  0.15951651897E+04  0.21401453828E+04  0.12699999809E+01 0.  1.
</event>
<event>
 5   0  0.2612363E-08  0.4002528E+04  0.7818609E-02  0.8004037E-01
       -2   -1    0    0    0  501  0.00000000000E+00  0.00000000000E+00  0.17469486401E+04  0.17469486401E+04  0.25500000920E-02 0.  1.
        2   -1    0    0  501    0  0.00000000000E+00  0.00000000000E+00 -0.22926015475E+04  0.22926015475E+04  0.25500000920E-02 0. -1.
    10030    2    1    2    0    0  0.00000000000E+00  0.00000000000E+00 -0.54565290738E+03  0.40395501876E+04  0.40025277792E+04 0.  0.
        4    1    3    3  502    0  0.13566631239E+04  0.14299658742E+04  0.76377330969E+02  0.19726054706E+04  0.12699999809E+01 0.  1.
       -4    1    3    3    0  502 -0.13566631239E+04 -0.14299658742E+04 -0.62203023835E+03  0.20669447171E+04  0.12699999809E+01 0. -1.
</event>
<event>
 5   0  0.2599332E-08  0.4000322E+04  0.7818609E-02  0.8004481E-01
        2   -1    0    0  501    0  0.00000000000E+00  0.00000000000E+00  0.26507630810E+04  0.26507630810E+04  0.25500000920E-02 0.  1.
       -2   -1    0    0    0  501  0.00000000000E+00  0.00000000000E+00 -0.15092427644E+04  0.15092427644E+04  0.25500000920E-02 0. -1.
    10030    2    1    2    0    0  0.00000000000E+00  0.00000000000E+00  0.11415203166E+04  0.41600058454E+04  0.40003224870E+04 0.  0.
        2    1    3    3  502    0 -0.32796311660E+03 -0.13404054453E+04 -0.93493082935E+03  0.16668359905E+04  0.25500000920E-02 0. -1.
       -2    1    3    3    0  502  0.32796311660E+03  0.13404054453E+04  0.20764511460E+04  0.24931698549E+04  0.25500000920E-02 0.  1.
</event>
<event>
 5   0  0.8329875E-09  0.4012104E+04  0.7818609E-02  0.8002109E-01
       -1   -1    0    0    0  501  0.00000000000E+00  0.00000000000E+00  0.14974598068E+04  0.14974598068E+04  0.50400001928E-02 0. -1.
        1   -1    0    0  501    0  0.00000000000E+00  0.00000000000E+00 -0.26873802271E+04  0.26873802271E+04  0.50400001928E-02 0.  1.
    10030    2    1    2    0    0  0.00000000000E+00  0.00000000000E+00 -0.11899204203E+04  0.41848400339E+04  0.40121036256E+04 0.  0.
        5    1    3    3  502    0  0.26547979002E+03 -0.14952139039E+04 -0.19621478203E+04  0.24811671238E+04  0.46999998093E+01 0.  1.
       -5    1    3    3    0  502 -0.26547979002E+03  0.14952139039E+04  0.77222740004E+03  0.17036729101E+04  0.46999998093E+01 0. -1.
</event>
<event>
 5   0  0.2650452E-08  0.4007956E+04  0.7818609E-02  0.8002944E-01
       -2   -1    0    0    0  501  0.00000000000E+00  0.00000000000E+00  0.25366052083E+04  0.25366052083E+04  0.25500000920E-02 0. -1.
        2   -1    0    0  501    0  0.00000000000E+00  0.00000000000E+00 -0.15831896286E+04  0.15831896286E+04  0.25500000920E-02 0.  1.
    10030    2    1    2    0    0  0.00000000000E+00  0.00000000000E+00  0.95341557975E+03  0.41197948369E+04  0.40079556173E+04 0.  0.
        3    1    3    3  502    0 -0.34622862266E+03 -0.53998024990E+03 -0.14748150615E+04  0.16082700039E+04  0.10100000352E+00 0.  1.
       -3    1    3    3    0  502  0.34622862266E+03  0.53998024990E+03  0.24282306413E+04  0.25115248330E+04  0.10100000352E+00 0. -1.
</event>
<event>
 5   0  0.8329875E-09  0.4018032E+04  0.7818609E-02  0.8000919E-01
       -1   -1    0    0    0  501  0.00000000000E+00  0.00000000000E+00  0.14540886521E+04  0.14540886521E+04  0.50400001928E-02 0. -1.
        1   -1    0    0  501    0  0.00000000000E+00  0.00000000000E+00 -0.27757216721E+04  0.27757216721E+04  0.50400001928E-02 0.  1.
    10030    2    1    2    0    0  0.00000000000E+00  0.00000000000E+00 -0.13216330200E+04  0.42298103243E+04  0.40180320481E+04 0.  0.
        5    1    3    3  502    0  0.70150164393E+03 -0.12297234625E+04  0.83972447384E+03  0.16460509204E+04  0.46999998093E+01 0. -1.
       -5    1    3    3    0  502 -0.70150164393E+03  0.12297234625E+04 -0.21613574938E+04  0.25837594038E+04  0.46999998093E+01 0.  1.
</event>
<event>
 5   0  0.2612363E-08  0.3994321E+04  0.7818609E-02  0.8005693E-01
       -2   -1    0    0    0  501  0.00000000000E+00  0.00000000000E+00  0.17267745108E+04  0.17267745108E+04  0.25500000920E-02 0.  1.
        2   -1    0    0  501    0  0.00000000000E+00  0.00000000000E+00 -0.23098847748E+04  0.23098847748E+04  0.25500000920E-02 0. -1.
    10030    2    1    2    0    0  0.00000000000E+00  0.00000000000E+00 -0.58311026400E+03  0.40366592856E+04  0.39943210446E+04 0.  0.
        4    1    3    3  502    0 -0.36748385985E+03  0.13093433744E+04 -0.17696668674E+04  0.22318483134E+04  0.12699999809E+01 0. -1.
       -4    1    3    3    0  502  0.36748385985E+03 -0.13093433744E+04  0.11865566034E+04  0.18048109722E+04  0.12699999809E+01 0.  1.
</event>
<event>
 5   0  0.8329875E-09  0.4005368E+04  0.7818609E-02  0.8003465E-01
       -1   -1    0    0    0  501  0.00000000000E+00  0.00000000000E+00  0.32794559584E+04  0.32794559584E+04  0.50400001928E-02 0. -1.
        1   -1    0    0  501    0  0.00000000000E+00  0.00000000000E+00 -0.12229904569E+04  0.12229904569E+04  0.50400001928E-02 0.  1.
    10030    2    1    2    0    0  0.00000000000E+00  0.00000000000E+00  0.20564655015E+04  0.45024464153E+04  0.40053680685E+04 0.  0.
        4    1    3    3  502    0  0.16196706611E+03 -0.15484959348E+04 -0.38772160584E+03  0.16044945145E+04  0.12699999809E+01 0.  1.
       -4    1    3    3    0  502 -0.16196706611E+03  0.15484959348E+04  0.24441871074E+04  0.28979519008E+04  0.12699999809E+01 0. -1.
</event>
<event>
 5   0  0.8329875E-09  0.3991108E+04  0.7818609E-02  0.8006343E-01
       -1   -1    0    0    0  501  0.00000000000E+00  0.00000000000E+00  0.32080847868E+04  0.32080847868E+04  0.50400001928E-02 0. -1.
        1   -1    0    0  501    0  0.00000000000E+00  0.00000000000E+00 -0.12413123032E+04  0.12413123033E+04  0.50400001928E-02 0.  1.
    10030    2    1    2    0    0  0.00000000000E+00  0.00000000000E+00  0.19667724836E+04  0.44493970901E+04  0.39911076737E+04 0.  0.
        3    1    3    3  502    0  0.40648352729E+03  0.46651822336E+03 -0.11316644806E+04  0.12897800656E+04  0.10100000352E+00 0.  1.
       -3    1    3    3    0  502 -0.40648352729E+03 -0.46651822336E+03  0.30984369641E+04  0.31596170245E+04  0.10100000352E+00 0. -1.
</event>
<event>
 5   0  0.2599332E-08  0.4001124E+04  0.7818609E-02  0.8004320E-01
       -2   -1    0    0    0  501  0.00000000000E+00  0.00000000000E+00  0.19663911750E+04  0.19663911750E+04  0.25500000920E-02 0. -1.
        2   -1    0    0  501    0  0.00000000000E+00  0.00000000000E+00 -0.20353262534E+04  0.20353262534E+04  0.25500000920E-02 0.  1.
    10030    2    1    2    0    0  0.00000000000E+00  0.00000000000E+00 -0.68935078458E+02  0.40017174284E+04  0.40011236336E+04 0.  0.
        2    1    3    3  502    0  0.19043549728E+04  0.20125395937E+03  0.54456273362E+03  0.19908841225E+04  0.25500000920E-02 0. -1.
       -2    1    3    3    0  502 -0.19043549728E+04 -0.20125395937E+03 -0.61349781208E+03  0.20108333059E+04  0.25500000920E-02 0.  1.
</event>
<event>
 5   0  0.8329875E-09  0.3999903E+04  0.7818609E-02  0.8004566E-01
       -1   -1    0    0    0  501  0.00000000000E+00  0.00000000000E+00  0.26437381675E+04  0.26437381675E+04  0.50400001928E-02 0. -1.
        1   -1    0    0  501    0  0.00000000000E+00  0.00000000000E+00 -0.15129359806E+04  0.15129359806E+04  0.50400001928E-02 0.  1.
    10030    2    1    2    0    0  0.00000000000E+00  0.00000000000E+00  0.11308021868E+04  0.41566741481E+04  0.39999032973E+04 0.  0.
        3    1    3    3  502    0 -0.28370804642E+03 -0.98647383797E+03  0.23491205397E+04  0.25635889314E+04  0.10100000352E+00 0. -1.
       -3    1    3    3    0  502  0.28370804642E+03  0.98647383797E+03 -0.12183183529E+04  0.15930852167E+04  0.10100000352E+00 0.  1.
</event>
<event>
 5   0  0.2612363E-08  0.3991490E+04  0.7818609E-02  0.8006266E-01
        2   -1    0    0  501    0  0.00000000000E+00  0.00000000000E+00  0.21891308465E+04  0.21891308465E+04  0.25500000920E-02 0.  1.
       -2   -1    0    0    0  501  0.00000000000E+00  0.00000000000E+00 -0.18194422952E+04  0.18194422952E+04  0.25500000920E-02 0. -1.
    10030    2    1    2    0    0  0.00000000000E+00  0.00000000000E+00  0.36968855138E+03  0.40085731417E+04  0.39914895725E+04 0.  0.
        4    1    3    3  502    0  0.39162958694E+03  0.58097704907E+03 -0.16918666243E+04  0.18312078944E+04  0.12699999809E+01 0. -1.
       -4    1    3    3    0  502 -0.39162958694E+03 -0.58097704907E+03  0.20615551757E+04  0.21773652473E+04  0.12699999809E+01 0.  1.
</event>
<event>
 5   0  0.2746876E-08  0.3998231E+04  0.7818609E-02  0.8004903E-01
        2   -1    0    0  501    0  0.00000000000E+00  0.00000000000E+00  0.24264608253E+04  0.24264608253E+04  0.25500000920E-02 0. -1.
       -2   -1    0    0    0  501  0.00000000000E+00  0.00000000000E+00 -0.16470339289E+04  0.16470339289E+04  0.25500000920E-02 0.  1.
    10030    2    1    2    0    0  0.00000000000E+00  0.00000000000E+00  0.77942689638E+03  0.40734947543E+04  0.39982312622E+04 0.  0.
        1    1    3    3  502    0 -0.10908896876E+04 -0.15446038113E+04 -0.27104888017E+03  0.19103163979E+04  0.50400001928E-02 0.  1.
       -1    1    3    3    0  502  0.10908896876E+04  0.15446038113E+04  0.10504757766E+04  0.21631783564E+04  0.50400001928E-02 0. -1.
</event>
<event>
 5   0  0.2746876E-08  0.3999918E+04  0.7818609E-02  0.8004563E-01
       -2   -1    0    0    0  501  0.00000000000E+00  0.00000000000E+00  0.27321214964E+04  0.27321214964E+04  0.25500000920E-02 0.  1.
        2   -1    0    0  501    0  0.00000000000E+00  0.00000000000E+00 -0.14640038124E+04  0.14640038124E+04  0.25500000920E-02 0. -1.
    10030    2    1    2    0    0  0.00000000000E+00  0.00000000000E+00  0.12681176840E+04  0.41961253088E+04  0.39999181425E+04 0.  0.
        1    1    3    3  502    0 -0.76072867402E+01  0.19745244275E+04  0.96750535299E+03  0.21988340533E+04  0.50400001928E-02 0.  1.
       -1    1    3    3    0  502  0.76072867402E+01 -0.19745244275E+04  0.30061233100E+03  0.19972912555E+04  0.50400001928E-02 0. -1.
</event>
<event>
 5   0  0.2650452E-08  0.3998477E+04  0.7818609E-02  0.8004854E-01
       -2   -1    0    0    0  501  0.00000000000E+00  0.00000000000E+00  0.23085412332E+04  0.23085412332E+04  0.25500000920E-02 0.  1.
        2   -1    0    0  501    0  0.00000000000E+00  0.00000000000E+00 -0.17313765086E+04  0.17313765086E+04  0.25500000920E-02 0. -1.
    10030    2    1    2    0    0  0.00000000000E+00  0.00000000000E+00  0.57716472456E+03  0.40399177417E+04  0.39984767401E+04 0.  0.
        3    1    3    3  502    0  0.21952446984E+03  0.13675851842E+04  0.17452156411E+04  0.22280614608E+04  0.10100000352E+00 0.  1.
       -3    1    3    3    0  502 -0.21952446984E+03 -0.13675851842E+04 -0.11680509166E+04  0.18118562809E+04  0.10100000352E+00 0. -1.
</event>
<event>
 5   0  0.2587493E-08  0.4003888E+04  0.7818609E-02  0.8003763E-01
       -2   -1    0    0    0  501  0.00000000000E+00  0.00000000000E+00  0.16229756825E+04  0.16229756825E+04  0.25500000920E-02 0. -1.
        2   -1    0    0  501    0  0.00000000000E+00  0.00000000000E+00 -0.24694028190E+04  0.24694028190E+04  0.25500000920E-02 0.  1.
    10030    2    1    2    0    0  0.00000000000E+00  0.00000000000E+00 -0.84642713645E+03  0.40923785015E+04  0.40038884727E+04 0.  0.
        5    1    3    3  502    0  0.82833795664E+03 -0.16122758318E+04 -0.12918079269E+04  0.22258407262E+04  0.46999998093E+01 0.  1.
       -5    1    3    3    0  502 -0.82833795664E+03  0.16122758318E+04  0.44538079042E+03  0.18665377753E+04  0.46999998093E+01 0. -1.
</event>
<event>
 5   0  0.8329875E-09  0.4001272E+04  0.7818609E-02  0.8004290E-01
       -1   -1    0    0    0  501  0.00000000000E+00  0.00000000000E+00  0.17023229390E+04  0.17023229390E+04  0.50400001928E-02 0. -1.
        1   -1    0    0  501    0  0.00000000000E+00  0.00000000000E+00 -0.23512250982E+04  0.23512250982E+04  0.50400001928E-02 0.  1.
    10030    2    1    2    0    0  0.00000000000E+00  0.00000000000E+00 -0.64890215928E+03  0.40535480372E+04  0.40012720075E+04 0.  0.
        3    1    3    3  502    0  0.66647870757E+03 -0.18858089267E+04 -0.27830118185E+03  0.20193862270E+04  0.10100000352E+00 0.  1.
       -3    1    3    3    0  502 -0.66647870757E+03  0.18858089267E+04 -0.37060097743E+03  0.20341618102E+04  0.10100000352E+00 0. -1.
</event>
<event>
 5   0  0.8329875E-09  0.4002470E+04  0.7818609E-02  0.8004049E-01
        1   -1    0    0  501    0  0.00000000000E+00  0.00000000000E+00  0.23379361835E+04  0.23379361835E+04  0.50400001928E-02 0.  1.
       -1   -1    0    0    0  501  0.00000000000E+00  0.00000000000E+00 -0.17130239612E+04  0.17130239612E+04  0.50400001928E-02 0. -1.
    10030    2    1    2    0    0  0.00000000000E+00  0.00000000000E+00  0.62491222233E+03  0.40509601448E+04  0.40024695887E+04 0.  0.
        4    1    3    3  502    0 -0.28599048899E+02  0.15663994343E+04 -0.94782600939E+03  0.18310654959E+04  0.12699999809E+01 0. -1.
       -4    1    3    3    0  502  0.28599048899E+02 -0.15663994343E+04  0.15727382317E+04  0.22198946488E+04  0.12699999809E+01 0.  1.
</event>
<event>
 5   0  0.2612363E-08  0.4003153E+04  0.7818609E-02  0.8003911E-01
       -2   -1    0    0    0  501  0.00000000000E+00  0.00000000000E+00  0.26430697714E+04  0.26430697714E+04  0.25500000920E-02 0.  1.
        2   -1    0    0  501    0  0.00000000000E+00  0.00000000000E+00 -0.15157785135E+04  0.15157785135E+04  0.25500000920E-02 0. -1.
    10030    2    1    2    0    0  0.00000000000E+00  0.00000000000E+00  0.11272912579E+04  0.41588482849E+04  0.40031529420E+04 0.  0.
        4    1    3    3  502    0  0.43516130862E+01  0.47113493233E+02 -0.15151970504E+04  0.15159361240E+04  0.12699999809E+01 0. -1.
       -4    1    3    3    0  502 -0.43516130862E+01 -0.47113493233E+02  0.26424883083E+04  0.26429121609E+04  0.12699999809E+01 0.  1.
</event>
<event>
 5   0  0.8329875E-09  0.4003059E+04  0.7818609E-02  0.8003930E-01
        1   -1    0    0  501    0  0.00000000000E+00  0.00000000000E+00  0.24730386663E+04  0.24730386663E+04  0.50400001928E-02 0.  1.
       -1   -1    0    0    0  501  0.00000000000E+00  0.00000000000E+00 -0.16199185308E+04  0.16199185308E+04  0.50400001928E-02 0. -1.
    10030    2    1    2    0    0  0.00000000000E+00  0.00000000000E+00  0.85312013554E+03  0.40929571972E+04  0.40030594115E+04 0.  0.
        3    1    3    3  502    0  0.14556805599E+04  0.13168125945E+04  0.82665303388E+03  0.21298724258E+04  0.10100000352E+00 0.  1.
       -3    1    3    3    0  502 -0.14556805599E+04 -0.13168125945E+04  0.26467101659E+02  0.19630847713E+04  0.10100000352E+00 0. -1.
</event>
<event>
 5   0  0.8329875E-09  0.4000179E+04  0.7818609E-02  0.8004510E-01
        1   -1    0    0  501    0  0.00000000000E+00  0.00000000000E+00  0.28313002838E+04  0.28313002838E+04  0.50400001928E-02 0.  1.
       -1   -1    0    0    0  501  0.00000000000E+00  0.00000000000E+00 -0.14129048537E+04  0.14129048538E+04  0.50400001928E-02 0. -1.
    10030    2    1    2    0    0  0.00000000000E+00  0.00000000000E+00  0.14183954300E+04  0.42442051375E+04  0.40001789527E+04 0.  0.
        2    1    3    3  502    0 -0.11369088661E+04 -0.16252177825E+04  0.43566586231E+03  0.20306893790E+04  0.25500000920E-02 0. -1.
       -2    1    3    3    0  502  0.11369088661E+04  0.16252177825E+04  0.98272956772E+03  0.22135157586E+04  0.25500000920E-02 0.  1.
</event>
<event>
 5   0  0.8329875E-09  0.4001813E+04  0.7818609E-02  0.8004181E-01
        1   -1    0    0  501    0  0.00000000000E+00  0.00000000000E+00  0.14325709733E+04  0.14325709733E+04  0.50400001928E-02 0.  1.
       -1   -1    0    0    0  501  0.00000000000E+00  0.00000000000E+00 -0.27947149772E+04  0.27947149772E+04  0.50400001928E-02 0. -1.
    10030    2    1    2    0    0  0.00000000000E+00  0.00000000000E+00 -0.13621440039E+04  0.42272859505E+04  0.40018133665E+04 0.  0.
        5    1    3    3  502    0 -0.55181937885E+03 -0.83367704782E+03  0.11498118311E+04  0.15236834920E+04  0.46999998093E+01 0.  1.
       -5    1    3    3    0  502  0.55181937885E+03  0.83367704782E+03 -0.25119558350E+04  0.27036024585E+04  0.46999998093E+01 0. -1.
</event>
<event>
 5   0  0.8329875E-09  0.4001331E+04  0.7818609E-02  0.8004278E-01
        1   -1    0    0  501    0  0.00000000000E+00  0.00000000000E+00  0.22285857099E+04  0.22285857099E+04  0.50400001928E-02 0.  1.
       -1   -1    0    0    0  501  0.00000000000E+00  0.00000000000E+00 -0.17960551109E+04  0.17960551109E+04  0.50400001928E-02 0. -1.
    10030    2    1    2    0    0  0.00000000000E+00  0.00000000000E+00  0.43253059903E+03  0.40246408208E+04  0.40013311557E+04 0.  0.
        3    1    3    3  502    0  0.16119275456E+04 -0.80696416932E+03  0.10891695141E+04  0.21061319577E+04  0.10100000352E+00 0.  1.
       -3    1    3    3    0  502 -0.16119275456E+04  0.80696416932E+03 -0.65663891505E+03  0.19185088631E+04  0.10100000352E+00 0. -1.
</event>
<event>
 5   0  0.8329875E-09  0.4010713E+04  0.7818609E-02  0.8002389E-01
        1   -1    0    0  501    0  0.00000000000E+00  0.00000000000E+00  0.16544503029E+04  0.16544503029E+04  0.50400001928E-02 0. -1.
       -1   -1    0    0    0  501  0.00000000000E+00  0.00000000000E+00 -0.24306888724E+04  0.24306888724E+04  0.50400001928E-02 0.  1.
    10030    2    1    2    0    0  0.00000000000E+00  0.00000000000E+00 -0.77623856954E+03  0.40851391753E+04  0.40107126255E+04 0.  0.
        5    1    3    3  502    0  0.18427632561E+04  0.77770297387E+03 -0.53513596505E+03  0.20705049927E+04  0.46999998093E+01 0.  1.
       -5    1    3    3    0  502 -0.18427632561E+04 -0.77770297387E+03 -0.24110260449E+03  0.20146341826E+04  0.46999998093E+01 0. -1.
</event>
<event>
 5   0  0.8329875E-09  0.3998791E+04  0.7818609E-02  0.8004790E-01
       -1   -1    0    0    0  501  0.00000000000E+00  0.00000000000E+00  0.17842802785E+04  0.17842802785E+04  0.50400001928E-02 0. -1.
        1   -1    0    0  501    0  0.00000000000E+00  0.00000000000E+00 -0.22404452964E+04  0.22404452964E+04  0.50400001928E-02 0.  1.
    10030    2    1    2    0    0  0.00000000000E+00  0.00000000000E+00 -0.45616501788E+03  0.40247255750E+04  0.39987909961E+04 0.  0.
        2    1    3    3  502    0  0.16056709002E+04 -0.59006766333E+03  0.81362934858E+03  0.18942944871E+04  0.25500000920E-02 0. -1.
       -2    1    3    3    0  502 -0.16056709002E+04  0.59006766333E+03 -0.12697943665E+04  0.21304310879E+04  0.25500000920E-02 0.  1.
</event>
<event>
 5   0  0.8329875E-09  0.4010771E+04  0.7818609E-02  0.8002377E-01
        1   -1    0    0  501    0  0.00000000000E+00  0.00000000000E+00  0.16776495372E+04  0.16776495372E+04  0.50400001928E-02 0.  1.
       -1   -1    0    0    0  501  0.00000000000E+00  0.00000000000E+00 -0.23971457003E+04  0.23971457003E+04  0.50400001928E-02 0. -1.
    10030    2    1    2    0    0  0.00000000000E+00  0.00000000000E+00 -0.71949616314E+03  0.40747952375E+04  0.40107706863E+04 0.  0.
        2    1    3    3  502    0  0.85500783609E+03 -0.55875720332E+03 -0.21130786676E+04  0.23469873173E+04  0.25500000920E-02 0. -1.
       -2    1    3    3    0  502 -0.85500783609E+03  0.55875720332E+03  0.13935825045E+04  0.17278079201E+04  0.25500000920E-02 0.  1.
</event>
<event>
 5   0  0.2587493E-08  0.3992242E+04  0.7818609E-02  0.8006113E-01
       -2   -1    0    0    0  501  0.00000000000E+00  0.00000000000E+00  0.14645523027E+04  0.14645523028E+04  0.25500000920E-02 0. -1.
        2   -1    0    0  501    0  0.00000000000E+00  0.00000000000E+00 -0.27206261428E+04  0.27206261428E+04  0.25500000920E-02 0.  1.
    10030    2    1    2    0    0  0.00000000000E+00  0.00000000000E+00 -0.12560738400E+04  0.41851784455E+04  0.39922421181E+04 0.  0.
        5    1    3    3  502    0 -0.16912470130E+04  0.22221252153E+03 -0.17148562809E+04  0.24187701457E+04  0.46999998093E+01 0. -1.
       -5    1    3    3    0  502  0.16912470130E+04 -0.22221252153E+03  0.45878244090E+03  0.17664082998E+04  0.46999998093E+01 0.  1.
</event>
<event>
 5   0  0.8329875E-09  0.3992323E+04  0.7818609E-02  0.8006097E-01
        1   -1    0    0  501    0  0.00000000000E+00  0.00000000000E+00  0.20311492765E+04  0.20311492766E+04  0.50400001928E-02 0. -1.
       -1   -1    0    0    0  501  0.00000000000E+00  0.00000000000E+00 -0.19617759780E+04  0.19617759780E+04  0.50400001928E-02 0.  1.
    10030    2    1    2    0    0  0.00000000000E+00  0.00000000000E+00  0.69373298574E+02  0.39929252545E+04  0.39923225613E+04 0.  0.
        3    1    3    3  502    0 -0.32753032656E+03  0.15895545732E+04 -0.11276849929E+04  0.19762675197E+04  0.10100000352E+00 0.  1.
       -3    1    3    3    0  502  0.32753032656E+03 -0.15895545732E+04  0.11970582915E+04  0.20166577348E+04  0.10100000352E+00 0. -1.
</event>
<event>
 5   0  0.2587493E-08  0.4007939E+04  0.7818609E-02  0.8002947E-01
        2   -1    0    0  501    0  0.00000000000E+00  0.00000000000E+00  0.24968845271E+04  0.24968845271E+04  0.25500000920E-02 0. -1.
       -2   -1    0    0    0  501  0.00000000000E+00  0.00000000000E+00 -0.16083615407E+04  0.16083615407E+04  0.25500000920E-02 0.  1.
    10030    2    1    2    0    0  0.00000000000E+00  0.00000000000E+00  0.88852298634E+03  0.41052460678E+04  0.40079386447E+04 0.  0.
        5    1    3    3  502    0  0.13334144310E+04 -0.11439853610E+04 -0.54307854370E+03  0.18389271181E+04  0.46999998093E+01 0.  1.
       -5    1    3    3    0  502 -0.13334144310E+04  0.11439853610E+04  0.14316015300E+04  0.22663189497E+04  0.46999998093E+01 0. -1.
</event>
<event>
 5   0  0.8329875E-09  0.3983119E+04  0.7818609E-02  0.8007961E-01
       -1   -1    0    0    0  501  0.00000000000E+00  0.00000000000E+00  0.15958442568E+04  0.15958442568E+04  0.50400001928E-02 0.  1.
        1   -1    0    0  501    0  0.00000000000E+00  0.00000000000E+00 -0.24853989719E+04  0.24853989719E+04  0.50400001928E-02 0. -1.
    10030    2    1    2    0    0  0.00000000000E+00  0.00000000000E+00 -0.88955471512E+03  0.40812432287E+04  0.39831192175E+04 0.  0.
        3    1    3    3  502    0 -0.16103460020E+04  0.85996279132E+03  0.37079565752E+03  0.18628579329E+04  0.10100000352E+00 0.  1.
       -3    1    3    3    0  502  0.16103460020E+04 -0.85996279132E+03 -0.12603503726E+04  0.22183852958E+04  0.10100000352E+00 0. -1.
</event>
<event>
 5   0  0.2612363E-08  0.3969899E+04  0.7818609E-02  0.8010647E-01
       -2   -1    0    0    0  501  0.00000000000E+00  0.00000000000E+00  0.21558301158E+04  0.21558301158E+04  0.25500000920E-02 0. -1.
        2   -1    0    0  501    0  0.00000000000E+00  0.00000000000E+00 -0.18276133143E+04  0.18276133143E+04  0.25500000920E-02 0.  1.
    10030    2    1    2    0    0  0.00000000000E+00  0.00000000000E+00  0.32821680147E+03  0.39834434301E+04  0.39698986501E+04 0.  0.
        4    1    3    3  502    0 -0.88858308303E+03  0.56190312907E+03  0.18535116961E+04  0.21309205152E+04  0.12699999809E+01 0. -1.
       -4    1    3    3    0  502  0.88858308303E+03 -0.56190312907E+03 -0.15252948946E+04  0.18525229149E+04  0.12699999809E+01 0.  1.
</event>
<event>
 5   0  0.8329875E-09  0.3966232E+04  0.7818609E-02  0.8011393E-01
       -1   -1    0    0    0  501  0.00000000000E+00  0.00000000000E+00  0.19587534645E+04  0.19587534645E+04  0.50400001928E-02 0.  1.
        1   -1    0    0  501    0  0.00000000000E+00  0.00000000000E+00 -0.20077816814E+04  0.20077816814E+04  0.50400001928E-02 0. -1.
    10030    2    1    2    0    0  0.00000000000E+00  0.00000000000E+00 -0.49028216866E+02  0.39665351459E+04  0.39662321286E+04 0.  0.
        4    1    3    3  502    0 -0.12097942580E+04  0.12052871277E+04  0.98374370548E+03  0.19708050380E+04  0.12699999809E+01 0. -1.
       -4    1    3    3    0  502  0.12097942580E+04 -0.12052871277E+04 -0.10327719223E+04  0.19957301079E+04  0.12699999809E+01 0.  1.
</event>
<event>
 5   0  0.2612363E-08  0.4001148E+04  0.7818609E-02  0.8004315E-01
        2   -1    0    0  501    0  0.00000000000E+00  0.00000000000E+00  0.19948961249E+04  0.19948961249E+04  0.25500000920E-02 0.  1.
       -2   -1    0    0    0  501  0.00000000000E+00  0.00000000000E+00 -0.20062678082E+04  0.20062678082E+04  0.25500000920E-02 0. -1.
    10030    2    1    2    0    0  0.00000000000E+00  0.00000000000E+00 -0.11371683264E+02  0.40011639331E+04  0.40011477734E+04 0.  0.
        4    1    3    3  502    0 -0.13628994232E+04 -0.70873338023E+03  0.12759185000E+04  0.19969395268E+04  0.12699999809E+01 0.  1.
       -4    1    3    3    0  502  0.13628994232E+04  0.70873338023E+03 -0.12872901833E+04  0.20042244063E+04  0.12699999809E+01 0. -1.
</event>
<event>
 5   0  0.2599332E-08  0.4002625E+04  0.7818609E-02  0.8004017E-01
        2   -1    0    0  501    0  0.00000000000E+00  0.00000000000E+00  0.20500500719E+04  0.20500500719E+04  0.25500000920E-02 0.  1.
       -2   -1    0    0    0  501  0.00000000000E+00  0.00000000000E+00 -0.19537334318E+04  0.19537334318E+04  0.25500000920E-02 0. -1.
    10030    2    1    2    0    0  0.00000000000E+00  0.00000000000E+00  0.96316640111E+02  0.40037835036E+04  0.40026248199E+04 0.  0.
        2    1    3    3  502    0  0.95265051121E+03  0.21370050874E+03  0.17956730494E+04  0.20439306750E+04  0.25500000920E-02 0.  1.
       -2    1    3    3    0  502 -0.95265051121E+03 -0.21370050874E+03 -0.16993564093E+04  0.19598528286E+04  0.25500000920E-02 0. -1.
</event>
<event>
 5   0  0.8329875E-09  0.3999657E+04  0.7818609E-02  0.8004616E-01
       -1   -1    0    0    0  501  0.00000000000E+00  0.00000000000E+00  0.29239779412E+04  0.29239779412E+04  0.50400001928E-02 0. -1.
        1   -1    0    0  501    0  0.00000000000E+00  0.00000000000E+00 -0.13677646441E+04  0.13677646441E+04  0.50400001928E-02 0.  1.
    10030    2    1    2    0    0  0.00000000000E+00  0.00000000000E+00  0.15562132971E+04  0.42917425852E+04  0.39996568093E+04 0.  0.
        1    1    3    3  502    0 -0.22072941589E+03 -0.73492831418E+03 -0.12035034926E+04  0.14273267877E+04  0.50400001928E-02 0.  1.
       -1    1    3    3    0  502  0.22072941589E+03  0.73492831418E+03  0.27597167897E+04  0.28644157976E+04  0.50400001928E-02 0. -1.
</event>
<event>
 5   0  0.8329875E-09  0.3999680E+04  0.7818609E-02  0.8004611E-01
       -1   -1    0    0    0  501  0.00000000000E+00  0.00000000000E+00  0.17437775489E+04  0.17437775489E+04  0.50400001928E-02 0.  1.
        1   -1    0    0  501    0  0.00000000000E+00  0.00000000000E+00 -0.22935034539E+04  0.22935034539E+04  0.50400001928E-02 0. -1.
    10030    2    1    2    0    0  0.00000000000E+00  0.00000000000E+00 -0.54972590497E+03  0.40372810028E+04  0.39996799029E+04 0.  0.
        1    1    3    3  502    0  0.10932513617E+03  0.12784475981E+04  0.12735001801E+04  0.18078116481E+04  0.50400001928E-02 0.  1.
       -1    1    3    3    0  502 -0.10932513617E+03 -0.12784475981E+04 -0.18232260850E+04  0.22294693547E+04  0.50400001928E-02 0. -1.
</event>
<event>
 5   0  0.2587493E-08  0.3994693E+04  0.7818609E-02  0.8005618E-01
       -2   -1    0    0    0  501  0.00000000000E+00  0.00000000000E+00  0.10777264325E+04  0.10777264325E+04  0.25500000920E-02 0. -1.
        2   -1    0    0  501    0  0.00000000000E+00  0.00000000000E+00 -0.37016751298E+04  0.37016751298E+04  0.25500000920E-02 0.  1.
    10030    2    1    2    0    0  0.00000000000E+00  0.00000000000E+00 -0.26239486973E+04  0.47794015623E+04  0.39946930455E+04 0.  0.
        5    1    3    3  502    0  0.19171166023E+04  0.53550637766E+03 -0.15095420339E+04  0.24981678065E+04  0.46999998093E+01 0.  1.
       -5    1    3    3    0  502 -0.19171166023E+04 -0.53550637766E+03 -0.11144066633E+04  0.22812337558E+04  0.46999998093E+01 0. -1.
</event>
<event>
 5   0  0.2650452E-08  0.3995127E+04  0.7818609E-02  0.8005530E-01
       -2   -1    0    0    0  501  0.00000000000E+00  0.00000000000E+00  0.18575685424E+04  0.18575685424E+04  0.25500000920E-02 0. -1.
        2   -1    0    0  501    0  0.00000000000E+00  0.00000000000E+00 -0.21481090750E+04  0.21481090750E+04  0.25500000920E-02 0.  1.
    10030    2    1    2    0    0  0.00000000000E+00  0.00000000000E+00 -0.29054053265E+03  0.40056776174E+04  0.39951269534E+04 0.  0.
        3    1    3    3  502    0 -0.15840581194E+04  0.11398603833E+04  0.28216297940E+03  0.19718361433E+04  0.10100000352E+00 0.  1.
       -3    1    3    3    0  502  0.15840581194E+04 -0.11398603833E+04 -0.57270351205E+03  0.20338414741E+04  0.10100000352E+00 0. -1.
</event>
<event>
 5   0  0.2650452E-08  0.4002301E+04  0.7818609E-02  0.8004083E-01
       -2   -1    0    0    0  501  0.00000000000E+00  0.00000000000E+00  0.17758263000E+04  0.17758263000E+04  0.25500000920E-02 0.  1.
        2   -1    0    0  501    0  0.00000000000E+00  0.00000000000E+00 -0.22550643889E+04  0.22550643889E+04  0.25500000920E-02 0. -1.
    10030    2    1    2    0    0  0.00000000000E+00  0.00000000000E+00 -0.47923808887E+03  0.40308906889E+04  0.40023006634E+04 0.  0.
        3    1    3    3  502    0 -0.11730144055E+04  0.41975006696E+02 -0.18719614275E+04  0.22095167556E+04  0.10100000352E+00 0. -1.
       -3    1    3    3    0  502  0.11730144055E+04 -0.41975006696E+02  0.13927233387E+04  0.18213739333E+04  0.10100000352E+00 0.  1.
</event>
<event>
 5   0  0.8329875E-09  0.4002714E+04  0.7818609E-02  0.8003999E-01
       -1   -1    0    0    0  501  0.00000000000E+00  0.00000000000E+00  0.17337033659E+04  0.17337033659E+04  0.50400001928E-02 0.  1.
        1   -1    0    0  501    0  0.00000000000E+00  0.00000000000E+00 -0.23103321888E+04  0.23103321888E+04  0.50400001928E-02 0. -1.
    10030    2    1    2    0    0  0.00000000000E+00  0.00000000000E+00 -0.57662882295E+03  0.40440355547E+04  0.40027144250E+04 0.  0.
        2    1    3    3  502    0  0.14219217010E+04 -0.28955740483E+03 -0.16808484773E+04  0.22205756952E+04  0.25500000920E-02 0. -1.
       -2    1    3    3    0  502 -0.14219217010E+04  0.28955740483E+03  0.11042196543E+04  0.18234598596E+04  0.25500000920E-02 0.  1.
</event>
<event>
 5   0  0.2612363E-08  0.4012161E+04  0.7818609E-02  0.8002098E-01
        2   -1    0    0  501    0  0.00000000000E+00  0.00000000000E+00  0.24951928677E+04  0.24951928677E+04  0.25500000920E-02 0. -1.
       -2   -1    0    0    0  501  0.00000000000E+00  0.00000000000E+00 -0.16128449306E+04  0.16128449306E+04  0.25500000920E-02 0.  1.
    10030    2    1    2    0    0  0.00000000000E+00  0.00000000000E+00  0.88234793709E+03  0.41080377983E+04  0.40121610973E+04 0.  0.
        4    1    3    3  502    0 -0.83310639774E+03 -0.17651431879E+04  0.91545010039E+03  0.21558866489E+04  0.12699999809E+01 0. -1.
       -4    1    3    3    0  502  0.83310639774E+03  0.17651431879E+04 -0.33102163307E+02  0.19521511494E+04  0.12699999809E+01 0.  1.
</event>
<event>
 5   0  0.8329875E-09  0.4046688E+04  0.7818609E-02  0.7995194E-01
        1   -1    0    0  501    0  0.00000000000E+00  0.00000000000E+00  0.29880240639E+04  0.29880240639E+04  0.50400001928E-02 0.  1.
       -1   -1    0    0    0  501  0.00000000000E+00  0.00000000000E+00 -0.13701094720E+04  0.13701094720E+04  0.50400001928E-02 0. -1.
    10030    2    1    2    0    0  0.00000000000E+00  0.00000000000E+00  0.16179145918E+04  0.43581335359E+04  0.40466875701E+04 0.  0.
        3    1    3    3  502    0 -0.13525867857E+04  0.83523506194E+03 -0.53910271166E+03  0.16786126311E+04  0.10100000352E+00 0. -1.
       -3    1    3    3    0  502  0.13525867857E+04 -0.83523506194E+03  0.21570173035E+04  0.26795209048E+04  0.10100000352E+00 0.  1.
</event>
<event>
 5   0  0.2650452E-08  0.3997407E+04  0.7818609E-02  0.8005070E-01
       -2   -1    0    0    0  501  0.00000000000E+00  0.00000000000E+00  0.14719241972E+04  0.14719241972E+04  0.25500000920E-02 0. -1.
        2   -1    0    0  501    0  0.00000000000E+00  0.00000000000E+00 -0.27140089829E+04  0.27140089829E+04  0.25500000920E-02 0.  1.
    10030    2    1    2    0    0  0.00000000000E+00  0.00000000000E+00 -0.12420847858E+04  0.41859331801E+04  0.39974069062E+04 0.  0.
        3    1    3    3  502    0  0.77800227499E+03 -0.36925083043E+01 -0.25489342491E+04  0.26650266398E+04  0.10100000352E+00 0.  1.
       -3    1    3    3    0  502 -0.77800227499E+03  0.36925083043E+01  0.13068494633E+04  0.15209065403E+04  0.10100000352E+00 0. -1.
</event>
<event>
 5   0  0.8329875E-09  0.4036585E+04  0.7818609E-02  0.7997207E-01
        1   -1    0    0  501    0  0.00000000000E+00  0.00000000000E+00  0.14834751669E+04  0.14834751669E+04  0.50400001928E-02 0.  1.
       -1   -1    0    0    0  501  0.00000000000E+00  0.00000000000E+00 -0.27459200741E+04  0.27459200741E+04  0.50400001928E-02 0. -1.
    10030    2    1    2    0    0  0.00000000000E+00  0.00000000000E+00 -0.12624449072E+04  0.42293952410E+04  0.40365848140E+04 0.  0.
        1    1    3    3  502    0  0.19485535393E+04  0.51221774958E+03 -0.75641323601E+03  0.21520661937E+04  0.50400001928E-02 0.  1.
       -1    1    3    3    0  502 -0.19485535393E+04 -0.51221774958E+03 -0.50603167121E+03  0.20773290473E+04  0.50400001928E-02 0. -1.
</event>
<event>
 5   0  0.2587493E-08  0.4001303E+04  0.7818609E-02  0.8004284E-01
        2   -1    0    0  501    0  0.00000000000E+00  0.00000000000E+00  0.27030707169E+04  0.27030707169E+04  0.25500000920E-02 0. -1.
       -2   -1    0    0    0  501  0.00000000000E+00  0.00000000000E+00 -0.14807628319E+04  0.14807628319E+04  0.25500000920E-02 0.  1.
    10030    2    1    2    0    0  0.00000000000E+00  0.00000000000E+00  0.12223078850E+04  0.41838335488E+04  0.40013031125E+04 0.  0.
        5    1    3    3  502    0  0.65975408694E+03 -0.76665653154E+03  0.24160327961E+04  0.26192125256E+04  0.46999998093E+01 0. -1.
       -5    1    3    3    0  502 -0.65975408694E+03  0.76665653154E+03 -0.11937249111E+04  0.15646210231E+04  0.46999998093E+01 0.  1.
</event>
<event>
 5   0  0.8329875E-09  0.4003093E+04  0.7818609E-02  0.8003923E-01
       -1   -1    0    0    0  501  0.00000000000E+00  0.00000000000E+00  0.16359623868E+04  0.16359623868E+04  0.50400001928E-02 0. -1.
        1   -1    0    0  501    0  0.00000000000E+00  0.00000000000E+00 -0.24488266459E+04  0.24488266459E+04  0.50400001928E-02 0.  1.
    10030    2    1    2    0    0  0.00000000000E+00  0.00000000000E+00 -0.81286425911E+03  0.40847890327E+04  0.40030929464E+04 0.  0.
        4    1    3    3  502    0  0.44300271179E+03  0.91711574324E+03  0.13517623564E+04  0.16925175835E+04  0.12699999809E+01 0. -1.
       -4    1    3    3    0  502 -0.44300271179E+03 -0.91711574324E+03 -0.21646266155E+04  0.23922714492E+04  0.12699999809E+01 0.  1.
</event>
<event>
 5   0  0.2599332E-08  0.4000714E+04  0.7818609E-02  0.8004403E-01
       -2   -1    0    0    0  501  0.00000000000E+00  0.00000000000E+00  0.27642097250E+04  0.27642097250E+04  0.25500000920E-02 0. -1.
        2   -1    0    0  501    0  0.00000000000E+00  0.00000000000E+00 -0.14475846238E+04  0.14475846238E+04  0.25500000920E-02 0.  1.
    10030    2    1    2    0    0  0.00000000000E+00  0.00000000000E+00  0.13166251012E+04  0.42117943489E+04  0.40007136838E+04 0.  0.
        2    1    3    3  502    0  0.14324851251E+04  0.11869077003E+04  0.14324060160E+04  0.23478821345E+04  0.25500000920E-02 0. -1.
       -2    1    3    3    0  502 -0.14324851251E+04 -0.11869077003E+04 -0.11578091485E+03  0.18639122144E+04  0.25500000920E-02 0.  1.
</event>
<event>
 5   0  0.2650452E-08  0.4001349E+04  0.7818609E-02  0.8004275E-01
        2   -1    0    0  501    0  0.00000000000E+00  0.00000000000E+00  0.27752865843E+04  0.27752865843E+04  0.25500000920E-02 0. -1.
       -2   -1    0    0    0  501  0.00000000000E+00  0.00000000000E+00 -0.14422647384E+04  0.14422647384E+04  0.25500000920E-02 0.  1.
    10030    2    1    2    0    0  0.00000000000E+00  0.00000000000E+00  0.13330218459E+04  0.42175513227E+04  0.40013487624E+04 0.  0.
        3    1    3    3  502    0 -0.12148716571E+04  0.47568139393E+02 -0.10082142867E+04  0.15794530475E+04  0.10100000352E+00 0.  1.
       -3    1    3    3    0  502  0.12148716571E+04 -0.47568139393E+02  0.23412361326E+04  0.26380982752E+04  0.10100000352E+00 0. -1.
</event>
<event>
 5   0  0.8329875E-09  0.4002693E+04  0.7818609E-02  0.8004003E-01
        1   -1    0    0  501    0  0.00000000000E+00  0.00000000000E+00  0.21891428960E+04  0.21891428960E+04  0.50400001928E-02 0.  1.
       -1   -1    0    0    0  501  0.00000000000E+00  0.00000000000E+00 -0.18296603389E+04  0.18296603389E+04  0.50400001928E-02 0. -1.
    10030    2    1    2    0    0  0.00000000000E+00  0.00000000000E+00  0.35948255715E+03  0.40188032349E+04  0.40026930599E+04 0.  0.
        5    1    3    3  502    0  0.10337823891E+03  0.11640258578E+04  0.18110028262E+04  0.21553182096E+04  0.46999998093E+01 0.  1.
       -5    1    3    3    0  502 -0.10337823891E+03 -0.11640258578E+04 -0.14515202691E+04  0.18634850253E+04  0.46999998093E+01 0. -1.
</event>
<event>
 5   0  0.2587493E-08  0.4006469E+04  0.7818609E-02  0.8003243E-01
        2   -1    0    0  501    0  0.00000000000E+00  0.00000000000E+00  0.25295401743E+04  0.25295401743E+04  0.25500000920E-02 0.  1.
       -2   -1    0    0    0  501  0.00000000000E+00  0.00000000000E+00 -0.15864340146E+04  0.15864340146E+04  0.25500000920E-02 0. -1.
    10030    2    1    2    0    0  0.00000000000E+00  0.00000000000E+00  0.94310615966E+03  0.41159741890E+04  0.40064690559E+04 0.  0.
        5    1    3    3  502    0  0.17414683348E+03  0.10292349533E+04 -0.12849368708E+04  0.16555170070E+04  0.46999998093E+01 0. -1.
       -5    1    3    3    0  502 -0.17414683348E+03 -0.10292349533E+04  0.22280430304E+04  0.24604571819E+04  0.46999998093E+01 0.  1.
</event>
<event>
 5   0  0.2612363E-08  0.4002142E+04  0.7818609E-02  0.8004115E-01
       -2   -1    0    0    0  501  0.00000000000E+00  0.00000000000E+00  0.17039643423E+04  0.17039643423E+04  0.25500000920E-02 0.  1.
        2   -1    0    0  501    0  0.00000000000E+00  0.00000000000E+00 -0.23499821685E+04  0.23499821685E+04  0.25500000920E-02 0. -1.
    10030    2    1    2    0    0  0.00000000000E+00  0.00000000000E+00 -0.64601782613E+03  0.40539465108E+04  0.40021423364E+04 0.  0.
        4    1    3    3  502    0 -0.68182914419E+03 -0.18547930083E+04 -0.64194337353E+03  0.20777971492E+04  0.12699999809E+01 0. -1.
       -4    1    3    3    0  502  0.68182914419E+03  0.18547930083E+04 -0.40744525931E+01  0.19761493616E+04  0.12699999809E+01 0.  1.
</event>
<event>
 5   0  0.2599332E-08  0.3992252E+04  0.7818609E-02  0.8006111E-01
        2   -1    0    0  501    0  0.00000000000E+00  0.00000000000E+00  0.23191595493E+04  0.23191595493E+04  0.25500000920E-02 0.  1.
       -2   -1    0    0    0  501  0.00000000000E+00  0.00000000000E+00 -0.17180878433E+04  0.17180878433E+04  0.25500000920E-02 0. -1.
    10030    2    1    2    0    0  0.00000000000E+00  0.00000000000E+00  0.60107170595E+03  0.40372473926E+04  0.39922524110E+04 0.  0.
        2    1    3    3  502    0  0.59739579088E+03 -0.15354979943E+04 -0.83905616247E+03  0.18489594547E+04  0.25500000920E-02 0. -1.
       -2    1    3    3    0  502 -0.59739579088E+03  0.15354979943E+04  0.14401278684E+04  0.21882879378E+04  0.25500000920E-02 0.  1.
</event>
<event>
 5   0  0.8329875E-09  0.4002082E+04  0.7818609E-02  0.8004127E-01
       -1   -1    0    0    0  501  0.00000000000E+00  0.00000000000E+00  0.22446466137E+04  0.22446466137E+04  0.50400001928E-02 0.  1.
        1   -1    0    0  501    0  0.00000000000E+00  0.00000000000E+00 -0.17838735003E+04  0.17838735003E+04  0.50400001928E-02 0. -1.
    10030    2    1    2    0    0  0.00000000000E+00  0.00000000000E+00  0.46077311337E+03  0.40285201139E+04  0.40020822638E+04 0.  0.
        2    1    3    3  502    0  0.11237384831E+04 -0.29781404725E+03 -0.14090790203E+04  0.18267416540E+04  0.25500000920E-02 0. -1.
       -2    1    3    3    0  502 -0.11237384831E+04  0.29781404725E+03  0.18698521336E+04  0.22017784600E+04  0.25500000920E-02 0.  1.
</event>
<event>
 5   0  0.2599332E-08  0.3999568E+04  0.7818609E-02  0.8004634E-01
        2   -1    0    0  501    0  0.00000000000E+00  0.00000000000E+00  0.20501377678E+04  0.20501377678E+04  0.25500000920E-02 0.  1.
       -2   -1    0    0    0  501  0.00000000000E+00  0.00000000000E+00 -0.19506667293E+04  0.19506667293E+04  0.25500000920E-02 0. -1.
    10030    2    1    2    0    0  0.00000000000E+00  0.00000000000E+00  0.99471038550E+02  0.40008044971E+04  0.39995677438E+04 0.  0.
        2    1    3    3  502    0  0.61208807829E+03 -0.17655725569E+04  0.76216166344E+03  0.20181151282E+04  0.25500000920E-02 0.  1.
       -2    1    3    3    0  502 -0.61208807829E+03  0.17655725569E+04 -0.66269062489E+03  0.19826893690E+04  0.25500000920E-02 0. -1.
</event>
<event>
 5   0  0.2587493E-08  0.4005228E+04  0.7818609E-02  0.8003493E-01
       -2   -1    0    0    0  501  0.00000000000E+00  0.00000000000E+00  0.13340041424E+04  0.13340041425E+04  0.25500000920E-02 0. -1.
        2   -1    0    0  501    0  0.00000000000E+00  0.00000000000E+00 -0.30063346352E+04  0.30063346352E+04  0.25500000920E-02 0.  1.
    10030    2    1    2    0    0  0.00000000000E+00  0.00000000000E+00 -0.16723304927E+04  0.43403387776E+04  0.40052280120E+04 0.  0.
        5    1    3    3  502    0 -0.92864841079E+03 -0.38730674015E+02  0.10861025843E+04  0.14295204964E+04  0.46999998093E+01 0. -1.
       -5    1    3    3    0  502  0.92864841079E+03  0.38730674015E+02 -0.27584330770E+04  0.29108182813E+04  0.46999998093E+01 0.  1.
</event>
<event>
 5   0  0.2612363E-08  0.4002512E+04  0.7818609E-02  0.8004040E-01
        2   -1    0    0  501    0  0.00000000000E+00  0.00000000000E+00  0.17479397321E+04  0.17479397321E+04  0.25500000920E-02 0. -1.
       -2   -1    0    0    0  501  0.00000000000E+00  0.00000000000E+00 -0.22912832971E+04  0.22912832971E+04  0.25500000920E-02 0.  1.
    10030    2    1    2    0    0  0.00000000000E+00  0.00000000000E+00 -0.54334356504E+03  0.40392230292E+04  0.40025117676E+04 0.  0.
        4    1    3    3  502    0  0.17301113843E+04  0.76245008298E+03 -0.93374400605E+03  0.21086713857E+04  0.12699999809E+01 0.  1.
       -4    1    3    3    0  502 -0.17301113843E+04 -0.76245008298E+03  0.39040044101E+03  0.19305516435E+04  0.12699999809E+01 0. -1.
</event>
<event>
 5   0  0.2599332E-08  0.4000555E+04  0.7818609E-02  0.8004435E-01
       -2   -1    0    0    0  501  0.00000000000E+00  0.00000000000E+00  0.14154214142E+04  0.14154214142E+04  0.25500000920E-02 0.  1.
        2   -1    0    0  501    0  0.00000000000E+00  0.00000000000E+00 -0.28267978220E+04  0.28267978220E+04  0.25500000920E-02 0. -1.
    10030    2    1    2    0    0  0.00000000000E+00  0.00000000000E+00 -0.14113764077E+04  0.42422192362E+04  0.40005550470E+04 0.  0.
        2    1    3    3  502    0 -0.50438396978E+03  0.19122725582E+04 -0.10236702251E+04  0.22269014921E+04  0.25500000920E-02 0.  1.
       -2    1    3    3    0  502  0.50438396978E+03 -0.19122725582E+04 -0.38770618266E+03  0.20153177441E+04  0.25500000920E-02 0. -1.
</event>
<event>
 5   0  0.2587493E-08  0.4000991E+04  0.7818609E-02  0.8004347E-01
       -2   -1    0    0    0  501  0.00000000000E+00  0.00000000000E+00  0.15674111615E+04  0.15674111615E+04  0.25500000920E-02 0.  1.
        2   -1    0    0  501    0  0.00000000000E+00  0.00000000000E+00 -0.25532431135E+04  0.25532431135E+04  0.25500000920E-02 0. -1.
    10030    2    1    2    0    0  0.00000000000E+00  0.00000000000E+00 -0.98583195196E+03  0.41206542750E+04  0.40009907543E+04 0.  0.
        5    1    3    3  502    0  0.10046240711E+04 -0.15792068818E+04 -0.12202937209E+04  0.22343461583E+04  0.46999998093E+01 0. -1.
       -5    1    3    3    0  502 -0.10046240711E+04  0.15792068818E+04  0.23446176892E+03  0.18863081167E+04  0.46999998093E+01 0.  1.
</event>
<event>
 5   0  0.8329875E-09  0.3993446E+04  0.7818609E-02  0.8005870E-01
       -1   -1    0    0    0  501  0.00000000000E+00  0.00000000000E+00  0.14961109994E+04  0.14961109994E+04  0.50400001928E-02 0.  1.
        1   -1    0    0  501    0  0.00000000000E+00  0.00000000000E+00 -0.26648445506E+04  0.26648445506E+04  0.50400001928E-02 0. -1.
    10030    2    1    2    0    0  0.00000000000E+00  0.00000000000E+00 -0.11687335512E+04  0.41609555500E+04  0.39934462530E+04 0.  0.
        1    1    3    3  502    0  0.36680516838E+03 -0.10037853478E+04 -0.23417601284E+04  0.25740962598E+04  0.50400001928E-02 0. -1.
       -1    1    3    3    0  502 -0.36680516838E+03  0.10037853478E+04  0.11730265772E+04  0.15868592902E+04  0.50400001928E-02 0.  1.
</event>
<event>
 5   0  0.2650452E-08  0.3999138E+04  0.7818609E-02  0.8004721E-01
        2   -1    0    0  501    0  0.00000000000E+00  0.00000000000E+00  0.27299875180E+04  0.27299875180E+04  0.25500000920E-02 0.  1.
       -2   -1    0    0    0  501  0.00000000000E+00  0.00000000000E+00 -0.14645764620E+04  0.14645764620E+04  0.25500000920E-02 0. -1.
    10030    2    1    2    0    0  0.00000000000E+00  0.00000000000E+00  0.12654110560E+04  0.41945639799E+04  0.39991376372E+04 0.  0.
        3    1    3    3  502    0 -0.12409509068E+04  0.31337673647E+03  0.22440437743E+04  0.25833885893E+04  0.10100000352E+00 0.  1.
       -3    1    3    3    0  502  0.12409509068E+04 -0.31337673647E+03 -0.97863271824E+03  0.16111753907E+04  0.10100000352E+00 0. -1.
</event>
<event>
 5   0  0.8329875E-09  0.4001758E+04  0.7818609E-02  0.8004192E-01
       -1   -1    0    0    0  501  0.00000000000E+00  0.00000000000E+00  0.26706690470E+04  0.26706690470E+04  0.50400001928E-02 0. -1.
        1   -1    0    0  501    0  0.00000000000E+00  0.00000000000E+00 -0.14990684815E+04  0.14990684815E+04  0.50400001928E-02 0.  1.
    10030    2    1    2    0    0  0.00000000000E+00  0.00000000000E+00  0.11716005655E+04  0.41697375285E+04  0.40017575104E+04 0.  0.
        1    1    3    3  502    0  0.11085785108E+04 -0.13446680780E+03  0.23157600978E+04  0.25709477761E+04  0.50400001928E-02 0. -1.
       -1    1    3    3    0  502 -0.11085785108E+04  0.13446680780E+03 -0.11441595323E+04  0.15987897524E+04  0.50400001928E-02 0.  1.
</event>
<event>
 5   0  0.2599332E-08  0.4001397E+04  0.7818609E-02  0.8004265E-01
        2   -1    0    0  501    0  0.00000000000E+00  0.00000000000E+00  0.24721737377E+04  0.24721737377E+04  0.25500000920E-02 0.  1.
       -2   -1    0    0    0  501  0.00000000000E+00  0.00000000000E+00 -0.16191397535E+04  0.16191397535E+04  0.25500000920E-02 0. -1.
    10030    2    1    2    0    0  0.00000000000E+00  0.00000000000E+00  0.85303398420E+03  0.40913134912E+04  0.40013971441E+04 0.  0.
        2    1    3    3  502    0 -0.10300188203E+04  0.11327857357E+04  0.17433442319E+04  0.23202136548E+04  0.25500000920E-02 0.  1.
       -2    1    3    3    0  502  0.10300188203E+04 -0.11327857357E+04 -0.89031024767E+03  0.17710998363E+04  0.25500000920E-02 0. -1.
</event>
<event>
 5   0  0.2587493E-08  0.4010760E+04  0.7818609E-02  0.8002379E-01
       -2   -1    0    0    0  501  0.00000000000E+00  0.00000000000E+00  0.29530088635E+04  0.29530088635E+04  0.25500000920E-02 0. -1.
        2   -1    0    0  501    0  0.00000000000E+00  0.00000000000E+00 -0.13618479234E+04  0.13618479234E+04  0.25500000920E-02 0.  1.
    10030    2    1    2    0    0  0.00000000000E+00  0.00000000000E+00  0.15911609401E+04  0.43148567869E+04  0.40107600220E+04 0.  0.
        5    1    3    3  502    0  0.13511557918E+04  0.13033432662E+04  0.36992735075E+02  0.18776890572E+04  0.46999998093E+01 0.  1.
       -5    1    3    3    0  502 -0.13511557918E+04 -0.13033432662E+04  0.15541682050E+04  0.24371677297E+04  0.46999998093E+01 0. -1.
</event>
<event>
 5   0  0.8329875E-09  0.3991534E+04  0.7818609E-02  0.8006257E-01
       -1   -1    0    0    0  501  0.00000000000E+00  0.00000000000E+00  0.24897604628E+04  0.24897604628E+04  0.50400001928E-02 0. -1.
        1   -1    0    0  501    0  0.00000000000E+00  0.00000000000E+00 -0.15997865269E+04  0.15997865270E+04  0.50400001928E-02 0.  1.
    10030    2    1    2    0    0  0.00000000000E+00  0.00000000000E+00  0.88997393590E+03  0.40895469898E+04  0.39915336620E+04 0.  0.
        3    1    3    3  502    0  0.72384545245E+03  0.14242441361E+04 -0.78048638463E+03  0.17780839702E+04  0.10100000352E+00 0.  1.
       -3    1    3    3    0  502 -0.72384545245E+03 -0.14242441361E+04  0.16704603205E+04  0.23114630196E+04  0.10100000352E+00 0. -1.
</event>
<event>
 5   0  0.8329875E-09  0.3988563E+04  0.7818609E-02  0.8006858E-01
        1   -1    0    0  501    0  0.00000000000E+00  0.00000000000E+00  0.12837194239E+04  0.12837194239E+04  0.50400001928E-02 0. -1.
       -1   -1    0    0    0  501  0.00000000000E+00  0.00000000000E+00 -0.30981522772E+04  0.30981522772E+04  0.50400001928E-02 0.  1.
    10030    2    1    2    0    0  0.00000000000E+00  0.00000000000E+00 -0.18144328533E+04  0.43818717011E+04  0.39885627769E+04 0.  0.
        1    1    3    3  502    0 -0.48149982322E+03 -0.16043804582E+04  0.28176070266E+03  0.16986076145E+04  0.50400001928E-02 0. -1.
       -1    1    3    3    0  502  0.48149982322E+03  0.16043804582E+04 -0.20961935560E+04  0.26832640866E+04  0.50400001928E-02 0.  1.
</event>
<event>
 5   0  0.8329875E-09  0.3994618E+04  0.7818609E-02  0.8005633E-01
        1   -1    0    0  501    0  0.00000000000E+00  0.00000000000E+00  0.14171178156E+04  0.14171178156E+04  0.50400001928E-02 0.  1.
       -1   -1    0    0    0  501  0.00000000000E+00  0.00000000000E+00 -0.28150403525E+04  0.28150403525E+04  0.50400001928E-02 0. -1.
    10030    2    1    2    0    0  0.00000000000E+00  0.00000000000E+00 -0.13979225369E+04  0.42321581681E+04  0.39946182972E+04 0.  0.
        5    1    3    3  502    0  0.77120137361E+02  0.41408691482E+03  0.13695220009E+04  0.14328391709E+04  0.46999998093E+01 0.  1.
       -5    1    3    3    0  502 -0.77120137361E+02 -0.41408691482E+03 -0.27674445378E+04  0.27993189972E+04  0.46999998093E+01 0. -1.
</event>
<event>
 5   0  0.8329875E-09  0.4028202E+04  0.7818609E-02  0.7998881E-01
       -1   -1    0    0    0  501  0.00000000000E+00  0.00000000000E+00  0.13778286934E+04  0.13778286935E+04  0.50400001928E-02 0.  1.
        1   -1    0    0  501    0  0.00000000000E+00  0.00000000000E+00 -0.29441999596E+04  0.29441999596E+04  0.50400001928E-02 0. -1.
    10030    2    1    2    0    0  0.00000000000E+00  0.00000000000E+00 -0.15663712662E+04  0.43220286531E+04  0.40282021715E+04 0.  0.
        3    1    3    3  502    0 -0.97426119338E+03 -0.61534849158E+03 -0.25555761327E+04  0.28033565630E+04  0.10100000352E+00 0. -1.
       -3    1    3    3    0  502  0.97426119338E+03  0.61534849158E+03  0.98920486654E+03  0.15186720901E+04  0.10100000352E+00 0.  1.
</event>
<event>
 5   0  0.2587493E-08  0.4000525E+04  0.7818609E-02  0.8004441E-01
       -2   -1    0    0    0  501  0.00000000000E+00  0.00000000000E+00  0.18706142435E+04  0.18706142435E+04  0.25500000920E-02 0. -1.
        2   -1    0    0  501    0  0.00000000000E+00  0.00000000000E+00 -0.21388963279E+04  0.21388963279E+04  0.25500000920E-02 0.  1.
    10030    2    1    2    0    0  0.00000000000E+00  0.00000000000E+00 -0.26828208436E+03  0.40095105713E+04  0.40005249337E+04 0.  0.
        5    1    3    3  502    0  0.18599441322E+04  0.40484238198E+03 -0.75012570900E+03  0.20459717003E+04  0.46999998093E+01 0.  1.
       -5    1    3    3    0  502 -0.18599441322E+04 -0.40484238198E+03  0.48184362464E+03  0.19635388710E+04  0.46999998093E+01 0. -1.
</event>
<event>
 5   0  0.2587493E-08  0.3999645E+04  0.7818609E-02  0.8004618E-01
       -2   -1    0    0    0  501  0.00000000000E+00  0.00000000000E+00  0.17123984801E+04  0.17123984801E+04  0.25500000920E-02 0. -1.
        2   -1    0    0  501    0  0.00000000000E+00  0.00000000000E+00 -0.23354908264E+04  0.23354908264E+04  0.25500000920E-02 0.  1.
    10030    2    1    2    0    0  0.00000000000E+00  0.00000000000E+00 -0.62309234637E+03  0.40478893065E+04  0.39996454550E+04 0.  0.
        5    1    3    3  502    0 -0.24537687663E+02  0.10579684649E+04  0.14057920291E+04  0.17595944675E+04  0.46999998093E+01 0. -1.
       -5    1    3    3    0  502  0.24537687663E+02 -0.10579684649E+04 -0.20288843755E+04  0.22882948390E+04  0.46999998093E+01 0.  1.
</event>
<event>
 5   0  0.8329875E-09  0.3999300E+04  0.7818609E-02  0.8004688E-01
       -1   -1    0    0    0  501  0.00000000000E+00  0.00000000000E+00  0.25296322791E+04  0.25296322791E+04  0.50400001928E-02 0.  1.
        1   -1    0    0  501    0  0.00000000000E+00  0.00000000000E+00 -0.15807042959E+04  0.15807042959E+04  0.50400001928E-02 0. -1.
    10030    2    1    2    0    0  0.00000000000E+00  0.00000000000E+00  0.94892798316E+03  0.41103365751E+04  0.39993002442E+04 0.  0.
        1    1    3    3  502    0 -0.56486809639E+03  0.76929955251E+03 -0.13315084743E+04  0.16382345940E+04  0.50400001928E-02 0. -1.
       -1    1    3    3    0  502  0.56486809639E+03 -0.76929955251E+03  0.22804364575E+04  0.24721019810E+04  0.50400001928E-02 0.  1.
</event>
<event>
 5   0  0.8329875E-09  0.3999056E+04  0.7818609E-02  0.8004737E-01
       -3   -1    0    0    0  501  0.00000000000E+00  0.00000000000E+00  0.16690661308E+04  0.16690661339E+04  0.10100000352E+00 0. -1.
        3   -1    0    0  501    0  0.00000000000E+00  0.00000000000E+00 -0.23954191353E+04  0.23954191375E+04  0.10100000352E+00 0.  1.
    10030    2    1    2    0    0  0.00000000000E+00  0.00000000000E+00 -0.72635300452E+03  0.40644852713E+04  0.39990563679E+04 0.  0.
        3    1    3    3  502    0 -0.70338057469E+03  0.14293677318E+04 -0.15913666007E+04  0.22517291164E+04  0.10100000352E+00 0. -1.
       -3    1    3    3    0  502  0.70338057469E+03 -0.14293677318E+04  0.86501359617E+03  0.18127561549E+04  0.10100000352E+00 0.  1.
</event>
<event>
 5   0  0.2650452E-08  0.4003971E+04  0.7818609E-02  0.8003746E-01
       -2   -1    0    0    0  501  0.00000000000E+00  0.00000000000E+00  0.31741600193E+04  0.31741600193E+04  0.25500000920E-02 0. -1.
        2   -1    0    0  501    0  0.00000000000E+00  0.00000000000E+00 -0.12626792920E+04  0.12626792920E+04  0.25500000920E-02 0.  1.
    10030    2    1    2    0    0  0.00000000000E+00  0.00000000000E+00  0.19114807273E+04  0.44368393113E+04  0.40039710917E+04 0.  0.
        3    1    3    3  502    0  0.54034636471E+02  0.13112650261E+04 -0.71952600163E+03  0.14966807903E+04  0.10100000352E+00 0.  1.
       -3    1    3    3    0  502 -0.54034636471E+02 -0.13112650261E+04  0.26310067290E+04  0.29401585210E+04  0.10100000352E+00 0. -1.
</event>
<event>
 5   0  0.2587493E-08  0.3991796E+04  0.7818609E-02  0.8006204E-01
       -2   -1    0    0    0  501  0.00000000000E+00  0.00000000000E+00  0.11489255740E+04  0.11489255740E+04  0.25500000920E-02 0. -1.
        2   -1    0    0  501    0  0.00000000000E+00  0.00000000000E+00 -0.34672463378E+04  0.34672463378E+04  0.25500000920E-02 0.  1.
    10030    2    1    2    0    0  0.00000000000E+00  0.00000000000E+00 -0.23183207638E+04  0.46161719119E+04  0.39917955804E+04 0.  0.
        5    1    3    3  502    0 -0.17661592086E+04 -0.57453264414E+02 -0.22321779957E+04  0.28469738183E+04  0.46999998093E+01 0.  1.
       -5    1    3    3    0  502  0.17661592086E+04  0.57453264414E+02 -0.86142768093E+02  0.17691980935E+04  0.46999998093E+01 0. -1.
</event>
<event>
 5   0  0.2612363E-08  0.4001870E+04  0.7818609E-02  0.8004169E-01
        2   -1    0    0  501    0  0.00000000000E+00  0.00000000000E+00  0.24464224329E+04  0.24464224329E+04  0.25500000920E-02 0. -1.
       -2   -1    0    0    0  501  0.00000000000E+00  0.00000000000E+00 -0.16365700991E+04  0.16365700991E+04  0.25500000920E-02 0.  1.
    10030    2    1    2    0    0  0.00000000000E+00  0.00000000000E+00  0.80985233380E+03  0.40829925319E+04  0.40018704643E+04 0.  0.
        4    1    3    3  502    0  0.11055924655E+04 -0.78525805677E+02  0.21046007043E+04  0.23786228661E+04  0.12699999809E+01 0. -1.
       -4    1    3    3    0  502 -0.11055924655E+04  0.78525805677E+02 -0.12947483705E+04  0.17043696658E+04  0.12699999809E+01 0.  1.
</event>
<event>
 5   0  0.8329875E-09  0.3993277E+04  0.7818609E-02  0.8005904E-01
        1   -1    0    0  501    0  0.00000000000E+00  0.00000000000E+00  0.27092452910E+04  0.27092452911E+04  0.50400001928E-02 0. -1.
       -1   -1    0    0    0  501  0.00000000000E+00  0.00000000000E+00 -0.14714671584E+04  0.14714671585E+04  0.50400001928E-02 0.  1.
    10030    2    1    2    0    0  0.00000000000E+00  0.00000000000E+00  0.12377781326E+04  0.41807124495E+04  0.39932770853E+04 0.  0.
        3    1    3    3  502    0  0.58952262857E+02 -0.16925225494E+04 -0.48832245605E+03  0.17625455401E+04  0.10100000352E+00 0.  1.
       -3    1    3    3    0  502 -0.58952262857E+02  0.16925225494E+04  0.17261005887E+04  0.24181669094E+04  0.10100000352E+00 0. -1.
</event>
<event>
 5   0  0.8329875E-09  0.4000224E+04  0.7818609E-02  0.8004501E-01
        1   -1    0    0  501    0  0.00000000000E+00  0.00000000000E+00  0.23058117006E+04  0.23058117006E+04  0.50400001928E-02 0.  1.
       -1   -1    0    0    0  501  0.00000000000E+00  0.00000000000E+00 -0.17349409705E+04  0.17349409705E+04  0.50400001928E-02 0. -1.
    10030    2    1    2    0    0  0.00000000000E+00  0.00000000000E+00  0.57087073012E+03  0.40407526712E+04  0.40002235886E+04 0.  0.
        4    1    3    3  502    0 -0.43930441857E+02 -0.35516031252E+03 -0.17023377369E+04  0.17395471004E+04  0.12699999809E+01 0. -1.
       -4    1    3    3    0  502  0.43930441857E+02  0.35516031252E+03  0.22732084670E+04  0.23012055707E+04  0.12699999809E+01 0.  1.
</event>
<event>
 5   0  0.8329875E-09  0.4010031E+04  0.7818609E-02  0.8002526E-01
       -1   -1    0    0    0  501  0.00000000000E+00  0.00000000000E+00  0.25312967554E+04  0.25312967554E+04  0.50400001928E-02 0. -1.
        1   -1    0    0  501    0  0.00000000000E+00  0.00000000000E+00 -0.15881532502E+04  0.15881532502E+04  0.50400001928E-02 0.  1.
    10030    2    1    2    0    0  0.00000000000E+00  0.00000000000E+00  0.94314350522E+03  0.41194500056E+04  0.40100310070E+04 0.  0.
        4    1    3    3  502    0 -0.53129550325E+03  0.19315547791E+04  0.55694647846E+03  0.20792714515E+04  0.12699999809E+01 0.  1.
       -4    1    3    3    0  502  0.53129550325E+03 -0.19315547791E+04  0.38619702676E+03  0.20401785541E+04  0.12699999809E+01 0. -1.
</event>
<event>
 5   0  0.8329875E-09  0.4006498E+04  0.7818609E-02  0.8003237E-01
        1   -1    0    0  501    0  0.00000000000E+00  0.00000000000E+00  0.24337752369E+04  0.24337752369E+04  0.50400001928E-02 0. -1.
       -1   -1    0    0    0  501  0.00000000000E+00  0.00000000000E+00 -0.16488811240E+04  0.16488811240E+04  0.50400001928E-02 0.  1.
    10030    2    1    2    0    0  0.00000000000E+00  0.00000000000E+00  0.78489411286E+03  0.40826563609E+04  0.40064977465E+04 0.  0.
        4    1    3    3  502    0  0.14411312351E+04  0.78012662434E+03 -0.78164725205E+03  0.18156075639E+04  0.12699999809E+01 0.  1.
       -4    1    3    3    0  502 -0.14411312351E+04 -0.78012662434E+03  0.15665413649E+04  0.22670487969E+04  0.12699999809E+01 0. -1.
</event>
<event>
 5   0  0.8329875E-09  0.3959272E+04  0.7818609E-02  0.8012813E-01
        1   -1    0    0  501    0  0.00000000000E+00  0.00000000000E+00  0.35688865718E+04  0.35688865718E+04  0.50400001928E-02 0.  1.
       -1   -1    0    0    0  501  0.00000000000E+00  0.00000000000E+00 -0.10980899542E+04  0.10980899542E+04  0.50400001928E-02 0. -1.
    10030    2    1    2    0    0  0.00000000000E+00  0.00000000000E+00  0.24707966176E+04  0.46669765260E+04  0.39592718988E+04 0.  0.
        1    1    3    3  502    0  0.24344549328E+03 -0.13275010476E+04 -0.47172312531E+03  0.14297018733E+04  0.50400001928E-02 0. -1.
       -1    1    3    3    0  502 -0.24344549328E+03  0.13275010476E+04  0.29425197430E+04  0.32372746527E+04  0.50400001928E-02 0.  1.
</event>
<event>
 5   0  0.8329875E-09  0.4024366E+04  0.7818609E-02  0.7999649E-01
       -1   -1    0    0    0  501  0.00000000000E+00  0.00000000000E+00  0.17716193683E+04  0.17716193683E+04  0.50400001928E-02 0. -1.
        1   -1    0    0  501    0  0.00000000000E+00  0.00000000000E+00 -0.22854125432E+04  0.22854125432E+04  0.50400001928E-02 0.  1.
    10030    2    1    2    0    0  0.00000000000E+00  0.00000000000E+00 -0.51379317496E+03  0.40570319115E+04  0.40243663481E+04 0.  0.
        5    1    3    3  502    0  0.40683636314E+02  0.34126211709E+03 -0.22555997405E+04  0.22816369716E+04  0.46999998093E+01 0.  1.
       -5    1    3    3    0  502 -0.40683636314E+02 -0.34126211709E+03  0.17418065655E+04  0.17753949399E+04  0.46999998093E+01 0. -1.
</event>
<event>
 5   0  0.2612363E-08  0.3988859E+04  0.7818609E-02  0.8006798E-01
       -2   -1    0    0    0  501  0.00000000000E+00  0.00000000000E+00  0.27920402102E+04  0.27920402102E+04  0.25500000920E-02 0.  1.
        2   -1    0    0  501    0  0.00000000000E+00  0.00000000000E+00 -0.14246749289E+04  0.14246749289E+04  0.25500000920E-02 0. -1.
    10030    2    1    2    0    0  0.00000000000E+00  0.00000000000E+00  0.13673652813E+04  0.42167151391E+04  0.39888593297E+04 0.  0.
        4    1    3    3  502    0 -0.83351389270E+02  0.17133923292E+04 -0.39182634286E+03  0.17595994497E+04  0.12699999809E+01 0. -1.
       -4    1    3    3    0  502  0.83351389270E+02 -0.17133923292E+04  0.17591916241E+04  0.24571156894E+04  0.12699999809E+01 0.  1.
</event>
<event>
 5   0  0.8329875E-09  0.4043165E+04  0.7818609E-02  0.7995895E-01
        3   -1    0    0  501    0  0.00000000000E+00  0.00000000000E+00  0.16643783865E+04  0.16643783896E+04  0.10100000352E+00 0.  1.
       -3   -1    0    0    0  501  0.00000000000E+00  0.00000000000E+00 -0.24554483915E+04  0.24554483936E+04  0.10100000352E+00 0. -1.
    10030    2    1    2    0    0  0.00000000000E+00  0.00000000000E+00 -0.79107000495E+03  0.41198267832E+04  0.40431647222E+04 0.  0.
        1    1    3    3  502    0  0.16156106430E+04 -0.10622710605E+04 -0.99678901711E+03  0.21753633950E+04  0.50400001928E-02 0. -1.
       -1    1    3    3    0  502 -0.16156106430E+04  0.10622710605E+04  0.20571901216E+03  0.19444633881E+04  0.50400001928E-02 0.  1.
</event>
<event>
 5   0  0.2612363E-08  0.3982824E+04  0.7818609E-02  0.8008020E-01
       -2   -1    0    0    0  501  0.00000000000E+00  0.00000000000E+00  0.18644679980E+04  0.18644679980E+04  0.25500000920E-02 0. -1.
        2   -1    0    0  501    0  0.00000000000E+00  0.00000000000E+00 -0.21269993733E+04  0.21269993733E+04  0.25500000920E-02 0.  1.
    10030    2    1    2    0    0  0.00000000000E+00  0.00000000000E+00 -0.26253137528E+03  0.39914673713E+04  0.39828242559E+04 0.  0.
        4    1    3    3  502    0  0.16500635897E+04  0.10097441631E+04  0.34244128547E+03  0.19645764867E+04  0.12699999809E+01 0. -1.
       -4    1    3    3    0  502 -0.16500635897E+04 -0.10097441631E+04 -0.60497266074E+03  0.20268908846E+04  0.12699999809E+01 0.  1.
</event>
<event>
 5   0  0.8329875E-09  0.4000435E+04  0.7818609E-02  0.8004459E-01
        1   -1    0    0  501    0  0.00000000000E+00  0.00000000000E+00  0.20817009089E+04  0.20817009089E+04  0.50400001928E-02 0. -1.
       -1   -1    0    0    0  501  0.00000000000E+00  0.00000000000E+00 -0.19219237086E+04  0.19219237087E+04  0.50400001928E-02 0.  1.
    10030    2    1    2    0    0  0.00000000000E+00  0.00000000000E+00  0.15977720028E+03  0.40036246176E+04  0.40004351419E+04 0.  0.
        1    1    3    3  502    0 -0.13475124509E+04 -0.45110360488E+03  0.14886991231E+04  0.20580353123E+04  0.50400001928E-02 0. -1.
       -1    1    3    3    0  502  0.13475124509E+04  0.45110360488E+03 -0.13289219228E+04  0.19455893052E+04  0.50400001928E-02 0.  1.
</event>
<event>
 5   0  0.2746876E-08  0.4005839E+04  0.7818609E-02  0.8003370E-01
       -2   -1    0    0    0  501  0.00000000000E+00  0.00000000000E+00  0.22673793110E+04  0.22673793110E+04  0.25500000920E-02 0. -1.
        2   -1    0    0  501    0  0.00000000000E+00  0.00000000000E+00 -0.17693054177E+04  0.17693054177E+04  0.25500000920E-02 0.  1.
    10030    2    1    2    0    0  0.00000000000E+00  0.00000000000E+00  0.49807389338E+03  0.40366847287E+04  0.40058389877E+04 0.  0.
        1    1    3    3  502    0  0.16662649822E+04 -0.48400143849E+03 -0.75916199462E+03  0.18939438528E+04  0.50400001928E-02 0.  1.
       -1    1    3    3    0  502 -0.16662649822E+04  0.48400143849E+03  0.12572358880E+04  0.21427408759E+04  0.50400001928E-02 0. -1.
</event>
<event>
 5   0  0.8329875E-09  0.3998345E+04  0.7818609E-02  0.8004881E-01
        1   -1    0    0  501    0  0.00000000000E+00  0.00000000000E+00  0.18214457768E+04  0.18214457768E+04  0.50400001928E-02 0.  1.
       -1   -1    0    0    0  501  0.00000000000E+00  0.00000000000E+00 -0.21942405949E+04  0.21942405949E+04  0.50400001928E-02 0. -1.
    10030    2    1    2    0    0  0.00000000000E+00  0.00000000000E+00 -0.37279481810E+03  0.40156863716E+04  0.39983447899E+04 0.  0.
        3    1    3    3  502    0 -0.13131741604E+04  0.47103587040E+02  0.13268041863E+04  0.18673656531E+04  0.10100000352E+00 0.  1.
       -3    1    3    3    0  502  0.13131741604E+04 -0.47103587040E+02 -0.16995990044E+04  0.21483207185E+04  0.10100000352E+00 0. -1.
</event>
<event>
 5   0  0.2599332E-08  0.3997090E+04  0.7818609E-02  0.8005134E-01
        2   -1    0    0  501    0  0.00000000000E+00  0.00000000000E+00  0.23109422305E+04  0.23109422305E+04  0.25500000920E-02 0.  1.
       -2   -1    0    0    0  501  0.00000000000E+00  0.00000000000E+00 -0.17283779687E+04  0.17283779687E+04  0.25500000920E-02 0. -1.
    10030    2    1    2    0    0  0.00000000000E+00  0.00000000000E+00  0.58256426185E+03  0.40393201992E+04  0.39970897604E+04 0.  0.
        2    1    3    3  502    0 -0.33342214247E+03  0.19309889808E+04 -0.10566924121E+03  0.19624104458E+04  0.25500000920E-02 0. -1.
       -2    1    3    3    0  502  0.33342214247E+03 -0.19309889808E+04  0.68823350306E+03  0.20769097534E+04  0.25500000920E-02 0.  1.
</event>
<event>
 5   0  0.8329875E-09  0.4018101E+04  0.7818609E-02  0.8000905E-01
        1   -1    0    0  501    0  0.00000000000E+00  0.00000000000E+00  0.20079206405E+04  0.20079206405E+04  0.50400001928E-02 0. -1.
       -1   -1    0    0    0  501  0.00000000000E+00  0.00000000000E+00 -0.20101806003E+04  0.20101806003E+04  0.50400001928E-02 0.  1.
    10030    2    1    2    0    0  0.00000000000E+00  0.00000000000E+00 -0.22599598369E+01  0.40181012408E+04  0.40181006053E+04 0.  0.
        1    1    3    3  502    0 -0.13521992699E+04  0.71888541867E+03  0.12992717052E+04  0.20083192164E+04  0.50400001928E-02 0. -1.
       -1    1    3    3    0  502  0.13521992699E+04 -0.71888541867E+03 -0.13015316651E+04  0.20097820245E+04  0.50400001928E-02 0.  1.
</event>
<event>
 5   0  0.8329875E-09  0.4000550E+04  0.7818609E-02  0.8004436E-01
       -1   -1    0    0    0  501  0.00000000000E+00  0.00000000000E+00  0.14977123800E+04  0.14977123800E+04  0.50400001928E-02 0. -1.
        1   -1    0    0  501    0  0.00000000000E+00  0.00000000000E+00 -0.26714746385E+04  0.26714746385E+04  0.50400001928E-02 0.  1.
    10030    2    1    2    0    0  0.00000000000E+00  0.00000000000E+00 -0.11737622585E+04  0.41691870185E+04  0.40005502816E+04 0.  0.
        5    1    3    3  502    0  0.77566258164E+03  0.15260922902E+04 -0.16651289162E+04  0.23881554632E+04  0.46999998093E+01 0.  1.
       -5    1    3    3    0  502 -0.77566258164E+03 -0.15260922902E+04  0.49136665769E+03  0.17810315553E+04  0.46999998093E+01 0. -1.
</event>
<event>
 5   0  0.8329875E-09  0.4002267E+04  0.7818609E-02  0.8004089E-01
        1   -1    0    0  501    0  0.00000000000E+00  0.00000000000E+00  0.27809716716E+04  0.27809716716E+04  0.50400001928E-02 0. -1.
       -1   -1    0    0    0  501  0.00000000000E+00  0.00000000000E+00 -0.14399769421E+04  0.14399769421E+04  0.50400001928E-02 0.  1.
    10030    2    1    2    0    0  0.00000000000E+00  0.00000000000E+00  0.13409947295E+04  0.42209486137E+04  0.40022668996E+04 0.  0.
        1    1    3    3  502    0  0.12094504022E+04 -0.95167776255E+03  0.20194773991E+04  0.25390450576E+04  0.50400001928E-02 0. -1.
       -1    1    3    3    0  502 -0.12094504022E+04  0.95167776255E+03 -0.67848266957E+03  0.16819035561E+04  0.50400001928E-02 0.  1.
</event>
<event>
 5   0  0.2587493E-08  0.4005091E+04  0.7818609E-02  0.8003520E-01
        2   -1    0    0  501    0  0.00000000000E+00  0.00000000000E+00  0.18820049321E+04  0.18820049321E+04  0.25500000920E-02 0. -1.
       -2   -1    0    0    0  501  0.00000000000E+00  0.00000000000E+00 -0.21308065775E+04  0.21308065775E+04  0.25500000920E-02 0.  1.
    10030    2    1    2    0    0  0.00000000000E+00  0.00000000000E+00 -0.24880164545E+03  0.40128115096E+04  0.40050910043E+04 0.  0.
        5    1    3    3  502    0  0.61231822867E+03  0.46039686111E+03 -0.19781748423E+04  0.21213431311E+04  0.46999998093E+01 0.  1.
       -5    1    3    3    0  502 -0.61231822867E+03 -0.46039686111E+03  0.17293731969E+04  0.18914683785E+04  0.46999998093E+01 0. -1.
</event>
<event>
 5   0  0.2650452E-08  0.3988037E+04  0.7818609E-02  0.8006964E-01
        2   -1    0    0  501    0  0.00000000000E+00  0.00000000000E+00  0.24347548875E+04  0.24347548875E+04  0.25500000920E-02 0.  1.
       -2   -1    0    0    0  501  0.00000000000E+00  0.00000000000E+00 -0.16330636174E+04  0.16330636174E+04  0.25500000920E-02 0. -1.
    10030    2    1    2    0    0  0.00000000000E+00  0.00000000000E+00  0.80169127008E+03  0.40678185048E+04  0.39880369226E+04 0.  0.
        3    1    3    3  502    0  0.10826483101E+04  0.13538879767E+04  0.14059362387E+04  0.22319938920E+04  0.10100000352E+00 0.  1.
       -3    1    3    3    0  502 -0.10826483101E+04 -0.13538879767E+04 -0.60424496861E+03  0.18358246128E+04  0.10100000352E+00 0. -1.
</event>
<event>
 5   0  0.2746876E-08  0.3997921E+04  0.7818609E-02  0.8004966E-01
        2   -1    0    0  501    0  0.00000000000E+00  0.00000000000E+00  0.19746407100E+04  0.19746407100E+04  0.25500000920E-02 0.  1.
       -2   -1    0    0    0  501  0.00000000000E+00  0.00000000000E+00 -0.20235793971E+04  0.20235793971E+04  0.25500000920E-02 0. -1.
    10030    2    1    2    0    0  0.00000000000E+00  0.00000000000E+00 -0.48938687142E+02  0.39982201071E+04  0.39979205883E+04 0.  0.
        1    1    3    3  502    0 -0.15113356095E+04  0.10887560473E+04  0.70106223219E+03  0.19902294612E+04  0.50400001928E-02 0.  1.
       -1    1    3    3    0  502  0.15113356095E+04 -0.10887560473E+04 -0.75000091933E+03  0.20079906459E+04  0.50400001928E-02 0. -1.
</event>
<event>
 5   0  0.8329875E-09  0.4004728E+04  0.7818609E-02  0.8003593E-01
        1   -1    0    0  501    0  0.00000000000E+00  0.00000000000E+00  0.20439106889E+04  0.20439106889E+04  0.50400001928E-02 0.  1.
       -1   -1    0    0    0  501  0.00000000000E+00  0.00000000000E+00 -0.19616619579E+04  0.19616619579E+04  0.50400001928E-02 0. -1.
    10030    2    1    2    0    0  0.00000000000E+00  0.00000000000E+00  0.82248730962E+02  0.40055726469E+04  0.40047281275E+04 0.  0.
        2    1    3    3  502    0  0.82014802535E+03  0.94156166767E+03 -0.15245429774E+04  0.19706375738E+04  0.25500000920E-02 0. -1.
       -2    1    3    3    0  502 -0.82014802535E+03 -0.94156166767E+03  0.16067917083E+04  0.20349350730E+04  0.25500000920E-02 0.  1.
</event>
<event>
 5   0  0.8329875E-09  0.3983907E+04  0.7818609E-02  0.8007801E-01
        1   -1    0    0  501    0  0.00000000000E+00  0.00000000000E+00  0.23761696684E+04  0.23761696684E+04  0.50400001928E-02 0.  1.
       -1   -1    0    0    0  501  0.00000000000E+00  0.00000000000E+00 -0.16698632273E+04  0.16698632273E+04  0.50400001928E-02 0. -1.
    10030    2    1    2    0    0  0.00000000000E+00  0.00000000000E+00  0.70630644104E+03  0.40460328957E+04  0.39839068017E+04 0.  0.
        1    1    3    3  502    0 -0.15390999173E+03 -0.19748672980E+04  0.56640194977E+03  0.20602427767E+04  0.50400001928E-02 0. -1.
       -1    1    3    3    0  502  0.15390999173E+03  0.19748672980E+04  0.13990449127E+03  0.19857901190E+04  0.50400001928E-02 0.  1.
</event>
<event>
 5   0  0.2587493E-08  0.4001492E+04  0.7818609E-02  0.8004246E-01
       -2   -1    0    0    0  501  0.00000000000E+00  0.00000000000E+00  0.18472032167E+04  0.18472032167E+04  0.25500000920E-02 0. -1.
        2   -1    0    0  501    0  0.00000000000E+00  0.00000000000E+00 -0.21670513265E+04  0.21670513265E+04  0.25500000920E-02 0.  1.
    10030    2    1    2    0    0  0.00000000000E+00  0.00000000000E+00 -0.31984810981E+03  0.40142545433E+04  0.40014918124E+04 0.  0.
        5    1    3    3  502    0  0.30934896240E+03 -0.27300331759E+03  0.18040572205E+04  0.18506410070E+04  0.46999998093E+01 0. -1.
       -5    1    3    3    0  502 -0.30934896240E+03  0.27300331759E+03 -0.21239053303E+04  0.21636135362E+04  0.46999998093E+01 0.  1.
</event>
<event>
 5   0  0.8329875E-09  0.3989914E+04  0.7818609E-02  0.8006584E-01
        1   -1    0    0  501    0  0.00000000000E+00  0.00000000000E+00  0.18988405216E+04  0.18988405217E+04  0.50400001928E-02 0.  1.
       -1   -1    0    0    0  501  0.00000000000E+00  0.00000000000E+00 -0.20959391436E+04  0.20959391436E+04  0.50400001928E-02 0. -1.
    10030    2    1    2    0    0  0.00000000000E+00  0.00000000000E+00 -0.19709862192E+03  0.39947796652E+04  0.39899143734E+04 0.  0.
        5    1    3    3  502    0 -0.99603375529E+03 -0.48172654301E+03  0.15635015426E+04  0.19153858273E+04  0.46999998093E+01 0.  1.
       -5    1    3    3    0  502  0.99603375529E+03  0.48172654301E+03 -0.17606001645E+04  0.20793938379E+04  0.46999998093E+01 0. -1.
</event>
<event>
 5   0  0.8329875E-09  0.3933921E+04  0.7818609E-02  0.8018011E-01
        1   -1    0    0  501    0  0.00000000000E+00  0.00000000000E+00  0.23973065704E+04  0.23973065704E+04  0.50400001928E-02 0. -1.
       -1   -1    0    0    0  501  0.00000000000E+00  0.00000000000E+00 -0.16138665890E+04  0.16138665890E+04  0.50400001928E-02 0.  1.
    10030    2    1    2    0    0  0.00000000000E+00  0.00000000000E+00  0.78343998137E+03  0.40111731594E+04  0.39339206792E+04 0.  0.
        4    1    3    3  502    0 -0.11258494080E+03  0.17050777060E+02  0.23939426330E+04  0.23966495449E+04  0.12699999809E+01 0. -1.
       -4    1    3    3    0  502  0.11258494080E+03 -0.17050777060E+02 -0.16105026517E+04  0.16145236145E+04  0.12699999809E+01 0.  1.
</event>
<event>
 5   0  0.2587493E-08  0.3997969E+04  0.7818609E-02  0.8004956E-01
        2   -1    0    0  501    0  0.00000000000E+00  0.00000000000E+00  0.13834784739E+04  0.13834784739E+04  0.25500000920E-02 0.  1.
       -2   -1    0    0    0  501  0.00000000000E+00  0.00000000000E+00 -0.28883273800E+04  0.28883273800E+04  0.25500000920E-02 0. -1.
    10030    2    1    2    0    0  0.00000000000E+00  0.00000000000E+00 -0.15048489061E+04  0.42718058539E+04  0.39979688622E+04 0.  0.
        5    1    3    3  502    0 -0.99575737359E+03 -0.16802305945E+04 -0.29758087986E+03  0.19756730670E+04  0.46999998093E+01 0.  1.
       -5    1    3    3    0  502  0.99575737359E+03  0.16802305945E+04 -0.12072680262E+04  0.22961327869E+04  0.46999998093E+01 0. -1.
</event>
<event>
 5   0  0.2587493E-08  0.3993161E+04  0.7818609E-02  0.8005928E-01
       -2   -1    0    0    0  501  0.00000000000E+00  0.00000000000E+00  0.14202000482E+04  0.14202000482E+04  0.25500000920E-02 0. -1.
        2   -1    0    0  501    0  0.00000000000E+00  0.00000000000E+00 -0.28068814388E+04  0.28068814388E+04  0.25500000920E-02 0.  1.
    10030    2    1    2    0    0  0.00000000000E+00  0.00000000000E+00 -0.13866813906E+04  0.42270814869E+04  0.39931607303E+04 0.  0.
        5    1    3    3  502    0  0.96138366821E+03  0.46590607288E+03 -0.24788566923E+04  0.26992739055E+04  0.46999998093E+01 0.  1.
       -5    1    3    3    0  502 -0.96138366821E+03 -0.46590607288E+03  0.10921753017E+04  0.15278075814E+04  0.46999998093E+01 0. -1.
</event>
<event>
 5   0  0.2612363E-08  0.3986108E+04  0.7818609E-02  0.8007355E-01
        2   -1    0    0  501    0  0.00000000000E+00  0.00000000000E+00  0.27947320595E+04  0.27947320595E+04  0.25500000920E-02 0. -1.
       -2   -1    0    0    0  501  0.00000000000E+00  0.00000000000E+00 -0.14213398745E+04  0.14213398745E+04  0.25500000920E-02 0.  1.
    10030    2    1    2    0    0  0.00000000000E+00  0.00000000000E+00  0.13733921850E+04  0.42160719340E+04  0.39861079337E+04 0.  0.
        4    1    3    3  502    0  0.74952413833E+03 -0.20949549227E+03  0.26273760677E+04  0.27402155771E+04  0.12699999809E+01 0. -1.
       -4    1    3    3    0  502 -0.74952413833E+03  0.20949549227E+03 -0.12539838827E+04  0.14758563569E+04  0.12699999809E+01 0.  1.
</event>
<event>
 5   0  0.2746876E-08  0.3963064E+04  0.7818609E-02  0.8012039E-01
        2   -1    0    0  501    0  0.00000000000E+00  0.00000000000E+00  0.12793869584E+04  0.12793869584E+04  0.25500000920E-02 0.  1.
       -2   -1    0    0    0  501  0.00000000000E+00  0.00000000000E+00 -0.30690236268E+04  0.30690236268E+04  0.25500000920E-02 0. -1.
    10030    2    1    2    0    0  0.00000000000E+00  0.00000000000E+00 -0.17896366684E+04  0.43484105852E+04  0.39630638668E+04 0.  0.
        1    1    3    3  502    0 -0.83046053461E+03 -0.19434317285E+03  0.10676784673E+04  0.13665179391E+04  0.50400001928E-02 0.  1.
       -1    1    3    3    0  502  0.83046053461E+03  0.19434317285E+03 -0.28573151356E+04  0.29818926461E+04  0.50400001928E-02 0. -1.
</event>
<event>
 5   0  0.2746876E-08  0.4001456E+04  0.7818609E-02  0.8004253E-01
       -2   -1    0    0    0  501  0.00000000000E+00  0.00000000000E+00  0.26877878172E+04  0.26877878172E+04  0.25500000920E-02 0. -1.
        2   -1    0    0  501    0  0.00000000000E+00  0.00000000000E+00 -0.14892964195E+04  0.14892964195E+04  0.25500000920E-02 0.  1.
    10030    2    1    2    0    0  0.00000000000E+00  0.00000000000E+00  0.11984913978E+04  0.41770842367E+04  0.40014561212E+04 0.  0.
        1    1    3    3  502    0  0.42888366213E+02  0.10770212699E+04 -0.11602909758E+04  0.15836948495E+04  0.50400001928E-02 0.  1.
       -1    1    3    3    0  502 -0.42888366213E+02 -0.10770212699E+04  0.23587823736E+04  0.25933893872E+04  0.50400001928E-02 0. -1.
</event>
<event>
 5   0  0.8329875E-09  0.4011860E+04  0.7818609E-02  0.8002158E-01
       -1   -1    0    0    0  501  0.00000000000E+00  0.00000000000E+00  0.19365458511E+04  0.19365458511E+04  0.50400001928E-02 0. -1.
        1   -1    0    0  501    0  0.00000000000E+00  0.00000000000E+00 -0.20777996896E+04  0.20777996896E+04  0.50400001928E-02 0.  1.
    10030    2    1    2    0    0  0.00000000000E+00  0.00000000000E+00 -0.14125383850E+03  0.40143455407E+04  0.40118596029E+04 0.  0.
        2    1    3    3  502    0 -0.78152325439E+03 -0.35055587196E+03  0.17443565520E+04  0.19433084668E+04  0.25500000920E-02 0. -1.
       -2    1    3    3    0  502  0.78152325439E+03  0.35055587196E+03 -0.18856103905E+04  0.20710370739E+04  0.25500000920E-02 0.  1.
</event>
<event>
 5   0  0.2746876E-08  0.3994350E+04  0.7818609E-02  0.8005687E-01
       -2   -1    0    0    0  501  0.00000000000E+00  0.00000000000E+00  0.16775415881E+04  0.16775415881E+04  0.25500000920E-02 0.  1.
        2   -1    0    0  501    0  0.00000000000E+00  0.00000000000E+00 -0.23777107509E+04  0.23777107509E+04  0.25500000920E-02 0. -1.
    10030    2    1    2    0    0  0.00000000000E+00  0.00000000000E+00 -0.70016916284E+03  0.40552523390E+04  0.39943503448E+04 0.  0.
        1    1    3    3  502    0  0.15299229496E+04 -0.12468205882E+04 -0.39673139776E+02  0.19740313495E+04  0.50400001928E-02 0. -1.
       -1    1    3    3    0  502 -0.15299229496E+04  0.12468205882E+04 -0.66049602306E+03  0.20812209895E+04  0.50400001928E-02 0.  1.
</event>
<event>
 5   0  0.8329875E-09  0.4003355E+04  0.7818609E-02  0.8003870E-01
        1   -1    0    0  501    0  0.00000000000E+00  0.00000000000E+00  0.11989739225E+04  0.11989739225E+04  0.50400001928E-02 0.  1.
       -1   -1    0    0    0  501  0.00000000000E+00  0.00000000000E+00 -0.33417841189E+04  0.33417841189E+04  0.50400001928E-02 0. -1.
    10030    2    1    2    0    0  0.00000000000E+00  0.00000000000E+00 -0.21428101964E+04  0.45407580415E+04  0.40033546000E+04 0.  0.
        5    1    3    3  502    0 -0.18976214027E+04 -0.63580197843E+03 -0.11150221196E+04  0.22909621475E+04  0.46999998093E+01 0. -1.
       -5    1    3    3    0  502  0.18976214027E+04  0.63580197843E+03 -0.10277880768E+04  0.22497958940E+04  0.46999998093E+01 0.  1.
</event>
<event>
 5   0  0.8329875E-09  0.3997598E+04  0.7818609E-02  0.8005031E-01
       -1   -1    0    0    0  501  0.00000000000E+00  0.00000000000E+00  0.20372300369E+04  0.20372300369E+04  0.50400001928E-02 0.  1.
        1   -1    0    0  501    0  0.00000000000E+00  0.00000000000E+00 -0.19610932256E+04  0.19610932256E+04  0.50400001928E-02 0. -1.
    10030    2    1    2    0    0  0.00000000000E+00  0.00000000000E+00  0.76136811244E+02  0.39983232625E+04  0.39975982911E+04 0.  0.
        3    1    3    3  502    0  0.13141946515E+04  0.22978619845E+03  0.15267229326E+04  0.20275088661E+04  0.10100000352E+00 0.  1.
       -3    1    3    3    0  502 -0.13141946515E+04 -0.22978619845E+03 -0.14505861214E+04  0.19708143963E+04  0.10100000352E+00 0. -1.
</event>
<event>
 5   0  0.2612363E-08  0.3988965E+04  0.7818609E-02  0.8006776E-01
        2   -1    0    0  501    0  0.00000000000E+00  0.00000000000E+00  0.16172327121E+04  0.16172327121E+04  0.25500000920E-02 0. -1.
       -2   -1    0    0    0  501  0.00000000000E+00  0.00000000000E+00 -0.24597332963E+04  0.24597332963E+04  0.25500000920E-02 0.  1.
    10030    2    1    2    0    0  0.00000000000E+00  0.00000000000E+00 -0.84250058415E+03  0.40769660084E+04  0.39889653545E+04 0.  0.
        4    1    3    3  502    0 -0.48522814361E+03  0.13662053186E+04  0.97863614190E+03  0.17491979977E+04  0.12699999809E+01 0. -1.
       -4    1    3    3    0  502  0.48522814361E+03 -0.13662053186E+04 -0.18211367260E+04  0.23277680107E+04  0.12699999809E+01 0.  1.
</event>
<event>
 5   0  0.8329875E-09  0.3997363E+04  0.7818609E-02  0.8005079E-01
        1   -1    0    0  501    0  0.00000000000E+00  0.00000000000E+00  0.27051202689E+04  0.27051202689E+04  0.50400001928E-02 0.  1.
       -1   -1    0    0    0  501  0.00000000000E+00  0.00000000000E+00 -0.14767282445E+04  0.14767282445E+04  0.50400001928E-02 0. -1.
    10030    2    1    2    0    0  0.00000000000E+00  0.00000000000E+00  0.12283920244E+04  0.41818485135E+04  0.39973628837E+04 0.  0.
        1    1    3    3  502    0  0.98814117840E+03  0.13263020615E+03 -0.11980076544E+04  0.15586006865E+04  0.50400001928E-02 0. -1.
       -1    1    3    3    0  502 -0.98814117840E+03 -0.13263020615E+03  0.24263996788E+04  0.26232478269E+04  0.50400001928E-02 0.  1.
</event>
<event>
 5   0  0.2650452E-08  0.4002146E+04  0.7818609E-02  0.8004114E-01
        2   -1    0    0  501    0  0.00000000000E+00  0.00000000000E+00  0.22385161157E+04  0.22385161157E+04  0.25500000920E-02 0.  1.
       -2   -1    0    0    0  501  0.00000000000E+00  0.00000000000E+00 -0.17888160853E+04  0.17888160853E+04  0.25500000920E-02 0. -1.
    10030    2    1    2    0    0  0.00000000000E+00  0.00000000000E+00  0.44970003042E+03  0.40273322011E+04  0.40021462418E+04 0.  0.
        3    1    3    3  502    0  0.16630366764E+04 -0.10993416120E+04  0.39929219071E+03  0.20331446654E+04  0.10100000352E+00 0.  1.
       -3    1    3    3    0  502 -0.16630366764E+04  0.10993416120E+04  0.50407839712E+02  0.19941875356E+04  0.10100000352E+00 0. -1.
</event>
<event>
 5   0  0.2650452E-08  0.4002725E+04  0.7818609E-02  0.8003997E-01
       -2   -1    0    0    0  501  0.00000000000E+00  0.00000000000E+00  0.35908204306E+04  0.35908204306E+04  0.25500000920E-02 0.  1.
        2   -1    0    0  501    0  0.00000000000E+00  0.00000000000E+00 -0.11154698988E+04  0.11154698988E+04  0.25500000920E-02 0. -1.
    10030    2    1    2    0    0  0.00000000000E+00  0.00000000000E+00  0.24753505318E+04  0.47062903294E+04  0.40027251228E+04 0.  0.
        3    1    3    3  502    0  0.12166342299E+04 -0.11897330014E+04 -0.95897989771E+00  0.17016651827E+04  0.10100000352E+00 0. -1.
       -3    1    3    3    0  502 -0.12166342299E+04  0.11897330014E+04  0.24763095117E+04  0.30046251467E+04  0.10100000352E+00 0.  1.
</event>
<event>
 5   0  0.2650452E-08  0.4004103E+04  0.7818609E-02  0.8003719E-01
        2   -1    0    0  501    0  0.00000000000E+00  0.00000000000E+00  0.19787027808E+04  0.19787027808E+04  0.25500000920E-02 0. -1.
       -2   -1    0    0    0  501  0.00000000000E+00  0.00000000000E+00 -0.20256760881E+04  0.20256760881E+04  0.25500000920E-02 0.  1.
    10030    2    1    2    0    0  0.00000000000E+00  0.00000000000E+00 -0.46973307306E+02  0.40043788688E+04  0.40041033495E+04 0.  0.
        3    1    3    3  502    0 -0.48494061266E+03 -0.19183137381E+04 -0.32865663477E+03  0.20057692264E+04  0.10100000352E+00 0. -1.
       -3    1    3    3    0  502  0.48494061266E+03  0.19183137381E+04  0.28168332747E+03  0.19986096425E+04  0.10100000352E+00 0.  1.
</event>
<event>
 5   0  0.8329875E-09  0.3964729E+04  0.7818609E-02  0.8011700E-01
       -1   -1    0    0    0  501  0.00000000000E+00  0.00000000000E+00  0.28149366533E+04  0.28149366533E+04  0.50400001928E-02 0.  1.
        1   -1    0    0  501    0  0.00000000000E+00  0.00000000000E+00 -0.13960415512E+04  0.13960415512E+04  0.50400001928E-02 0. -1.
    10030    2    1    2    0    0  0.00000000000E+00  0.00000000000E+00  0.14188951021E+04  0.42109782046E+04  0.39647287585E+04 0.  0.
        2    1    3    3  502    0  0.60924015690E+03  0.56402259990E+03 -0.12024901969E+04  0.14612589557E+04  0.25500000920E-02 0. -1.
       -2    1    3    3    0  502 -0.60924015690E+03 -0.56402259990E+03  0.26213852990E+04  0.27497192489E+04  0.25500000920E-02 0.  1.
</event>
<event>
 5   0  0.2587493E-08  0.3995003E+04  0.7818609E-02  0.8005555E-01
       -2   -1    0    0    0  501  0.00000000000E+00  0.00000000000E+00  0.17743156136E+04  0.17743156136E+04  0.25500000920E-02 0.  1.
        2   -1    0    0  501    0  0.00000000000E+00  0.00000000000E+00 -0.22487616374E+04  0.22487616374E+04  0.25500000920E-02 0. -1.
    10030    2    1    2    0    0  0.00000000000E+00  0.00000000000E+00 -0.47444602379E+03  0.40230772510E+04  0.39950033214E+04 0.  0.
        5    1    3    3  502    0  0.19219091106E+04  0.53878402428E+03 -0.15942769407E+03  0.20023641362E+04  0.46999998093E+01 0.  1.
       -5    1    3    3    0  502 -0.19219091106E+04 -0.53878402428E+03 -0.31501832972E+03  0.20207131148E+04  0.46999998093E+01 0. -1.
</event>
<event>
 5   0  0.2587493E-08  0.4005169E+04  0.7818609E-02  0.8003505E-01
        2   -1    0    0  501    0  0.00000000000E+00  0.00000000000E+00  0.28172341161E+04  0.28172341161E+04  0.25500000920E-02 0. -1.
       -2   -1    0    0    0  501  0.00000000000E+00  0.00000000000E+00 -0.14235042541E+04  0.14235042541E+04  0.25500000920E-02 0.  1.
    10030    2    1    2    0    0  0.00000000000E+00  0.00000000000E+00  0.13937298619E+04  0.42407383702E+04  0.40051690347E+04 0.  0.
        5    1    3    3  502    0  0.18707779958E+04 -0.46856131968E+03  0.12572931498E+03  0.19326639570E+04  0.46999998093E+01 0.  1.
       -5    1    3    3    0  502 -0.18707779958E+04  0.46856131968E+03  0.12680005470E+04  0.23080744132E+04  0.46999998093E+01 0. -1.
</event>
<event>
 5   0  0.2612363E-08  0.3989219E+04  0.7818609E-02  0.8006725E-01
       -2   -1    0    0    0  501  0.00000000000E+00  0.00000000000E+00  0.18863617294E+04  0.18863617294E+04  0.25500000920E-02 0.  1.
        2   -1    0    0  501    0  0.00000000000E+00  0.00000000000E+00 -0.21090686543E+04  0.21090686543E+04  0.25500000920E-02 0. -1.
    10030    2    1    2    0    0  0.00000000000E+00  0.00000000000E+00 -0.22270692487E+03  0.39954303837E+04  0.39892186674E+04 0.  0.
        4    1    3    3  502    0  0.24450066360E+03 -0.14595300970E+04 -0.14507675666E+04  0.20723746822E+04  0.12699999809E+01 0. -1.
       -4    1    3    3    0  502 -0.24450066360E+03  0.14595300970E+04  0.12280606417E+04  0.19230557015E+04  0.12699999809E+01 0.  1.
</event>
<event>
 5   0  0.2612363E-08  0.4031127E+04  0.7818609E-02  0.7998297E-01
        2   -1    0    0  501    0  0.00000000000E+00  0.00000000000E+00  0.26040837378E+04  0.26040837378E+04  0.25500000920E-02 0. -1.
       -2   -1    0    0    0  501  0.00000000000E+00  0.00000000000E+00 -0.15600479492E+04  0.15600479492E+04  0.25500000920E-02 0.  1.
    10030    2    1    2    0    0  0.00000000000E+00  0.00000000000E+00  0.10440357885E+04  0.41641316870E+04  0.40311266389E+04 0.  0.
        4    1    3    3  502    0 -0.18829331354E+03  0.10811268516E+04 -0.12243858065E+04  0.16442055399E+04  0.12699999809E+01 0.  1.
       -4    1    3    3    0  502  0.18829331354E+03 -0.10811268516E+04  0.22684215951E+04  0.25199261471E+04  0.12699999809E+01 0. -1.
</event>
<event>
 5   0  0.8329875E-09  0.3995295E+04  0.7818609E-02  0.8005496E-01
       -1   -1    0    0    0  501  0.00000000000E+00  0.00000000000E+00  0.18510445929E+04  0.18510445929E+04  0.50400001928E-02 0.  1.
        1   -1    0    0  501    0  0.00000000000E+00  0.00000000000E+00 -0.21558617563E+04  0.21558617563E+04  0.50400001928E-02 0. -1.
    10030    2    1    2    0    0  0.00000000000E+00  0.00000000000E+00 -0.30481716345E+03  0.40069063492E+04  0.39952953568E+04 0.  0.
        4    1    3    3  502    0  0.14264006749E+04  0.12336654056E+04 -0.81314445794E+03  0.20537172981E+04  0.12699999809E+01 0. -1.
       -4    1    3    3    0  502 -0.14264006749E+04 -0.12336654056E+04  0.50832729449E+03  0.19531890511E+04  0.12699999809E+01 0.  1.
</event>
<event>
 5   0  0.2650452E-08  0.4001246E+04  0.7818609E-02  0.8004295E-01
        2   -1    0    0  501    0  0.00000000000E+00  0.00000000000E+00  0.21084228273E+04  0.21084228273E+04  0.25500000920E-02 0.  1.
       -2   -1    0    0    0  501  0.00000000000E+00  0.00000000000E+00 -0.18983343145E+04  0.18983343145E+04  0.25500000920E-02 0. -1.
    10030    2    1    2    0    0  0.00000000000E+00  0.00000000000E+00  0.21008851284E+03  0.40067571418E+04  0.40012455074E+04 0.  0.
        3    1    3    3  502    0  0.16876009683E+04  0.49892225111E+02  0.11798377451E+04  0.20597338122E+04  0.10100000352E+00 0.  1.
       -3    1    3    3    0  502 -0.16876009683E+04 -0.49892225111E+02 -0.96974923228E+03  0.19470233296E+04  0.10100000352E+00 0. -1.
</event>
<event>
 5   0  0.8329875E-09  0.3996366E+04  0.7818609E-02  0.8005280E-01
        1   -1    0    0  501    0  0.00000000000E+00  0.00000000000E+00  0.15791120110E+04  0.15791120110E+04  0.50400001928E-02 0. -1.
       -1   -1    0    0    0  501  0.00000000000E+00  0.00000000000E+00 -0.25284684878E+04  0.25284684878E+04  0.50400001928E-02 0.  1.
    10030    2    1    2    0    0  0.00000000000E+00  0.00000000000E+00 -0.94935647683E+03  0.41075804988E+04  0.39963658283E+04 0.  0.
        4    1    3    3  502    0  0.34417401712E+03  0.82924862928E+03 -0.23094678751E+04  0.24778524012E+04  0.12699999809E+01 0.  1.
       -4    1    3    3    0  502 -0.34417401712E+03 -0.82924862928E+03  0.13601113983E+04  0.16297280975E+04  0.12699999809E+01 0. -1.
</event>
<event>
 5   0  0.2746876E-08  0.4010481E+04  0.7818609E-02  0.8002436E-01
        2   -1    0    0  501    0  0.00000000000E+00  0.00000000000E+00  0.18979277856E+04  0.18979277856E+04  0.25500000920E-02 0. -1.
       -2   -1    0    0    0  501  0.00000000000E+00  0.00000000000E+00 -0.21186208903E+04  0.21186208903E+04  0.25500000920E-02 0.  1.
    10030    2    1    2    0    0  0.00000000000E+00  0.00000000000E+00 -0.22069310473E+03  0.40165486759E+04  0.40104809960E+04 0.  0.
        1    1    3    3  502    0 -0.14462940822E+03  0.19108965150E+04 -0.70161786572E+03  0.20407623052E+04  0.50400001928E-02 0. -1.
       -1    1    3    3    0  502  0.14462940822E+03 -0.19108965150E+04  0.48092476099E+03  0.19757863707E+04  0.50400001928E-02 0.  1.
</event>
<event>
 5   0  0.2599332E-08  0.4001201E+04  0.7818609E-02  0.8004304E-01
       -2   -1    0    0    0  501  0.00000000000E+00  0.00000000000E+00  0.30620179041E+04  0.30620179041E+04  0.25500000920E-02 0.  1.
        2   -1    0    0  501    0  0.00000000000E+00  0.00000000000E+00 -0.13071127218E+04  0.13071127218E+04  0.25500000920E-02 0. -1.
    10030    2    1    2    0    0  0.00000000000E+00  0.00000000000E+00  0.17549051823E+04  0.43691306259E+04  0.40012010981E+04 0.  0.
        2    1    3    3  502    0 -0.17421290485E+04 -0.45146249564E+03  0.18316302305E+04  0.25678203418E+04  0.25500000920E-02 0.  1.
       -2    1    3    3    0  502  0.17421290485E+04  0.45146249564E+03 -0.76725048150E+02  0.18013102841E+04  0.25500000920E-02 0. -1.
</event>
<event>
 5   0  0.8329875E-09  0.4027557E+04  0.7818609E-02  0.7999010E-01
       -1   -1    0    0    0  501  0.00000000000E+00  0.00000000000E+00  0.21644226067E+04  0.21644226067E+04  0.50400001928E-02 0. -1.
        1   -1    0    0  501    0  0.00000000000E+00  0.00000000000E+00 -0.18736194063E+04  0.18736194063E+04  0.50400001928E-02 0.  1.
    10030    2    1    2    0    0  0.00000000000E+00  0.00000000000E+00  0.29080320040E+03  0.40380420130E+04  0.40275571749E+04 0.  0.
        1    1    3    3  502    0  0.19955746107E+04 -0.63604513520E+02 -0.11784742352E+03  0.20000628930E+04  0.50400001928E-02 0.  1.
       -1    1    3    3    0  502 -0.19955746107E+04  0.63604513520E+02  0.40865062392E+03  0.20379791199E+04  0.50400001928E-02 0. -1.
</event>
<event>
 5   0  0.8329875E-09  0.4033042E+04  0.7818609E-02  0.7997914E-01
        1   -1    0    0  501    0  0.00000000000E+00  0.00000000000E+00  0.20921630692E+04  0.20921630692E+04  0.50400001928E-02 0.  1.
       -1   -1    0    0    0  501  0.00000000000E+00  0.00000000000E+00 -0.19436137103E+04  0.19436137103E+04  0.50400001928E-02 0. -1.
    10030    2    1    2    0    0  0.00000000000E+00  0.00000000000E+00  0.14854935889E+03  0.40357767794E+04  0.40330419414E+04 0.  0.
        2    1    3    3  502    0 -0.50139446811E+03  0.18988453015E+04 -0.38358004619E+03  0.20010356177E+04  0.25500000920E-02 0.  1.
       -2    1    3    3    0  502  0.50139446811E+03 -0.18988453015E+04  0.53212940508E+03  0.20347411617E+04  0.25500000920E-02 0. -1.
</event>
<event>
 5   0  0.2612363E-08  0.3989199E+04  0.7818609E-02  0.8006729E-01
       -2   -1    0    0    0  501  0.00000000000E+00  0.00000000000E+00  0.25269520817E+04  0.25269520817E+04  0.25500000920E-02 0. -1.
        2   -1    0    0  501    0  0.00000000000E+00  0.00000000000E+00 -0.15743976143E+04  0.15743976143E+04  0.25500000920E-02 0.  1.
    10030    2    1    2    0    0  0.00000000000E+00  0.00000000000E+00  0.95255446747E+03  0.41013496960E+04  0.39891990819E+04 0.  0.
        4    1    3    3  502    0 -0.99371382948E+03  0.52983293918E+03 -0.12162848690E+04  0.16575706965E+04  0.12699999809E+01 0.  1.
       -4    1    3    3    0  502  0.99371382948E+03 -0.52983293918E+03  0.21688393365E+04  0.24437789995E+04  0.12699999809E+01 0. -1.
</event>
<event>
 5   0  0.2612363E-08  0.3999993E+04  0.7818609E-02  0.8004548E-01
       -2   -1    0    0    0  501  0.00000000000E+00  0.00000000000E+00  0.23311638483E+04  0.23311638483E+04  0.25500000920E-02 0.  1.
        2   -1    0    0  501    0  0.00000000000E+00  0.00000000000E+00 -0.17158749629E+04  0.17158749629E+04  0.25500000920E-02 0. -1.
    10030    2    1    2    0    0  0.00000000000E+00  0.00000000000E+00  0.61528888538E+03  0.40470388113E+04  0.39999928409E+04 0.  0.
        4    1    3    3  502    0 -0.15484499129E+04  0.10372314854E+04  0.10417384531E+04  0.21351269060E+04  0.12699999809E+01 0.  1.
       -4    1    3    3    0  502  0.15484499129E+04 -0.10372314854E+04 -0.42644956773E+03  0.19119119053E+04  0.12699999809E+01 0. -1.
</event>
<event>
 5   0  0.8329875E-09  0.3988001E+04  0.7818609E-02  0.8006971E-01
        1   -1    0    0  501    0  0.00000000000E+00  0.00000000000E+00  0.27037947307E+04  0.27037947307E+04  0.50400001928E-02 0.  1.
       -1   -1    0    0    0  501  0.00000000000E+00  0.00000000000E+00 -0.14705400801E+04  0.14705400801E+04  0.50400001928E-02 0. -1.
    10030    2    1    2    0    0  0.00000000000E+00  0.00000000000E+00  0.12332546506E+04  0.41743348109E+04  0.39880012638E+04 0.  0.
        4    1    3    3  502    0 -0.13745499232E+03  0.83098142342E+03  0.25084517540E+04  0.26460831083E+04  0.12699999809E+01 0.  1.
       -4    1    3    3    0  502  0.13745499232E+03 -0.83098142342E+03 -0.12751971034E+04  0.15282517026E+04  0.12699999809E+01 0. -1.
</event>
<event>
 5   0  0.8329875E-09  0.3997995E+04  0.7818609E-02  0.8004951E-01
        1   -1    0    0  501    0  0.00000000000E+00  0.00000000000E+00  0.19228164258E+04  0.19228164258E+04  0.50400001928E-02 0. -1.
       -1   -1    0    0    0  501  0.00000000000E+00  0.00000000000E+00 -0.20781963975E+04  0.20781963975E+04  0.50400001928E-02 0.  1.
    10030    2    1    2    0    0  0.00000000000E+00  0.00000000000E+00 -0.15537997172E+03  0.40010128234E+04  0.39979945819E+04 0.  0.
        2    1    3    3  502    0 -0.15446405861E+04  0.48422982465E+03 -0.12514339415E+04  0.20460889456E+04  0.25500000920E-02 0.  1.
       -2    1    3    3    0  502  0.15446405861E+04 -0.48422982465E+03  0.10960539698E+04  0.19549238778E+04  0.25500000920E-02 0. -1.
</event>
<event>
 5   0  0.2587493E-08  0.4003704E+04  0.7818609E-02  0.8003800E-01
       -2   -1    0    0    0  501  0.00000000000E+00  0.00000000000E+00  0.16194965408E+04  0.16194965408E+04  0.25500000920E-02 0.  1.
        2   -1    0    0  501    0  0.00000000000E+00  0.00000000000E+00 -0.24744802619E+04  0.24744802619E+04  0.25500000920E-02 0. -1.
    10030    2    1    2    0    0  0.00000000000E+00  0.00000000000E+00 -0.85498372109E+03  0.40939768027E+04  0.40037043969E+04 0.  0.
        5    1    3    3  502    0  0.15141184768E+04  0.77715430133E+03 -0.15052326506E+04  0.22720631576E+04  0.46999998093E+01 0.  1.
       -5    1    3    3    0  502 -0.15141184768E+04 -0.77715430133E+03  0.65024892946E+03  0.18219136451E+04  0.46999998093E+01 0. -1.
</event>
<event>
 5   0  0.2587493E-08  0.4006486E+04  0.7818609E-02  0.8003239E-01
        2   -1    0    0  501    0  0.00000000000E+00  0.00000000000E+00  0.26946621183E+04  0.26946621183E+04  0.25500000920E-02 0.  1.
       -2   -1    0    0    0  501  0.00000000000E+00  0.00000000000E+00 -0.14892342727E+04  0.14892342727E+04  0.25500000920E-02 0. -1.
    10030    2    1    2    0    0  0.00000000000E+00  0.00000000000E+00  0.12054278456E+04  0.41838963910E+04  0.40064863309E+04 0.  0.
        5    1    3    3  502    0 -0.59317100409E+03 -0.18028646158E+04  0.12720224465E+04  0.22847835472E+04  0.46999998093E+01 0.  1.
       -5    1    3    3    0  502  0.59317100409E+03  0.18028646158E+04 -0.66594600892E+02  0.18991128439E+04  0.46999998093E+01 0. -1.
</event>
<event>
 5   0  0.8329875E-09  0.4000297E+04  0.7818609E-02  0.8004487E-01
       -1   -1    0    0    0  501  0.00000000000E+00  0.00000000000E+00  0.29234629145E+04  0.29234629145E+04  0.50400001928E-02 0. -1.
        1   -1    0    0  501    0  0.00000000000E+00  0.00000000000E+00 -0.13684436840E+04  0.13684436840E+04  0.50400001928E-02 0.  1.
    10030    2    1    2    0    0  0.00000000000E+00  0.00000000000E+00  0.15550192305E+04  0.42919065986E+04  0.40002971694E+04 0.  0.
        5    1    3    3  502    0  0.10502316548E+04 -0.14973019732E+04  0.16462729949E+04  0.24607187144E+04  0.46999998093E+01 0. -1.
       -5    1    3    3    0  502 -0.10502316548E+04  0.14973019732E+04 -0.91253764335E+02  0.18311878842E+04  0.46999998093E+01 0.  1.
</event>
<event>
 5   0  0.2599332E-08  0.3996799E+04  0.7818609E-02  0.8005193E-01
        2   -1    0    0  501    0  0.00000000000E+00  0.00000000000E+00  0.23245017662E+04  0.23245017662E+04  0.25500000920E-02 0.  1.
       -2   -1    0    0    0  501  0.00000000000E+00  0.00000000000E+00 -0.17180457137E+04  0.17180457137E+04  0.25500000920E-02 0. -1.
    10030    2    1    2    0    0  0.00000000000E+00  0.00000000000E+00  0.60645605250E+03  0.40425474800E+04  0.39967988671E+04 0.  0.
        2    1    3    3  502    0 -0.96111327594E+03 -0.14274430442E+04 -0.72440736281E+03  0.18671096381E+04  0.25500000920E-02 0. -1.
       -2    1    3    3    0  502  0.96111327594E+03  0.14274430442E+04  0.13308634153E+04  0.21754378418E+04  0.25500000920E-02 0.  1.
</event>
<event>
 5   0  0.8329875E-09  0.3999856E+04  0.7818609E-02  0.8004576E-01
        1   -1    0    0  501    0  0.00000000000E+00  0.00000000000E+00  0.19995175311E+04  0.19995175311E+04  0.50400001928E-02 0.  1.
       -1   -1    0    0    0  501  0.00000000000E+00  0.00000000000E+00 -0.20003385333E+04  0.20003385333E+04  0.50400001928E-02 0. -1.
    10030    2    1    2    0    0  0.00000000000E+00  0.00000000000E+00 -0.82100216403E+00  0.39998560644E+04  0.39998559802E+04 0.  0.
        4    1    3    3  502    0  0.78970751215E+02  0.17320298421E+03 -0.19912582769E+04  0.20003366695E+04  0.12699999809E+01 0. -1.
       -4    1    3    3    0  502 -0.78970751215E+02 -0.17320298421E+03  0.19904372747E+04  0.19995193949E+04  0.12699999809E+01 0.  1.
</event>
<event>
 5   0  0.2650452E-08  0.4005417E+04  0.7818609E-02  0.8003455E-01
       -2   -1    0    0    0  501  0.00000000000E+00  0.00000000000E+00  0.23662518368E+04  0.23662518368E+04  0.25500000920E-02 0.  1.
        2   -1    0    0  501    0  0.00000000000E+00  0.00000000000E+00 -0.16950189753E+04  0.16950189753E+04  0.25500000920E-02 0. -1.
    10030    2    1    2    0    0  0.00000000000E+00  0.00000000000E+00  0.67123286159E+03  0.40612708121E+04  0.40054172136E+04 0.  0.
        3    1    3    3  502    0 -0.16317260623E+04  0.97786541599E+03  0.97051982458E+03  0.21355700537E+04  0.10100000352E+00 0. -1.
       -3    1    3    3    0  502  0.16317260623E+04 -0.97786541599E+03 -0.29928696299E+03  0.19257007584E+04  0.10100000352E+00 0.  1.
</event>
<event>
 5   0  0.2587493E-08  0.3881074E+04  0.7818609E-02  0.8028977E-01
        2   -1    0    0  501    0  0.00000000000E+00  0.00000000000E+00  0.20698753493E+04  0.20698753493E+04  0.25500000920E-02 0.  1.
       -2   -1    0    0    0  501  0.00000000000E+00  0.00000000000E+00 -0.18192803441E+04  0.18192803441E+04  0.25500000920E-02 0. -1.
    10030    2    1    2    0    0  0.00000000000E+00  0.00000000000E+00  0.25059500522E+03  0.38891556935E+04  0.38810738400E+04 0.  0.
        5    1    3    3  502    0 -0.16112442200E+04  0.56340435118E+03 -0.79973311801E+03  0.18849741509E+04  0.46999998093E+01 0. -1.
       -5    1    3    3    0  502  0.16112442200E+04 -0.56340435118E+03  0.10503281232E+04  0.20041815426E+04  0.46999998093E+01 0.  1.
</event>
<event>
 5   0  0.2599332E-08  0.4000986E+04  0.7818609E-02  0.8004348E-01
       -2   -1    0    0    0  501  0.00000000000E+00  0.00000000000E+00  0.16572063518E+04  0.16572063518E+04  0.25500000920E-02 0. -1.
        2   -1    0    0  501    0  0.00000000000E+00  0.00000000000E+00 -0.24148905862E+04  0.24148905862E+04  0.25500000920E-02 0.  1.
    10030    2    1    2    0    0  0.00000000000E+00  0.00000000000E+00 -0.75768423436E+03  0.40720969380E+04  0.40009858877E+04 0.  0.
        2    1    3    3  502    0  0.11691822396E+04  0.73677276829E+03 -0.18509769219E+04  0.23099646722E+04  0.25500000920E-02 0.  1.
       -2    1    3    3    0  502 -0.11691822396E+04 -0.73677276829E+03  0.10932926876E+04  0.17621322658E+04  0.25500000920E-02 0. -1.
</event>
<event>
 5   0  0.8329875E-09  0.3970264E+04  0.7818609E-02  0.8010572E-01
       -1   -1    0    0    0  501  0.00000000000E+00  0.00000000000E+00  0.19915618842E+04  0.19915618842E+04  0.50400001928E-02 0. -1.
        1   -1    0    0  501    0  0.00000000000E+00  0.00000000000E+00 -0.19787224493E+04  0.19787224493E+04  0.50400001928E-02 0.  1.
    10030    2    1    2    0    0  0.00000000000E+00  0.00000000000E+00  0.12839434874E+02  0.39702843335E+04  0.39702635729E+04 0.  0.
        3    1    3    3  502    0 -0.12181440864E+04  0.15448366781E+04 -0.25882273321E+03  0.19842844037E+04  0.10100000352E+00 0. -1.
       -3    1    3    3    0  502  0.12181440864E+04 -0.15448366781E+04  0.27166216809E+03  0.19859999298E+04  0.10100000352E+00 0.  1.
</event>
<event>
 5   0  0.2599332E-08  0.3990295E+04  0.7818609E-02  0.8006507E-01
        2   -1    0    0  501    0  0.00000000000E+00  0.00000000000E+00  0.27787468649E+04  0.27787468649E+04  0.25500000920E-02 0.  1.
       -2   -1    0    0    0  501  0.00000000000E+00  0.00000000000E+00 -0.14325210510E+04  0.14325210510E+04  0.25500000920E-02 0. -1.
    10030    2    1    2    0    0  0.00000000000E+00  0.00000000000E+00  0.13462258138E+04  0.42112679159E+04  0.39902949161E+04 0.  0.
        2    1    3    3  502    0  0.13498656207E+04  0.13727564561E+04  0.12065937182E+03  0.19290298509E+04  0.25500000920E-02 0.  1.
       -2    1    3    3    0  502 -0.13498656207E+04 -0.13727564561E+04  0.12255664420E+04  0.22822380650E+04  0.25500000920E-02 0. -1.
</event>
<event>
 5   0  0.8329875E-09  0.4017022E+04  0.7818609E-02  0.8001121E-01
        1   -1    0    0  501    0  0.00000000000E+00  0.00000000000E+00  0.26060267484E+04  0.26060267484E+04  0.50400001928E-02 0. -1.
       -1   -1    0    0    0  501  0.00000000000E+00  0.00000000000E+00 -0.15479952827E+04  0.15479952827E+04  0.50400001928E-02 0.  1.
    10030    2    1    2    0    0  0.00000000000E+00  0.00000000000E+00  0.10580314657E+04  0.41540220312E+04  0.40170223366E+04 0.  0.
        5    1    3    3  502    0 -0.12234841642E+04 -0.15927968843E+04  0.51515685004E+03  0.20734811513E+04  0.46999998093E+01 0. -1.
       -5    1    3    3    0  502  0.12234841642E+04  0.15927968843E+04  0.54287461566E+03  0.20805408799E+04  0.46999998093E+01 0.  1.
</event>
<event>
 5   0  0.8329875E-09  0.3990827E+04  0.7818609E-02  0.8006400E-01
       -1   -1    0    0    0  501  0.00000000000E+00  0.00000000000E+00  0.13594697413E+04  0.13594697413E+04  0.50400001928E-02 0. -1.
        1   -1    0    0  501    0  0.00000000000E+00  0.00000000000E+00 -0.29288446599E+04  0.29288446599E+04  0.50400001928E-02 0.  1.
    10030    2    1    2    0    0  0.00000000000E+00  0.00000000000E+00 -0.15693749186E+04  0.42883144012E+04  0.39908273288E+04 0.  0.
        4    1    3    3  502    0 -0.97464447685E+03  0.15080753843E+04 -0.17198797368E+04  0.24864052652E+04  0.12699999809E+01 0. -1.
       -4    1    3    3    0  502  0.97464447685E+03 -0.15080753843E+04  0.15050481827E+03  0.18019091359E+04  0.12699999809E+01 0.  1.
</event>
<event>
 5   0  0.2650452E-08  0.3998693E+04  0.7818609E-02  0.8004810E-01
       -2   -1    0    0    0  501  0.00000000000E+00  0.00000000000E+00  0.20064315530E+04  0.20064315530E+04  0.25500000920E-02 0. -1.
        2   -1    0    0  501    0  0.00000000000E+00  0.00000000000E+00 -0.19922868550E+04  0.19922868550E+04  0.25500000920E-02 0.  1.
    10030    2    1    2    0    0  0.00000000000E+00  0.00000000000E+00  0.14144698059E+02  0.39987184080E+04  0.39986933908E+04 0.  0.
        3    1    3    3  502    0 -0.41529543981E+03  0.88494020334E+03 -0.17370135988E+04  0.19931898351E+04  0.10100000352E+00 0.  1.
       -3    1    3    3    0  502  0.41529543981E+03 -0.88494020334E+03  0.17511582969E+04  0.20055285729E+04  0.10100000352E+00 0. -1.
</event>
<event>
 5   0  0.8329875E-09  0.3995210E+04  0.7818609E-02  0.8005514E-01
       -1   -1    0    0    0  501  0.00000000000E+00  0.00000000000E+00  0.18286812643E+04  0.18286812643E+04  0.50400001928E-02 0.  1.
        1   -1    0    0  501    0  0.00000000000E+00  0.00000000000E+00 -0.21821326601E+04  0.21821326601E+04  0.50400001928E-02 0. -1.
    10030    2    1    2    0    0  0.00000000000E+00  0.00000000000E+00 -0.35345139581E+03  0.40108139245E+04  0.39952096876E+04 0.  0.
        3    1    3    3  502    0 -0.18209329954E+04  0.79943443915E+03 -0.36596314180E+03  0.20220834374E+04  0.10100000352E+00 0.  1.
       -3    1    3    3    0  502  0.18209329954E+04 -0.79943443915E+03  0.12511745984E+02  0.19887304871E+04  0.10100000352E+00 0. -1.
</event>
<event>
 5   0  0.8329875E-09  0.4003170E+04  0.7818609E-02  0.8003907E-01
        1   -1    0    0  501    0  0.00000000000E+00  0.00000000000E+00  0.21013635561E+04  0.21013635561E+04  0.50400001928E-02 0.  1.
       -1   -1    0    0    0  501  0.00000000000E+00  0.00000000000E+00 -0.19065443589E+04  0.19065443589E+04  0.50400001928E-02 0. -1.
    10030    2    1    2    0    0  0.00000000000E+00  0.00000000000E+00  0.19481919724E+03  0.40079079150E+04  0.40031701607E+04 0.  0.
        2    1    3    3  502    0  0.91110136581E+03 -0.62811786016E+03  0.17672279373E+04  0.20851216577E+04  0.25500000920E-02 0.  1.
       -2    1    3    3    0  502 -0.91110136581E+03  0.62811786016E+03 -0.15724087401E+04  0.19227862572E+04  0.25500000920E-02 0. -1.
</event>
<event>
 5   0  0.8329875E-09  0.4013554E+04  0.7818609E-02  0.8001818E-01
       -1   -1    0    0    0  501  0.00000000000E+00  0.00000000000E+00  0.17736413549E+04  0.17736413549E+04  0.50400001928E-02 0.  1.
        1   -1    0    0  501    0  0.00000000000E+00  0.00000000000E+00 -0.22705566265E+04  0.22705566265E+04  0.50400001928E-02 0. -1.
    10030    2    1    2    0    0  0.00000000000E+00  0.00000000000E+00 -0.49691527159E+03  0.40441979815E+04  0.40135536033E+04 0.  0.
        2    1    3    3  502    0 -0.11206547282E+04 -0.92563114289E+03 -0.16426742159E+04  0.21934079904E+04  0.25500000920E-02 0. -1.
       -2    1    3    3    0  502  0.11206547282E+04  0.92563114289E+03  0.11457589443E+04  0.18507899911E+04  0.25500000920E-02 0.  1.
</event>
<event>
 5   0  0.2612363E-08  0.3997563E+04  0.7818609E-02  0.8005038E-01
       -2   -1    0    0    0  501  0.00000000000E+00  0.00000000000E+00  0.18953814763E+04  0.18953814763E+04  0.25500000920E-02 0.  1.
        2   -1    0    0  501    0  0.00000000000E+00  0.00000000000E+00 -0.21078222307E+04  0.21078222307E+04  0.25500000920E-02 0. -1.
    10030    2    1    2    0    0  0.00000000000E+00  0.00000000000E+00 -0.21244075448E+03  0.40032037070E+04  0.39975628633E+04 0.  0.
        4    1    3    3  502    0  0.30393383476E+02 -0.19709341303E+04  0.22533667293E+03  0.19840068883E+04  0.12699999809E+01 0. -1.
       -4    1    3    3    0  502 -0.30393383476E+02  0.19709341303E+04 -0.43777742741E+03  0.20191968187E+04  0.12699999809E+01 0.  1.
</event>
<event>
 5   0  0.8329875E-09  0.4003854E+04  0.7818609E-02  0.8003769E-01
       -1   -1    0    0    0  501  0.00000000000E+00  0.00000000000E+00  0.16400727299E+04  0.16400727300E+04  0.50400001928E-02 0.  1.
        1   -1    0    0  501    0  0.00000000000E+00  0.00000000000E+00 -0.24436187103E+04  0.24436187103E+04  0.50400001928E-02 0. -1.
    10030    2    1    2    0    0  0.00000000000E+00  0.00000000000E+00 -0.80354598032E+03  0.40836914402E+04  0.40038543476E+04 0.  0.
        1    1    3    3  502    0  0.63914292483E+03 -0.18881358372E+04 -0.21328599506E+03  0.20047572257E+04  0.50400001928E-02 0.  1.
       -1    1    3    3    0  502 -0.63914292483E+03  0.18881358372E+04 -0.59025998526E+03  0.20789342145E+04  0.50400001928E-02 0. -1.
</event>
<event>
 5   0  0.8329875E-09  0.3989699E+04  0.7818609E-02  0.8006628E-01
       -1   -1    0    0    0  501  0.00000000000E+00  0.00000000000E+00  0.21880244010E+04  0.21880244011E+04  0.50400001928E-02 0.  1.
        1   -1    0    0  501    0  0.00000000000E+00  0.00000000000E+00 -0.18187295051E+04  0.18187295051E+04  0.50400001928E-02 0. -1.
    10030    2    1    2    0    0  0.00000000000E+00  0.00000000000E+00  0.36929489599E+03  0.40067539061E+04  0.39896990042E+04 0.  0.
        1    1    3    3  502    0  0.12782283798E+04 -0.15162767325E+04 -0.31823535240E+02  0.19834252338E+04  0.50400001928E-02 0.  1.
       -1    1    3    3    0  502 -0.12782283798E+04  0.15162767325E+04  0.40111843123E+03  0.20233286724E+04  0.50400001928E-02 0. -1.
</event>
<event>
 5   0  0.2587493E-08  0.3996450E+04  0.7818609E-02  0.8005263E-01
        2   -1    0    0  501    0  0.00000000000E+00  0.00000000000E+00  0.29229115788E+04  0.29229115788E+04  0.25500000920E-02 0.  1.
       -2   -1    0    0    0  501  0.00000000000E+00  0.00000000000E+00 -0.13660701622E+04  0.13660701622E+04  0.25500000920E-02 0. -1.
    10030    2    1    2    0    0  0.00000000000E+00  0.00000000000E+00  0.15568414165E+04  0.42889817410E+04  0.39964495716E+04 0.  0.
        5    1    3    3  502    0  0.16749731284E+04 -0.30295275591E+03  0.19017288465E+04  0.25522362839E+04  0.46999998093E+01 0.  1.
       -5    1    3    3    0  502 -0.16749731284E+04  0.30295275591E+03 -0.34488743001E+03  0.17367454571E+04  0.46999998093E+01 0. -1.
</event>
<event>
 5   0  0.2746876E-08  0.4001540E+04  0.7818609E-02  0.8004236E-01
        2   -1    0    0  501    0  0.00000000000E+00  0.00000000000E+00  0.20867214867E+04  0.20867214867E+04  0.25500000920E-02 0.  1.
       -2   -1    0    0    0  501  0.00000000000E+00  0.00000000000E+00 -0.19183592366E+04  0.19183592366E+04  0.25500000920E-02 0. -1.
    10030    2    1    2    0    0  0.00000000000E+00  0.00000000000E+00  0.16836225009E+03  0.40050807232E+04  0.40015404224E+04 0.  0.
        1    1    3    3  502    0 -0.34169822272E+03  0.66551501844E+03 -0.17731043220E+04  0.19244653418E+04  0.50400001928E-02 0. -1.
       -1    1    3    3    0  502  0.34169822272E+03 -0.66551501844E+03  0.19414665720E+04  0.20806153815E+04  0.50400001928E-02 0.  1.
</event>
<event>
 5   0  0.2746876E-08  0.3952845E+04  0.7818609E-02  0.8014127E-01
       -2   -1    0    0    0  501  0.00000000000E+00  0.00000000000E+00  0.16087929066E+04  0.16087929066E+04  0.25500000920E-02 0.  1.
        2   -1    0    0  501    0  0.00000000000E+00  0.00000000000E+00 -0.24280600088E+04  0.24280600088E+04  0.25500000920E-02 0. -1.
    10030    2    1    2    0    0  0.00000000000E+00  0.00000000000E+00 -0.81926710217E+03  0.40368529153E+04  0.39528449091E+04 0.  0.
        1    1    3    3  502    0  0.57186493559E+03 -0.18661861172E+04 -0.92279277552E+02  0.19540203667E+04  0.50400001928E-02 0.  1.
       -1    1    3    3    0  502 -0.57186493559E+03  0.18661861172E+04 -0.72698782462E+03  0.20828325486E+04  0.50400001928E-02 0. -1.
</event>
<event>
 5   0  0.8329875E-09  0.3998390E+04  0.7818609E-02  0.8004871E-01
        1   -1    0    0  501    0  0.00000000000E+00  0.00000000000E+00  0.29742331429E+04  0.29742331430E+04  0.50400001928E-02 0. -1.
       -1   -1    0    0    0  501  0.00000000000E+00  0.00000000000E+00 -0.13438019588E+04  0.13438019588E+04  0.50400001928E-02 0.  1.
    10030    2    1    2    0    0  0.00000000000E+00  0.00000000000E+00  0.16304311842E+04  0.43180351017E+04  0.39983898376E+04 0.  0.
        3    1    3    3  502    0 -0.94500910067E+03 -0.17504865421E+04  0.60048605530E+03  0.20779386053E+04  0.10100000352E+00 0.  1.
       -3    1    3    3    0  502  0.94500910067E+03  0.17504865421E+04  0.10299451289E+04  0.22400964964E+04  0.10100000352E+00 0. -1.
</event>
<event>
 5   0  0.2587493E-08  0.3983204E+04  0.7818609E-02  0.8007943E-01
       -2   -1    0    0    0  501  0.00000000000E+00  0.00000000000E+00  0.20188804144E+04  0.20188804144E+04  0.25500000920E-02 0. -1.
        2   -1    0    0  501    0  0.00000000000E+00  0.00000000000E+00 -0.19646922411E+04  0.19646922411E+04  0.25500000920E-02 0.  1.
    10030    2    1    2    0    0  0.00000000000E+00  0.00000000000E+00  0.54188173305E+02  0.39835726555E+04  0.39832040800E+04 0.  0.
        5    1    3    3  502    0 -0.16468738549E+04  0.10003995592E+04  0.53059258027E+03  0.19986353715E+04  0.46999998093E+01 0. -1.
       -5    1    3    3    0  502  0.16468738549E+04 -0.10003995592E+04 -0.47640440697E+03  0.19849372839E+04  0.46999998093E+01 0.  1.
</event>
<event>
 5   0  0.2599332E-08  0.3984376E+04  0.7818609E-02  0.8007706E-01
        2   -1    0    0  501    0  0.00000000000E+00  0.00000000000E+00  0.19432712580E+04  0.19432712580E+04  0.25500000920E-02 0. -1.
       -2   -1    0    0    0  501  0.00000000000E+00  0.00000000000E+00 -0.20423361968E+04  0.20423361968E+04  0.25500000920E-02 0.  1.
    10030    2    1    2    0    0  0.00000000000E+00  0.00000000000E+00 -0.99064938762E+02  0.39856074547E+04  0.39843761019E+04 0.  0.
        2    1    3    3  502    0 -0.53356317097E+03  0.14079225986E+04  0.12554309809E+04  0.19603679881E+04  0.25500000920E-02 0. -1.
       -2    1    3    3    0  502  0.53356317097E+03 -0.14079225986E+04 -0.13544959197E+04  0.20252394667E+04  0.25500000920E-02 0.  1.
</event>
<event>
 5   0  0.8329875E-09  0.3999340E+04  0.7818609E-02  0.8004680E-01
       -3   -1    0    0    0  501  0.00000000000E+00  0.00000000000E+00  0.12110237356E+04  0.12110237398E+04  0.10100000352E+00 0. -1.
        3   -1    0    0  501    0  0.00000000000E+00  0.00000000000E+00 -0.33019000378E+04  0.33019000394E+04  0.10100000352E+00 0.  1.
    10030    2    1    2    0    0  0.00000000000E+00  0.00000000000E+00 -0.20908763022E+04  0.45129237791E+04  0.39993396111E+04 0.  0.
        2    1    3    3  502    0 -0.72070095967E+03  0.18638186348E+04 -0.96213715149E+03  0.22178678218E+04  0.25500000920E-02 0. -1.
       -2    1    3    3    0  502  0.72070095967E+03 -0.18638186348E+04 -0.11287391507E+04  0.22950559573E+04  0.25500000920E-02 0.  1.
</event>
<event>
 5   0  0.2746876E-08  0.3968664E+04  0.7818609E-02  0.8010898E-01
        2   -1    0    0  501    0  0.00000000000E+00  0.00000000000E+00  0.23618097549E+04  0.23618097549E+04  0.25500000920E-02 0. -1.
       -2   -1    0    0    0  501  0.00000000000E+00  0.00000000000E+00 -0.16671848644E+04  0.16671848644E+04  0.25500000920E-02 0.  1.
    10030    2    1    2    0    0  0.00000000000E+00  0.00000000000E+00  0.69462489053E+03  0.40289946193E+04  0.39686639948E+04 0.  0.
        1    1    3    3  502    0 -0.15618234963E+04 -0.81840589989E+03  0.12713650163E+04  0.21738099860E+04  0.50400001928E-02 0. -1.
       -1    1    3    3    0  502  0.15618234963E+04  0.81840589989E+03 -0.57674012580E+03  0.18551846332E+04  0.50400001928E-02 0.  1.
</event>
<event>
 5   0  0.2612363E-08  0.4002649E+04  0.7818609E-02  0.8004012E-01
       -2   -1    0    0    0  501  0.00000000000E+00  0.00000000000E+00  0.15410496037E+04  0.15410496037E+04  0.25500000920E-02 0.  1.
        2   -1    0    0  501    0  0.00000000000E+00  0.00000000000E+00 -0.25990730299E+04  0.25990730299E+04  0.25500000920E-02 0. -1.
    10030    2    1    2    0    0  0.00000000000E+00  0.00000000000E+00 -0.10580234262E+04  0.41401226336E+04  0.40026493540E+04 0.  0.
        4    1    3    3  502    0  0.78280967510E+02  0.94125970510E+03 -0.23540385181E+04  0.25364535675E+04  0.12699999809E+01 0. -1.
       -4    1    3    3    0  502 -0.78280967510E+02 -0.94125970510E+03  0.12960150919E+04  0.16036690662E+04  0.12699999809E+01 0.  1.
</event>
<event>
 5   0  0.2746876E-08  0.3993174E+04  0.7818609E-02  0.8005925E-01
        2   -1    0    0  501    0  0.00000000000E+00  0.00000000000E+00  0.17048727776E+04  0.17048727776E+04  0.25500000920E-02 0. -1.
       -2   -1    0    0    0  501  0.00000000000E+00  0.00000000000E+00 -0.23382151484E+04  0.23382151484E+04  0.25500000920E-02 0.  1.
    10030    2    1    2    0    0  0.00000000000E+00  0.00000000000E+00 -0.63334237074E+03  0.40430879260E+04  0.39931738528E+04 0.  0.
        1    1    3    3  502    0 -0.85712425875E+03  0.84520486776E+03  0.12961384527E+04  0.17689002663E+04  0.50400001928E-02 0. -1.
       -1    1    3    3    0  502  0.85712425875E+03 -0.84520486776E+03 -0.19294808235E+04  0.22741876597E+04  0.50400001928E-02 0.  1.
</event>
<event>
 5   0  0.2599332E-08  0.4001813E+04  0.7818609E-02  0.8004181E-01
       -2   -1    0    0    0  501  0.00000000000E+00  0.00000000000E+00  0.18608713197E+04  0.18608713197E+04  0.25500000920E-02 0. -1.
        2   -1    0    0  501    0  0.00000000000E+00  0.00000000000E+00 -0.21514801736E+04  0.21514801736E+04  0.25500000920E-02 0.  1.
    10030    2    1    2    0    0  0.00000000000E+00  0.00000000000E+00 -0.29060885392E+03  0.40123514933E+04  0.40018134639E+04 0.  0.
        2    1    3    3  502    0 -0.19061985493E+04  0.60731660166E+03 -0.11055214145E+03  0.20036586885E+04  0.25500000920E-02 0. -1.
       -2    1    3    3    0  502  0.19061985493E+04 -0.60731660166E+03 -0.18005671247E+03  0.20086928047E+04  0.25500000920E-02 0.  1.
</event>
<event>
 5   0  0.8329875E-09  0.4008596E+04  0.7818609E-02  0.8002815E-01
       -1   -1    0    0    0  501  0.00000000000E+00  0.00000000000E+00  0.18413050650E+04  0.18413050650E+04  0.50400001928E-02 0.  1.
        1   -1    0    0  501    0  0.00000000000E+00  0.00000000000E+00 -0.21817192441E+04  0.21817192441E+04  0.50400001928E-02 0. -1.
    10030    2    1    2    0    0  0.00000000000E+00  0.00000000000E+00 -0.34041417918E+03  0.40230243091E+04  0.40085961106E+04 0.  0.
        2    1    3    3  502    0  0.15918558099E+04 -0.10540231034E+04  0.44210453062E+03  0.19597004971E+04  0.25500000920E-02 0.  1.
       -2    1    3    3    0  502 -0.15918558099E+04  0.10540231034E+04 -0.78251870980E+03  0.20633238120E+04  0.25500000920E-02 0. -1.
</event>
<event>
 5   0  0.8329875E-09  0.4000891E+04  0.7818609E-02  0.8004367E-01
       -1   -1    0    0    0  501  0.00000000000E+00  0.00000000000E+00  0.15800059843E+04  0.15800059843E+04  0.50400001928E-02 0.  1.
        1   -1    0    0  501    0  0.00000000000E+00  0.00000000000E+00 -0.25327638451E+04  0.25327638451E+04  0.50400001928E-02 0. -1.
    10030    2    1    2    0    0  0.00000000000E+00  0.00000000000E+00 -0.95275786080E+03  0.41127698294E+04  0.40008909169E+04 0.  0.
        2    1    3    3  502    0 -0.19294270084E+04  0.52164100972E+03 -0.56228684537E+03  0.20762862087E+04  0.25500000920E-02 0. -1.
       -2    1    3    3    0  502  0.19294270084E+04 -0.52164100972E+03 -0.39047101543E+03  0.20364836208E+04  0.25500000920E-02 0.  1.
</event>
<event>
 5   0  0.2746876E-08  0.3995589E+04  0.7818609E-02  0.8005437E-01
       -2   -1    0    0    0  501  0.00000000000E+00  0.00000000000E+00  0.20195395925E+04  0.20195395925E+04  0.25500000920E-02 0.  1.
        2   -1    0    0  501    0  0.00000000000E+00  0.00000000000E+00 -0.19762833079E+04  0.19762833079E+04  0.25500000920E-02 0. -1.
    10030    2    1    2    0    0  0.00000000000E+00  0.00000000000E+00  0.43256284586E+02  0.39958229004E+04  0.39955887607E+04 0.  0.
        1    1    3    3  502    0  0.86951078722E+03 -0.58951000073E+03 -0.16777687423E+04  0.19795148402E+04  0.50400001928E-02 0. -1.
       -1    1    3    3    0  502 -0.86951078722E+03  0.58951000073E+03  0.17210250269E+04  0.20163080601E+04  0.50400001928E-02 0.  1.
</event>
<event>
 5   0  0.8329875E-09  0.3971447E+04  0.7818609E-02  0.8010332E-01
        1   -1    0    0  501    0  0.00000000000E+00  0.00000000000E+00  0.14283569884E+04  0.14283569884E+04  0.50400001928E-02 0. -1.
       -1   -1    0    0    0  501  0.00000000000E+00  0.00000000000E+00 -0.27605826987E+04  0.27605826987E+04  0.50400001928E-02 0.  1.
    10030    2    1    2    0    0  0.00000000000E+00  0.00000000000E+00 -0.13322257104E+04  0.41889396871E+04  0.39714468848E+04 0.  0.
        3    1    3    3  502    0 -0.12644846143E+04 -0.14449585063E+04 -0.13215717408E+03  0.19246537231E+04  0.10100000352E+00 0. -1.
       -3    1    3    3    0  502  0.12644846143E+04  0.14449585063E+04 -0.12000685363E+04  0.22642859640E+04  0.10100000352E+00 0.  1.
</event>
<event>
 5   0  0.8329875E-09  0.4001385E+04  0.7818609E-02  0.8004267E-01
        1   -1    0    0  501    0  0.00000000000E+00  0.00000000000E+00  0.31564254204E+04  0.31564254204E+04  0.50400001928E-02 0.  1.
       -1   -1    0    0    0  501  0.00000000000E+00  0.00000000000E+00 -0.12681340060E+04  0.12681340060E+04  0.50400001928E-02 0. -1.
    10030    2    1    2    0    0  0.00000000000E+00  0.00000000000E+00  0.18882914144E+04  0.44245594265E+04  0.40013849668E+04 0.  0.
        5    1    3    3  502    0  0.20565454127E+03 -0.93773379396E+03  0.28850909730E+04  0.30406266576E+04  0.46999998093E+01 0.  1.
       -5    1    3    3    0  502 -0.20565454127E+03  0.93773379396E+03 -0.99679955855E+03  0.13839327688E+04  0.46999998093E+01 0. -1.
</event>
<event>
 5   0  0.2746876E-08  0.3995513E+04  0.7818609E-02  0.8005452E-01
       -2   -1    0    0    0  501  0.00000000000E+00  0.00000000000E+00  0.32348880539E+04  0.32348880539E+04  0.25500000920E-02 0. -1.
        2   -1    0    0  501    0  0.00000000000E+00  0.00000000000E+00 -0.12337460226E+04  0.12337460226E+04  0.25500000920E-02 0.  1.
    10030    2    1    2    0    0  0.00000000000E+00  0.00000000000E+00  0.20011420314E+04  0.44686340765E+04  0.39955126179E+04 0.  0.
        1    1    3    3  502    0  0.17678368702E+04 -0.61537089364E+03  0.17811414979E+04  0.25838718180E+04  0.50400001928E-02 0. -1.
       -1    1    3    3    0  502 -0.17678368702E+04  0.61537089364E+03  0.22000053345E+03  0.18847622585E+04  0.50400001928E-02 0.  1.
</event>
<event>
 5   0  0.8329875E-09  0.4009446E+04  0.7818609E-02  0.8002644E-01
       -1   -1    0    0    0  501  0.00000000000E+00  0.00000000000E+00  0.21154243841E+04  0.21154243841E+04  0.50400001928E-02 0.  1.
        1   -1    0    0  501    0  0.00000000000E+00  0.00000000000E+00 -0.18998151144E+04  0.18998151144E+04  0.50400001928E-02 0. -1.
    10030    2    1    2    0    0  0.00000000000E+00  0.00000000000E+00  0.21560926973E+03  0.40152394985E+04  0.40094464548E+04 0.  0.
        4    1    3    3  502    0  0.10363407362E+04  0.17160148739E+04  0.93485853106E+02  0.20068508631E+04  0.12699999809E+01 0. -1.
       -4    1    3    3    0  502 -0.10363407362E+04 -0.17160148739E+04  0.12212341662E+03  0.20083886354E+04  0.12699999809E+01 0.  1.
</event>
<event>
 5   0  0.2599332E-08  0.3984147E+04  0.7818609E-02  0.8007752E-01
       -2   -1    0    0    0  501  0.00000000000E+00  0.00000000000E+00  0.16738884452E+04  0.16738884452E+04  0.25500000920E-02 0.  1.
        2   -1    0    0  501    0  0.00000000000E+00  0.00000000000E+00 -0.23707409465E+04  0.23707409465E+04  0.25500000920E-02 0. -1.
    10030    2    1    2    0    0  0.00000000000E+00  0.00000000000E+00 -0.69685250127E+03  0.40446293917E+04  0.39841465218E+04 0.  0.
        2    1    3    3  502    0  0.18326340777E+04  0.17293297338E+03 -0.11214999262E+04  0.21555081908E+04  0.25500000920E-02 0.  1.
       -2    1    3    3    0  502 -0.18326340777E+04 -0.17293297338E+03  0.42464742498E+03  0.18891212009E+04  0.25500000920E-02 0. -1.
</event>
<event>
 5   0  0.8329875E-09  0.4001358E+04  0.7818609E-02  0.8004273E-01
        1   -1    0    0  501    0  0.00000000000E+00  0.00000000000E+00  0.20485493938E+04  0.20485493938E+04  0.50400001928E-02 0. -1.
       -1   -1    0    0    0  501  0.00000000000E+00  0.00000000000E+00 -0.19539267895E+04  0.19539267895E+04  0.50400001928E-02 0.  1.
    10030    2    1    2    0    0  0.00000000000E+00  0.00000000000E+00  0.94622604272E+02  0.40024761833E+04  0.40013575397E+04 0.  0.
        1    1    3    3  502    0  0.15885884452E+04 -0.11972909123E+04  0.26090498524E+03  0.20062876634E+04  0.50400001928E-02 0. -1.
       -1    1    3    3    0  502 -0.15885884452E+04  0.11972909123E+04 -0.16628238097E+03  0.19961885199E+04  0.50400001928E-02 0.  1.
</event>
<event>
 5   0  0.8329875E-09  0.4001001E+04  0.7818609E-02  0.8004345E-01
        1   -1    0    0  501    0  0.00000000000E+00  0.00000000000E+00  0.25761934625E+04  0.25761934625E+04  0.50400001928E-02 0.  1.
       -1   -1    0    0    0  501  0.00000000000E+00  0.00000000000E+00 -0.15534554438E+04  0.15534554438E+04  0.50400001928E-02 0. -1.
    10030    2    1    2    0    0  0.00000000000E+00  0.00000000000E+00  0.10227380187E+04  0.41296489064E+04  0.40010007542E+04 0.  0.
        1    1    3    3  502    0 -0.16983173154E+04  0.58442129121E+03 -0.39796499092E+03  0.18396211793E+04  0.50400001928E-02 0.  1.
       -1    1    3    3    0  502  0.16983173154E+04 -0.58442129121E+03  0.14207030096E+04  0.22900277271E+04  0.50400001928E-02 0. -1.
</event>
<event>
 5   0  0.2587493E-08  0.3999743E+04  0.7818609E-02  0.8004598E-01
       -2   -1    0    0    0  501  0.00000000000E+00  0.00000000000E+00  0.22746123703E+04  0.22746123703E+04  0.25500000920E-02 0. -1.
        2   -1    0    0  501    0  0.00000000000E+00  0.00000000000E+00 -0.17583154497E+04  0.17583154497E+04  0.25500000920E-02 0.  1.
    10030    2    1    2    0    0  0.00000000000E+00  0.00000000000E+00  0.51629692069E+03  0.40329278200E+04  0.39997430281E+04 0.  0.
        5    1    3    3  502    0 -0.15003610189E+04 -0.30545944982E+03  0.15553194892E+04  0.21825282280E+04  0.46999998093E+01 0. -1.
       -5    1    3    3    0  502  0.15003610189E+04  0.30545944982E+03 -0.10390225685E+04  0.18503995920E+04  0.46999998093E+01 0.  1.
</event>
<event>
 5   0  0.8329875E-09  0.4005091E+04  0.7818609E-02  0.8003520E-01
       -1   -1    0    0    0  501  0.00000000000E+00  0.00000000000E+00  0.19913871572E+04  0.19913871572E+04  0.50400001928E-02 0.  1.
        1   -1    0    0  501    0  0.00000000000E+00  0.00000000000E+00 -0.20137659094E+04  0.20137659094E+04  0.50400001928E-02 0. -1.
    10030    2    1    2    0    0  0.00000000000E+00  0.00000000000E+00 -0.22378752161E+02  0.40051530666E+04  0.40050905456E+04 0.  0.
        3    1    3    3  502    0 -0.97376187619E+03 -0.12819895659E+03  0.17339855378E+04  0.19928253861E+04  0.10100000352E+00 0.  1.
       -3    1    3    3    0  502  0.97376187619E+03  0.12819895659E+03 -0.17563642900E+04  0.20123276804E+04  0.10100000352E+00 0. -1.
</event>
<event>
 5   0  0.8329875E-09  0.4002328E+04  0.7818609E-02  0.8004077E-01
       -1   -1    0    0    0  501  0.00000000000E+00  0.00000000000E+00  0.17886498090E+04  0.17886498090E+04  0.50400001928E-02 0. -1.
        1   -1    0    0  501    0  0.00000000000E+00  0.00000000000E+00 -0.22389277600E+04  0.22389277600E+04  0.50400001928E-02 0.  1.
    10030    2    1    2    0    0  0.00000000000E+00  0.00000000000E+00 -0.45027795096E+03  0.40275775690E+04  0.40023281776E+04 0.  0.
        5    1    3    3  502    0  0.12397759852E+04  0.13008593753E+04  0.66095910658E+03  0.19147241677E+04  0.46999998093E+01 0. -1.
       -5    1    3    3    0  502 -0.12397759852E+04 -0.13008593753E+04 -0.11112370575E+04  0.21128534014E+04  0.46999998093E+01 0.  1.
</event>
<event>
 5   0  0.2599332E-08  0.4000958E+04  0.7818609E-02  0.8004353E-01
       -2   -1    0    0    0  501  0.00000000000E+00  0.00000000000E+00  0.16429979544E+04  0.16429979544E+04  0.25500000920E-02 0.  1.
        2   -1    0    0  501    0  0.00000000000E+00  0.00000000000E+00 -0.24357405819E+04  0.24357405819E+04  0.25500000920E-02 0. -1.
    10030    2    1    2    0    0  0.00000000000E+00  0.00000000000E+00 -0.79274262747E+03  0.40787385364E+04  0.40009582820E+04 0.  0.
        2    1    3    3  502    0  0.16021610531E+04 -0.10638836248E+04 -0.95766411671E+03  0.21484620005E+04  0.25500000920E-02 0.  1.
       -2    1    3    3    0  502 -0.16021610531E+04  0.10638836248E+04  0.16492148924E+03  0.19302765358E+04  0.25500000920E-02 0. -1.
</event>
<event>
 5   0  0.2612363E-08  0.4004508E+04  0.7818609E-02  0.8003638E-01
        2   -1    0    0  501    0  0.00000000000E+00  0.00000000000E+00  0.29509217567E+04  0.29509217567E+04  0.25500000920E-02 0. -1.
       -2   -1    0    0    0  501  0.00000000000E+00  0.00000000000E+00 -0.13585657388E+04  0.13585657388E+04  0.25500000920E-02 0.  1.
    10030    2    1    2    0    0  0.00000000000E+00  0.00000000000E+00  0.15923560179E+04  0.43094874955E+04  0.40045080580E+04 0.  0.
        4    1    3    3  502    0 -0.81790728862E+03  0.97323983787E+03 -0.86851564437E+03  0.15396392929E+04  0.12699999809E+01 0.  1.
       -4    1    3    3    0  502  0.81790728862E+03 -0.97323983787E+03  0.24608716622E+04  0.27698482026E+04  0.12699999809E+01 0. -1.
</event>
<event>
 5   0  0.8329875E-09  0.4011642E+04  0.7818609E-02  0.8002202E-01
       -1   -1    0    0    0  501  0.00000000000E+00  0.00000000000E+00  0.30402774087E+04  0.30402774087E+04  0.50400001928E-02 0. -1.
        1   -1    0    0  501    0  0.00000000000E+00  0.00000000000E+00 -0.13233391544E+04  0.13233391544E+04  0.50400001928E-02 0.  1.
    10030    2    1    2    0    0  0.00000000000E+00  0.00000000000E+00  0.17169382544E+04  0.43636165631E+04  0.40116421252E+04 0.  0.
        3    1    3    3  502    0 -0.17777782525E+04 -0.27710749655E+03  0.18228422032E+04  0.25612570717E+04  0.10100000352E+00 0. -1.
       -3    1    3    3    0  502  0.17777782525E+04  0.27710749655E+03 -0.10590394884E+03  0.18023594914E+04  0.10100000352E+00 0.  1.
</event>
<event>
 5   0  0.2599332E-08  0.3999449E+04  0.7818609E-02  0.8004658E-01
       -2   -1    0    0    0  501  0.00000000000E+00  0.00000000000E+00  0.16542760685E+04  0.16542760685E+04  0.25500000920E-02 0.  1.
        2   -1    0    0  501    0  0.00000000000E+00  0.00000000000E+00 -0.24173099805E+04  0.24173099805E+04  0.25500000920E-02 0. -1.
    10030    2    1    2    0    0  0.00000000000E+00  0.00000000000E+00 -0.76303391196E+03  0.40715860489E+04  0.39994489874E+04 0.  0.
        2    1    3    3  502    0  0.88087679104E+03 -0.82111651886E+03  0.12437498741E+04  0.17312105614E+04  0.25500000920E-02 0.  1.
       -2    1    3    3    0  502 -0.88087679104E+03  0.82111651886E+03 -0.20067837861E+04  0.23403754875E+04  0.25500000920E-02 0. -1.
</event>
<event>
 5   0  0.2612363E-08  0.3988043E+04  0.7818609E-02  0.8006963E-01
        2   -1    0    0  501    0  0.00000000000E+00  0.00000000000E+00  0.30724157684E+04  0.30724157684E+04  0.25500000920E-02 0.  1.
       -2   -1    0    0    0  501  0.00000000000E+00  0.00000000000E+00 -0.12941354867E+04  0.12941354867E+04  0.25500000920E-02 0. -1.
    10030    2    1    2    0    0  0.00000000000E+00  0.00000000000E+00  0.17782802817E+04  0.43665512552E+04  0.39880432675E+04 0.  0.
        4    1    3    3  502    0  0.10586443539E+04 -0.12488068326E+04 -0.35726760029E+03  0.16756754233E+04  0.12699999809E+01 0. -1.
       -4    1    3    3    0  502 -0.10586443539E+04  0.12488068326E+04  0.21355478820E+04  0.26908758319E+04  0.12699999809E+01 0.  1.
</event>
<event>
 5   0  0.2650452E-08  0.3982258E+04  0.7818609E-02  0.8008135E-01
        2   -1    0    0  501    0  0.00000000000E+00  0.00000000000E+00  0.15796365347E+04  0.15796365347E+04  0.25500000920E-02 0. -1.
       -2   -1    0    0    0  501  0.00000000000E+00  0.00000000000E+00 -0.25098146012E+04  0.25098146012E+04  0.25500000920E-02 0.  1.
    10030    2    1    2    0    0  0.00000000000E+00  0.00000000000E+00 -0.93017806648E+03  0.40894511359E+04  0.39822580727E+04 0.  0.
        3    1    3    3  502    0  0.75091670225E+03 -0.11766157540E+04 -0.19232738889E+04  0.23764012683E+04  0.10100000352E+00 0.  1.
       -3    1    3    3    0  502 -0.75091670225E+03  0.11766157540E+04  0.99309582240E+03  0.17130498676E+04  0.10100000352E+00 0. -1.
</event>
<event>
 5   0  0.8329875E-09  0.4007734E+04  0.7818609E-02  0.8002988E-01
       -1   -1    0    0    0  501  0.00000000000E+00  0.00000000000E+00  0.16442090229E+04  0.16442090230E+04  0.50400001928E-02 0.  1.
        1   -1    0    0  501    0  0.00000000000E+00  0.00000000000E+00 -0.24421973540E+04  0.24421973540E+04  0.50400001928E-02 0. -1.
    10030    2    1    2    0    0  0.00000000000E+00  0.00000000000E+00 -0.79798833106E+03  0.40864063770E+04  0.40077339858E+04 0.  0.
        5    1    3    3  502    0 -0.19247612436E+04  0.19851749261E+02 -0.96703056533E+03  0.21541286268E+04  0.46999998093E+01 0. -1.
       -5    1    3    3    0  502  0.19247612436E+04 -0.19851749261E+02  0.16904223427E+03  0.19322777501E+04  0.46999998093E+01 0.  1.
</event>
<event>
 5   0  0.2599332E-08  0.3993196E+04  0.7818609E-02  0.8005921E-01
       -2   -1    0    0    0  501  0.00000000000E+00  0.00000000000E+00  0.21084279243E+04  0.21084279243E+04  0.25500000920E-02 0. -1.
        2   -1    0    0  501    0  0.00000000000E+00  0.00000000000E+00 -0.18906990878E+04  0.18906990878E+04  0.25500000920E-02 0.  1.
    10030    2    1    2    0    0  0.00000000000E+00  0.00000000000E+00  0.21772883649E+03  0.39991270120E+04  0.39931955890E+04 0.  0.
        2    1    3    3  502    0 -0.18497778198E+04 -0.74295019175E+03 -0.42182409388E+01  0.19934068234E+04  0.25500000920E-02 0.  1.
       -2    1    3    3    0  502  0.18497778198E+04  0.74295019175E+03  0.22194707743E+03  0.20057201886E+04  0.25500000920E-02 0. -1.
</event>
<event>
 5   0  0.8329875E-09  0.3881742E+04  0.7818609E-02  0.8028837E-01
        1   -1    0    0  501    0  0.00000000000E+00  0.00000000000E+00  0.23170357179E+04  0.23170357179E+04  0.50400001928E-02 0. -1.
       -1   -1    0    0    0  501  0.00000000000E+00  0.00000000000E+00 -0.16257755575E+04  0.16257755575E+04  0.50400001928E-02 0.  1.
    10030    2    1    2    0    0  0.00000000000E+00  0.00000000000E+00  0.69126016036E+03  0.39428112754E+04  0.38817418956E+04 0.  0.
        4    1    3    3  502    0 -0.13242773627E+03 -0.12696450323E+04  0.18306305348E+04  0.22317583608E+04  0.12699999809E+01 0. -1.
       -4    1    3    3    0  502  0.13242773627E+03  0.12696450323E+04 -0.11393703744E+04  0.17110529146E+04  0.12699999809E+01 0.  1.
</event>
<event>
 5   0  0.2599332E-08  0.3999292E+04  0.7818609E-02  0.8004689E-01
        2   -1    0    0  501    0  0.00000000000E+00  0.00000000000E+00  0.15112655308E+04  0.15112655308E+04  0.25500000920E-02 0.  1.
       -2   -1    0    0    0  501  0.00000000000E+00  0.00000000000E+00 -0.26458517951E+04  0.26458517951E+04  0.25500000920E-02 0. -1.
    10030    2    1    2    0    0  0.00000000000E+00  0.00000000000E+00 -0.11345862643E+04  0.41571173260E+04  0.39992922462E+04 0.  0.
        2    1    3    3  502    0 -0.17732463643E+03  0.23777562024E+03  0.14882709684E+04  0.15175413495E+04  0.25500000920E-02 0.  1.
       -2    1    3    3    0  502  0.17732463643E+03 -0.23777562024E+03 -0.26228572327E+04  0.26395759764E+04  0.25500000920E-02 0. -1.
</event>
<event>
 5   0  0.8329875E-09  0.3998802E+04  0.7818609E-02  0.8004788E-01
        1   -1    0    0  501    0  0.00000000000E+00  0.00000000000E+00  0.15925101370E+04  0.15925101370E+04  0.50400001928E-02 0.  1.
       -1   -1    0    0    0  501  0.00000000000E+00  0.00000000000E+00 -0.25102540285E+04  0.25102540285E+04  0.50400001928E-02 0. -1.
    10030    2    1    2    0    0  0.00000000000E+00  0.00000000000E+00 -0.91774389144E+03  0.41027641655E+04  0.39988023141E+04 0.  0.
        5    1    3    3  502    0 -0.73786312874E+03 -0.41216756019E+03  0.14002127577E+04  0.16355249773E+04  0.46999998093E+01 0.  1.
       -5    1    3    3    0  502  0.73786312874E+03  0.41216756019E+03 -0.23179566492E+04  0.24672391882E+04  0.46999998093E+01 0. -1.
</event>
<event>
 5   0  0.8329875E-09  0.3991820E+04  0.7818609E-02  0.8006199E-01
       -1   -1    0    0    0  501  0.00000000000E+00  0.00000000000E+00  0.13114684826E+04  0.13114684826E+04  0.50400001928E-02 0. -1.
        1   -1    0    0  501    0  0.00000000000E+00  0.00000000000E+00 -0.30375540384E+04  0.30375540384E+04  0.50400001928E-02 0.  1.
    10030    2    1    2    0    0  0.00000000000E+00  0.00000000000E+00 -0.17260855558E+04  0.43490225210E+04  0.39918198284E+04 0.  0.
        5    1    3    3  502    0 -0.65592001305E+03 -0.18830781737E+04 -0.76919639765E+03  0.21372645274E+04  0.46999998093E+01 0. -1.
       -5    1    3    3    0  502  0.65592001305E+03  0.18830781737E+04 -0.95688915810E+03  0.22117579937E+04  0.46999998093E+01 0.  1.
</event>
<event>
 5   0  0.8329875E-09  0.3998950E+04  0.7818609E-02  0.8004758E-01
       -1   -1    0    0    0  501  0.00000000000E+00  0.00000000000E+00  0.14479128558E+04  0.14479128558E+04  0.50400001928E-02 0. -1.
        1   -1    0    0  501    0  0.00000000000E+00  0.00000000000E+00 -0.27611472509E+04  0.27611472509E+04  0.50400001928E-02 0.  1.
    10030    2    1    2    0    0  0.00000000000E+00  0.00000000000E+00 -0.13132343950E+04  0.42090601067E+04  0.39989501629E+04 0.  0.
        3    1    3    3  502    0  0.69206748117E+03  0.12222603068E+03  0.13136332368E+04  0.14898083407E+04  0.10100000352E+00 0. -1.
       -3    1    3    3    0  502 -0.69206748117E+03 -0.12222603068E+03 -0.26268676319E+04  0.27192517659E+04  0.10100000352E+00 0.  1.
</event>
<event>
 5   0  0.8329875E-09  0.4000845E+04  0.7818609E-02  0.8004376E-01
       -1   -1    0    0    0  501  0.00000000000E+00  0.00000000000E+00  0.29161252165E+04  0.29161252165E+04  0.50400001928E-02 0. -1.
        1   -1    0    0  501    0  0.00000000000E+00  0.00000000000E+00 -0.13722629996E+04  0.13722629996E+04  0.50400001928E-02 0.  1.
    10030    2    1    2    0    0  0.00000000000E+00  0.00000000000E+00  0.15438622169E+04  0.42883882161E+04  0.40008452791E+04 0.  0.
        2    1    3    3  502    0  0.17134174227E+04  0.18249302345E+03  0.18611265761E+04  0.25363152605E+04  0.25500000920E-02 0. -1.
       -2    1    3    3    0  502 -0.17134174227E+04 -0.18249302345E+03 -0.31726435923E+03  0.17520729556E+04  0.25500000920E-02 0.  1.
</event>
<event>
 5   0  0.2587493E-08  0.3999726E+04  0.7818609E-02  0.8004602E-01
       -2   -1    0    0    0  501  0.00000000000E+00  0.00000000000E+00  0.25086371439E+04  0.25086371439E+04  0.25500000920E-02 0.  1.
        2   -1    0    0  501    0  0.00000000000E+00  0.00000000000E+00 -0.15942731657E+04  0.15942731657E+04  0.25500000920E-02 0. -1.
    10030    2    1    2    0    0  0.00000000000E+00  0.00000000000E+00  0.91436397821E+03  0.41029103096E+04  0.39997264312E+04 0.  0.
        5    1    3    3  502    0  0.18977845569E+04  0.62884734288E+03  0.40697460198E+03  0.20402660664E+04  0.46999998093E+01 0. -1.
       -5    1    3    3    0  502 -0.18977845569E+04 -0.62884734288E+03  0.50738937623E+03  0.20626442432E+04  0.46999998093E+01 0.  1.
</event>
<event>
 5   0  0.8329875E-09  0.3996831E+04  0.7818609E-02  0.8005186E-01
       -1   -1    0    0    0  501  0.00000000000E+00  0.00000000000E+00  0.32600633893E+04  0.32600633893E+04  0.50400001928E-02 0. -1.
        1   -1    0    0  501    0  0.00000000000E+00  0.00000000000E+00 -0.12250264485E+04  0.12250264485E+04  0.50400001928E-02 0.  1.
    10030    2    1    2    0    0  0.00000000000E+00  0.00000000000E+00  0.20350369408E+04  0.44850898379E+04  0.39968306823E+04 0.  0.
        4    1    3    3  502    0 -0.40797366750E+03  0.19560941881E+04  0.10514678300E+04  0.22579488915E+04  0.12699999809E+01 0. -1.
       -4    1    3    3    0  502  0.40797366750E+03 -0.19560941881E+04  0.98356911076E+03  0.22271409463E+04  0.12699999809E+01 0.  1.
</event>
<event>
 5   0  0.8329875E-09  0.4013285E+04  0.7818609E-02  0.8001872E-01
       -1   -1    0    0    0  501  0.00000000000E+00  0.00000000000E+00  0.27821391576E+04  0.27821391576E+04  0.50400001928E-02 0. -1.
        1   -1    0    0  501    0  0.00000000000E+00  0.00000000000E+00 -0.14473084046E+04  0.14473084046E+04  0.50400001928E-02 0.  1.
    10030    2    1    2    0    0  0.00000000000E+00  0.00000000000E+00  0.13348307529E+04  0.42294475622E+04  0.40132846326E+04 0.  0.
        5    1    3    3  502    0  0.58017456992E+03  0.15223096459E+04  0.19020819344E+04  0.25043895393E+04  0.46999998093E+01 0.  1.
       -5    1    3    3    0  502 -0.58017456992E+03 -0.15223096459E+04 -0.56725118144E+03  0.17250580229E+04  0.46999998093E+01 0. -1.
</event>
<event>
 5   0  0.2599332E-08  0.4011595E+04  0.7818609E-02  0.8002212E-01
        2   -1    0    0  501    0  0.00000000000E+00  0.00000000000E+00  0.26206688162E+04  0.26206688162E+04  0.25500000920E-02 0. -1.
       -2   -1    0    0    0  501  0.00000000000E+00  0.00000000000E+00 -0.15351896530E+04  0.15351896530E+04  0.25500000920E-02 0.  1.
    10030    2    1    2    0    0  0.00000000000E+00  0.00000000000E+00  0.10854791632E+04  0.41558584692E+04  0.40115950197E+04 0.  0.
        2    1    3    3  502    0  0.13236897728E+04  0.84769732140E+03  0.18335320802E+04  0.24150745853E+04  0.25500000920E-02 0. -1.
       -2    1    3    3    0  502 -0.13236897728E+04 -0.84769732140E+03 -0.74805291705E+03  0.17407838838E+04  0.25500000920E-02 0.  1.
</event>
<event>
 5   0  0.8329875E-09  0.4004302E+04  0.7818609E-02  0.8003679E-01
       -1   -1    0    0    0  501  0.00000000000E+00  0.00000000000E+00  0.20839017621E+04  0.20839017621E+04  0.50400001928E-02 0.  1.
        1   -1    0    0  501    0  0.00000000000E+00  0.00000000000E+00 -0.19236068933E+04  0.19236068933E+04  0.50400001928E-02 0. -1.
    10030    2    1    2    0    0  0.00000000000E+00  0.00000000000E+00  0.16029486875E+03  0.40075086554E+04  0.40043015843E+04 0.  0.
        2    1    3    3  502    0  0.19137035732E+04  0.47547939642E+03 -0.26692387297E+03  0.19898719498E+04  0.25500000920E-02 0.  1.
       -2    1    3    3    0  502 -0.19137035732E+04 -0.47547939642E+03  0.42721874172E+03  0.20176367056E+04  0.25500000920E-02 0. -1.
</event>
<event>
 5   0  0.2587493E-08  0.3984851E+04  0.7818609E-02  0.8007610E-01
        2   -1    0    0  501    0  0.00000000000E+00  0.00000000000E+00  0.25600782077E+04  0.25600782077E+04  0.25500000920E-02 0.  1.
       -2   -1    0    0    0  501  0.00000000000E+00  0.00000000000E+00 -0.15506395817E+04  0.15506395817E+04  0.25500000920E-02 0. -1.
    10030    2    1    2    0    0  0.00000000000E+00  0.00000000000E+00  0.10094386260E+04  0.41107177894E+04  0.39848506126E+04 0.  0.
        5    1    3    3  502    0  0.12300856765E+04 -0.10962974945E+04  0.16602607542E+04  0.23391166773E+04  0.46999998093E+01 0.  1.
       -5    1    3    3    0  502 -0.12300856765E+04  0.10962974945E+04 -0.65082212823E+03  0.17716011121E+04  0.46999998093E+01 0. -1.
</event>
<event>
 5   0  0.8329875E-09  0.3999051E+04  0.7818609E-02  0.8004738E-01
       -1   -1    0    0    0  501  0.00000000000E+00  0.00000000000E+00  0.17971409473E+04  0.17971409473E+04  0.50400001928E-02 0. -1.
        1   -1    0    0  501    0  0.00000000000E+00  0.00000000000E+00 -0.22247020818E+04  0.22247020818E+04  0.50400001928E-02 0.  1.
    10030    2    1    2    0    0  0.00000000000E+00  0.00000000000E+00 -0.42756113456E+03  0.40218430291E+04  0.39990514909E+04 0.  0.
        1    1    3    3  502    0  0.14984012577E+04 -0.59005836898E+03 -0.14057475882E+04  0.21376392328E+04  0.50400001928E-02 0.  1.
       -1    1    3    3    0  502 -0.14984012577E+04  0.59005836898E+03  0.97818645360E+03  0.18842037963E+04  0.50400001928E-02 0. -1.
</event>
<event>
 5   0  0.2650452E-08  0.3999842E+04  0.7818609E-02  0.8004578E-01
       -2   -1    0    0    0  501  0.00000000000E+00  0.00000000000E+00  0.14355240850E+04  0.14355240850E+04  0.25500000920E-02 0. -1.
        2   -1    0    0  501    0  0.00000000000E+00  0.00000000000E+00 -0.27862184251E+04  0.27862184251E+04  0.25500000920E-02 0.  1.
    10030    2    1    2    0    0  0.00000000000E+00  0.00000000000E+00 -0.13506943401E+04  0.42217425100E+04  0.39998418244E+04 0.  0.
        3    1    3    3  502    0 -0.85983394738E+02 -0.11428689086E+04  0.10545223237E+04  0.15574208897E+04  0.10100000352E+00 0. -1.
       -3    1    3    3    0  502  0.85983394738E+02  0.11428689086E+04 -0.24052166638E+04  0.26643216203E+04  0.10100000352E+00 0.  1.
</event>
<event>
 5   0  0.2587493E-08  0.4012737E+04  0.7818609E-02  0.8001982E-01
        2   -1    0    0  501    0  0.00000000000E+00  0.00000000000E+00  0.22546526687E+04  0.22546526687E+04  0.25500000920E-02 0. -1.
       -2   -1    0    0    0  501  0.00000000000E+00  0.00000000000E+00 -0.17854258601E+04  0.17854258601E+04  0.25500000920E-02 0.  1.
    10030    2    1    2    0    0  0.00000000000E+00  0.00000000000E+00  0.46922680860E+03  0.40400785288E+04  0.40127373102E+04 0.  0.
        5    1    3    3  502    0  0.10239688164E+04 -0.75195264332E+03 -0.13288835799E+04  0.18384500465E+04  0.46999998093E+01 0.  1.
       -5    1    3    3    0  502 -0.10239688164E+04  0.75195264332E+03  0.17981103885E+04  0.22016284823E+04  0.46999998093E+01 0. -1.
</event>
<event>
 5   0  0.8329875E-09  0.4003070E+04  0.7818609E-02  0.8003927E-01
       -1   -1    0    0    0  501  0.00000000000E+00  0.00000000000E+00  0.21592830392E+04  0.21592830392E+04  0.50400001928E-02 0. -1.
        1   -1    0    0  501    0  0.00000000000E+00  0.00000000000E+00 -0.18553115682E+04  0.18553115682E+04  0.50400001928E-02 0.  1.
    10030    2    1    2    0    0  0.00000000000E+00  0.00000000000E+00  0.30397147100E+03  0.40145946074E+04  0.40030702226E+04 0.  0.
        1    1    3    3  502    0 -0.88824180021E+03  0.92934638041E+03  0.16905093613E+04  0.21237890882E+04  0.50400001928E-02 0. -1.
       -1    1    3    3    0  502  0.88824180021E+03 -0.92934638041E+03 -0.13865378903E+04  0.18908055193E+04  0.50400001928E-02 0.  1.
</event>
<event>
 5   0  0.2599332E-08  0.3960106E+04  0.7818609E-02  0.8012643E-01
        2   -1    0    0  501    0  0.00000000000E+00  0.00000000000E+00  0.20929462661E+04  0.20929462661E+04  0.25500000920E-02 0.  1.
       -2   -1    0    0    0  501  0.00000000000E+00  0.00000000000E+00 -0.18732488288E+04  0.18732488288E+04  0.25500000920E-02 0. -1.
    10030    2    1    2    0    0  0.00000000000E+00  0.00000000000E+00  0.21969743730E+03  0.39661950949E+04  0.39601056257E+04 0.  0.
        2    1    3    3  502    0  0.57448351464E+03  0.10281476151E+04 -0.14842930003E+04  0.18947940621E+04  0.25500000920E-02 0. -1.
       -2    1    3    3    0  502 -0.57448351464E+03 -0.10281476151E+04  0.17039904376E+04  0.20714010328E+04  0.25500000920E-02 0.  1.
</event>
<event>
 5   0  0.2587493E-08  0.3998182E+04  0.7818609E-02  0.8004913E-01
        2   -1    0    0  501    0  0.00000000000E+00  0.00000000000E+00  0.20335779750E+04  0.20335779750E+04  0.25500000920E-02 0. -1.
       -2   -1    0    0    0  501  0.00000000000E+00  0.00000000000E+00 -0.19651885542E+04  0.19651885542E+04  0.25500000920E-02 0.  1.
    10030    2    1    2    0    0  0.00000000000E+00  0.00000000000E+00  0.68389420738E+02  0.39987665292E+04  0.39981816670E+04 0.  0.
        5    1    3    3  502    0  0.36122078084E+02  0.15990462377E+04 -0.11651839452E+04  0.19788707363E+04  0.46999998093E+01 0.  1.
       -5    1    3    3    0  502 -0.36122078084E+02 -0.15990462377E+04  0.12335733659E+04  0.20198957929E+04  0.46999998093E+01 0. -1.
</event>
<event>
 5   0  0.8329875E-09  0.3997882E+04  0.7818609E-02  0.8004974E-01
       -1   -1    0    0    0  501  0.00000000000E+00  0.00000000000E+00  0.19778981079E+04  0.19778981079E+04  0.50400001928E-02 0.  1.
        1   -1    0    0  501    0  0.00000000000E+00  0.00000000000E+00 -0.20202074083E+04  0.20202074083E+04  0.50400001928E-02 0. -1.
    10030    2    1    2    0    0  0.00000000000E+00  0.00000000000E+00 -0.42309300451E+02  0.39981055162E+04  0.39978816443E+04 0.  0.
        2    1    3    3  502    0  0.83178886661E+03 -0.58837265627E+03 -0.17410501610E+04  0.20172532722E+04  0.25500000920E-02 0. -1.
       -2    1    3    3    0  502 -0.83178886661E+03  0.58837265627E+03  0.16987408605E+04  0.19808522440E+04  0.25500000920E-02 0.  1.
</event>
<event>
 5   0  0.2587493E-08  0.4002729E+04  0.7818609E-02  0.8003996E-01
        2   -1    0    0  501    0  0.00000000000E+00  0.00000000000E+00  0.13246742410E+04  0.13246742410E+04  0.25500000920E-02 0. -1.
       -2   -1    0    0    0  501  0.00000000000E+00  0.00000000000E+00 -0.30237322362E+04  0.30237322363E+04  0.25500000920E-02 0.  1.
    10030    2    1    2    0    0  0.00000000000E+00  0.00000000000E+00 -0.16990579952E+04  0.43484064773E+04  0.40027291715E+04 0.  0.
        5    1    3    3  502    0  0.22997971515E+03 -0.10198486137E+04  0.10044449747E+04  0.14497978002E+04  0.46999998093E+01 0. -1.
       -5    1    3    3    0  502 -0.22997971515E+03  0.10198486137E+04 -0.27035029699E+04  0.28986086771E+04  0.46999998093E+01 0.  1.
</event>
<event>
 5   0  0.8329875E-09  0.3997294E+04  0.7818609E-02  0.8005093E-01
       -1   -1    0    0    0  501  0.00000000000E+00  0.00000000000E+00  0.19427625521E+04  0.19427625521E+04  0.50400001928E-02 0.  1.
        1   -1    0    0  501    0  0.00000000000E+00  0.00000000000E+00 -0.20561393402E+04  0.20561393402E+04  0.50400001928E-02 0. -1.
    10030    2    1    2    0    0  0.00000000000E+00  0.00000000000E+00 -0.11337678817E+03  0.39989018923E+04  0.39972943410E+04 0.  0.
        4    1    3    3  502    0 -0.41168749290E+03 -0.90894972370E+03  0.16757449457E+04  0.19503330300E+04  0.12699999809E+01 0.  1.
       -4    1    3    3    0  502  0.41168749290E+03  0.90894972370E+03 -0.17891217339E+04  0.20485688623E+04  0.12699999809E+01 0. -1.
</event>
<event>
 5   0  0.8329875E-09  0.4011906E+04  0.7818609E-02  0.8002149E-01
       -1   -1    0    0    0  501  0.00000000000E+00  0.00000000000E+00  0.30042649308E+04  0.30042649308E+04  0.50400001928E-02 0. -1.
        1   -1    0    0  501    0  0.00000000000E+00  0.00000000000E+00 -0.13393782421E+04  0.13393782421E+04  0.50400001928E-02 0.  1.
    10030    2    1    2    0    0  0.00000000000E+00  0.00000000000E+00  0.16648866887E+04  0.43436431730E+04  0.40119058224E+04 0.  0.
        5    1    3    3  502    0  0.78975809431E+03  0.18436954990E+04  0.80007021444E+03  0.21594132023E+04  0.46999998093E+01 0. -1.
       -5    1    3    3    0  502 -0.78975809431E+03 -0.18436954990E+04  0.86481647429E+03  0.21842299706E+04  0.46999998093E+01 0.  1.
</event>
<event>
 5   0  0.8329875E-09  0.4007522E+04  0.7818609E-02  0.8003031E-01
       -1   -1    0    0    0  501  0.00000000000E+00  0.00000000000E+00  0.13487346786E+04  0.13487346786E+04  0.50400001928E-02 0.  1.
        1   -1    0    0  501    0  0.00000000000E+00  0.00000000000E+00 -0.29769075469E+04  0.29769075469E+04  0.50400001928E-02 0. -1.
    10030    2    1    2    0    0  0.00000000000E+00  0.00000000000E+00 -0.16281728683E+04  0.43256422255E+04  0.40075221489E+04 0.  0.
        5    1    3    3  502    0  0.21823431575E+03 -0.10890926829E+04  0.98601753017E+03  0.14852615084E+04  0.46999998093E+01 0.  1.
       -5    1    3    3    0  502 -0.21823431575E+03  0.10890926829E+04 -0.26141903985E+04  0.28403807171E+04  0.46999998093E+01 0. -1.
</event>
<event>
 5   0  0.2650452E-08  0.3997461E+04  0.7818609E-02  0.8005059E-01
       -2   -1    0    0    0  501  0.00000000000E+00  0.00000000000E+00  0.28732916922E+04  0.28732916922E+04  0.25500000920E-02 0.  1.
        2   -1    0    0  501    0  0.00000000000E+00  0.00000000000E+00 -0.13903650986E+04  0.13903650986E+04  0.25500000920E-02 0. -1.
    10030    2    1    2    0    0  0.00000000000E+00  0.00000000000E+00  0.14829265936E+04  0.42636567908E+04  0.39974614379E+04 0.  0.
        3    1    3    3  502    0 -0.15477382169E+04  0.11448877781E+03  0.20848275710E+04  0.25990589219E+04  0.10100000352E+00 0.  1.
       -3    1    3    3    0  502  0.15477382169E+04 -0.11448877781E+03 -0.60190097739E+03  0.16645978689E+04  0.10100000352E+00 0. -1.
</event>
<event>
 5   0  0.8329875E-09  0.3990639E+04  0.7818609E-02  0.8006438E-01
       -1   -1    0    0    0  501  0.00000000000E+00  0.00000000000E+00  0.17185512326E+04  0.17185512326E+04  0.50400001928E-02 0. -1.
        1   -1    0    0  501    0  0.00000000000E+00  0.00000000000E+00 -0.23166600330E+04  0.23166600330E+04  0.50400001928E-02 0.  1.
    10030    2    1    2    0    0  0.00000000000E+00  0.00000000000E+00 -0.59810880040E+03  0.40352112656E+04  0.39906385229E+04 0.  0.
        5    1    3    3  502    0  0.58435610824E+03 -0.98353455497E+03  0.13539722903E+04  0.17725900076E+04  0.46999998093E+01 0. -1.
       -5    1    3    3    0  502 -0.58435610824E+03  0.98353455497E+03 -0.19520810907E+04  0.22626212579E+04  0.46999998093E+01 0.  1.
</event>
<event>
 5   0  0.8329875E-09  0.4000398E+04  0.7818609E-02  0.8004466E-01
        1   -1    0    0  501    0  0.00000000000E+00  0.00000000000E+00  0.26717679624E+04  0.26717679624E+04  0.50400001928E-02 0.  1.
       -1   -1    0    0    0  501  0.00000000000E+00  0.00000000000E+00 -0.14974336713E+04  0.14974336713E+04  0.50400001928E-02 0. -1.
    10030    2    1    2    0    0  0.00000000000E+00  0.00000000000E+00  0.11743342911E+04  0.41692016337E+04  0.40003976346E+04 0.  0.
        5    1    3    3  502    0  0.10976253650E+04 -0.89714425896E+03 -0.88344749821E+03  0.16703744596E+04  0.46999998093E+01 0. -1.
       -5    1    3    3    0  502 -0.10976253650E+04  0.89714425896E+03  0.20577817893E+04  0.24988271740E+04  0.46999998093E+01 0.  1.
</event>
<event>
 5   0  0.2650452E-08  0.3991583E+04  0.7818609E-02  0.8006247E-01
        2   -1    0    0  501    0  0.00000000000E+00  0.00000000000E+00  0.25388706174E+04  0.25388706174E+04  0.25500000920E-02 0. -1.
       -2   -1    0    0    0  501  0.00000000000E+00  0.00000000000E+00 -0.15688803970E+04  0.15688803970E+04  0.25500000920E-02 0.  1.
    10030    2    1    2    0    0  0.00000000000E+00  0.00000000000E+00  0.96999022043E+03  0.41077510145E+04  0.39915833161E+04 0.  0.
        3    1    3    3  502    0 -0.75605154908E+03 -0.18438356320E+04  0.59697623794E+03  0.20803183462E+04  0.10100000352E+00 0.  1.
       -3    1    3    3    0  502  0.75605154908E+03  0.18438356320E+04  0.37301398250E+03  0.20274326682E+04  0.10100000352E+00 0. -1.
</event>
<event>
 5   0  0.2746876E-08  0.3993850E+04  0.7818609E-02  0.8005788E-01
        2   -1    0    0  501    0  0.00000000000E+00  0.00000000000E+00  0.21883134584E+04  0.21883134584E+04  0.25500000920E-02 0.  1.
       -2   -1    0    0    0  501  0.00000000000E+00  0.00000000000E+00 -0.18222752991E+04  0.18222752991E+04  0.25500000920E-02 0. -1.
    10030    2    1    2    0    0  0.00000000000E+00  0.00000000000E+00  0.36603815927E+03  0.40105887575E+04  0.39938500532E+04 0.  0.
        1    1    3    3  502    0 -0.73623485284E+03  0.10342944237E+03 -0.16781158521E+04  0.18354324343E+04  0.50400001928E-02 0. -1.
       -1    1    3    3    0  502  0.73623485284E+03 -0.10342944237E+03  0.20441540113E+04  0.21751563232E+04  0.50400001928E-02 0.  1.
</event>
<event>
 5   0  0.2612363E-08  0.4004051E+04  0.7818609E-02  0.8003730E-01
        2   -1    0    0  501    0  0.00000000000E+00  0.00000000000E+00  0.19748523696E+04  0.19748523696E+04  0.25500000920E-02 0.  1.
       -2   -1    0    0    0  501  0.00000000000E+00  0.00000000000E+00 -0.20295721954E+04  0.20295721954E+04  0.25500000920E-02 0. -1.
    10030    2    1    2    0    0  0.00000000000E+00  0.00000000000E+00 -0.54719825709E+02  0.40044245650E+04  0.40040506787E+04 0.  0.
        4    1    3    3  502    0  0.55683876754E+02 -0.42333657112E+03 -0.19835050544E+04  0.20289426952E+04  0.12699999809E+01 0. -1.
       -4    1    3    3    0  502 -0.55683876754E+02  0.42333657112E+03  0.19287852287E+04  0.19754818698E+04  0.12699999809E+01 0.  1.
</event>
<event>
 5   0  0.8329875E-09  0.4016222E+04  0.7818609E-02  0.8001282E-01
        1   -1    0    0  501    0  0.00000000000E+00  0.00000000000E+00  0.18178706598E+04  0.18178706598E+04  0.50400001928E-02 0. -1.
       -1   -1    0    0    0  501  0.00000000000E+00  0.00000000000E+00 -0.22182595848E+04  0.22182595848E+04  0.50400001928E-02 0.  1.
    10030    2    1    2    0    0  0.00000000000E+00  0.00000000000E+00 -0.40038892497E+03  0.40361302445E+04  0.40162216149E+04 0.  0.
        2    1    3    3  502    0  0.79531662646E+03 -0.17509702779E+04  0.38067033645E+03  0.19604426427E+04  0.25500000920E-02 0. -1.
       -2    1    3    3    0  502 -0.79531662646E+03  0.17509702779E+04 -0.78105926141E+03  0.20756876018E+04  0.25500000920E-02 0.  1.
</event>
<event>
 5   0  0.2587493E-08  0.4000887E+04  0.7818609E-02  0.8004368E-01
        2   -1    0    0  501    0  0.00000000000E+00  0.00000000000E+00  0.15771807944E+04  0.15771807944E+04  0.25500000920E-02 0. -1.
       -2   -1    0    0    0  501  0.00000000000E+00  0.00000000000E+00 -0.25372956125E+04  0.25372956125E+04  0.25500000920E-02 0.  1.
    10030    2    1    2    0    0  0.00000000000E+00  0.00000000000E+00 -0.96011481812E+03  0.41144764070E+04  0.40008868566E+04 0.  0.
        5    1    3    3  502    0 -0.16464992634E+03  0.19150907358E+03 -0.25208286005E+04  0.25334530283E+04  0.46999998093E+01 0.  1.
       -5    1    3    3    0  502  0.16464992634E+03 -0.19150907358E+03  0.15607137824E+04  0.15810233787E+04  0.46999998093E+01 0. -1.
</event>
<event>
 5   0  0.8329875E-09  0.3994647E+04  0.7818609E-02  0.8005627E-01
       -1   -1    0    0    0  501  0.00000000000E+00  0.00000000000E+00  0.18128709096E+04  0.18128709096E+04  0.50400001928E-02 0.  1.
        1   -1    0    0  501    0  0.00000000000E+00  0.00000000000E+00 -0.22005437836E+04  0.22005437836E+04  0.50400001928E-02 0. -1.
    10030    2    1    2    0    0  0.00000000000E+00  0.00000000000E+00 -0.38767287406E+03  0.40134146932E+04  0.39946473239E+04 0.  0.
        4    1    3    3  502    0 -0.42408672580E+02  0.19917895274E+04 -0.33689987987E+03  0.20205264558E+04  0.12699999809E+01 0. -1.
       -4    1    3    3    0  502  0.42408672580E+02 -0.19917895274E+04 -0.50772994191E+02  0.19928882374E+04  0.12699999809E+01 0.  1.
</event>
<event>
 5   0  0.2746876E-08  0.4004341E+04  0.7818609E-02  0.8003671E-01
        2   -1    0    0  501    0  0.00000000000E+00  0.00000000000E+00  0.20762789273E+04  0.20762789273E+04  0.25500000920E-02 0.  1.
       -2   -1    0    0    0  501  0.00000000000E+00  0.00000000000E+00 -0.19307072281E+04  0.19307072281E+04  0.25500000920E-02 0. -1.
    10030    2    1    2    0    0  0.00000000000E+00  0.00000000000E+00  0.14557169922E+03  0.40069861554E+04  0.40043410107E+04 0.  0.
        1    1    3    3  502    0  0.78336141532E+03  0.31418896920E+03 -0.17439896585E+04  0.19374905792E+04  0.50400001928E-02 0. -1.
       -1    1    3    3    0  502 -0.78336141532E+03 -0.31418896920E+03  0.18895613577E+04  0.20694955762E+04  0.50400001928E-02 0.  1.
</event>
<event>
 5   0  0.2587493E-08  0.4002619E+04  0.7818609E-02  0.8004018E-01
       -2   -1    0    0    0  501  0.00000000000E+00  0.00000000000E+00  0.26563043005E+04  0.26563043005E+04  0.25500000920E-02 0.  1.
        2   -1    0    0  501    0  0.00000000000E+00  0.00000000000E+00 -0.15078241155E+04  0.15078241155E+04  0.25500000920E-02 0. -1.
    10030    2    1    2    0    0  0.00000000000E+00  0.00000000000E+00  0.11484801851E+04  0.41641284160E+04  0.40026189838E+04 0.  0.
        5    1    3    3  502    0 -0.20133666195E+03 -0.33181467213E+03  0.26167699059E+04  0.26454005857E+04  0.46999998093E+01 0.  1.
       -5    1    3    3    0  502  0.20133666195E+03  0.33181467213E+03 -0.14682897209E+04  0.15187278303E+04  0.46999998093E+01 0. -1.
</event>
<event>
 5   0  0.2599332E-08  0.3988833E+04  0.7818609E-02  0.8006803E-01
       -2   -1    0    0    0  501  0.00000000000E+00  0.00000000000E+00  0.34386616646E+04  0.34386616646E+04  0.25500000920E-02 0. -1.
        2   -1    0    0  501    0  0.00000000000E+00  0.00000000000E+00 -0.11567570801E+04  0.11567570801E+04  0.25500000920E-02 0.  1.
    10030    2    1    2    0    0  0.00000000000E+00  0.00000000000E+00  0.22819045845E+04  0.45954187447E+04  0.39888325242E+04 0.  0.
        2    1    3    3  502    0 -0.97706808221E+03  0.86503237958E+03  0.28785387721E+04  0.31605266203E+04  0.25500000920E-02 0. -1.
       -2    1    3    3    0  502  0.97706808221E+03 -0.86503237958E+03 -0.59663418758E+03  0.14348921244E+04  0.25500000920E-02 0.  1.
</event>
<event>
 5   0  0.8329875E-09  0.4001984E+04  0.7818609E-02  0.8004146E-01
       -1   -1    0    0    0  501  0.00000000000E+00  0.00000000000E+00  0.27675162037E+04  0.27675162037E+04  0.50400001928E-02 0.  1.
        1   -1    0    0  501    0  0.00000000000E+00  0.00000000000E+00 -0.14467737645E+04  0.14467737645E+04  0.50400001928E-02 0. -1.
    10030    2    1    2    0    0  0.00000000000E+00  0.00000000000E+00  0.13207424392E+04  0.42142899682E+04  0.40019844259E+04 0.  0.
        1    1    3    3  502    0 -0.11684373158E+04  0.34118183625E+03  0.23328053750E+04  0.26312794842E+04  0.50400001928E-02 0.  1.
       -1    1    3    3    0  502  0.11684373158E+04 -0.34118183625E+03 -0.10120629358E+04  0.15830104840E+04  0.50400001928E-02 0. -1.
</event>
<event>
 5   0  0.8329875E-09  0.4000233E+04  0.7818609E-02  0.8004499E-01
       -1   -1    0    0    0  501  0.00000000000E+00  0.00000000000E+00  0.22605694698E+04  0.22605694698E+04  0.50400001928E-02 0. -1.
        1   -1    0    0  501    0  0.00000000000E+00  0.00000000000E+00 -0.17696720849E+04  0.17696720849E+04  0.50400001928E-02 0.  1.
    10030    2    1    2    0    0  0.00000000000E+00  0.00000000000E+00  0.49089738492E+03  0.40302415546E+04  0.40002333365E+04 0.  0.
        4    1    3    3  502    0 -0.13581637399E+04  0.86586494471E+03 -0.94925207208E+03  0.18696020849E+04  0.12699999809E+01 0.  1.
       -4    1    3    3    0  502  0.13581637399E+04 -0.86586494471E+03  0.14401494570E+04  0.21606394697E+04  0.12699999809E+01 0. -1.
</event>
<event>
 5   0  0.2599332E-08  0.4000906E+04  0.7818609E-02  0.8004364E-01
        2   -1    0    0  501    0  0.00000000000E+00  0.00000000000E+00  0.14152777390E+04  0.14152777390E+04  0.25500000920E-02 0. -1.
       -2   -1    0    0    0  501  0.00000000000E+00  0.00000000000E+00 -0.28275806759E+04  0.28275806759E+04  0.25500000920E-02 0.  1.
    10030    2    1    2    0    0  0.00000000000E+00  0.00000000000E+00 -0.14123029368E+04  0.42428584149E+04  0.40009058903E+04 0.  0.
        2    1    3    3  502    0  0.15615431618E+03  0.10952394873E+04 -0.24736408346E+04  0.27097661677E+04  0.25500000920E-02 0.  1.
       -2    1    3    3    0  502 -0.15615431618E+03 -0.10952394873E+04  0.10613378978E+04  0.15330922472E+04  0.25500000920E-02 0. -1.
</event>
<event>
 5   0  0.2587493E-08  0.4000715E+04  0.7818609E-02  0.8004402E-01
       -2   -1    0    0    0  501  0.00000000000E+00  0.00000000000E+00  0.14527723498E+04  0.14527723498E+04  0.25500000920E-02 0.  1.
        2   -1    0    0  501    0  0.00000000000E+00  0.00000000000E+00 -0.27543410993E+04  0.27543410993E+04  0.25500000920E-02 0. -1.
    10030    2    1    2    0    0  0.00000000000E+00  0.00000000000E+00 -0.13015687495E+04  0.42071134491E+04  0.40007152315E+04 0.  0.
        5    1    3    3  502    0  0.19819113018E+04  0.25185613422E+01 -0.36582522406E+03  0.20153979596E+04  0.46999998093E+01 0.  1.
       -5    1    3    3    0  502 -0.19819113018E+04 -0.25185613422E+01 -0.93574352544E+03  0.21917154894E+04  0.46999998093E+01 0. -1.
</event>
<event>
 5   0  0.8329875E-09  0.4000568E+04  0.7818609E-02  0.8004432E-01
       -1   -1    0    0    0  501  0.00000000000E+00  0.00000000000E+00  0.21413358608E+04  0.21413358608E+04  0.50400001928E-02 0. -1.
        1   -1    0    0  501    0  0.00000000000E+00  0.00000000000E+00 -0.18685229813E+04  0.18685229813E+04  0.50400001928E-02 0.  1.
    10030    2    1    2    0    0  0.00000000000E+00  0.00000000000E+00  0.27281287950E+03  0.40098588422E+04  0.40005675931E+04 0.  0.
        1    1    3    3  502    0  0.11581023106E+04  0.49833338696E+03  0.16929452084E+04  0.21108293643E+04  0.50400001928E-02 0. -1.
       -1    1    3    3    0  502 -0.11581023106E+04 -0.49833338696E+03 -0.14201323289E+04  0.18990294779E+04  0.50400001928E-02 0.  1.
</event>
<event>
 5   0  0.8329875E-09  0.4002569E+04  0.7818609E-02  0.8004029E-01
        1   -1    0    0  501    0  0.00000000000E+00  0.00000000000E+00  0.22524780704E+04  0.22524780704E+04  0.50400001928E-02 0. -1.
       -1   -1    0    0    0  501  0.00000000000E+00  0.00000000000E+00 -0.17781034000E+04  0.17781034000E+04  0.50400001928E-02 0.  1.
    10030    2    1    2    0    0  0.00000000000E+00  0.00000000000E+00  0.47437467042E+03  0.40305814704E+04  0.40025686330E+04 0.  0.
        2    1    3    3  502    0 -0.19309835051E+04 -0.30262794323E+02  0.76576649702E+03  0.20775012543E+04  0.25500000920E-02 0. -1.
       -2    1    3    3    0  502  0.19309835051E+04  0.30262794323E+02 -0.29139182659E+03  0.19530802161E+04  0.25500000920E-02 0.  1.
</event>
<event>
 5   0  0.2612363E-08  0.3996049E+04  0.7818609E-02  0.8005344E-01
       -2   -1    0    0    0  501  0.00000000000E+00  0.00000000000E+00  0.14693753795E+04  0.14693753795E+04  0.25500000920E-02 0.  1.
        2   -1    0    0  501    0  0.00000000000E+00  0.00000000000E+00 -0.27168704528E+04  0.27168704528E+04  0.25500000920E-02 0. -1.
    10030    2    1    2    0    0  0.00000000000E+00  0.00000000000E+00 -0.12474950733E+04  0.41862458323E+04  0.39960493253E+04 0.  0.
        4    1    3    3  502    0  0.19394183064E+01  0.56043961130E+03 -0.26328404561E+04  0.26918296379E+04  0.12699999809E+01 0. -1.
       -4    1    3    3    0  502 -0.19394183064E+01 -0.56043961130E+03  0.13853453828E+04  0.14944161944E+04  0.12699999809E+01 0.  1.
</event>
<event>
 5   0  0.2612363E-08  0.4050096E+04  0.7818609E-02  0.7994516E-01
        2   -1    0    0  501    0  0.00000000000E+00  0.00000000000E+00  0.24820339069E+04  0.24820339069E+04  0.25500000920E-02 0. -1.
       -2   -1    0    0    0  501  0.00000000000E+00  0.00000000000E+00 -0.16522013077E+04  0.16522013077E+04  0.25500000920E-02 0.  1.
    10030    2    1    2    0    0  0.00000000000E+00  0.00000000000E+00  0.82983259920E+03  0.41342352145E+04  0.40500961305E+04 0.  0.
        4    1    3    3  502    0  0.13794479231E+04  0.18195775541E+02  0.19281471989E+04  0.23708565735E+04  0.12699999809E+01 0. -1.
       -4    1    3    3    0  502 -0.13794479231E+04 -0.18195775541E+02 -0.10983145997E+04  0.17633786410E+04  0.12699999809E+01 0.  1.
</event>
<event>
 5   0  0.2612363E-08  0.4000668E+04  0.7818609E-02  0.8004412E-01
        2   -1    0    0  501    0  0.00000000000E+00  0.00000000000E+00  0.18859383160E+04  0.18859383160E+04  0.25500000920E-02 0. -1.
       -2   -1    0    0    0  501  0.00000000000E+00  0.00000000000E+00 -0.21216686535E+04  0.21216686535E+04  0.25500000920E-02 0.  1.
    10030    2    1    2    0    0  0.00000000000E+00  0.00000000000E+00 -0.23573033749E+03  0.40076069694E+04  0.40006680479E+04 0.  0.
        4    1    3    3  502    0  0.94842875312E+03  0.39312702639E+03  0.16018735403E+04  0.19026472113E+04  0.12699999809E+01 0. -1.
       -4    1    3    3    0  502 -0.94842875312E+03 -0.39312702639E+03 -0.18376038778E+04  0.21049597581E+04  0.12699999809E+01 0.  1.
</event>
<event>
 5   0  0.2650452E-08  0.3998924E+04  0.7818609E-02  0.8004764E-01
        2   -1    0    0  501    0  0.00000000000E+00  0.00000000000E+00  0.30714853245E+04  0.30714853245E+04  0.25500000920E-02 0.  1.
       -2   -1    0    0    0  501  0.00000000000E+00  0.00000000000E+00 -0.13016010233E+04  0.13016010233E+04  0.25500000920E-02 0. -1.
    10030    2    1    2    0    0  0.00000000000E+00  0.00000000000E+00  0.17698843012E+04  0.43730863478E+04  0.39989240761E+04 0.  0.
        3    1    3    3  502    0  0.77872255733E+03  0.18155411610E+04  0.12224447833E+04  0.23231379182E+04  0.10100000352E+00 0.  1.
       -3    1    3    3    0  502 -0.77872255733E+03 -0.18155411610E+04  0.54743951790E+03  0.20499484297E+04  0.10100000352E+00 0. -1.
</event>
<event>
 5   0  0.8329875E-09  0.3990687E+04  0.7818609E-02  0.8006428E-01
       -1   -1    0    0    0  501  0.00000000000E+00  0.00000000000E+00  0.15646524482E+04  0.15646524482E+04  0.50400001928E-02 0. -1.
        1   -1    0    0  501    0  0.00000000000E+00  0.00000000000E+00 -0.25445881721E+04  0.25445881721E+04  0.50400001928E-02 0.  1.
    10030    2    1    2    0    0  0.00000000000E+00  0.00000000000E+00 -0.97993572387E+03  0.41092406203E+04  0.39906872156E+04 0.  0.
        2    1    3    3  502    0  0.57980987135E+02  0.20778069254E+03 -0.25325456656E+04  0.25417163806E+04  0.25500000920E-02 0.  1.
       -2    1    3    3    0  502 -0.57980987135E+02 -0.20778069254E+03  0.15526099417E+04  0.15675242397E+04  0.25500000920E-02 0. -1.
</event>
<event>
 5   0  0.8329875E-09  0.3978553E+04  0.7818609E-02  0.8008887E-01
        1   -1    0    0  501    0  0.00000000000E+00  0.00000000000E+00  0.25974939716E+04  0.25974939716E+04  0.50400001928E-02 0. -1.
       -1   -1    0    0    0  501  0.00000000000E+00  0.00000000000E+00 -0.15234766379E+04  0.15234766379E+04  0.50400001928E-02 0.  1.
    10030    2    1    2    0    0  0.00000000000E+00  0.00000000000E+00  0.10740173337E+04  0.41209706095E+04  0.39785531958E+04 0.  0.
        1    1    3    3  502    0  0.87191105183E+03 -0.10296572880E+04 -0.97709677306E+03  0.16658754807E+04  0.50400001928E-02 0.  1.
       -1    1    3    3    0  502 -0.87191105183E+03  0.10296572880E+04  0.20511141067E+04  0.24550951289E+04  0.50400001928E-02 0. -1.
</event>
<event>
 5   0  0.8329875E-09  0.4005192E+04  0.7818609E-02  0.8003500E-01
        3   -1    0    0  501    0  0.00000000000E+00  0.00000000000E+00  0.27051667612E+04  0.27051667631E+04  0.10100000352E+00 0. -1.
       -3   -1    0    0    0  501  0.00000000000E+00  0.00000000000E+00 -0.14824929730E+04  0.14824929764E+04  0.10100000352E+00 0.  1.
    10030    2    1    2    0    0  0.00000000000E+00  0.00000000000E+00  0.12226737882E+04  0.41876597395E+04  0.40051919930E+04 0.  0.
        3    1    3    3  502    0  0.16025302499E+04 -0.12009142399E+04  0.60128095534E+03  0.20908938306E+04  0.10100000352E+00 0.  1.
       -3    1    3    3    0  502 -0.16025302499E+04  0.12009142399E+04  0.62139283288E+03  0.20967659088E+04  0.10100000352E+00 0. -1.
</event>
<event>
 5   0  0.2746876E-08  0.4006456E+04  0.7818609E-02  0.8003245E-01
        2   -1    0    0  501    0  0.00000000000E+00  0.00000000000E+00  0.26191910461E+04  0.26191910461E+04  0.25500000920E-02 0. -1.
       -2   -1    0    0    0  501  0.00000000000E+00  0.00000000000E+00 -0.15321229897E+04  0.15321229897E+04  0.25500000920E-02 0.  1.
    10030    2    1    2    0    0  0.00000000000E+00  0.00000000000E+00  0.10870680564E+04  0.41513140359E+04  0.40064561978E+04 0.  0.
        1    1    3    3  502    0 -0.17782308673E+04  0.82638194147E+03  0.96811874381E+03  0.21868392792E+04  0.50400001928E-02 0. -1.
       -1    1    3    3    0  502  0.17782308673E+04 -0.82638194147E+03  0.11894931261E+03  0.19644747567E+04  0.50400001928E-02 0.  1.
</event>
<event>
 5   0  0.2587493E-08  0.4025530E+04  0.7818609E-02  0.7999416E-01
        2   -1    0    0  501    0  0.00000000000E+00  0.00000000000E+00  0.20215551831E+04  0.20215551831E+04  0.25500000920E-02 0. -1.
       -2   -1    0    0    0  501  0.00000000000E+00  0.00000000000E+00 -0.20040126051E+04  0.20040126051E+04  0.25500000920E-02 0.  1.
    10030    2    1    2    0    0  0.00000000000E+00  0.00000000000E+00  0.17542578018E+02  0.40255677882E+04  0.40255295646E+04 0.  0.
        5    1    3    3  502    0 -0.73100693790E+03 -0.68548949707E+03 -0.17367919005E+04  0.20051770968E+04  0.46999998093E+01 0.  1.
       -5    1    3    3    0  502  0.73100693790E+03  0.68548949707E+03  0.17543344785E+04  0.20203906915E+04  0.46999998093E+01 0. -1.
</event>
<event>
 5   0  0.2612363E-08  0.3999395E+04  0.7818609E-02  0.8004669E-01
       -2   -1    0    0    0  501  0.00000000000E+00  0.00000000000E+00  0.20204321743E+04  0.20204321743E+04  0.25500000920E-02 0. -1.
        2   -1    0    0  501    0  0.00000000000E+00  0.00000000000E+00 -0.19791751598E+04  0.19791751598E+04  0.25500000920E-02 0.  1.
    10030    2    1    2    0    0  0.00000000000E+00  0.00000000000E+00  0.41257014560E+02  0.39996073341E+04  0.39993945399E+04 0.  0.
        4    1    3    3  502    0  0.14824729911E+03  0.19941548316E+04  0.81056868593E+01  0.19996744908E+04  0.12699999809E+01 0. -1.
       -4    1    3    3    0  502 -0.14824729911E+03 -0.19941548316E+04  0.33151327701E+02  0.19999328433E+04  0.12699999809E+01 0.  1.
</event>
<event>
 5   0  0.8329875E-09  0.4006428E+04  0.7818609E-02  0.8003251E-01
        3   -1    0    0  501    0  0.00000000000E+00  0.00000000000E+00  0.22834410288E+04  0.22834410310E+04  0.10100000352E+00 0.  1.
       -3   -1    0    0    0  501  0.00000000000E+00  0.00000000000E+00 -0.17573764596E+04  0.17573764625E+04  0.10100000352E+00 0. -1.
    10030    2    1    2    0    0  0.00000000000E+00  0.00000000000E+00  0.52606456919E+03  0.40408174935E+04  0.40064275963E+04 0.  0.
        4    1    3    3  502    0  0.44466794836E+03  0.19492537387E+04  0.13728577797E+03  0.20040381034E+04  0.12699999809E+01 0.  1.
       -4    1    3    3    0  502 -0.44466794836E+03 -0.19492537387E+04  0.38877879121E+03  0.20367793900E+04  0.12699999809E+01 0. -1.
</event>
<event>
 5   0  0.8329875E-09  0.4001382E+04  0.7818609E-02  0.8004268E-01
       -1   -1    0    0    0  501  0.00000000000E+00  0.00000000000E+00  0.21010415327E+04  0.21010415327E+04  0.50400001928E-02 0.  1.
        1   -1    0    0  501    0  0.00000000000E+00  0.00000000000E+00 -0.19051335527E+04  0.19051335527E+04  0.50400001928E-02 0. -1.
    10030    2    1    2    0    0  0.00000000000E+00  0.00000000000E+00  0.19590798004E+03  0.40061750854E+04  0.40013821210E+04 0.  0.
        3    1    3    3  502    0  0.16712037757E+03 -0.10801267978E+04 -0.15798102971E+04  0.19210423486E+04  0.10100000352E+00 0. -1.
       -3    1    3    3    0  502 -0.16712037757E+03  0.10801267978E+04  0.17757182772E+04  0.20851327368E+04  0.10100000352E+00 0.  1.
</event>
<event>
 5   0  0.8329875E-09  0.3985969E+04  0.7818609E-02  0.8007383E-01
        1   -1    0    0  501    0  0.00000000000E+00  0.00000000000E+00  0.16855947447E+04  0.16855947447E+04  0.50400001928E-02 0.  1.
       -1   -1    0    0    0  501  0.00000000000E+00  0.00000000000E+00 -0.23564307004E+04  0.23564307004E+04  0.50400001928E-02 0. -1.
    10030    2    1    2    0    0  0.00000000000E+00  0.00000000000E+00 -0.67083595571E+03  0.40420254452E+04  0.39859689938E+04 0.  0.
        2    1    3    3  502    0 -0.76754672568E+03  0.52721309869E+03  0.14514370800E+04  0.17244567912E+04  0.25500000920E-02 0.  1.
       -2    1    3    3    0  502  0.76754672568E+03 -0.52721309869E+03 -0.21222730357E+04  0.23175686539E+04  0.25500000920E-02 0. -1.
</event>
<event>
 5   0  0.8329875E-09  0.4001775E+04  0.7818609E-02  0.8004188E-01
        1   -1    0    0  501    0  0.00000000000E+00  0.00000000000E+00  0.14867545239E+04  0.14867545240E+04  0.50400001928E-02 0.  1.
       -1   -1    0    0    0  501  0.00000000000E+00  0.00000000000E+00 -0.26928128063E+04  0.26928128063E+04  0.50400001928E-02 0. -1.
    10030    2    1    2    0    0  0.00000000000E+00  0.00000000000E+00 -0.12060582824E+04  0.41795673303E+04  0.40017754170E+04 0.  0.
        2    1    3    3  502    0  0.18617920782E+04  0.72406386081E+03 -0.48388461801E+03  0.20554032550E+04  0.25500000920E-02 0. -1.
       -2    1    3    3    0  502 -0.18617920782E+04 -0.72406386081E+03 -0.72217366437E+03  0.21241640753E+04  0.25500000920E-02 0.  1.
</event>
<event>
 5   0  0.8329875E-09  0.3971069E+04  0.7818609E-02  0.8010408E-01
        1   -1    0    0  501    0  0.00000000000E+00  0.00000000000E+00  0.14127148790E+04  0.14127148790E+04  0.50400001928E-02 0.  1.
       -1   -1    0    0    0  501  0.00000000000E+00  0.00000000000E+00 -0.27906181519E+04  0.27906181520E+04  0.50400001928E-02 0. -1.
    10030    2    1    2    0    0  0.00000000000E+00  0.00000000000E+00 -0.13779032729E+04  0.42033330310E+04  0.39710692691E+04 0.  0.
        5    1    3    3  502    0  0.15471768632E+03  0.18810412185E+04 -0.13415099308E+04  0.23155829963E+04  0.46999998093E+01 0. -1.
       -5    1    3    3    0  502 -0.15471768632E+03 -0.18810412185E+04 -0.36393342155E+02  0.18877500347E+04  0.46999998093E+01 0.  1.
</event>
<event>
 5   0  0.2746876E-08  0.4006494E+04  0.7818609E-02  0.8003238E-01
       -2   -1    0    0    0  501  0.00000000000E+00  0.00000000000E+00  0.17419728927E+04  0.17419728927E+04  0.25500000920E-02 0. -1.
        2   -1    0    0  501    0  0.00000000000E+00  0.00000000000E+00 -0.23037086623E+04  0.23037086623E+04  0.25500000920E-02 0.  1.
    10030    2    1    2    0    0  0.00000000000E+00  0.00000000000E+00 -0.56173576963E+03  0.40456815550E+04  0.40064937501E+04 0.  0.
        1    1    3    3  502    0 -0.15240884504E+04  0.12863946695E+04 -0.47069918529E+03  0.20491985198E+04  0.50400001928E-02 0.  1.
       -1    1    3    3    0  502  0.15240884504E+04 -0.12863946695E+04 -0.91036584337E+02  0.19964830353E+04  0.50400001928E-02 0. -1.
</event>
<event>
 5   0  0.8329875E-09  0.4004735E+04  0.7818609E-02  0.8003592E-01
        1   -1    0    0  501    0  0.00000000000E+00  0.00000000000E+00  0.27671251719E+04  0.27671251719E+04  0.50400001928E-02 0.  1.
       -1   -1    0    0    0  501  0.00000000000E+00  0.00000000000E+00 -0.14489679166E+04  0.14489679166E+04  0.50400001928E-02 0. -1.
    10030    2    1    2    0    0  0.00000000000E+00  0.00000000000E+00  0.13181572554E+04  0.42160930885E+04  0.40047349951E+04 0.  0.
        4    1    3    3  502    0  0.97916478963E+03  0.39568469134E+03 -0.11319250206E+04  0.15480910585E+04  0.12699999809E+01 0. -1.
       -4    1    3    3    0  502 -0.97916478963E+03 -0.39568469134E+03  0.24500822760E+04  0.26680020300E+04  0.12699999809E+01 0.  1.
</event>
<event>
 5   0  0.8329875E-09  0.3998900E+04  0.7818609E-02  0.8004768E-01
       -1   -1    0    0    0  501  0.00000000000E+00  0.00000000000E+00  0.19724980828E+04  0.19724980828E+04  0.50400001928E-02 0. -1.
        1   -1    0    0  501    0  0.00000000000E+00  0.00000000000E+00 -0.20267706867E+04  0.20267706867E+04  0.50400001928E-02 0.  1.
    10030    2    1    2    0    0  0.00000000000E+00  0.00000000000E+00 -0.54272603901E+02  0.39992687696E+04  0.39989004958E+04 0.  0.
        1    1    3    3  502    0  0.10685002328E+04  0.42637127552E+03 -0.16626205360E+04  0.20218289391E+04  0.50400001928E-02 0.  1.
       -1    1    3    3    0  502 -0.10685002328E+04 -0.42637127552E+03  0.16083479321E+04  0.19774398304E+04  0.50400001928E-02 0. -1.
</event>
<event>
 5   0  0.2612363E-08  0.3965110E+04  0.7818609E-02  0.8011622E-01
        2   -1    0    0  501    0  0.00000000000E+00  0.00000000000E+00  0.16813246809E+04  0.16813246809E+04  0.25500000920E-02 0. -1.
       -2   -1    0    0    0  501  0.00000000000E+00  0.00000000000E+00 -0.23377543415E+04  0.23377543415E+04  0.25500000920E-02 0.  1.
    10030    2    1    2    0    0  0.00000000000E+00  0.00000000000E+00 -0.65642966062E+03  0.40190790224E+04  0.39651098709E+04 0.  0.
        4    1    3    3  502    0  0.71655997473E+03  0.28345704428E+03  0.15233160732E+04  0.17071319706E+04  0.12699999809E+01 0. -1.
       -4    1    3    3    0  502 -0.71655997473E+03 -0.28345704428E+03 -0.21797457338E+04  0.23119470518E+04  0.12699999809E+01 0.  1.
</event>
<event>
 5   0  0.8329875E-09  0.4009458E+04  0.7818609E-02  0.8002641E-01
        1   -1    0    0  501    0  0.00000000000E+00  0.00000000000E+00  0.21622619767E+04  0.21622619767E+04  0.50400001928E-02 0. -1.
       -1   -1    0    0    0  501  0.00000000000E+00  0.00000000000E+00 -0.18586734082E+04  0.18586734082E+04  0.50400001928E-02 0.  1.
    10030    2    1    2    0    0  0.00000000000E+00  0.00000000000E+00  0.30358856854E+03  0.40209353849E+04  0.40094582366E+04 0.  0.
        5    1    3    3  502    0 -0.17774220343E+04  0.95153523552E+02 -0.77314373780E+03  0.19406330437E+04  0.46999998093E+01 0.  1.
       -5    1    3    3    0  502  0.17774220343E+04 -0.95153523552E+02  0.10767323063E+04  0.20803023412E+04  0.46999998093E+01 0. -1.
</event>
<event>
 5   0  0.8329875E-09  0.3999082E+04  0.7818609E-02  0.8004732E-01
        3   -1    0    0  501    0  0.00000000000E+00  0.00000000000E+00  0.15711993244E+04  0.15711993276E+04  0.10100000352E+00 0.  1.
       -3   -1    0    0    0  501  0.00000000000E+00  0.00000000000E+00 -0.25446570444E+04  0.25446570464E+04  0.10100000352E+00 0. -1.
    10030    2    1    2    0    0  0.00000000000E+00  0.00000000000E+00 -0.97345771999E+03  0.41158563740E+04  0.39990816144E+04 0.  0.
        3    1    3    3  502    0  0.36694259531E+03  0.78507983389E+03 -0.23413371802E+04  0.24965690488E+04  0.10100000352E+00 0. -1.
       -3    1    3    3    0  502 -0.36694259531E+03 -0.78507983389E+03  0.13678794602E+04  0.16192873252E+04  0.10100000352E+00 0.  1.
</event>
<event>
 5   0  0.8329875E-09  0.3994602E+04  0.7818609E-02  0.8005636E-01
        1   -1    0    0  501    0  0.00000000000E+00  0.00000000000E+00  0.22026018403E+04  0.22026018403E+04  0.50400001928E-02 0. -1.
       -1   -1    0    0    0  501  0.00000000000E+00  0.00000000000E+00 -0.18111360296E+04  0.18111360296E+04  0.50400001928E-02 0.  1.
    10030    2    1    2    0    0  0.00000000000E+00  0.00000000000E+00  0.39146581070E+03  0.40137378698E+04  0.39946021337E+04 0.  0.
        2    1    3    3  502    0 -0.34066271853E+01  0.13149993827E+04  0.17062562612E+04  0.21541925194E+04  0.25500000920E-02 0. -1.
       -2    1    3    3    0  502  0.34066271853E+01 -0.13149993827E+04 -0.13147904505E+04  0.18595453505E+04  0.25500000920E-02 0.  1.
</event>
<event>
 5   0  0.2746876E-08  0.4005255E+04  0.7818609E-02  0.8003487E-01
        2   -1    0    0  501    0  0.00000000000E+00  0.00000000000E+00  0.24861593371E+04  0.24861593371E+04  0.25500000920E-02 0. -1.
       -2   -1    0    0    0  501  0.00000000000E+00  0.00000000000E+00 -0.16131375152E+04  0.16131375152E+04  0.25500000920E-02 0.  1.
    10030    2    1    2    0    0  0.00000000000E+00  0.00000000000E+00  0.87302182193E+03  0.40992968523E+04  0.40052549958E+04 0.  0.
        1    1    3    3  502    0 -0.44742901529E+03 -0.77445387273E+02 -0.15597535853E+04  0.16245066200E+04  0.50400001928E-02 0.  1.
       -1    1    3    3    0  502  0.44742901529E+03  0.77445387273E+02  0.24327754072E+04  0.24747902323E+04  0.50400001928E-02 0. -1.
</event>
<event>
 5   0  0.8329875E-09  0.3897693E+04  0.7818609E-02  0.8025509E-01
        1   -1    0    0  501    0  0.00000000000E+00  0.00000000000E+00  0.13029989474E+04  0.13029989474E+04  0.50400001928E-02 0. -1.
       -1   -1    0    0    0  501  0.00000000000E+00  0.00000000000E+00 -0.29148170227E+04  0.29148170227E+04  0.50400001928E-02 0.  1.
    10030    2    1    2    0    0  0.00000000000E+00  0.00000000000E+00 -0.16118180753E+04  0.42178159701E+04  0.38976934269E+04 0.  0.
        4    1    3    3  502    0  0.19419975294E+04 -0.37591267531E+02 -0.97780923444E+03  0.21745988180E+04  0.12699999809E+01 0. -1.
       -4    1    3    3    0  502 -0.19419975294E+04  0.37591267531E+02 -0.63400884085E+03  0.20432171521E+04  0.12699999809E+01 0.  1.
</event>
<event>
 5   0  0.2746876E-08  0.4000998E+04  0.7818609E-02  0.8004345E-01
       -2   -1    0    0    0  501  0.00000000000E+00  0.00000000000E+00  0.20004879222E+04  0.20004879222E+04  0.25500000920E-02 0. -1.
        2   -1    0    0  501    0  0.00000000000E+00  0.00000000000E+00 -0.20005099570E+04  0.20005099570E+04  0.25500000920E-02 0.  1.
    10030    2    1    2    0    0  0.00000000000E+00  0.00000000000E+00 -0.22034788736E-01  0.40009978793E+04  0.40009978792E+04 0.  0.
        1    1    3    3  502    0 -0.17924113629E+03  0.10999419475E+04 -0.16613346869E+04  0.20005080891E+04  0.50400001928E-02 0.  1.
       -1    1    3    3    0  502  0.17924113629E+03 -0.10999419475E+04  0.16613126521E+04  0.20004897902E+04  0.50400001928E-02 0. -1.
</event>
<event>
 5   0  0.2650452E-08  0.4021273E+04  0.7818609E-02  0.8000269E-01
        2   -1    0    0  501    0  0.00000000000E+00  0.00000000000E+00  0.15709711488E+04  0.15709711488E+04  0.25500000920E-02 0.  1.
       -2   -1    0    0    0  501  0.00000000000E+00  0.00000000000E+00 -0.25733504373E+04  0.25733504373E+04  0.25500000920E-02 0. -1.
    10030    2    1    2    0    0  0.00000000000E+00  0.00000000000E+00 -0.10023792885E+04  0.41443215861E+04  0.40212730784E+04 0.  0.
        3    1    3    3  502    0  0.91794041513E+03  0.17847321728E+04 -0.37591458369E+03  0.20418607492E+04  0.10100000352E+00 0.  1.
       -3    1    3    3    0  502 -0.91794041513E+03 -0.17847321728E+04 -0.62646470480E+03  0.21024608370E+04  0.10100000352E+00 0. -1.
</event>
<event>
 5   0  0.2650452E-08  0.3994736E+04  0.7818609E-02  0.8005609E-01
       -2   -1    0    0    0  501  0.00000000000E+00  0.00000000000E+00  0.15851806314E+04  0.15851806314E+04  0.25500000920E-02 0. -1.
        2   -1    0    0  501    0  0.00000000000E+00  0.00000000000E+00 -0.25167342279E+04  0.25167342279E+04  0.25500000920E-02 0.  1.
    10030    2    1    2    0    0  0.00000000000E+00  0.00000000000E+00 -0.93155359658E+03  0.41019148593E+04  0.39947357121E+04 0.  0.
        3    1    3    3  502    0 -0.13055083897E+04  0.14562815196E+04 -0.88208051979E+03  0.21455008910E+04  0.10100000352E+00 0. -1.
       -3    1    3    3    0  502  0.13055083897E+04 -0.14562815196E+04 -0.49473076791E+02  0.19564139683E+04  0.10100000352E+00 0.  1.
</event>
<event>
 5   0  0.8329875E-09  0.4003864E+04  0.7818609E-02  0.8003768E-01
        1   -1    0    0  501    0  0.00000000000E+00  0.00000000000E+00  0.30723148172E+04  0.30723148172E+04  0.50400001928E-02 0.  1.
       -1   -1    0    0    0  501  0.00000000000E+00  0.00000000000E+00 -0.13044665048E+04  0.13044665048E+04  0.50400001928E-02 0. -1.
    10030    2    1    2    0    0  0.00000000000E+00  0.00000000000E+00  0.17678483123E+04  0.43767813220E+04  0.40038640193E+04 0.  0.
        1    1    3    3  502    0 -0.92264884117E+03  0.17762518763E+04  0.92453482084E+03  0.22047939240E+04  0.50400001928E-02 0. -1.
       -1    1    3    3    0  502  0.92264884117E+03 -0.17762518763E+04  0.84331349150E+03  0.21719873980E+04  0.50400001928E-02 0.  1.
</event>
<event>
 5   0  0.8329875E-09  0.4005049E+04  0.7818609E-02  0.8003529E-01
       -1   -1    0    0    0  501  0.00000000000E+00  0.00000000000E+00  0.15708017831E+04  0.15708017831E+04  0.50400001928E-02 0.  1.
        1   -1    0    0  501    0  0.00000000000E+00  0.00000000000E+00 -0.25529030257E+04  0.25529030257E+04  0.50400001928E-02 0. -1.
    10030    2    1    2    0    0  0.00000000000E+00  0.00000000000E+00 -0.98210124260E+03  0.41237048088E+04  0.40050491257E+04 0.  0.
        5    1    3    3  502    0  0.41779169252E+03  0.60926264870E+03 -0.24074651435E+04  0.25182655501E+04  0.46999998093E+01 0. -1.
       -5    1    3    3    0  502 -0.41779169252E+03 -0.60926264870E+03  0.14253639009E+04  0.16054392587E+04  0.46999998093E+01 0.  1.
</event>
<event>
 5   0  0.2650452E-08  0.4000758E+04  0.7818609E-02  0.8004394E-01
       -2   -1    0    0    0  501  0.00000000000E+00  0.00000000000E+00  0.23937819381E+04  0.23937819381E+04  0.25500000920E-02 0.  1.
        2   -1    0    0  501    0  0.00000000000E+00  0.00000000000E+00 -0.16716292898E+04  0.16716292898E+04  0.25500000920E-02 0. -1.
    10030    2    1    2    0    0  0.00000000000E+00  0.00000000000E+00  0.72215264832E+03  0.40654112278E+04  0.40007579287E+04 0.  0.
        3    1    3    3  502    0  0.18631488200E+04 -0.32575465737E+03 -0.30065888624E+03  0.19151593663E+04  0.10100000352E+00 0. -1.
       -3    1    3    3    0  502 -0.18631488200E+04  0.32575465737E+03  0.10228115346E+04  0.21502518615E+04  0.10100000352E+00 0.  1.
</event>
<event>
 5   0  0.8329875E-09  0.3990418E+04  0.7818609E-02  0.8006482E-01
       -1   -1    0    0    0  501  0.00000000000E+00  0.00000000000E+00  0.19797012528E+04  0.19797012528E+04  0.50400001928E-02 0.  1.
        1   -1    0    0  501    0  0.00000000000E+00  0.00000000000E+00 -0.20108387158E+04  0.20108387158E+04  0.50400001928E-02 0. -1.
    10030    2    1    2    0    0  0.00000000000E+00  0.00000000000E+00 -0.31137462991E+02  0.39905399686E+04  0.39904184868E+04 0.  0.
        5    1    3    3  502    0  0.23255492078E+03  0.18283873552E+04 -0.77963107611E+03  0.20012318248E+04  0.46999998093E+01 0. -1.
       -5    1    3    3    0  502 -0.23255492078E+03 -0.18283873552E+04  0.74849361312E+03  0.19893081438E+04  0.46999998093E+01 0.  1.
</event>
<event>
 5   0  0.2599332E-08  0.4002575E+04  0.7818609E-02  0.8004027E-01
       -2   -1    0    0    0  501  0.00000000000E+00  0.00000000000E+00  0.16368706867E+04  0.16368706867E+04  0.25500000920E-02 0.  1.
        2   -1    0    0  501    0  0.00000000000E+00  0.00000000000E+00 -0.24468349507E+04  0.24468349507E+04  0.25500000920E-02 0. -1.
    10030    2    1    2    0    0  0.00000000000E+00  0.00000000000E+00 -0.80996426400E+03  0.40837056373E+04  0.40025753738E+04 0.  0.
        2    1    3    3  502    0  0.19249986220E+04 -0.43384449001E+03 -0.74537876786E+03  0.21093672614E+04  0.25500000920E-02 0. -1.
       -2    1    3    3    0  502 -0.19249986220E+04  0.43384449001E+03 -0.64585496139E+02  0.19743383759E+04  0.25500000920E-02 0.  1.
</event>
<event>
 5   0  0.8329875E-09  0.4008440E+04  0.7818609E-02  0.8002846E-01
       -1   -1    0    0    0  501  0.00000000000E+00  0.00000000000E+00  0.22526627270E+04  0.22526627270E+04  0.50400001928E-02 0.  1.
        1   -1    0    0  501    0  0.00000000000E+00  0.00000000000E+00 -0.17831776737E+04  0.17831776737E+04  0.50400001928E-02 0. -1.
    10030    2    1    2    0    0  0.00000000000E+00  0.00000000000E+00  0.46948505330E+03  0.40358404008E+04  0.40084400364E+04 0.  0.
        3    1    3    3  502    0 -0.62659243012E+03 -0.11799683099E+04  0.17389275805E+04  0.21929004598E+04  0.10100000352E+00 0.  1.
       -3    1    3    3    0  502  0.62659243012E+03  0.11799683099E+04 -0.12694425272E+04  0.18429399410E+04  0.10100000352E+00 0. -1.
</event>
<event>
 5   0  0.8329875E-09  0.4022947E+04  0.7818609E-02  0.7999933E-01
        1   -1    0    0  501    0  0.00000000000E+00  0.00000000000E+00  0.29830559175E+04  0.29830559175E+04  0.50400001928E-02 0.  1.
       -1   -1    0    0    0  501  0.00000000000E+00  0.00000000000E+00 -0.13563361488E+04  0.13563361488E+04  0.50400001928E-02 0. -1.
    10030    2    1    2    0    0  0.00000000000E+00  0.00000000000E+00  0.16267197688E+04  0.43393920663E+04  0.40229474641E+04 0.  0.
        3    1    3    3  502    0 -0.17927657626E+04  0.34441047055E+02  0.17965578110E+04  0.25382701282E+04  0.10100000352E+00 0. -1.
       -3    1    3    3    0  502  0.17927657626E+04 -0.34441047055E+02 -0.16983804226E+03  0.18011219381E+04  0.10100000352E+00 0.  1.
</event>
<event>
 5   0  0.8329875E-09  0.4003668E+04  0.7818609E-02  0.8003807E-01
        1   -1    0    0  501    0  0.00000000000E+00  0.00000000000E+00  0.31131381661E+04  0.31131381661E+04  0.50400001928E-02 0.  1.
       -1   -1    0    0    0  501  0.00000000000E+00  0.00000000000E+00 -0.12872348376E+04  0.12872348376E+04  0.50400001928E-02 0. -1.
    10030    2    1    2    0    0  0.00000000000E+00  0.00000000000E+00  0.18259033285E+04  0.44003730037E+04  0.40036682688E+04 0.  0.
        4    1    3    3  502    0 -0.25632450871E+03  0.13486703236E+04 -0.68836864179E+03  0.15357300855E+04  0.12699999809E+01 0. -1.
       -4    1    3    3    0  502  0.25632450871E+03 -0.13486703236E+04  0.25142719703E+04  0.28646429182E+04  0.12699999809E+01 0.  1.
</event>
<event>
 5   0  0.2612363E-08  0.3999197E+04  0.7818609E-02  0.8004709E-01
        2   -1    0    0  501    0  0.00000000000E+00  0.00000000000E+00  0.23576485969E+04  0.23576485969E+04  0.25500000920E-02 0.  1.
       -2   -1    0    0    0  501  0.00000000000E+00  0.00000000000E+00 -0.16959244368E+04  0.16959244368E+04  0.25500000920E-02 0. -1.
    10030    2    1    2    0    0  0.00000000000E+00  0.00000000000E+00  0.66172416004E+03  0.40535730337E+04  0.39991968538E+04 0.  0.
        4    1    3    3  502    0 -0.75961274021E+03 -0.60577566791E+03 -0.14405897788E+04  0.17376064568E+04  0.12699999809E+01 0. -1.
       -4    1    3    3    0  502  0.75961274021E+03  0.60577566791E+03  0.21023139388E+04  0.23159665769E+04  0.12699999809E+01 0.  1.
</event>
<event>
 5   0  0.8329875E-09  0.3992678E+04  0.7818609E-02  0.8006025E-01
        1   -1    0    0  501    0  0.00000000000E+00  0.00000000000E+00  0.18437813622E+04  0.18437813623E+04  0.50400001928E-02 0.  1.
       -1   -1    0    0    0  501  0.00000000000E+00  0.00000000000E+00 -0.21615190829E+04  0.21615190829E+04  0.50400001928E-02 0. -1.
    10030    2    1    2    0    0  0.00000000000E+00  0.00000000000E+00 -0.31773772063E+03  0.40053004451E+04  0.39926775974E+04 0.  0.
        5    1    3    3  502    0 -0.91489601162E+03 -0.17507436787E+04  0.13050170978E+03  0.19796946549E+04  0.46999998093E+01 0.  1.
       -5    1    3    3    0  502  0.91489601162E+03  0.17507436787E+04 -0.44823943041E+03  0.20256057902E+04  0.46999998093E+01 0. -1.
</event>
<event>
 5   0  0.8329875E-09  0.3998256E+04  0.7818609E-02  0.8004898E-01
       -3   -1    0    0    0  501  0.00000000000E+00  0.00000000000E+00  0.19955561748E+04  0.19955561774E+04  0.10100000352E+00 0.  1.
        3   -1    0    0  501    0  0.00000000000E+00  0.00000000000E+00 -0.20027063245E+04  0.20027063270E+04  0.10100000352E+00 0. -1.
    10030    2    1    2    0    0  0.00000000000E+00  0.00000000000E+00 -0.71501496696E+01  0.39982625044E+04  0.39982561111E+04 0.  0.
        2    1    3    3  502    0 -0.32555134796E+02 -0.91530306508E+02  0.19931943409E+04  0.19955604011E+04  0.25500000920E-02 0.  1.
       -2    1    3    3    0  502  0.32555134796E+02  0.91530306508E+02 -0.20003444906E+04  0.20027021033E+04  0.25500000920E-02 0. -1.
</event>
<event>
 5   0  0.8329875E-09  0.3988283E+04  0.7818609E-02  0.8006915E-01
       -1   -1    0    0    0  501  0.00000000000E+00  0.00000000000E+00  0.14948601870E+04  0.14948601870E+04  0.50400001928E-02 0.  1.
        1   -1    0    0  501    0  0.00000000000E+00  0.00000000000E+00 -0.26601815409E+04  0.26601815409E+04  0.50400001928E-02 0. -1.
    10030    2    1    2    0    0  0.00000000000E+00  0.00000000000E+00 -0.11653213539E+04  0.41550417280E+04  0.39882825756E+04 0.  0.
        4    1    3    3  502    0  0.13414916621E+04  0.11855504556E+04  0.33239697089E+03  0.18208841592E+04  0.12699999809E+01 0.  1.
       -4    1    3    3    0  502 -0.13414916621E+04 -0.11855504556E+04 -0.14977183248E+04  0.23341575687E+04  0.12699999809E+01 0. -1.
</event>
<event>
 5   0  0.2599332E-08  0.4003498E+04  0.7818609E-02  0.8003841E-01
       -2   -1    0    0    0  501  0.00000000000E+00  0.00000000000E+00  0.16702717793E+04  0.16702717793E+04  0.25500000920E-02 0.  1.
        2   -1    0    0  501    0  0.00000000000E+00  0.00000000000E+00 -0.23990103158E+04  0.23990103158E+04  0.25500000920E-02 0. -1.
    10030    2    1    2    0    0  0.00000000000E+00  0.00000000000E+00 -0.72873853649E+03  0.40692820951E+04  0.40034980848E+04 0.  0.
        2    1    3    3  502    0  0.41052237354E+03  0.91204257581E+03 -0.21268303439E+04  0.23502675573E+04  0.25500000920E-02 0. -1.
       -2    1    3    3    0  502 -0.41052237354E+03 -0.91204257581E+03  0.13980918074E+04  0.17190145378E+04  0.25500000920E-02 0.  1.
</event>
<event>
 5   0  0.2612363E-08  0.3985485E+04  0.7818609E-02  0.8007481E-01
        2   -1    0    0  501    0  0.00000000000E+00  0.00000000000E+00  0.14292815198E+04  0.14292815198E+04  0.25500000920E-02 0.  1.
       -2   -1    0    0    0  501  0.00000000000E+00  0.00000000000E+00 -0.27783353054E+04  0.27783353054E+04  0.25500000920E-02 0. -1.
    10030    2    1    2    0    0  0.00000000000E+00  0.00000000000E+00 -0.13490537857E+04  0.42076168252E+04  0.39854853194E+04 0.  0.
        4    1    3    3  502    0 -0.14080754794E+04  0.22229739473E+03  0.79553602712E+03  0.16324741562E+04  0.12699999809E+01 0.  1.
       -4    1    3    3    0  502  0.14080754794E+04 -0.22229739473E+03 -0.21445898128E+04  0.25751426690E+04  0.12699999809E+01 0. -1.
</event>
<event>
 5   0  0.2612363E-08  0.4107361E+04  0.7818609E-02  0.7983232E-01
       -2   -1    0    0    0  501  0.00000000000E+00  0.00000000000E+00  0.14546464512E+04  0.14546464512E+04  0.25500000920E-02 0. -1.
        2   -1    0    0  501    0  0.00000000000E+00  0.00000000000E+00 -0.28994014316E+04  0.28994014316E+04  0.25500000920E-02 0.  1.
    10030    2    1    2    0    0  0.00000000000E+00  0.00000000000E+00 -0.14447549804E+04  0.43540478828E+04  0.41073611982E+04 0.  0.
        4    1    3    3  502    0  0.19430173610E+04  0.58813988682E+03 -0.10514699293E+04  0.22862230024E+04  0.12699999809E+01 0.  1.
       -4    1    3    3    0  502 -0.19430173610E+04 -0.58813988682E+03 -0.39328505107E+03  0.20678248804E+04  0.12699999809E+01 0. -1.
</event>
<event>
 5   0  0.8329875E-09  0.3997572E+04  0.7818609E-02  0.8005037E-01
        1   -1    0    0  501    0  0.00000000000E+00  0.00000000000E+00  0.19490628369E+04  0.19490628370E+04  0.50400001928E-02 0. -1.
       -1   -1    0    0    0  501  0.00000000000E+00  0.00000000000E+00 -0.20497774769E+04  0.20497774770E+04  0.50400001928E-02 0.  1.
    10030    2    1    2    0    0  0.00000000000E+00  0.00000000000E+00 -0.10071464000E+03  0.39988403139E+04  0.39975718152E+04 0.  0.
        4    1    3    3  502    0  0.15153603745E+04 -0.25521678028E+03 -0.13289220556E+04  0.20316220397E+04  0.12699999809E+01 0.  1.
       -4    1    3    3    0  502 -0.15153603745E+04  0.25521678028E+03  0.12282074156E+04  0.19672182742E+04  0.12699999809E+01 0. -1.
</event>
<event>
 5   0  0.2599332E-08  0.3996581E+04  0.7818609E-02  0.8005237E-01
       -2   -1    0    0    0  501  0.00000000000E+00  0.00000000000E+00  0.19282830050E+04  0.19282830050E+04  0.25500000920E-02 0.  1.
        2   -1    0    0  501    0  0.00000000000E+00  0.00000000000E+00 -0.20708391742E+04  0.20708391742E+04  0.25500000920E-02 0. -1.
    10030    2    1    2    0    0  0.00000000000E+00  0.00000000000E+00 -0.14255616926E+03  0.39991221792E+04  0.39965805313E+04 0.  0.
        2    1    3    3  502    0 -0.14406634562E+04  0.64084744037E+03 -0.12996447595E+04  0.20433485109E+04  0.25500000920E-02 0. -1.
       -2    1    3    3    0  502  0.14406634562E+04 -0.64084744037E+03  0.11570885903E+04  0.19557736683E+04  0.25500000920E-02 0.  1.
</event>
<event>
 5   0  0.2612363E-08  0.4031775E+04  0.7818609E-02  0.7998167E-01
        2   -1    0    0  501    0  0.00000000000E+00  0.00000000000E+00  0.19792165041E+04  0.19792165041E+04  0.25500000920E-02 0. -1.
       -2   -1    0    0    0  501  0.00000000000E+00  0.00000000000E+00 -0.20532379069E+04  0.20532379069E+04  0.25500000920E-02 0.  1.
    10030    2    1    2    0    0  0.00000000000E+00  0.00000000000E+00 -0.74021402794E+02  0.40324544110E+04  0.40317749700E+04 0.  0.
        4    1    3    3  502    0  0.21896514561E+03 -0.11588594512E+04  0.15981653549E+04  0.19862112368E+04  0.12699999809E+01 0. -1.
       -4    1    3    3    0  502 -0.21896514561E+03  0.11588594512E+04 -0.16721867577E+04  0.20462431742E+04  0.12699999809E+01 0.  1.
</event>
<event>
 5   0  0.2587493E-08  0.4004873E+04  0.7818609E-02  0.8003564E-01
       -2   -1    0    0    0  501  0.00000000000E+00  0.00000000000E+00  0.20822037424E+04  0.20822037425E+04  0.25500000920E-02 0.  1.
        2   -1    0    0  501    0  0.00000000000E+00  0.00000000000E+00 -0.19257248540E+04  0.19257248540E+04  0.25500000920E-02 0. -1.
    10030    2    1    2    0    0  0.00000000000E+00  0.00000000000E+00  0.15647888849E+03  0.40079285964E+04  0.40048727809E+04 0.  0.
        5    1    3    3  502    0  0.13118418202E+04  0.84493991652E+03  0.13341380229E+04  0.20529975105E+04  0.46999998093E+01 0.  1.
       -5    1    3    3    0  502 -0.13118418202E+04 -0.84493991652E+03 -0.11776591344E+04  0.19549310859E+04  0.46999998093E+01 0. -1.
</event>
<event>
 5   0  0.8329875E-09  0.3997013E+04  0.7818609E-02  0.8005149E-01
       -4   -1    0    0    0  501  0.00000000000E+00  0.00000000000E+00  0.20760374171E+04  0.20760378056E+04  0.12699999809E+01 0.  1.
        4   -1    0    0  501    0  0.00000000000E+00  0.00000000000E+00 -0.19238705318E+04  0.19238709510E+04  0.12699999809E+01 0. -1.
    10030    2    1    2    0    0  0.00000000000E+00  0.00000000000E+00  0.15216688533E+03  0.39999087566E+04  0.39970132974E+04 0.  0.
        1    1    3    3  502    0  0.15734995190E+04  0.10615792468E+04  0.70197843315E+03  0.20237650442E+04  0.50400001928E-02 0.  1.
       -1    1    3    3    0  502 -0.15734995190E+04 -0.10615792468E+04 -0.54981154782E+03  0.19761437123E+04  0.50400001928E-02 0. -1.
</event>
<event>
 5   0  0.2587493E-08  0.4002553E+04  0.7818609E-02  0.8004032E-01
        2   -1    0    0  501    0  0.00000000000E+00  0.00000000000E+00  0.28967325243E+04  0.28967325243E+04  0.25500000920E-02 0.  1.
       -2   -1    0    0    0  501  0.00000000000E+00  0.00000000000E+00 -0.13826291633E+04  0.13826291633E+04  0.25500000920E-02 0. -1.
    10030    2    1    2    0    0  0.00000000000E+00  0.00000000000E+00  0.15141033610E+04  0.42793616876E+04  0.40025526187E+04 0.  0.
        5    1    3    3  502    0 -0.11301421976E+04 -0.15030550108E+04  0.25096758138E+02  0.18807040409E+04  0.46999998093E+01 0. -1.
       -5    1    3    3    0  502  0.11301421976E+04  0.15030550108E+04  0.14890066028E+04  0.23986576466E+04  0.46999998093E+01 0.  1.
</event>
<event>
 5   0  0.8329875E-09  0.3997645E+04  0.7818609E-02  0.8005022E-01
       -3   -1    0    0    0  501  0.00000000000E+00  0.00000000000E+00  0.13338957197E+04  0.13338957235E+04  0.10100000352E+00 0. -1.
        3   -1    0    0  501    0  0.00000000000E+00  0.00000000000E+00 -0.29952046764E+04  0.29952046781E+04  0.10100000352E+00 0.  1.
    10030    2    1    2    0    0  0.00000000000E+00  0.00000000000E+00 -0.16613089567E+04  0.43291004016E+04  0.39976446612E+04 0.  0.
        5    1    3    3  502    0 -0.47634817621E+03  0.61492278325E+03 -0.28245762503E+04  0.29297253622E+04  0.46999998093E+01 0.  1.
       -5    1    3    3    0  502  0.47634817621E+03 -0.61492278325E+03  0.11632672936E+04  0.13993750394E+04  0.46999998093E+01 0. -1.
</event>
<event>
 5   0  0.8329875E-09  0.4001255E+04  0.7818609E-02  0.8004294E-01
        1   -1    0    0  501    0  0.00000000000E+00  0.00000000000E+00  0.34055869225E+04  0.34055869225E+04  0.50400001928E-02 0.  1.
       -1   -1    0    0    0  501  0.00000000000E+00  0.00000000000E+00 -0.11752774448E+04  0.11752774448E+04  0.50400001928E-02 0. -1.
    10030    2    1    2    0    0  0.00000000000E+00  0.00000000000E+00  0.22303094777E+04  0.45808643673E+04  0.40012545514E+04 0.  0.
        2    1    3    3  502    0 -0.84651381720E+03  0.30834340394E+03 -0.92989711227E+03  0.12947470552E+04  0.25500000920E-02 0. -1.
       -2    1    3    3    0  502  0.84651381720E+03 -0.30834340394E+03  0.31602065900E+04  0.32861173121E+04  0.25500000920E-02 0.  1.
</event>
<event>
 5   0  0.2746876E-08  0.3991905E+04  0.7818609E-02  0.8006182E-01
        2   -1    0    0  501    0  0.00000000000E+00  0.00000000000E+00  0.21307835039E+04  0.21307835039E+04  0.25500000920E-02 0. -1.
       -2   -1    0    0    0  501  0.00000000000E+00  0.00000000000E+00 -0.18696533144E+04  0.18696533144E+04  0.25500000920E-02 0.  1.
    10030    2    1    2    0    0  0.00000000000E+00  0.00000000000E+00  0.26113018950E+03  0.40004368183E+04  0.39919050291E+04 0.  0.
        1    1    3    3  502    0  0.23953397706E+03 -0.16753018045E+04 -0.92990913299E+03  0.19309955096E+04  0.50400001928E-02 0.  1.
       -1    1    3    3    0  502 -0.23953397706E+03  0.16753018045E+04  0.11910393225E+04  0.20694413087E+04  0.50400001928E-02 0. -1.
</event>
<event>
 5   0  0.8329875E-09  0.3995016E+04  0.7818609E-02  0.8005553E-01
        1   -1    0    0  501    0  0.00000000000E+00  0.00000000000E+00  0.27998084748E+04  0.27998084748E+04  0.50400001928E-02 0. -1.
       -1   -1    0    0    0  501  0.00000000000E+00  0.00000000000E+00 -0.14251112523E+04  0.14251112524E+04  0.50400001928E-02 0.  1.
    10030    2    1    2    0    0  0.00000000000E+00  0.00000000000E+00  0.13746972225E+04  0.42249197272E+04  0.39950161761E+04 0.  0.
        4    1    3    3  502    0  0.19188986757E+04  0.16801476209E+03  0.12811102506E+03  0.19304960853E+04  0.12699999809E+01 0. -1.
       -4    1    3    3    0  502 -0.19188986757E+04 -0.16801476209E+03  0.12465861974E+04  0.22944236419E+04  0.12699999809E+01 0.  1.
</event>
<event>
 5   0  0.2650452E-08  0.3969661E+04  0.7818609E-02  0.8010695E-01
       -2   -1    0    0    0  501  0.00000000000E+00  0.00000000000E+00  0.29232425704E+04  0.29232425704E+04  0.25500000920E-02 0. -1.
        2   -1    0    0  501    0  0.00000000000E+00  0.00000000000E+00 -0.13476654358E+04  0.13476654358E+04  0.25500000920E-02 0.  1.
    10030    2    1    2    0    0  0.00000000000E+00  0.00000000000E+00  0.15755771346E+04  0.42709080062E+04  0.39696614327E+04 0.  0.
        3    1    3    3  502    0 -0.19714338428E+04  0.58562416230E+02  0.54824472616E+03  0.20470840831E+04  0.10100000352E+00 0.  1.
       -3    1    3    3    0  502  0.19714338428E+04 -0.58562416230E+02  0.10273324084E+04  0.22238239231E+04  0.10100000352E+00 0. -1.
</event>
<event>
 5   0  0.8329875E-09  0.4000156E+04  0.7818609E-02  0.8004515E-01
       -1   -1    0    0    0  501  0.00000000000E+00  0.00000000000E+00  0.21217497180E+04  0.21217497180E+04  0.50400001928E-02 0.  1.
        1   -1    0    0  501    0  0.00000000000E+00  0.00000000000E+00 -0.18853834255E+04  0.18853834255E+04  0.50400001928E-02 0. -1.
    10030    2    1    2    0    0  0.00000000000E+00  0.00000000000E+00  0.23636629251E+03  0.40071331434E+04  0.40001558726E+04 0.  0.
        5    1    3    3  502    0 -0.19047907778E+04 -0.30142470101E+02  0.72846921227E+03  0.20395651397E+04  0.46999998093E+01 0.  1.
       -5    1    3    3    0  502  0.19047907778E+04  0.30142470101E+02 -0.49210291976E+03  0.19675680038E+04  0.46999998093E+01 0. -1.
</event>
<event>
 5   0  0.8329875E-09  0.4001526E+04  0.7818609E-02  0.8004239E-01
        1   -1    0    0  501    0  0.00000000000E+00  0.00000000000E+00  0.19216162874E+04  0.19216162874E+04  0.50400001928E-02 0. -1.
       -1   -1    0    0    0  501  0.00000000000E+00  0.00000000000E+00 -0.20831693433E+04  0.20831693433E+04  0.50400001928E-02 0.  1.
    10030    2    1    2    0    0  0.00000000000E+00  0.00000000000E+00 -0.16155305594E+03  0.40047856307E+04  0.40015257787E+04 0.  0.
        3    1    3    3  502    0 -0.26588393307E+03 -0.10767956415E+04 -0.17473264666E+04  0.20696214414E+04  0.10100000352E+00 0.  1.
       -3    1    3    3    0  502  0.26588393307E+03  0.10767956415E+04  0.15857734107E+04  0.19351641893E+04  0.10100000352E+00 0. -1.
</event>
<event>
 5   0  0.2599332E-08  0.4001115E+04  0.7818609E-02  0.8004322E-01
        2   -1    0    0  501    0  0.00000000000E+00  0.00000000000E+00  0.20046129337E+04  0.20046129337E+04  0.25500000920E-02 0. -1.
       -2   -1    0    0    0  501  0.00000000000E+00  0.00000000000E+00 -0.19965099049E+04  0.19965099049E+04  0.25500000920E-02 0.  1.
    10030    2    1    2    0    0  0.00000000000E+00  0.00000000000E+00  0.81030288580E+01  0.40011228386E+04  0.40011146335E+04 0.  0.
        2    1    3    3  502    0 -0.19925408509E+04 -0.11621300863E+03 -0.13198211268E+03  0.20002859255E+04  0.25500000920E-02 0.  1.
       -2    1    3    3    0  502  0.19925408509E+04  0.11621300863E+03  0.14008514154E+03  0.20008369131E+04  0.25500000920E-02 0. -1.
</event>
<event>
 5   0  0.2587493E-08  0.3990832E+04  0.7818609E-02  0.8006399E-01
        2   -1    0    0  501    0  0.00000000000E+00  0.00000000000E+00  0.24452129137E+04  0.24452129137E+04  0.25500000920E-02 0. -1.
       -2   -1    0    0    0  501  0.00000000000E+00  0.00000000000E+00 -0.16283590625E+04  0.16283590625E+04  0.25500000920E-02 0.  1.
    10030    2    1    2    0    0  0.00000000000E+00  0.00000000000E+00  0.81685385120E+03  0.40735719762E+04  0.39908317969E+04 0.  0.
        5    1    3    3  502    0  0.15869094757E+04  0.18839146620E+03 -0.81129061349E+03  0.17922018799E+04  0.46999998093E+01 0.  1.
       -5    1    3    3    0  502 -0.15869094757E+04 -0.18839146620E+03  0.16281444647E+04  0.22813700963E+04  0.46999998093E+01 0. -1.
</event>
<event>
 5   0  0.8329875E-09  0.3999752E+04  0.7818609E-02  0.8004597E-01
        1   -1    0    0  501    0  0.00000000000E+00  0.00000000000E+00  0.23579855671E+04  0.23579855671E+04  0.50400001928E-02 0. -1.
       -1   -1    0    0    0  501  0.00000000000E+00  0.00000000000E+00 -0.16961529493E+04  0.16961529493E+04  0.50400001928E-02 0.  1.
    10030    2    1    2    0    0  0.00000000000E+00  0.00000000000E+00  0.66183261780E+03  0.40541385164E+04  0.39997520793E+04 0.  0.
        4    1    3    3  502    0  0.16577542918E+04 -0.94347760469E+03 -0.27825768111E+03  0.19276224300E+04  0.12699999809E+01 0.  1.
       -4    1    3    3    0  502 -0.16577542918E+04  0.94347760469E+03  0.94009029891E+03  0.21265160864E+04  0.12699999809E+01 0. -1.
</event>
<event>
 5   0  0.2612363E-08  0.3998554E+04  0.7818609E-02  0.8004838E-01
       -2   -1    0    0    0  501  0.00000000000E+00  0.00000000000E+00  0.14689348069E+04  0.14689348069E+04  0.25500000920E-02 0.  1.
        2   -1    0    0  501    0  0.00000000000E+00  0.00000000000E+00 -0.27210935468E+04  0.27210935468E+04  0.25500000920E-02 0. -1.
    10030    2    1    2    0    0  0.00000000000E+00  0.00000000000E+00 -0.12521587399E+04  0.41900283537E+04  0.39985542506E+04 0.  0.
        4    1    3    3  502    0  0.18034451347E+03  0.10043799559E+04  0.11754933541E+04  0.15566275977E+04  0.12699999809E+01 0.  1.
       -4    1    3    3    0  502 -0.18034451347E+03 -0.10043799559E+04 -0.24276520941E+04  0.26334007561E+04  0.12699999809E+01 0. -1.
</event>
<event>
 5   0  0.8329875E-09  0.4000662E+04  0.7818609E-02  0.8004413E-01
       -1   -1    0    0    0  501  0.00000000000E+00  0.00000000000E+00  0.21939611373E+04  0.21939611373E+04  0.50400001928E-02 0.  1.
        1   -1    0    0  501    0  0.00000000000E+00  0.00000000000E+00 -0.18237894673E+04  0.18237894674E+04  0.50400001928E-02 0. -1.
    10030    2    1    2    0    0  0.00000000000E+00  0.00000000000E+00  0.37017166999E+03  0.40177506047E+04  0.40006615523E+04 0.  0.
        5    1    3    3  502    0 -0.13995943865E+04 -0.13335608221E+04  0.70114092614E+03  0.20564215524E+04  0.46999998093E+01 0.  1.
       -5    1    3    3    0  502  0.13995943865E+04  0.13335608221E+04 -0.33096925615E+03  0.19613290523E+04  0.46999998093E+01 0. -1.
</event>
<event>
 5   0  0.2599332E-08  0.4002782E+04  0.7818609E-02  0.8003986E-01
        2   -1    0    0  501    0  0.00000000000E+00  0.00000000000E+00  0.24522323237E+04  0.24522323237E+04  0.25500000920E-02 0. -1.
       -2   -1    0    0    0  501  0.00000000000E+00  0.00000000000E+00 -0.16334363444E+04  0.16334363444E+04  0.25500000920E-02 0.  1.
    10030    2    1    2    0    0  0.00000000000E+00  0.00000000000E+00  0.81879597934E+03  0.40856686680E+04  0.40027817339E+04 0.  0.
        2    1    3    3  502    0 -0.36889567873E+03 -0.16937062441E+03 -0.15909787552E+04  0.16419451360E+04  0.25500000920E-02 0.  1.
       -2    1    3    3    0  502  0.36889567873E+03  0.16937062441E+03  0.24097747345E+04  0.24437235321E+04  0.25500000920E-02 0. -1.
</event>
<event>
 5   0  0.2650452E-08  0.3997388E+04  0.7818609E-02  0.8005074E-01
       -2   -1    0    0    0  501  0.00000000000E+00  0.00000000000E+00  0.17170172805E+04  0.17170172805E+04  0.25500000920E-02 0.  1.
        2   -1    0    0  501    0  0.00000000000E+00  0.00000000000E+00 -0.23265793620E+04  0.23265793620E+04  0.25500000920E-02 0. -1.
    10030    2    1    2    0    0  0.00000000000E+00  0.00000000000E+00 -0.60956208154E+03  0.40435966425E+04  0.39973876314E+04 0.  0.
        3    1    3    3  502    0 -0.14750843015E+04 -0.11951164415E+04 -0.93698564797E+03  0.21171015847E+04  0.10100000352E+00 0. -1.
       -3    1    3    3    0  502  0.14750843015E+04  0.11951164415E+04  0.32742356643E+03  0.19264950577E+04  0.10100000352E+00 0.  1.
</event>
<event>
 5   0  0.8329875E-09  0.3896640E+04  0.7818609E-02  0.8025728E-01
       -1   -1    0    0    0  501  0.00000000000E+00  0.00000000000E+00  0.21791570416E+04  0.21791570416E+04  0.50400001928E-02 0. -1.
        1   -1    0    0  501    0  0.00000000000E+00  0.00000000000E+00 -0.17419349937E+04  0.17419349937E+04  0.50400001928E-02 0.  1.
    10030    2    1    2    0    0  0.00000000000E+00  0.00000000000E+00  0.43722204792E+03  0.39210920354E+04  0.38966395305E+04 0.  0.
        2    1    3    3  502    0  0.18403358863E+04  0.48590583471E+03 -0.19994294985E+03  0.19138750842E+04  0.25500000920E-02 0.  1.
       -2    1    3    3    0  502 -0.18403358863E+04 -0.48590583471E+03  0.63716499777E+03  0.20072169512E+04  0.25500000920E-02 0. -1.
</event>
<event>
 5   0  0.8329875E-09  0.4013880E+04  0.7818609E-02  0.8001752E-01
        1   -1    0    0  501    0  0.00000000000E+00  0.00000000000E+00  0.16833447914E+04  0.16833447914E+04  0.50400001928E-02 0. -1.
       -1   -1    0    0    0  501  0.00000000000E+00  0.00000000000E+00 -0.23927409328E+04  0.23927409328E+04  0.50400001928E-02 0.  1.
    10030    2    1    2    0    0  0.00000000000E+00  0.00000000000E+00 -0.70939614138E+03  0.40760857243E+04  0.40138799118E+04 0.  0.
        5    1    3    3  502    0 -0.12702323549E+04  0.13769243174E+04 -0.10858388275E+04  0.21652895558E+04  0.46999998093E+01 0.  1.
       -5    1    3    3    0  502  0.12702323549E+04 -0.13769243174E+04  0.37644268609E+03  0.19107961684E+04  0.46999998093E+01 0. -1.
</event>
<event>
 5   0  0.2650452E-08  0.3998056E+04  0.7818609E-02  0.8004939E-01
       -2   -1    0    0    0  501  0.00000000000E+00  0.00000000000E+00  0.22675059008E+04  0.22675059008E+04  0.25500000920E-02 0.  1.
        2   -1    0    0  501    0  0.00000000000E+00  0.00000000000E+00 -0.17623383731E+04  0.17623383731E+04  0.25500000920E-02 0. -1.
    10030    2    1    2    0    0  0.00000000000E+00  0.00000000000E+00  0.50516752771E+03  0.40298442739E+04  0.39980558577E+04 0.  0.
        3    1    3    3  502    0 -0.67217663588E+03 -0.16445479888E+04  0.11762503280E+04  0.21307098258E+04  0.10100000352E+00 0.  1.
       -3    1    3    3    0  502  0.67217663588E+03  0.16445479888E+04 -0.67108280033E+03  0.18991344482E+04  0.10100000352E+00 0. -1.
</event>
<event>
 5   0  0.2650452E-08  0.3997858E+04  0.7818609E-02  0.8004979E-01
        2   -1    0    0  501    0  0.00000000000E+00  0.00000000000E+00  0.27978903825E+04  0.27978903825E+04  0.25500000920E-02 0.  1.
       -2   -1    0    0    0  501  0.00000000000E+00  0.00000000000E+00 -0.14281179009E+04  0.14281179009E+04  0.25500000920E-02 0. -1.
    10030    2    1    2    0    0  0.00000000000E+00  0.00000000000E+00  0.13697724815E+04  0.42260082834E+04  0.39978580965E+04 0.  0.
        3    1    3    3  502    0  0.12824350152E+04  0.37336782018E+03 -0.88715359966E+03  0.16034602012E+04  0.10100000352E+00 0.  1.
       -3    1    3    3    0  502 -0.12824350152E+04 -0.37336782018E+03  0.22569260812E+04  0.26225480822E+04  0.10100000352E+00 0. -1.
</event>
<event>
 5   0  0.2599332E-08  0.4052844E+04  0.7818609E-02  0.7993970E-01
        2   -1    0    0  501    0  0.00000000000E+00  0.00000000000E+00  0.15664347071E+04  0.15664347071E+04  0.25500000920E-02 0. -1.
       -2   -1    0    0    0  501  0.00000000000E+00  0.00000000000E+00 -0.26214857902E+04  0.26214857902E+04  0.25500000920E-02 0.  1.
    10030    2    1    2    0    0  0.00000000000E+00  0.00000000000E+00 -0.10550510831E+04  0.41879204972E+04  0.40528441005E+04 0.  0.
        2    1    3    3  502    0 -0.50574828217E+03 -0.55015792397E+03 -0.24738987984E+04  0.25843046126E+04  0.25500000920E-02 0.  1.
       -2    1    3    3    0  502  0.50574828217E+03  0.55015792397E+03  0.14188477153E+04  0.16036158846E+04  0.25500000920E-02 0. -1.
</event>
<event>
 5   0  0.8329875E-09  0.3995997E+04  0.7818609E-02  0.8005355E-01
        1   -1    0    0  501    0  0.00000000000E+00  0.00000000000E+00  0.15444209361E+04  0.15444209361E+04  0.50400001928E-02 0.  1.
       -1   -1    0    0    0  501  0.00000000000E+00  0.00000000000E+00 -0.25847863408E+04  0.25847863408E+04  0.50400001928E-02 0. -1.
    10030    2    1    2    0    0  0.00000000000E+00  0.00000000000E+00 -0.10403654047E+04  0.41292072769E+04  0.39959970671E+04 0.  0.
        1    1    3    3  502    0 -0.10279521938E+04  0.54038307488E+03 -0.22002034026E+04  0.24878895862E+04  0.50400001928E-02 0. -1.
       -1    1    3    3    0  502  0.10279521938E+04 -0.54038307488E+03  0.11598379979E+04  0.16413176907E+04  0.50400001928E-02 0.  1.
</event>
<event>
 5   0  0.2612363E-08  0.4028501E+04  0.7818609E-02  0.7998821E-01
        2   -1    0    0  501    0  0.00000000000E+00  0.00000000000E+00  0.16255979542E+04  0.16255979542E+04  0.25500000920E-02 0. -1.
       -2   -1    0    0    0  501  0.00000000000E+00  0.00000000000E+00 -0.24958235923E+04  0.24958235923E+04  0.25500000920E-02 0.  1.
    10030    2    1    2    0    0  0.00000000000E+00  0.00000000000E+00 -0.87022563815E+03  0.41214215465E+04  0.40285013221E+04 0.  0.
        4    1    3    3  502    0 -0.72879075758E+03 -0.14940705760E+04 -0.15988118375E+04  0.23064222855E+04  0.12699999809E+01 0.  1.
       -4    1    3    3    0  502  0.72879075758E+03  0.14940705760E+04  0.72858619935E+03  0.18149992610E+04  0.12699999809E+01 0. -1.
</event>
<event>
 5   0  0.2650452E-08  0.4000238E+04  0.7818609E-02  0.8004499E-01
       -2   -1    0    0    0  501  0.00000000000E+00  0.00000000000E+00  0.18454461702E+04  0.18454461702E+04  0.25500000920E-02 0. -1.
        2   -1    0    0  501    0  0.00000000000E+00  0.00000000000E+00 -0.21677551703E+04  0.21677551703E+04  0.25500000920E-02 0.  1.
    10030    2    1    2    0    0  0.00000000000E+00  0.00000000000E+00 -0.32230900013E+03  0.40132013406E+04  0.40002377315E+04 0.  0.
        3    1    3    3  502    0 -0.65038681384E+02 -0.35007794730E+03 -0.21357021862E+04  0.21651809249E+04  0.10100000352E+00 0.  1.
       -3    1    3    3    0  502  0.65038681384E+02  0.35007794730E+03  0.18133931861E+04  0.18480204157E+04  0.10100000352E+00 0. -1.
</event>
<event>
 5   0  0.8329875E-09  0.4005630E+04  0.7818609E-02  0.8003412E-01
        1   -1    0    0  501    0  0.00000000000E+00  0.00000000000E+00  0.19348411272E+04  0.19348411272E+04  0.50400001928E-02 0. -1.
       -1   -1    0    0    0  501  0.00000000000E+00  0.00000000000E+00 -0.20731766746E+04  0.20731766746E+04  0.50400001928E-02 0.  1.
    10030    2    1    2    0    0  0.00000000000E+00  0.00000000000E+00 -0.13833554740E+03  0.40080178018E+04  0.40056297852E+04 0.  0.
        2    1    3    3  502    0  0.19176904900E+04  0.22114536893E+03 -0.60317630488E+03  0.20224400472E+04  0.25500000920E-02 0.  1.
       -2    1    3    3    0  502 -0.19176904900E+04 -0.22114536893E+03  0.46484075748E+03  0.19855777546E+04  0.25500000920E-02 0. -1.
</event>
<event>
 5   0  0.8329875E-09  0.4005139E+04  0.7818609E-02  0.8003511E-01
        1   -1    0    0  501    0  0.00000000000E+00  0.00000000000E+00  0.31894414389E+04  0.31894414389E+04  0.50400001928E-02 0. -1.
       -1   -1    0    0    0  501  0.00000000000E+00  0.00000000000E+00 -0.12573624951E+04  0.12573624951E+04  0.50400001928E-02 0.  1.
    10030    2    1    2    0    0  0.00000000000E+00  0.00000000000E+00  0.19320789438E+04  0.44468039341E+04  0.40051387220E+04 0.  0.
        1    1    3    3  502    0 -0.12577931820E+04  0.74599641775E+03  0.24850192223E+04  0.28833790731E+04  0.50400001928E-02 0.  1.
       -1    1    3    3    0  502  0.12577931820E+04 -0.74599641775E+03 -0.55294027850E+03  0.15634248609E+04  0.50400001928E-02 0. -1.
</event>
<event>
 5   0  0.2746876E-08  0.4000507E+04  0.7818609E-02  0.8004444E-01
        2   -1    0    0  501    0  0.00000000000E+00  0.00000000000E+00  0.20752547859E+04  0.20752547859E+04  0.25500000920E-02 0. -1.
       -2   -1    0    0    0  501  0.00000000000E+00  0.00000000000E+00 -0.19279626114E+04  0.19279626114E+04  0.25500000920E-02 0.  1.
    10030    2    1    2    0    0  0.00000000000E+00  0.00000000000E+00  0.14729217449E+03  0.40032173973E+04  0.40005067861E+04 0.  0.
        1    1    3    3  502    0 -0.13764626758E+04 -0.38366427632E+03 -0.13270043663E+04  0.19500739379E+04  0.50400001928E-02 0.  1.
       -1    1    3    3    0  502  0.13764626758E+04  0.38366427632E+03  0.14742965408E+04  0.20531434595E+04  0.50400001928E-02 0. -1.
</event>
<event>
 5   0  0.8329875E-09  0.3992722E+04  0.7818609E-02  0.8006016E-01
        1   -1    0    0  501    0  0.00000000000E+00  0.00000000000E+00  0.23988895242E+04  0.23988895242E+04  0.50400001928E-02 0.  1.
       -1   -1    0    0    0  501  0.00000000000E+00  0.00000000000E+00 -0.16613761282E+04  0.16613761282E+04  0.50400001928E-02 0. -1.
    10030    2    1    2    0    0  0.00000000000E+00  0.00000000000E+00  0.73751339607E+03  0.40602656524E+04  0.39927222742E+04 0.  0.
        5    1    3    3  502    0  0.12949040388E+04 -0.10153589964E+04 -0.78072140165E+03  0.18213397152E+04  0.46999998093E+01 0. -1.
       -5    1    3    3    0  502 -0.12949040388E+04  0.10153589964E+04  0.15182347977E+04  0.22389259372E+04  0.46999998093E+01 0.  1.
</event>
<event>
 5   0  0.8329875E-09  0.4011736E+04  0.7818609E-02  0.8002183E-01
       -1   -1    0    0    0  501  0.00000000000E+00  0.00000000000E+00  0.19620300397E+04  0.19620300397E+04  0.50400001928E-02 0. -1.
        1   -1    0    0  501    0  0.00000000000E+00  0.00000000000E+00 -0.20506852686E+04  0.20506852686E+04  0.50400001928E-02 0.  1.
    10030    2    1    2    0    0  0.00000000000E+00  0.00000000000E+00 -0.88655228926E+02  0.40127153083E+04  0.40117358333E+04 0.  0.
        1    1    3    3  502    0  0.61450428288E+03 -0.12288371103E+04  0.14174839380E+04  0.19740610101E+04  0.50400001928E-02 0. -1.
       -1    1    3    3    0  502 -0.61450428288E+03  0.12288371103E+04 -0.15061391669E+04  0.20386542982E+04  0.50400001928E-02 0.  1.
</event>
<event>
 5   0  0.2650452E-08  0.4009672E+04  0.7818609E-02  0.8002598E-01
        2   -1    0    0  501    0  0.00000000000E+00  0.00000000000E+00  0.19689896330E+04  0.19689896330E+04  0.25500000920E-02 0. -1.
       -2   -1    0    0    0  501  0.00000000000E+00  0.00000000000E+00 -0.20413345476E+04  0.20413345476E+04  0.25500000920E-02 0.  1.
    10030    2    1    2    0    0  0.00000000000E+00  0.00000000000E+00 -0.72344914632E+02  0.40103241806E+04  0.40096715884E+04 0.  0.
        3    1    3    3  502    0 -0.54538005204E+03  0.18715123687E+04  0.43227179396E+03  0.19967115118E+04  0.10100000352E+00 0. -1.
       -3    1    3    3    0  502  0.54538005204E+03 -0.18715123687E+04 -0.50461670859E+03  0.20136126688E+04  0.10100000352E+00 0.  1.
</event>
<event>
 5   0  0.8329875E-09  0.4001511E+04  0.7818609E-02  0.8004242E-01
        1   -1    0    0  501    0  0.00000000000E+00  0.00000000000E+00  0.28187964204E+04  0.28187964205E+04  0.50400001928E-02 0.  1.
       -1   -1    0    0    0  501  0.00000000000E+00  0.00000000000E+00 -0.14201176087E+04  0.14201176087E+04  0.50400001928E-02 0. -1.
    10030    2    1    2    0    0  0.00000000000E+00  0.00000000000E+00  0.13986788117E+04  0.42389140292E+04  0.40015109307E+04 0.  0.
        1    1    3    3  502    0  0.37951203455E+03 -0.17695638315E+04 -0.20428500923E+03  0.18212956661E+04  0.50400001928E-02 0. -1.
       -1    1    3    3    0  502 -0.37951203455E+03  0.17695638315E+04  0.16029638210E+04  0.24176183631E+04  0.50400001928E-02 0.  1.
</event>
<event>
 5   0  0.8329875E-09  0.4007091E+04  0.7818609E-02  0.8003118E-01
        1   -1    0    0  501    0  0.00000000000E+00  0.00000000000E+00  0.11758925200E+04  0.11758925200E+04  0.50400001928E-02 0.  1.
       -1   -1    0    0    0  501  0.00000000000E+00  0.00000000000E+00 -0.34137426436E+04  0.34137426436E+04  0.50400001928E-02 0. -1.
    10030    2    1    2    0    0  0.00000000000E+00  0.00000000000E+00 -0.22378501235E+04  0.45896351636E+04  0.40070909348E+04 0.  0.
        1    1    3    3  502    0  0.31562875917E+02 -0.60809276998E+03 -0.33051944251E+04  0.33608158563E+04  0.50400001928E-02 0. -1.
       -1    1    3    3    0  502 -0.31562875917E+02  0.60809276998E+03  0.10673443016E+04  0.12288193074E+04  0.50400001928E-02 0.  1.
</event>
<event>
 5   0  0.8329875E-09  0.4003382E+04  0.7818609E-02  0.8003865E-01
        1   -1    0    0  501    0  0.00000000000E+00  0.00000000000E+00  0.18757085561E+04  0.18757085561E+04  0.50400001928E-02 0.  1.
       -1   -1    0    0    0  501  0.00000000000E+00  0.00000000000E+00 -0.21361354674E+04  0.21361354674E+04  0.50400001928E-02 0. -1.
    10030    2    1    2    0    0  0.00000000000E+00  0.00000000000E+00 -0.26042691129E+03  0.40118440234E+04  0.40033823565E+04 0.  0.
        2    1    3    3  502    0 -0.55279946147E+03 -0.56155156462E+03 -0.19741679339E+04  0.21256214234E+04  0.25500000920E-02 0. -1.
       -2    1    3    3    0  502  0.55279946147E+03  0.56155156462E+03  0.17137410226E+04  0.18862226000E+04  0.25500000920E-02 0.  1.
</event>
<event>
 5   0  0.2746876E-08  0.3997376E+04  0.7818609E-02  0.8005076E-01
       -2   -1    0    0    0  501  0.00000000000E+00  0.00000000000E+00  0.18918833756E+04  0.18918833756E+04  0.25500000920E-02 0. -1.
        2   -1    0    0  501    0  0.00000000000E+00  0.00000000000E+00 -0.21115223304E+04  0.21115223304E+04  0.25500000920E-02 0.  1.
    10030    2    1    2    0    0  0.00000000000E+00  0.00000000000E+00 -0.21963895478E+03  0.40034057059E+04  0.39973761364E+04 0.  0.
        1    1    3    3  502    0 -0.62153342662E+03  0.13115906035E+03  0.17880976995E+04  0.18975773719E+04  0.50400001928E-02 0. -1.
       -1    1    3    3    0  502  0.62153342662E+03 -0.13115906035E+03 -0.20077366543E+04  0.21058283340E+04  0.50400001928E-02 0.  1.
</event>
<event>
 5   0  0.2650452E-08  0.3998929E+04  0.7818609E-02  0.8004763E-01
        2   -1    0    0  501    0  0.00000000000E+00  0.00000000000E+00  0.20119899862E+04  0.20119899862E+04  0.25500000920E-02 0.  1.
       -2   -1    0    0    0  501  0.00000000000E+00  0.00000000000E+00 -0.19870173987E+04  0.19870173987E+04  0.25500000920E-02 0. -1.
    10030    2    1    2    0    0  0.00000000000E+00  0.00000000000E+00  0.24972587444E+02  0.39990073849E+04  0.39989294110E+04 0.  0.
        3    1    3    3  502    0 -0.17371682383E+04  0.98566207491E+03  0.10509416927E+03  0.20000820005E+04  0.10100000352E+00 0. -1.
       -3    1    3    3    0  502  0.17371682383E+04 -0.98566207491E+03 -0.80121581822E+02  0.19989253844E+04  0.10100000352E+00 0.  1.
</event>
<event>
 5   0  0.2599332E-08  0.4000510E+04  0.7818609E-02  0.8004444E-01
        2   -1    0    0  501    0  0.00000000000E+00  0.00000000000E+00  0.27984377785E+04  0.27984377785E+04  0.25500000920E-02 0. -1.
       -2   -1    0    0    0  501  0.00000000000E+00  0.00000000000E+00 -0.14297332246E+04  0.14297332246E+04  0.25500000920E-02 0.  1.
    10030    2    1    2    0    0  0.00000000000E+00  0.00000000000E+00  0.13687045539E+04  0.42281710031E+04  0.40005097020E+04 0.  0.
        2    1    3    3  502    0  0.14898565337E+04 -0.10608788782E+04  0.15403062209E+04  0.23911670246E+04  0.25500000920E-02 0. -1.
       -2    1    3    3    0  502 -0.14898565337E+04  0.10608788782E+04 -0.17160166701E+03  0.18370039786E+04  0.25500000920E-02 0.  1.
</event>
<event>
 5   0  0.2612363E-08  0.3988726E+04  0.7818609E-02  0.8006825E-01
       -2   -1    0    0    0  501  0.00000000000E+00  0.00000000000E+00  0.18207944453E+04  0.18207944453E+04  0.25500000920E-02 0.  1.
        2   -1    0    0  501    0  0.00000000000E+00  0.00000000000E+00 -0.21844771678E+04  0.21844771678E+04  0.25500000920E-02 0. -1.
    10030    2    1    2    0    0  0.00000000000E+00  0.00000000000E+00 -0.36368272257E+03  0.40052716131E+04  0.39887260588E+04 0.  0.
        4    1    3    3  502    0  0.16670799893E+04  0.46577817360E+03  0.81291279483E+03  0.19123111208E+04  0.12699999809E+01 0.  1.
       -4    1    3    3    0  502 -0.16670799893E+04 -0.46577817360E+03 -0.11765955174E+04  0.20929604923E+04  0.12699999809E+01 0. -1.
</event>
<event>
 5   0  0.2650452E-08  0.3995468E+04  0.7818609E-02  0.8005461E-01
       -2   -1    0    0    0  501  0.00000000000E+00  0.00000000000E+00  0.28518853367E+04  0.28518853367E+04  0.25500000920E-02 0. -1.
        2   -1    0    0  501    0  0.00000000000E+00  0.00000000000E+00 -0.13994043438E+04  0.13994043438E+04  0.25500000920E-02 0.  1.
    10030    2    1    2    0    0  0.00000000000E+00  0.00000000000E+00  0.14524809929E+04  0.42512896805E+04  0.39954677965E+04 0.  0.
        3    1    3    3  502    0  0.37769804006E+03 -0.95206514193E+03 -0.10987635590E+04  0.15021202391E+04  0.10100000352E+00 0.  1.
       -3    1    3    3    0  502 -0.37769804006E+03  0.95206514193E+03  0.25512445519E+04  0.27491694414E+04  0.10100000352E+00 0. -1.
</event>
<event>
 5   0  0.8329875E-09  0.4004696E+04  0.7818609E-02  0.8003600E-01
       -1   -1    0    0    0  501  0.00000000000E+00  0.00000000000E+00  0.20158372801E+04  0.20158372801E+04  0.50400001928E-02 0.  1.
        1   -1    0    0  501    0  0.00000000000E+00  0.00000000000E+00 -0.19889494433E+04  0.19889494433E+04  0.50400001928E-02 0. -1.
    10030    2    1    2    0    0  0.00000000000E+00  0.00000000000E+00  0.26887836795E+02  0.40047867234E+04  0.40046964610E+04 0.  0.
        3    1    3    3  502    0 -0.10740411095E+04 -0.11171543555E+04  0.12814631394E+04  0.20109067474E+04  0.10100000352E+00 0.  1.
       -3    1    3    3    0  502  0.10740411095E+04  0.11171543555E+04 -0.12545753026E+04  0.19938799761E+04  0.10100000352E+00 0. -1.
</event>
<event>
 5   0  0.2612363E-08  0.3993423E+04  0.7818609E-02  0.8005875E-01
        2   -1    0    0  501    0  0.00000000000E+00  0.00000000000E+00  0.24575545191E+04  0.24575545191E+04  0.25500000920E-02 0.  1.
       -2   -1    0    0    0  501  0.00000000000E+00  0.00000000000E+00 -0.16222859981E+04  0.16222859981E+04  0.25500000920E-02 0. -1.
    10030    2    1    2    0    0  0.00000000000E+00  0.00000000000E+00  0.83526852103E+03  0.40798405172E+04  0.39934227354E+04 0.  0.
        4    1    3    3  502    0 -0.13152084494E+04  0.13692517903E+04  0.10492614564E+04  0.21692337236E+04  0.12699999809E+01 0.  1.
       -4    1    3    3    0  502  0.13152084494E+04 -0.13692517903E+04 -0.21399293535E+03  0.19106067937E+04  0.12699999809E+01 0. -1.
</event>
<event>
 5   0  0.2599332E-08  0.4002148E+04  0.7818609E-02  0.8004113E-01
        2   -1    0    0  501    0  0.00000000000E+00  0.00000000000E+00  0.26768621339E+04  0.26768621339E+04  0.25500000920E-02 0.  1.
       -2   -1    0    0    0  501  0.00000000000E+00  0.00000000000E+00 -0.14958925505E+04  0.14958925505E+04  0.25500000920E-02 0. -1.
    10030    2    1    2    0    0  0.00000000000E+00  0.00000000000E+00  0.11809695834E+04  0.41727546845E+04  0.40021484855E+04 0.  0.
        2    1    3    3  502    0 -0.11294732891E+04  0.10704505726E+04  0.19021778506E+04  0.24576116281E+04  0.25500000920E-02 0.  1.
       -2    1    3    3    0  502  0.11294732891E+04 -0.10704505726E+04 -0.72120826719E+03  0.17151430564E+04  0.25500000920E-02 0. -1.
</event>
<event>
 5   0  0.8329875E-09  0.4001880E+04  0.7818609E-02  0.8004167E-01
       -1   -1    0    0    0  501  0.00000000000E+00  0.00000000000E+00  0.14276197784E+04  0.14276197784E+04  0.50400001928E-02 0.  1.
        1   -1    0    0  501    0  0.00000000000E+00  0.00000000000E+00 -0.28045012103E+04  0.28045012103E+04  0.50400001928E-02 0. -1.
    10030    2    1    2    0    0  0.00000000000E+00  0.00000000000E+00 -0.13768814319E+04  0.42321209886E+04  0.40018802562E+04 0.  0.
        2    1    3    3  502    0 -0.80655080967E+03 -0.43374319505E+03 -0.25698703474E+04  0.27281662285E+04  0.25500000920E-02 0. -1.
       -2    1    3    3    0  502  0.80655080967E+03  0.43374319505E+03  0.11929889155E+04  0.15039547601E+04  0.25500000920E-02 0.  1.
</event>
<event>
 5   0  0.8329875E-09  0.3995046E+04  0.7818609E-02  0.8005547E-01
        1   -1    0    0  501    0  0.00000000000E+00  0.00000000000E+00  0.15415570623E+04  0.15415570624E+04  0.50400001928E-02 0.  1.
       -1   -1    0    0    0  501  0.00000000000E+00  0.00000000000E+00 -0.25883561378E+04  0.25883561378E+04  0.50400001928E-02 0. -1.
    10030    2    1    2    0    0  0.00000000000E+00  0.00000000000E+00 -0.10467990755E+04  0.41299132002E+04  0.39950462747E+04 0.  0.
        2    1    3    3  502    0 -0.15156318815E+03  0.18904217222E+04 -0.11718166984E+04  0.22293093241E+04  0.25500000920E-02 0. -1.
       -2    1    3    3    0  502  0.15156318815E+03 -0.18904217222E+04  0.12501762290E+03  0.19006038761E+04  0.25500000920E-02 0.  1.
</event>
<event>
 5   0  0.2746876E-08  0.3996421E+04  0.7818609E-02  0.8005269E-01
       -2   -1    0    0    0  501  0.00000000000E+00  0.00000000000E+00  0.23918481511E+04  0.23918481511E+04  0.25500000920E-02 0. -1.
        2   -1    0    0  501    0  0.00000000000E+00  0.00000000000E+00 -0.16693560313E+04  0.16693560313E+04  0.25500000920E-02 0.  1.
    10030    2    1    2    0    0  0.00000000000E+00  0.00000000000E+00  0.72249211978E+03  0.40612041824E+04  0.39964214678E+04 0.  0.
        1    1    3    3  502    0 -0.51000256833E+03  0.11377173084E+03  0.23211884589E+04  0.23792777241E+04  0.50400001928E-02 0. -1.
       -1    1    3    3    0  502  0.51000256833E+03 -0.11377173084E+03 -0.15986963391E+04  0.16819264583E+04  0.50400001928E-02 0.  1.
</event>
<event>
 5   0  0.8329875E-09  0.4000555E+04  0.7818609E-02  0.8004435E-01
       -1   -1    0    0    0  501  0.00000000000E+00  0.00000000000E+00  0.13832381760E+04  0.13832381760E+04  0.50400001928E-02 0.  1.
        1   -1    0    0  501    0  0.00000000000E+00  0.00000000000E+00 -0.28925673171E+04  0.28925673171E+04  0.50400001928E-02 0. -1.
    10030    2    1    2    0    0  0.00000000000E+00  0.00000000000E+00 -0.15093291410E+04  0.42758054931E+04  0.40005547314E+04 0.  0.
        1    1    3    3  502    0  0.14224713495E+04  0.27772169116E+03  0.71879423460E+03  0.16177821947E+04  0.50400001928E-02 0.  1.
       -1    1    3    3    0  502 -0.14224713495E+04 -0.27772169116E+03 -0.22281233756E+04  0.26580232984E+04  0.50400001928E-02 0. -1.
</event>
<event>
 5   0  0.8329875E-09  0.3992077E+04  0.7818609E-02  0.8006147E-01
        1   -1    0    0  501    0  0.00000000000E+00  0.00000000000E+00  0.15939001131E+04  0.15939001131E+04  0.50400001928E-02 0. -1.
       -1   -1    0    0    0  501  0.00000000000E+00  0.00000000000E+00 -0.24996354224E+04  0.24996354224E+04  0.50400001928E-02 0.  1.
    10030    2    1    2    0    0  0.00000000000E+00  0.00000000000E+00 -0.90573530932E+03  0.40935355355E+04  0.39920767440E+04 0.  0.
        5    1    3    3  502    0  0.33344115348E+03 -0.17712845829E+04  0.42655055673E+03  0.18521877723E+04  0.46999998093E+01 0. -1.
       -5    1    3    3    0  502 -0.33344115348E+03  0.17712845829E+04 -0.13322858660E+04  0.22413477632E+04  0.46999998093E+01 0.  1.
</event>
<event>
 5   0  0.8329875E-09  0.3988814E+04  0.7818609E-02  0.8006807E-01
        1   -1    0    0  501    0  0.00000000000E+00  0.00000000000E+00  0.17280879712E+04  0.17280879712E+04  0.50400001928E-02 0.  1.
       -1   -1    0    0    0  501  0.00000000000E+00  0.00000000000E+00 -0.23017692286E+04  0.23017692286E+04  0.50400001928E-02 0. -1.
    10030    2    1    2    0    0  0.00000000000E+00  0.00000000000E+00 -0.57368125743E+03  0.40298571999E+04  0.39888142181E+04 0.  0.
        1    1    3    3  502    0 -0.28652787464E+02 -0.45487672265E+03 -0.22484487679E+04  0.22941786498E+04  0.50400001928E-02 0. -1.
       -1    1    3    3    0  502  0.28652787464E+02  0.45487672265E+03  0.16747675105E+04  0.17356785501E+04  0.50400001928E-02 0.  1.
</event>
<event>
 5   0  0.8329875E-09  0.4005214E+04  0.7818609E-02  0.8003496E-01
       -1   -1    0    0    0  501  0.00000000000E+00  0.00000000000E+00  0.19395877148E+04  0.19395877148E+04  0.50400001928E-02 0.  1.
        1   -1    0    0  501    0  0.00000000000E+00  0.00000000000E+00 -0.20676734818E+04  0.20676734818E+04  0.50400001928E-02 0. -1.
    10030    2    1    2    0    0  0.00000000000E+00  0.00000000000E+00 -0.12808576692E+03  0.40072611966E+04  0.40052136440E+04 0.  0.
        3    1    3    3  502    0 -0.68798055435E+03  0.58651816374E+03  0.17237990801E+04  0.19464850573E+04  0.10100000352E+00 0.  1.
       -3    1    3    3    0  502  0.68798055435E+03 -0.58651816374E+03 -0.18518848470E+04  0.20607761393E+04  0.10100000352E+00 0. -1.
</event>
<event>
 5   0  0.2650452E-08  0.3909134E+04  0.7818609E-02  0.8023132E-01
        2   -1    0    0  501    0  0.00000000000E+00  0.00000000000E+00  0.23318452104E+04  0.23318452104E+04  0.25500000920E-02 0.  1.
       -2   -1    0    0    0  501  0.00000000000E+00  0.00000000000E+00 -0.16383299700E+04  0.16383299700E+04  0.25500000920E-02 0. -1.
    10030    2    1    2    0    0  0.00000000000E+00  0.00000000000E+00  0.69351524040E+03  0.39701751804E+04  0.39091338650E+04 0.  0.
        3    1    3    3  502    0 -0.13401304810E+04 -0.85727094295E+03  0.15000370103E+04  0.21865438981E+04  0.10100000352E+00 0.  1.
       -3    1    3    3    0  502  0.13401304810E+04  0.85727094295E+03 -0.80652176987E+03  0.17836312823E+04  0.10100000352E+00 0. -1.
</event>
<event>
 5   0  0.2746876E-08  0.3999737E+04  0.7818609E-02  0.8004600E-01
        2   -1    0    0  501    0  0.00000000000E+00  0.00000000000E+00  0.31207803525E+04  0.31207803525E+04  0.25500000920E-02 0. -1.
       -2   -1    0    0    0  501  0.00000000000E+00  0.00000000000E+00 -0.12815618939E+04  0.12815618939E+04  0.25500000920E-02 0.  1.
    10030    2    1    2    0    0  0.00000000000E+00  0.00000000000E+00  0.18392184586E+04  0.44023422464E+04  0.39997365809E+04 0.  0.
        1    1    3    3  502    0 -0.14191195414E+04 -0.12707307835E+04  0.15898514030E+04  0.24811861036E+04  0.50400001928E-02 0. -1.
       -1    1    3    3    0  502  0.14191195414E+04  0.12707307835E+04  0.24936705555E+03  0.19211561429E+04  0.50400001928E-02 0.  1.
</event>
<event>
 5   0  0.2612363E-08  0.4013628E+04  0.7818609E-02  0.8001803E-01
       -2   -1    0    0    0  501  0.00000000000E+00  0.00000000000E+00  0.18835027578E+04  0.18835027578E+04  0.25500000920E-02 0. -1.
        2   -1    0    0  501    0  0.00000000000E+00  0.00000000000E+00 -0.21381978185E+04  0.21381978185E+04  0.25500000920E-02 0.  1.
    10030    2    1    2    0    0  0.00000000000E+00  0.00000000000E+00 -0.25469506077E+03  0.40217005763E+04  0.40136275303E+04 0.  0.
        4    1    3    3  502    0  0.73494150839E+03 -0.82294735103E+03  0.15523053117E+04  0.19044775549E+04  0.12699999809E+01 0. -1.
       -4    1    3    3    0  502 -0.73494150839E+03  0.82294735103E+03 -0.18070003725E+04  0.21172230214E+04  0.12699999809E+01 0.  1.
</event>
<event>
 5   0  0.8329875E-09  0.3990889E+04  0.7818609E-02  0.8006387E-01
        1   -1    0    0  501    0  0.00000000000E+00  0.00000000000E+00  0.28851034470E+04  0.28851034470E+04  0.50400001928E-02 0.  1.
       -1   -1    0    0    0  501  0.00000000000E+00  0.00000000000E+00 -0.13801235650E+04  0.13801235650E+04  0.50400001928E-02 0. -1.
    10030    2    1    2    0    0  0.00000000000E+00  0.00000000000E+00  0.15049798820E+04  0.42652270119E+04  0.39908892516E+04 0.  0.
        2    1    3    3  502    0 -0.21039212780E+02  0.15487215343E+04  0.20970741130E+04  0.26070483070E+04  0.25500000920E-02 0.  1.
       -2    1    3    3    0  502  0.21039212780E+02 -0.15487215343E+04 -0.59209423103E+03  0.16581787050E+04  0.25500000920E-02 0. -1.
</event>
<event>
 5   0  0.2587493E-08  0.4002987E+04  0.7818609E-02  0.8003944E-01
        2   -1    0    0  501    0  0.00000000000E+00  0.00000000000E+00  0.20371314058E+04  0.20371314058E+04  0.25500000920E-02 0. -1.
       -2   -1    0    0    0  501  0.00000000000E+00  0.00000000000E+00 -0.19664787218E+04  0.19664787218E+04  0.25500000920E-02 0.  1.
    10030    2    1    2    0    0  0.00000000000E+00  0.00000000000E+00  0.70652683996E+02  0.40036101276E+04  0.40029866665E+04 0.  0.
        5    1    3    3  502    0 -0.52740296333E+03 -0.18545282020E+04 -0.50190230321E+03  0.19923244589E+04  0.46999998093E+01 0.  1.
       -5    1    3    3    0  502  0.52740296333E+03  0.18545282020E+04  0.57255498720E+03  0.20112856687E+04  0.46999998093E+01 0. -1.
</event>
<event>
 5   0  0.2587493E-08  0.4009828E+04  0.7818609E-02  0.8002567E-01
        2   -1    0    0  501    0  0.00000000000E+00  0.00000000000E+00  0.24321554866E+04  0.24321554866E+04  0.25500000920E-02 0.  1.
       -2   -1    0    0    0  501  0.00000000000E+00  0.00000000000E+00 -0.16527232089E+04  0.16527232089E+04  0.25500000920E-02 0. -1.
    10030    2    1    2    0    0  0.00000000000E+00  0.00000000000E+00  0.77943227765E+03  0.40848786955E+04  0.40098278369E+04 0.  0.
        5    1    3    3  502    0 -0.79650205439E+02  0.29228274979E+03 -0.16292674321E+04  0.16571987860E+04  0.46999998093E+01 0. -1.
       -5    1    3    3    0  502  0.79650205439E+02 -0.29228274979E+03  0.24086997098E+04  0.24276799095E+04  0.46999998093E+01 0.  1.
</event>
<event>
 5   0  0.2650452E-08  0.3998603E+04  0.7818609E-02  0.8004828E-01
        2   -1    0    0  501    0  0.00000000000E+00  0.00000000000E+00  0.26491196731E+04  0.26491196731E+04  0.25500000920E-02 0. -1.
       -2   -1    0    0    0  501  0.00000000000E+00  0.00000000000E+00 -0.15088810270E+04  0.15088810270E+04  0.25500000920E-02 0.  1.
    10030    2    1    2    0    0  0.00000000000E+00  0.00000000000E+00  0.11402386461E+04  0.41580007000E+04  0.39986029624E+04 0.  0.
        3    1    3    3  502    0 -0.29498641373E+03 -0.42139134684E+03  0.25791339163E+04  0.26299276454E+04  0.10100000352E+00 0. -1.
       -3    1    3    3    0  502  0.29498641373E+03  0.42139134684E+03 -0.14388952702E+04  0.15280730546E+04  0.10100000352E+00 0.  1.
</event>
<event>
 5   0  0.2587493E-08  0.3981693E+04  0.7818609E-02  0.8008250E-01
        2   -1    0    0  501    0  0.00000000000E+00  0.00000000000E+00  0.21558492905E+04  0.21558492905E+04  0.25500000920E-02 0. -1.
       -2   -1    0    0    0  501  0.00000000000E+00  0.00000000000E+00 -0.18384725452E+04  0.18384725452E+04  0.25500000920E-02 0.  1.
    10030    2    1    2    0    0  0.00000000000E+00  0.00000000000E+00  0.31737674527E+03  0.39943218357E+04  0.39816929727E+04 0.  0.
        5    1    3    3  502    0  0.19111919542E+04 -0.44225695757E+03 -0.18180197499E+03  0.19701065835E+04  0.46999998093E+01 0. -1.
       -5    1    3    3    0  502 -0.19111919542E+04  0.44225695757E+03  0.49917872025E+03  0.20242152522E+04  0.46999998093E+01 0.  1.
</event>
<event>
 5   0  0.2599332E-08  0.4014612E+04  0.7818609E-02  0.8001605E-01
       -2   -1    0    0    0  501  0.00000000000E+00  0.00000000000E+00  0.12963221449E+04  0.12963221449E+04  0.25500000920E-02 0. -1.
        2   -1    0    0  501    0  0.00000000000E+00  0.00000000000E+00 -0.31082383629E+04  0.31082383629E+04  0.25500000920E-02 0.  1.
    10030    2    1    2    0    0  0.00000000000E+00  0.00000000000E+00 -0.18119162180E+04  0.44045605078E+04  0.40146124204E+04 0.  0.
        2    1    3    3  502    0 -0.51563023432E+03  0.13736910988E+04 -0.24088195545E+04  0.28205165165E+04  0.25500000920E-02 0.  1.
       -2    1    3    3    0  502  0.51563023432E+03 -0.13736910988E+04  0.59690333650E+03  0.15840439914E+04  0.25500000920E-02 0. -1.
</event>
<event>
 5   0  0.2587493E-08  0.3997478E+04  0.7818609E-02  0.8005056E-01
       -2   -1    0    0    0  501  0.00000000000E+00  0.00000000000E+00  0.22973712165E+04  0.22973712165E+04  0.25500000920E-02 0.  1.
        2   -1    0    0  501    0  0.00000000000E+00  0.00000000000E+00 -0.17389252232E+04  0.17389252232E+04  0.25500000920E-02 0. -1.
    10030    2    1    2    0    0  0.00000000000E+00  0.00000000000E+00  0.55844599327E+03  0.40362964397E+04  0.39974775824E+04 0.  0.
        5    1    3    3  502    0 -0.14178477739E+03  0.54947673097E+02 -0.17330707927E+04  0.17397352190E+04  0.46999998093E+01 0. -1.
       -5    1    3    3    0  502  0.14178477739E+03 -0.54947673097E+02  0.22915167860E+04  0.22965612207E+04  0.46999998093E+01 0.  1.
</event>
<event>
 5   0  0.2599332E-08  0.4000960E+04  0.7818609E-02  0.8004353E-01
        2   -1    0    0  501    0  0.00000000000E+00  0.00000000000E+00  0.23383270569E+04  0.23383270569E+04  0.25500000920E-02 0. -1.
       -2   -1    0    0    0  501  0.00000000000E+00  0.00000000000E+00 -0.17114455161E+04  0.17114455161E+04  0.25500000920E-02 0.  1.
    10030    2    1    2    0    0  0.00000000000E+00  0.00000000000E+00  0.62688154084E+03  0.40497725730E+04  0.40009595633E+04 0.  0.
        2    1    3    3  502    0 -0.70344550323E+03  0.55564863797E+03 -0.14967680511E+04  0.17446763550E+04  0.25500000920E-02 0.  1.
       -2    1    3    3    0  502  0.70344550323E+03 -0.55564863797E+03  0.21236495920E+04  0.23050962180E+04  0.25500000920E-02 0. -1.
</event>
<event>
 5   0  0.2612363E-08  0.4015323E+04  0.7818609E-02  0.8001463E-01
       -2   -1    0    0    0  501  0.00000000000E+00  0.00000000000E+00  0.32704748227E+04  0.32704748227E+04  0.25500000920E-02 0.  1.
        2   -1    0    0  501    0  0.00000000000E+00  0.00000000000E+00 -0.12324524225E+04  0.12324524226E+04  0.25500000920E-02 0. -1.
    10030    2    1    2    0    0  0.00000000000E+00  0.00000000000E+00  0.20380224001E+04  0.45029272452E+04  0.40153229599E+04 0.  0.
        4    1    3    3  502    0  0.21401298360E+03  0.17592850634E+04 -0.38840827156E+02  0.17726803756E+04  0.12699999809E+01 0. -1.
       -4    1    3    3    0  502 -0.21401298360E+03 -0.17592850634E+04  0.20768632273E+04  0.27302468696E+04  0.12699999809E+01 0.  1.
</event>
<event>
 5   0  0.2746876E-08  0.3996250E+04  0.7818609E-02  0.8005303E-01
       -2   -1    0    0    0  501  0.00000000000E+00  0.00000000000E+00  0.13164154705E+04  0.13164154705E+04  0.25500000920E-02 0. -1.
        2   -1    0    0  501    0  0.00000000000E+00  0.00000000000E+00 -0.30328598981E+04  0.30328598981E+04  0.25500000920E-02 0.  1.
    10030    2    1    2    0    0  0.00000000000E+00  0.00000000000E+00 -0.17164444276E+04  0.43492753686E+04  0.39962500871E+04 0.  0.
        1    1    3    3  502    0  0.13883144902E+04 -0.43083495728E+03  0.63382199722E+03  0.15858014404E+04  0.50400001928E-02 0.  1.
       -1    1    3    3    0  502 -0.13883144902E+04  0.43083495728E+03 -0.23502664248E+04  0.27634739282E+04  0.50400001928E-02 0. -1.
</event>
<event>
 5   0  0.8329875E-09  0.3999300E+04  0.7818609E-02  0.8004688E-01
        1   -1    0    0  501    0  0.00000000000E+00  0.00000000000E+00  0.20758155879E+04  0.20758155879E+04  0.50400001928E-02 0. -1.
       -1   -1    0    0    0  501  0.00000000000E+00  0.00000000000E+00 -0.19262786425E+04  0.19262786425E+04  0.50400001928E-02 0.  1.
    10030    2    1    2    0    0  0.00000000000E+00  0.00000000000E+00  0.14953694539E+03  0.40020942304E+04  0.39992995550E+04 0.  0.
        1    1    3    3  502    0 -0.36216915423E+03  0.19425105913E+04  0.38171615051E+03  0.20125161150E+04  0.50400001928E-02 0.  1.
       -1    1    3    3    0  502  0.36216915423E+03 -0.19425105913E+04 -0.23217920512E+03  0.19895781153E+04  0.50400001928E-02 0. -1.
</event>
<event>
 5   0  0.8329875E-09  0.4031607E+04  0.7818609E-02  0.7998201E-01
        1   -1    0    0  501    0  0.00000000000E+00  0.00000000000E+00  0.19149400235E+04  0.19149400235E+04  0.50400001928E-02 0. -1.
       -1   -1    0    0    0  501  0.00000000000E+00  0.00000000000E+00 -0.21219798886E+04  0.21219798886E+04  0.50400001928E-02 0.  1.
    10030    2    1    2    0    0  0.00000000000E+00  0.00000000000E+00 -0.20703986508E+03  0.40369199122E+04  0.40316072318E+04 0.  0.
        5    1    3    3  502    0 -0.16677494327E+03 -0.19373120629E+04  0.42864086020E+03  0.19911672425E+04  0.46999998093E+01 0. -1.
       -5    1    3    3    0  502  0.16677494327E+03  0.19373120629E+04 -0.63568072528E+03  0.20457526696E+04  0.46999998093E+01 0.  1.
</event>
<event>
 5   0  0.8329875E-09  0.4008028E+04  0.7818609E-02  0.8002929E-01
       -1   -1    0    0    0  501  0.00000000000E+00  0.00000000000E+00  0.30443086192E+04  0.30443086192E+04  0.50400001928E-02 0.  1.
        1   -1    0    0  501    0  0.00000000000E+00  0.00000000000E+00 -0.13192063167E+04  0.13192063167E+04  0.50400001928E-02 0. -1.
    10030    2    1    2    0    0  0.00000000000E+00  0.00000000000E+00  0.17251023025E+04  0.43635149359E+04  0.40080275251E+04 0.  0.
        2    1    3    3  502    0  0.15467021786E+04  0.41808646493E+03  0.21730542489E+04  0.26998608650E+04  0.25500000920E-02 0.  1.
       -2    1    3    3    0  502 -0.15467021786E+04 -0.41808646493E+03 -0.44795194640E+03  0.16636540709E+04  0.25500000920E-02 0. -1.
</event>
<event>
 5   0  0.8329875E-09  0.4006276E+04  0.7818609E-02  0.8003282E-01
       -3   -1    0    0    0  501  0.00000000000E+00  0.00000000000E+00  0.14492938550E+04  0.14492938586E+04  0.10100000352E+00 0. -1.
        3   -1    0    0  501    0  0.00000000000E+00  0.00000000000E+00 -0.27686325038E+04  0.27686325056E+04  0.10100000352E+00 0.  1.
    10030    2    1    2    0    0  0.00000000000E+00  0.00000000000E+00 -0.13193386487E+04  0.42179263642E+04  0.40062761192E+04 0.  0.
        3    1    3    3  502    0 -0.14320375351E+04 -0.12794100857E+03 -0.21281541220E+04  0.25682952285E+04  0.10100000352E+00 0. -1.
       -3    1    3    3    0  502  0.14320375351E+04  0.12794100857E+03  0.80881547330E+03  0.16496311356E+04  0.10100000352E+00 0.  1.
</event>
<event>
 5   0  0.2746876E-08  0.4005448E+04  0.7818609E-02  0.8003448E-01
       -2   -1    0    0    0  501  0.00000000000E+00  0.00000000000E+00  0.18961461547E+04  0.18961461547E+04  0.25500000920E-02 0. -1.
        2   -1    0    0  501    0  0.00000000000E+00  0.00000000000E+00 -0.21152926463E+04  0.21152926463E+04  0.25500000920E-02 0.  1.
    10030    2    1    2    0    0  0.00000000000E+00  0.00000000000E+00 -0.21914649160E+03  0.40114388010E+04  0.40054482981E+04 0.  0.
        1    1    3    3  502    0 -0.56389702902E+03 -0.93353114538E+03 -0.17918007892E+04  0.20976201579E+04  0.50400001928E-02 0.  1.
       -1    1    3    3    0  502  0.56389702902E+03  0.93353114538E+03  0.15726542976E+04  0.19138186430E+04  0.50400001928E-02 0. -1.
</event>
<event>
 5   0  0.2612363E-08  0.4010731E+04  0.7818609E-02  0.8002385E-01
        2   -1    0    0  501    0  0.00000000000E+00  0.00000000000E+00  0.22301890883E+04  0.22301890883E+04  0.25500000920E-02 0.  1.
       -2   -1    0    0    0  501  0.00000000000E+00  0.00000000000E+00 -0.18032059109E+04  0.18032059109E+04  0.25500000920E-02 0. -1.
    10030    2    1    2    0    0  0.00000000000E+00  0.00000000000E+00  0.42698317738E+03  0.40333949992E+04  0.40107306798E+04 0.  0.
        4    1    3    3  502    0 -0.19434345755E+04 -0.45808034085E+03  0.26124529715E+02  0.19968624519E+04  0.12699999809E+01 0. -1.
       -4    1    3    3    0  502  0.19434345755E+04  0.45808034085E+03  0.40085864767E+03  0.20365325473E+04  0.12699999809E+01 0.  1.
</event>
<event>
 5   0  0.8329875E-09  0.4001147E+04  0.7818609E-02  0.8004315E-01
        1   -1    0    0  501    0  0.00000000000E+00  0.00000000000E+00  0.21738556346E+04  0.21738556346E+04  0.50400001928E-02 0.  1.
       -1   -1    0    0    0  501  0.00000000000E+00  0.00000000000E+00 -0.18411037525E+04  0.18411037525E+04  0.50400001928E-02 0. -1.
    10030    2    1    2    0    0  0.00000000000E+00  0.00000000000E+00  0.33275188209E+03  0.40149593871E+04  0.40011467188E+04 0.  0.
        4    1    3    3  502    0 -0.44829049598E+03  0.38392336962E+03 -0.17517487187E+04  0.18485093207E+04  0.12699999809E+01 0. -1.
       -4    1    3    3    0  502  0.44829049598E+03 -0.38392336962E+03  0.20845006008E+04  0.21664500664E+04  0.12699999809E+01 0.  1.
</event>
<event>
 5   0  0.8329875E-09  0.4001382E+04  0.7818609E-02  0.8004268E-01
       -1   -1    0    0    0  501  0.00000000000E+00  0.00000000000E+00  0.16864472712E+04  0.16864472713E+04  0.50400001928E-02 0.  1.
        1   -1    0    0  501    0  0.00000000000E+00  0.00000000000E+00 -0.23734890717E+04  0.23734890717E+04  0.50400001928E-02 0. -1.
    10030    2    1    2    0    0  0.00000000000E+00  0.00000000000E+00 -0.68704180049E+03  0.40599363430E+04  0.40013818455E+04 0.  0.
        2    1    3    3  502    0  0.12006503121E+04 -0.10506943082E+04  0.88130802599E+03  0.18226967762E+04  0.25500000920E-02 0. -1.
       -2    1    3    3    0  502 -0.12006503121E+04  0.10506943082E+04 -0.15683498265E+04  0.22372395668E+04  0.25500000920E-02 0.  1.
</event>
<event>
 5   0  0.8329875E-09  0.3998728E+04  0.7818609E-02  0.8004803E-01
       -1   -1    0    0    0  501  0.00000000000E+00  0.00000000000E+00  0.26096849700E+04  0.26096849700E+04  0.50400001928E-02 0. -1.
        1   -1    0    0  501    0  0.00000000000E+00  0.00000000000E+00 -0.15317777488E+04  0.15317777489E+04  0.50400001928E-02 0.  1.
    10030    2    1    2    0    0  0.00000000000E+00  0.00000000000E+00  0.10779072212E+04  0.41414627189E+04  0.39987284822E+04 0.  0.
        2    1    3    3  502    0  0.75560826782E+03  0.11446982978E+04 -0.96768146275E+03  0.16785962769E+04  0.25500000920E-02 0.  1.
       -2    1    3    3    0  502 -0.75560826782E+03 -0.11446982978E+04  0.20455886839E+04  0.24628664420E+04  0.25500000920E-02 0. -1.
</event>
<event>
 5   0  0.2599332E-08  0.3996856E+04  0.7818609E-02  0.8005181E-01
       -2   -1    0    0    0  501  0.00000000000E+00  0.00000000000E+00  0.25998458409E+04  0.25998458409E+04  0.25500000920E-02 0. -1.
        2   -1    0    0  501    0  0.00000000000E+00  0.00000000000E+00 -0.15361348164E+04  0.15361348164E+04  0.25500000920E-02 0.  1.
    10030    2    1    2    0    0  0.00000000000E+00  0.00000000000E+00  0.10637110245E+04  0.41359806574E+04  0.39968556209E+04 0.  0.
        2    1    3    3  502    0  0.59263827750E+03 -0.19006437321E+04  0.71122993596E+03  0.21141226895E+04  0.25500000920E-02 0.  1.
       -2    1    3    3    0  502 -0.59263827750E+03  0.19006437321E+04  0.35248108852E+03  0.20218579679E+04  0.25500000920E-02 0. -1.
</event>
<event>
 5   0  0.8329875E-09  0.3998552E+04  0.7818609E-02  0.8004839E-01
        1   -1    0    0  501    0  0.00000000000E+00  0.00000000000E+00  0.27490336158E+04  0.27490336158E+04  0.50400001928E-02 0.  1.
       -1   -1    0    0    0  501  0.00000000000E+00  0.00000000000E+00 -0.14540033273E+04  0.14540033273E+04  0.50400001928E-02 0. -1.
    10030    2    1    2    0    0  0.00000000000E+00  0.00000000000E+00  0.12950302885E+04  0.42030369431E+04  0.39985517500E+04 0.  0.
        1    1    3    3  502    0  0.36495040062E+03 -0.13413901751E+04  0.21578635671E+04  0.25668836302E+04  0.50400001928E-02 0.  1.
       -1    1    3    3    0  502 -0.36495040062E+03  0.13413901751E+04 -0.86283327862E+03  0.16361533129E+04  0.50400001928E-02 0. -1.
</event>
<event>
 5   0  0.8329875E-09  0.3993533E+04  0.7818609E-02  0.8005852E-01
        1   -1    0    0  501    0  0.00000000000E+00  0.00000000000E+00  0.25553488253E+04  0.25553488253E+04  0.50400001928E-02 0. -1.
       -1   -1    0    0    0  501  0.00000000000E+00  0.00000000000E+00 -0.15602866894E+04  0.15602866895E+04  0.50400001928E-02 0.  1.
    10030    2    1    2    0    0  0.00000000000E+00  0.00000000000E+00  0.99506213582E+03  0.41156355147E+04  0.39935331520E+04 0.  0.
        4    1    3    3  502    0 -0.11935343576E+04  0.12256939154E+04 -0.56362361686E+03  0.18012559595E+04  0.12699999809E+01 0.  1.
       -4    1    3    3    0  502  0.11935343576E+04 -0.12256939154E+04  0.15586857527E+04  0.23143795552E+04  0.12699999809E+01 0. -1.
</event>
<event>
 5   0  0.8329875E-09  0.4006199E+04  0.7818609E-02  0.8003297E-01
        1   -1    0    0  501    0  0.00000000000E+00  0.00000000000E+00  0.14533460695E+04  0.14533460695E+04  0.50400001928E-02 0. -1.
       -1   -1    0    0    0  501  0.00000000000E+00  0.00000000000E+00 -0.27608065609E+04  0.27608065609E+04  0.50400001928E-02 0.  1.
    10030    2    1    2    0    0  0.00000000000E+00  0.00000000000E+00 -0.13074604914E+04  0.42141526304E+04  0.40061988787E+04 0.  0.
        3    1    3    3  502    0 -0.43837701386E+03  0.26560503583E+03 -0.26906562822E+04  0.27390421100E+04  0.10100000352E+00 0.  1.
       -3    1    3    3    0  502  0.43837701386E+03 -0.26560503583E+03  0.13831957908E+04  0.14751105204E+04  0.10100000352E+00 0. -1.
</event>
<event>
 5   0  0.8329875E-09  0.4001906E+04  0.7818609E-02  0.8004162E-01
       -1   -1    0    0    0  501  0.00000000000E+00  0.00000000000E+00  0.15230813593E+04  0.15230813593E+04  0.50400001928E-02 0.  1.
        1   -1    0    0  501    0  0.00000000000E+00  0.00000000000E+00 -0.26287583921E+04  0.26287583921E+04  0.50400001928E-02 0. -1.
    10030    2    1    2    0    0  0.00000000000E+00  0.00000000000E+00 -0.11056770328E+04  0.41518397515E+04  0.40019059985E+04 0.  0.
        4    1    3    3  502    0  0.18431756252E+04  0.27567779591E+03  0.20281587906E+03  0.18746814466E+04  0.12699999809E+01 0.  1.
       -4    1    3    3    0  502 -0.18431756252E+04 -0.27567779591E+03 -0.13084929119E+04  0.22771583049E+04  0.12699999809E+01 0. -1.
</event>
<event>
 5   0  0.2612363E-08  0.3977647E+04  0.7818609E-02  0.8009071E-01
       -2   -1    0    0    0  501  0.00000000000E+00  0.00000000000E+00  0.18338675482E+04  0.18338675482E+04  0.25500000920E-02 0. -1.
        2   -1    0    0  501    0  0.00000000000E+00  0.00000000000E+00 -0.21568731020E+04  0.21568731020E+04  0.25500000920E-02 0.  1.
    10030    2    1    2    0    0  0.00000000000E+00  0.00000000000E+00 -0.32300555376E+03  0.39907406502E+04  0.39776473385E+04 0.  0.
        4    1    3    3  502    0 -0.16257095551E+04  0.36283788414E+03 -0.12517421290E+04  0.20836129338E+04  0.12699999809E+01 0.  1.
       -4    1    3    3    0  502  0.16257095551E+04 -0.36283788414E+03  0.92873657526E+03  0.19071277164E+04  0.12699999809E+01 0. -1.
</event>
<event>
 5   0  0.2599332E-08  0.4009728E+04  0.7818609E-02  0.8002587E-01
        2   -1    0    0  501    0  0.00000000000E+00  0.00000000000E+00  0.27941173858E+04  0.27941173858E+04  0.25500000920E-02 0. -1.
       -2   -1    0    0    0  501  0.00000000000E+00  0.00000000000E+00 -0.14385506703E+04  0.14385506703E+04  0.25500000920E-02 0.  1.
    10030    2    1    2    0    0  0.00000000000E+00  0.00000000000E+00  0.13555667155E+04  0.42326680562E+04  0.40097278902E+04 0.  0.
        2    1    3    3  502    0 -0.65647636010E+03 -0.21772024280E+03 -0.13086289324E+04  0.14801597881E+04  0.25500000920E-02 0.  1.
       -2    1    3    3    0  502  0.65647636010E+03  0.21772024280E+03  0.26641956479E+04  0.27525082681E+04  0.25500000920E-02 0. -1.
</event>
<event>
 5   0  0.2587493E-08  0.4001179E+04  0.7818609E-02  0.8004309E-01
       -2   -1    0    0    0  501  0.00000000000E+00  0.00000000000E+00  0.15381747156E+04  0.15381747156E+04  0.25500000920E-02 0.  1.
        2   -1    0    0  501    0  0.00000000000E+00  0.00000000000E+00 -0.26020184288E+04  0.26020184288E+04  0.25500000920E-02 0. -1.
    10030    2    1    2    0    0  0.00000000000E+00  0.00000000000E+00 -0.10638437132E+04  0.41401931445E+04  0.40011793046E+04 0.  0.
        5    1    3    3  502    0  0.46012380747E+03  0.56175473490E+03  0.13969945288E+04  0.15744516836E+04  0.46999998093E+01 0.  1.
       -5    1    3    3    0  502 -0.46012380747E+03 -0.56175473490E+03 -0.24608382421E+04  0.25657414609E+04  0.46999998093E+01 0. -1.
</event>
<event>
 5   0  0.2650452E-08  0.3999983E+04  0.7818609E-02  0.8004550E-01
       -2   -1    0    0    0  501  0.00000000000E+00  0.00000000000E+00  0.18905540438E+04  0.18905540438E+04  0.25500000920E-02 0.  1.
        2   -1    0    0  501    0  0.00000000000E+00  0.00000000000E+00 -0.21157635561E+04  0.21157635561E+04  0.25500000920E-02 0. -1.
    10030    2    1    2    0    0  0.00000000000E+00  0.00000000000E+00 -0.22520951229E+03  0.40063176000E+04  0.39999826734E+04 0.  0.
        3    1    3    3  502    0  0.19513016370E+04 -0.39080903612E+03 -0.31205716380E+03  0.20143707367E+04  0.10100000352E+00 0. -1.
       -3    1    3    3    0  502 -0.19513016370E+04  0.39080903612E+03  0.86847651514E+02  0.19919468632E+04  0.10100000352E+00 0.  1.
</event>
<event>
 5   0  0.2746876E-08  0.4000852E+04  0.7818609E-02  0.8004375E-01
        2   -1    0    0  501    0  0.00000000000E+00  0.00000000000E+00  0.17935251955E+04  0.17935251955E+04  0.25500000920E-02 0. -1.
       -2   -1    0    0    0  501  0.00000000000E+00  0.00000000000E+00 -0.22311951545E+04  0.22311951545E+04  0.25500000920E-02 0.  1.
    10030    2    1    2    0    0  0.00000000000E+00  0.00000000000E+00 -0.43766995904E+03  0.40247203500E+04  0.40008522720E+04 0.  0.
        1    1    3    3  502    0  0.19679993083E+03  0.79226527224E+03  0.16183378375E+04  0.18125760207E+04  0.50400001928E-02 0. -1.
       -1    1    3    3    0  502 -0.19679993083E+03 -0.79226527224E+03 -0.20560077965E+04  0.22121443293E+04  0.50400001928E-02 0.  1.
</event>
<event>
 5   0  0.8329875E-09  0.4003025E+04  0.7818609E-02  0.8003937E-01
        1   -1    0    0  501    0  0.00000000000E+00  0.00000000000E+00  0.20924775496E+04  0.20924775496E+04  0.50400001928E-02 0.  1.
       -1   -1    0    0    0  501  0.00000000000E+00  0.00000000000E+00 -0.19145017243E+04  0.19145017243E+04  0.50400001928E-02 0. -1.
    10030    2    1    2    0    0  0.00000000000E+00  0.00000000000E+00  0.17797582536E+03  0.40069792739E+04  0.40030247947E+04 0.  0.
        3    1    3    3  502    0 -0.91298834602E+03 -0.16428438485E+04  0.77783067309E+03  0.20340855923E+04  0.10100000352E+00 0.  1.
       -3    1    3    3    0  502  0.91298834602E+03  0.16428438485E+04 -0.59985484773E+03  0.19728936816E+04  0.10100000352E+00 0. -1.
</event>
<event>
 5   0  0.8329875E-09  0.3997937E+04  0.7818609E-02  0.8004963E-01
       -1   -1    0    0    0  501  0.00000000000E+00  0.00000000000E+00  0.29230964720E+04  0.29230964720E+04  0.50400001928E-02 0. -1.
        1   -1    0    0  501    0  0.00000000000E+00  0.00000000000E+00 -0.13670007684E+04  0.13670007685E+04  0.50400001928E-02 0.  1.
    10030    2    1    2    0    0  0.00000000000E+00  0.00000000000E+00  0.15560957036E+04  0.42900972405E+04  0.39979370298E+04 0.  0.
        3    1    3    3  502    0 -0.16267784435E+04  0.63013564736E+03 -0.26917710918E+03  0.17652012249E+04  0.10100000352E+00 0.  1.
       -3    1    3    3    0  502  0.16267784435E+04 -0.63013564736E+03  0.18252728128E+04  0.25248960156E+04  0.10100000352E+00 0. -1.
</event>
<event>
 5   0  0.2587493E-08  0.4002640E+04  0.7818609E-02  0.8004014E-01
        2   -1    0    0  501    0  0.00000000000E+00  0.00000000000E+00  0.20608846164E+04  0.20608846164E+04  0.25500000920E-02 0. -1.
       -2   -1    0    0    0  501  0.00000000000E+00  0.00000000000E+00 -0.19434769833E+04  0.19434769833E+04  0.25500000920E-02 0.  1.
    10030    2    1    2    0    0  0.00000000000E+00  0.00000000000E+00  0.11740763310E+03  0.40043615997E+04  0.40026400374E+04 0.  0.
        5    1    3    3  502    0  0.56473517098E+03 -0.96993724583E+03  0.17163883236E+04  0.20507840065E+04  0.46999998093E+01 0. -1.
       -5    1    3    3    0  502 -0.56473517098E+03  0.96993724583E+03 -0.15989806905E+04  0.19535775932E+04  0.46999998093E+01 0.  1.
</event>
<event>
 5   0  0.8329875E-09  0.4004578E+04  0.7818609E-02  0.8003624E-01
        1   -1    0    0  501    0  0.00000000000E+00  0.00000000000E+00  0.13249852358E+04  0.13249852358E+04  0.50400001928E-02 0.  1.
       -1   -1    0    0    0  501  0.00000000000E+00  0.00000000000E+00 -0.30258150834E+04  0.30258150834E+04  0.50400001928E-02 0. -1.
    10030    2    1    2    0    0  0.00000000000E+00  0.00000000000E+00 -0.17008298476E+04  0.43508003193E+04  0.40045775367E+04 0.  0.
        4    1    3    3  502    0  0.85939555993E+03 -0.14662754744E+03 -0.28087809776E+04  0.29409713632E+04  0.12699999809E+01 0. -1.
       -4    1    3    3    0  502 -0.85939555993E+03  0.14662754744E+03  0.11079511300E+04  0.14098289561E+04  0.12699999809E+01 0.  1.
</event>
<event>
 5   0  0.2746876E-08  0.3999222E+04  0.7818609E-02  0.8004704E-01
       -2   -1    0    0    0  501  0.00000000000E+00  0.00000000000E+00  0.25045292627E+04  0.25045292627E+04  0.25500000920E-02 0.  1.
        2   -1    0    0  501    0  0.00000000000E+00  0.00000000000E+00 -0.15964849876E+04  0.15964849876E+04  0.25500000920E-02 0. -1.
    10030    2    1    2    0    0  0.00000000000E+00  0.00000000000E+00  0.90804427516E+03  0.41010142503E+04  0.39992216087E+04 0.  0.
        1    1    3    3  502    0  0.14042727598E+04 -0.13346612111E+04  0.96174139948E+03  0.21629260394E+04  0.50400001928E-02 0.  1.
       -1    1    3    3    0  502 -0.14042727598E+04  0.13346612111E+04 -0.53697124315E+02  0.19380882110E+04  0.50400001928E-02 0. -1.
</event>
<event>
 5   0  0.2650452E-08  0.3992693E+04  0.7818609E-02  0.8006022E-01
        2   -1    0    0  501    0  0.00000000000E+00  0.00000000000E+00  0.24010607742E+04  0.24010607742E+04  0.25500000920E-02 0. -1.
       -2   -1    0    0    0  501  0.00000000000E+00  0.00000000000E+00 -0.16598496381E+04  0.16598496381E+04  0.25500000920E-02 0.  1.
    10030    2    1    2    0    0  0.00000000000E+00  0.00000000000E+00  0.74121113611E+03  0.40609104124E+04  0.39926932551E+04 0.  0.
        3    1    3    3  502    0 -0.60070527581E+02  0.80845946634E+03 -0.14848953367E+04  0.16917828904E+04  0.10100000352E+00 0.  1.
       -3    1    3    3    0  502  0.60070527581E+02 -0.80845946634E+03  0.22261064728E+04  0.23691275220E+04  0.10100000352E+00 0. -1.
</event>
<event>
 5   0  0.8329875E-09  0.3997885E+04  0.7818609E-02  0.8004973E-01
       -1   -1    0    0    0  501  0.00000000000E+00  0.00000000000E+00  0.16001330585E+04  0.16001330585E+04  0.50400001928E-02 0. -1.
        1   -1    0    0  501    0  0.00000000000E+00  0.00000000000E+00 -0.24971492741E+04  0.24971492741E+04  0.50400001928E-02 0.  1.
    10030    2    1    2    0    0  0.00000000000E+00  0.00000000000E+00 -0.89701621566E+03  0.40972823326E+04  0.39978849936E+04 0.  0.
        3    1    3    3  502    0  0.37728836673E+03  0.13042403886E+04 -0.19520835679E+04  0.23778182792E+04  0.10100000352E+00 0.  1.
       -3    1    3    3    0  502 -0.37728836673E+03 -0.13042403886E+04  0.10550673522E+04  0.17194640534E+04  0.10100000352E+00 0. -1.
</event>
<event>
 5   0  0.2650452E-08  0.4065085E+04  0.7818609E-02  0.7991544E-01
       -2   -1    0    0    0  501  0.00000000000E+00  0.00000000000E+00  0.24651671135E+04  0.24651671135E+04  0.25500000920E-02 0. -1.
        2   -1    0    0  501    0  0.00000000000E+00  0.00000000000E+00 -0.16758409517E+04  0.16758409517E+04  0.25500000920E-02 0.  1.
    10030    2    1    2    0    0  0.00000000000E+00  0.00000000000E+00  0.78932616178E+03  0.41410080652E+04  0.40650845018E+04 0.  0.
        3    1    3    3  502    0 -0.92100749451E+03  0.89042972549E+02 -0.14488452461E+04  0.17191090754E+04  0.10100000352E+00 0.  1.
       -3    1    3    3    0  502  0.92100749451E+03 -0.89042972549E+02  0.22381714078E+04  0.24218989898E+04  0.10100000352E+00 0. -1.
</event>
<event>
 5   0  0.2746876E-08  0.3991067E+04  0.7818609E-02  0.8006351E-01
       -2   -1    0    0    0  501  0.00000000000E+00  0.00000000000E+00  0.31912780493E+04  0.31912780493E+04  0.25500000920E-02 0. -1.
        2   -1    0    0  501    0  0.00000000000E+00  0.00000000000E+00 -0.12478243922E+04  0.12478243923E+04  0.25500000920E-02 0.  1.
    10030    2    1    2    0    0  0.00000000000E+00  0.00000000000E+00  0.19434536571E+04  0.44391024416E+04  0.39910673221E+04 0.  0.
        1    1    3    3  502    0  0.10917447824E+04 -0.78442352256E+03  0.26120466089E+04  0.29376886186E+04  0.50400001928E-02 0. -1.
       -1    1    3    3    0  502 -0.10917447824E+04  0.78442352256E+03 -0.66859295186E+03  0.15014138230E+04  0.50400001928E-02 0.  1.
</event>
<event>
 5   0  0.8329875E-09  0.3997134E+04  0.7818609E-02  0.8005125E-01
       -1   -1    0    0    0  501  0.00000000000E+00  0.00000000000E+00  0.31133683715E+04  0.31133683715E+04  0.50400001928E-02 0. -1.
        1   -1    0    0  501    0  0.00000000000E+00  0.00000000000E+00 -0.12829415989E+04  0.12829415990E+04  0.50400001928E-02 0.  1.
    10030    2    1    2    0    0  0.00000000000E+00  0.00000000000E+00  0.18304267726E+04  0.43963099705E+04  0.39971338715E+04 0.  0.
        2    1    3    3  502    0  0.35403296004E+03 -0.20080390136E+03  0.30673016414E+04  0.30941882462E+04  0.25500000920E-02 0. -1.
       -2    1    3    3    0  502 -0.35403296004E+03  0.20080390136E+03 -0.12368748688E+04  0.13021217243E+04  0.25500000920E-02 0.  1.
</event>
<event>
 5   0  0.2612363E-08  0.3992403E+04  0.7818609E-02  0.8006081E-01
       -2   -1    0    0    0  501  0.00000000000E+00  0.00000000000E+00  0.20521403147E+04  0.20521403147E+04  0.25500000920E-02 0. -1.
        2   -1    0    0  501    0  0.00000000000E+00  0.00000000000E+00 -0.19417871269E+04  0.19417871269E+04  0.25500000920E-02 0.  1.
    10030    2    1    2    0    0  0.00000000000E+00  0.00000000000E+00  0.11035318773E+03  0.39939274416E+04  0.39924026078E+04 0.  0.
        4    1    3    3  502    0 -0.16404495701E+04 -0.10612861491E+04 -0.35414340051E+03  0.19856541097E+04  0.12699999809E+01 0.  1.
       -4    1    3    3    0  502  0.16404495701E+04  0.10612861491E+04  0.46449658824E+03  0.20082733319E+04  0.12699999809E+01 0. -1.
</event>
<event>
 5   0  0.2599332E-08  0.4021021E+04  0.7818609E-02  0.8000319E-01
       -2   -1    0    0    0  501  0.00000000000E+00  0.00000000000E+00  0.12865169164E+04  0.12865169164E+04  0.25500000920E-02 0. -1.
        2   -1    0    0  501    0  0.00000000000E+00  0.00000000000E+00 -0.31419344694E+04  0.31419344694E+04  0.25500000920E-02 0.  1.
    10030    2    1    2    0    0  0.00000000000E+00  0.00000000000E+00 -0.18554175531E+04  0.44284513858E+04  0.40210206888E+04 0.  0.
        2    1    3    3  502    0  0.95086240634E+02 -0.10934216786E+04  0.92747326073E+03  0.14369478104E+04  0.25500000920E-02 0. -1.
       -2    1    3    3    0  502 -0.95086240634E+02  0.10934216786E+04 -0.27828908138E+04  0.29915035754E+04  0.25500000920E-02 0.  1.
</event>
<event>
 5   0  0.8329875E-09  0.3995394E+04  0.7818609E-02  0.8005476E-01
        1   -1    0    0  501    0  0.00000000000E+00  0.00000000000E+00  0.15443234349E+04  0.15443234349E+04  0.50400001928E-02 0.  1.
       -1   -1    0    0    0  501  0.00000000000E+00  0.00000000000E+00 -0.25841687299E+04  0.25841687299E+04  0.50400001928E-02 0. -1.
    10030    2    1    2    0    0  0.00000000000E+00  0.00000000000E+00 -0.10398452950E+04  0.41284921648E+04  0.39953935122E+04 0.  0.
        3    1    3    3  502    0  0.10567467824E+04  0.16741164423E+04 -0.79605647654E+03  0.21337960419E+04  0.10100000352E+00 0.  1.
       -3    1    3    3    0  502 -0.10567467824E+04 -0.16741164423E+04 -0.24378881846E+03  0.19946961229E+04  0.10100000352E+00 0. -1.
</event>
<event>
 5   0  0.8329875E-09  0.3993895E+04  0.7818609E-02  0.8005779E-01
        1   -1    0    0  501    0  0.00000000000E+00  0.00000000000E+00  0.15712880419E+04  0.15712880419E+04  0.50400001928E-02 0. -1.
       -1   -1    0    0    0  501  0.00000000000E+00  0.00000000000E+00 -0.25379175644E+04  0.25379175644E+04  0.50400001928E-02 0.  1.
    10030    2    1    2    0    0  0.00000000000E+00  0.00000000000E+00 -0.96662952252E+03  0.41092056063E+04  0.39938951014E+04 0.  0.
        4    1    3    3  502    0  0.63770328578E+03  0.14675452888E+04 -0.17125659695E+04  0.23437658732E+04  0.12699999809E+01 0.  1.
       -4    1    3    3    0  502 -0.63770328578E+03 -0.14675452888E+04  0.74593644701E+03  0.17654397331E+04  0.12699999809E+01 0. -1.
</event>
<event>
 5   0  0.8329875E-09  0.4044046E+04  0.7818609E-02  0.7995720E-01
       -1   -1    0    0    0  501  0.00000000000E+00  0.00000000000E+00  0.18107067466E+04  0.18107067466E+04  0.50400001928E-02 0.  1.
        1   -1    0    0  501    0  0.00000000000E+00  0.00000000000E+00 -0.22580003175E+04  0.22580003175E+04  0.50400001928E-02 0. -1.
    10030    2    1    2    0    0  0.00000000000E+00  0.00000000000E+00 -0.44729357091E+03  0.40687070641E+04  0.40440457013E+04 0.  0.
        5    1    3    3  502    0  0.70075201593E+03  0.20413658785E+03 -0.21208367255E+04  0.22429212292E+04  0.46999998093E+01 0. -1.
       -5    1    3    3    0  502 -0.70075201593E+03 -0.20413658785E+03  0.16735431546E+04  0.18257858348E+04  0.46999998093E+01 0.  1.
</event>
<event>
 5   0  0.8329875E-09  0.3994942E+04  0.7818609E-02  0.8005568E-01
       -1   -1    0    0    0  501  0.00000000000E+00  0.00000000000E+00  0.13584481833E+04  0.13584481833E+04  0.50400001928E-02 0.  1.
        1   -1    0    0  501    0  0.00000000000E+00  0.00000000000E+00 -0.29370948497E+04  0.29370948497E+04  0.50400001928E-02 0. -1.
    10030    2    1    2    0    0  0.00000000000E+00  0.00000000000E+00 -0.15786466664E+04  0.42955430331E+04  0.39949423840E+04 0.  0.
        4    1    3    3  502    0  0.11036534426E+04 -0.16515385760E+04 -0.56311522907E+03  0.20646382161E+04  0.12699999809E+01 0. -1.
       -4    1    3    3    0  502 -0.11036534426E+04  0.16515385760E+04 -0.10155314373E+04  0.22309048170E+04  0.12699999809E+01 0.  1.
</event>
<event>
 5   0  0.8329875E-09  0.4001911E+04  0.7818609E-02  0.8004161E-01
        1   -1    0    0  501    0  0.00000000000E+00  0.00000000000E+00  0.13756570621E+04  0.13756570621E+04  0.50400001928E-02 0. -1.
       -1   -1    0    0    0  501  0.00000000000E+00  0.00000000000E+00 -0.29104803855E+04  0.29104803855E+04  0.50400001928E-02 0.  1.
    10030    2    1    2    0    0  0.00000000000E+00  0.00000000000E+00 -0.15348233234E+04  0.42861374476E+04  0.40019109917E+04 0.  0.
        1    1    3    3  502    0  0.10973519018E+04  0.54487483550E+03 -0.24617794013E+04  0.27498050119E+04  0.50400001928E-02 0.  1.
       -1    1    3    3    0  502 -0.10973519018E+04 -0.54487483550E+03  0.92695607790E+03  0.15363324357E+04  0.50400001928E-02 0. -1.
</event>
<event>
 5   0  0.2587493E-08  0.4028175E+04  0.7818609E-02  0.7998887E-01
       -2   -1    0    0    0  501  0.00000000000E+00  0.00000000000E+00  0.19638721415E+04  0.19638721415E+04  0.25500000920E-02 0.  1.
        2   -1    0    0  501    0  0.00000000000E+00  0.00000000000E+00 -0.20655864509E+04  0.20655864509E+04  0.25500000920E-02 0. -1.
    10030    2    1    2    0    0  0.00000000000E+00  0.00000000000E+00 -0.10171430936E+03  0.40294585924E+04  0.40281746173E+04 0.  0.
        5    1    3    3  502    0  0.50236045062E+03 -0.44272645697E+03 -0.19509764701E+04  0.20626933885E+04  0.46999998093E+01 0. -1.
       -5    1    3    3    0  502 -0.50236045062E+03  0.44272645697E+03  0.18492621608E+04  0.19667652039E+04  0.46999998093E+01 0.  1.
</event>
<event>
 5   0  0.8329875E-09  0.4000223E+04  0.7818609E-02  0.8004502E-01
       -1   -1    0    0    0  501  0.00000000000E+00  0.00000000000E+00  0.28618784687E+04  0.28618784687E+04  0.50400001928E-02 0.  1.
        1   -1    0    0  501    0  0.00000000000E+00  0.00000000000E+00 -0.13978394099E+04  0.13978394099E+04  0.50400001928E-02 0. -1.
    10030    2    1    2    0    0  0.00000000000E+00  0.00000000000E+00  0.14640390588E+04  0.42597178787E+04  0.40002232488E+04 0.  0.
        4    1    3    3  502    0 -0.48381902227E+03 -0.18761189332E+04  0.12607591896E+04  0.23115835362E+04  0.12699999809E+01 0.  1.
       -4    1    3    3    0  502  0.48381902227E+03  0.18761189332E+04  0.20327986924E+03  0.19481343424E+04  0.12699999809E+01 0. -1.
</event>
<event>
 5   0  0.2587493E-08  0.3974621E+04  0.7818609E-02  0.8009686E-01
        2   -1    0    0  501    0  0.00000000000E+00  0.00000000000E+00  0.28402509136E+04  0.28402509136E+04  0.25500000920E-02 0. -1.
       -2   -1    0    0    0  501  0.00000000000E+00  0.00000000000E+00 -0.13905119439E+04  0.13905119439E+04  0.25500000920E-02 0.  1.
    10030    2    1    2    0    0  0.00000000000E+00  0.00000000000E+00  0.14497389696E+04  0.42307628575E+04  0.39746208972E+04 0.  0.
        5    1    3    3  502    0  0.70970870056E+03  0.49640664326E+03  0.26287896755E+04  0.27677903177E+04  0.46999998093E+01 0. -1.
       -5    1    3    3    0  502 -0.70970870056E+03 -0.49640664326E+03 -0.11790507058E+04  0.14629725398E+04  0.46999998093E+01 0.  1.
</event>
<event>
 5   0  0.2650452E-08  0.4006206E+04  0.7818609E-02  0.8003296E-01
        2   -1    0    0  501    0  0.00000000000E+00  0.00000000000E+00  0.24631683309E+04  0.24631683309E+04  0.25500000920E-02 0.  1.
       -2   -1    0    0    0  501  0.00000000000E+00  0.00000000000E+00 -0.16289679312E+04  0.16289679312E+04  0.25500000920E-02 0. -1.
    10030    2    1    2    0    0  0.00000000000E+00  0.00000000000E+00  0.83420039976E+03  0.40921362621E+04  0.40062062953E+04 0.  0.
        3    1    3    3  502    0  0.15367385594E+03 -0.19228024614E+04  0.96871800402E+03  0.21585179038E+04  0.10100000352E+00 0.  1.
       -3    1    3    3    0  502 -0.15367385594E+03  0.19228024614E+04 -0.13451760426E+03  0.19336183583E+04  0.10100000352E+00 0. -1.
</event>
<event>
 5   0  0.2650452E-08  0.3996049E+04  0.7818609E-02  0.8005344E-01
        2   -1    0    0  501    0  0.00000000000E+00  0.00000000000E+00  0.16107743617E+04  0.16107743617E+04  0.25500000920E-02 0.  1.
       -2   -1    0    0    0  501  0.00000000000E+00  0.00000000000E+00 -0.24783738311E+04  0.24783738311E+04  0.25500000920E-02 0. -1.
    10030    2    1    2    0    0  0.00000000000E+00  0.00000000000E+00 -0.86759946932E+03  0.40891481928E+04  0.39960485612E+04 0.  0.
        3    1    3    3  502    0 -0.11028381346E+04 -0.31975408263E+03 -0.21070111852E+04  0.23995813737E+04  0.10100000352E+00 0. -1.
       -3    1    3    3    0  502  0.11028381346E+04  0.31975408263E+03  0.12394117159E+04  0.16895668191E+04  0.10100000352E+00 0.  1.
</event>
<event>
 5   0  0.8329875E-09  0.4022177E+04  0.7818609E-02  0.8000088E-01
       -1   -1    0    0    0  501  0.00000000000E+00  0.00000000000E+00  0.25847221144E+04  0.25847221144E+04  0.50400001928E-02 0. -1.
        1   -1    0    0  501    0  0.00000000000E+00  0.00000000000E+00 -0.15647626878E+04  0.15647626878E+04  0.50400001928E-02 0.  1.
    10030    2    1    2    0    0  0.00000000000E+00  0.00000000000E+00  0.10199594266E+04  0.41494848022E+04  0.40221768847E+04 0.  0.
        5    1    3    3  502    0 -0.89604043358E+03 -0.29877872985E+03 -0.13216876511E+04  0.16245114727E+04  0.46999998093E+01 0.  1.
       -5    1    3    3    0  502  0.89604043358E+03  0.29877872985E+03  0.23416470777E+04  0.25249733295E+04  0.46999998093E+01 0. -1.
</event>
<event>
 5   0  0.2587493E-08  0.3995602E+04  0.7818609E-02  0.8005434E-01
        2   -1    0    0  501    0  0.00000000000E+00  0.00000000000E+00  0.19195786988E+04  0.19195786988E+04  0.25500000920E-02 0. -1.
       -2   -1    0    0    0  501  0.00000000000E+00  0.00000000000E+00 -0.20792110875E+04  0.20792110875E+04  0.25500000920E-02 0.  1.
    10030    2    1    2    0    0  0.00000000000E+00  0.00000000000E+00 -0.15963238873E+03  0.39987897862E+04  0.39956022393E+04 0.  0.
        5    1    3    3  502    0  0.70149651157E+03 -0.15168669891E+04  0.10156822932E+04  0.19556624016E+04  0.46999998093E+01 0. -1.
       -5    1    3    3    0  502 -0.70149651157E+03  0.15168669891E+04 -0.11753146819E+04  0.20431273846E+04  0.46999998093E+01 0.  1.
</event>
<event>
 5   0  0.2650452E-08  0.3998665E+04  0.7818609E-02  0.8004816E-01
       -2   -1    0    0    0  501  0.00000000000E+00  0.00000000000E+00  0.21652963832E+04  0.21652963832E+04  0.25500000920E-02 0.  1.
        2   -1    0    0  501    0  0.00000000000E+00  0.00000000000E+00 -0.18460894404E+04  0.18460894404E+04  0.25500000920E-02 0. -1.
    10030    2    1    2    0    0  0.00000000000E+00  0.00000000000E+00  0.31920694279E+03  0.40113858237E+04  0.39986651715E+04 0.  0.
        3    1    3    3  502    0 -0.19446794381E+04 -0.38521678892E+03 -0.10037474477E+03  0.19850050859E+04  0.10100000352E+00 0.  1.
       -3    1    3    3    0  502  0.19446794381E+04  0.38521678892E+03  0.41958168756E+03  0.20263807377E+04  0.10100000352E+00 0. -1.
</event>
<event>
 5   0  0.8329875E-09  0.3998185E+04  0.7818609E-02  0.8004913E-01
        1   -1    0    0  501    0  0.00000000000E+00  0.00000000000E+00  0.19370327642E+04  0.19370327642E+04  0.50400001928E-02 0.  1.
       -1   -1    0    0    0  501  0.00000000000E+00  0.00000000000E+00 -0.20631409059E+04  0.20631409059E+04  0.50400001928E-02 0. -1.
    10030    2    1    2    0    0  0.00000000000E+00  0.00000000000E+00 -0.12610814175E+03  0.40001736701E+04  0.39981853543E+04 0.  0.
        3    1    3    3  502    0  0.53510615830E+03  0.13357829473E+04 -0.14514461807E+04  0.20438568219E+04  0.10100000352E+00 0. -1.
       -3    1    3    3    0  502 -0.53510615830E+03 -0.13357829473E+04  0.13253380389E+04  0.19563168482E+04  0.10100000352E+00 0.  1.
</event>
<event>
 5   0  0.8329875E-09  0.3995372E+04  0.7818609E-02  0.8005481E-01
        1   -1    0    0  501    0  0.00000000000E+00  0.00000000000E+00  0.21310059126E+04  0.21310059127E+04  0.50400001928E-02 0.  1.
       -1   -1    0    0    0  501  0.00000000000E+00  0.00000000000E+00 -0.18727071754E+04  0.18727071754E+04  0.50400001928E-02 0. -1.
    10030    2    1    2    0    0  0.00000000000E+00  0.00000000000E+00  0.25829873722E+03  0.40037130881E+04  0.39953723549E+04 0.  0.
        3    1    3    3  502    0 -0.14957400059E+04  0.13107634443E+04  0.31772053239E+03  0.20140221744E+04  0.10100000352E+00 0. -1.
       -3    1    3    3    0  502  0.14957400059E+04 -0.13107634443E+04 -0.59421795161E+02  0.19896909137E+04  0.10100000352E+00 0.  1.
</event>
<event>
 5   0  0.8329875E-09  0.4000661E+04  0.7818609E-02  0.8004413E-01
       -1   -1    0    0    0  501  0.00000000000E+00  0.00000000000E+00  0.17280488184E+04  0.17280488184E+04  0.50400001928E-02 0.  1.
        1   -1    0    0  501    0  0.00000000000E+00  0.00000000000E+00 -0.23155148254E+04  0.23155148254E+04  0.50400001928E-02 0. -1.
    10030    2    1    2    0    0  0.00000000000E+00  0.00000000000E+00 -0.58746600699E+03  0.40435636438E+04  0.40006612743E+04 0.  0.
        4    1    3    3  502    0  0.16147289176E+04  0.48198251157E+03 -0.13830965688E+04  0.21800491623E+04  0.12699999809E+01 0. -1.
       -4    1    3    3    0  502 -0.16147289176E+04 -0.48198251157E+03  0.79563056179E+03  0.18635144814E+04  0.12699999809E+01 0.  1.
</event>
<event>
 5   0  0.2746876E-08  0.3995818E+04  0.7818609E-02  0.8005391E-01
       -2   -1    0    0    0  501  0.00000000000E+00  0.00000000000E+00  0.19278721593E+04  0.19278721593E+04  0.25500000920E-02 0. -1.
        2   -1    0    0  501    0  0.00000000000E+00  0.00000000000E+00 -0.20704902226E+04  0.20704902226E+04  0.25500000920E-02 0.  1.
    10030    2    1    2    0    0  0.00000000000E+00  0.00000000000E+00 -0.14261806330E+03  0.39983623819E+04  0.39958180420E+04 0.  0.
        1    1    3    3  502    0  0.12323593501E+04 -0.30181607780E+03  0.14729941067E+04  0.19440972586E+04  0.50400001928E-02 0. -1.
       -1    1    3    3    0  502 -0.12323593501E+04  0.30181607780E+03 -0.16156121700E+04  0.20542651232E+04  0.50400001928E-02 0.  1.
</event>
<event>
 5   0  0.2587493E-08  0.3998257E+04  0.7818609E-02  0.8004898E-01
        2   -1    0    0  501    0  0.00000000000E+00  0.00000000000E+00  0.18737917631E+04  0.18737917631E+04  0.25500000920E-02 0. -1.
       -2   -1    0    0    0  501  0.00000000000E+00  0.00000000000E+00 -0.21328491738E+04  0.21328491738E+04  0.25500000920E-02 0.  1.
    10030    2    1    2    0    0  0.00000000000E+00  0.00000000000E+00 -0.25905741072E+03  0.40066409370E+04  0.39982572273E+04 0.  0.
        5    1    3    3  502    0  0.19824810411E+04 -0.25618548284E+03 -0.10435544264E+03  0.20016928407E+04  0.46999998093E+01 0. -1.
       -5    1    3    3    0  502 -0.19824810411E+04  0.25618548284E+03 -0.15470196808E+03  0.20049480963E+04  0.46999998093E+01 0.  1.
</event>
<event>
 5   0  0.2599332E-08  0.3998545E+04  0.7818609E-02  0.8004840E-01
        2   -1    0    0  501    0  0.00000000000E+00  0.00000000000E+00  0.12863238341E+04  0.12863238341E+04  0.25500000920E-02 0. -1.
       -2   -1    0    0    0  501  0.00000000000E+00  0.00000000000E+00 -0.31073757282E+04  0.31073757282E+04  0.25500000920E-02 0.  1.
    10030    2    1    2    0    0  0.00000000000E+00  0.00000000000E+00 -0.18210518941E+04  0.43936995622E+04  0.39985454658E+04 0.  0.
        2    1    3    3  502    0  0.12864859252E+04  0.59109791929E+03 -0.24616398326E+04  0.28397382716E+04  0.25500000920E-02 0.  1.
       -2    1    3    3    0  502 -0.12864859252E+04 -0.59109791929E+03  0.64058793848E+03  0.15539612906E+04  0.25500000920E-02 0. -1.
</event>
<event>
 5   0  0.2650452E-08  0.4001772E+04  0.7818609E-02  0.8004189E-01
       -2   -1    0    0    0  501  0.00000000000E+00  0.00000000000E+00  0.18236627528E+04  0.18236627528E+04  0.25500000920E-02 0.  1.
        2   -1    0    0  501    0  0.00000000000E+00  0.00000000000E+00 -0.21953322764E+04  0.21953322764E+04  0.25500000920E-02 0. -1.
    10030    2    1    2    0    0  0.00000000000E+00  0.00000000000E+00 -0.37166952365E+03  0.40189950292E+04  0.40017724586E+04 0.  0.
        3    1    3    3  502    0  0.10011353225E+04  0.16586256331E+04 -0.68822235233E+03  0.20559574269E+04  0.10100000352E+00 0. -1.
       -3    1    3    3    0  502 -0.10011353225E+04 -0.16586256331E+04  0.31655282868E+03  0.19630376024E+04  0.10100000352E+00 0.  1.
</event>
<event>
 5   0  0.8329875E-09  0.4001165E+04  0.7818609E-02  0.8004312E-01
        1   -1    0    0  501    0  0.00000000000E+00  0.00000000000E+00  0.19580714043E+04  0.19580714043E+04  0.50400001928E-02 0. -1.
       -1   -1    0    0    0  501  0.00000000000E+00  0.00000000000E+00 -0.20440163067E+04  0.20440163067E+04  0.50400001928E-02 0.  1.
    10030    2    1    2    0    0  0.00000000000E+00  0.00000000000E+00 -0.85944902380E+02  0.40020877110E+04  0.40011647704E+04 0.  0.
        2    1    3    3  502    0  0.10902256320E+04 -0.14625832253E+04 -0.86449512788E+03  0.20186860691E+04  0.25500000920E-02 0.  1.
       -2    1    3    3    0  502 -0.10902256320E+04  0.14625832253E+04  0.77855022550E+03  0.19834016419E+04  0.25500000920E-02 0. -1.
</event>
<event>
 5   0  0.8329875E-09  0.3989560E+04  0.7818609E-02  0.8006656E-01
        1   -1    0    0  501    0  0.00000000000E+00  0.00000000000E+00  0.22000240493E+04  0.22000240493E+04  0.50400001928E-02 0.  1.
       -1   -1    0    0    0  501  0.00000000000E+00  0.00000000000E+00 -0.18086831915E+04  0.18086831915E+04  0.50400001928E-02 0. -1.
    10030    2    1    2    0    0  0.00000000000E+00  0.00000000000E+00  0.39134085779E+03  0.40087072407E+04  0.39895596342E+04 0.  0.
        1    1    3    3  502    0  0.16856219548E+04 -0.91360147582E+03 -0.35756951550E+03  0.19503448386E+04  0.50400001928E-02 0. -1.
       -1    1    3    3    0  502 -0.16856219548E+04  0.91360147582E+03  0.74891037328E+03  0.20583624021E+04  0.50400001928E-02 0.  1.
</event>
<event>
 5   0  0.2650452E-08  0.4001106E+04  0.7818609E-02  0.8004324E-01
       -2   -1    0    0    0  501  0.00000000000E+00  0.00000000000E+00  0.28235255721E+04  0.28235255721E+04  0.25500000920E-02 0.  1.
        2   -1    0    0  501    0  0.00000000000E+00  0.00000000000E+00 -0.14174519215E+04  0.14174519215E+04  0.25500000920E-02 0. -1.
    10030    2    1    2    0    0  0.00000000000E+00  0.00000000000E+00  0.14060736506E+04  0.42409774936E+04  0.40011057209E+04 0.  0.
        3    1    3    3  502    0 -0.15244542632E+04 -0.12952823890E+04  0.67946703192E+03  0.21126743065E+04  0.10100000352E+00 0.  1.
       -3    1    3    3    0  502  0.15244542632E+04  0.12952823890E+04  0.72660661873E+03  0.21283031871E+04  0.10100000352E+00 0. -1.
</event>
<event>
 5   0  0.2587493E-08  0.3993529E+04  0.7818609E-02  0.8005853E-01
       -2   -1    0    0    0  501  0.00000000000E+00  0.00000000000E+00  0.14245228954E+04  0.14245228954E+04  0.25500000920E-02 0. -1.
        2   -1    0    0  501    0  0.00000000000E+00  0.00000000000E+00 -0.27988799245E+04  0.27988799245E+04  0.25500000920E-02 0.  1.
    10030    2    1    2    0    0  0.00000000000E+00  0.00000000000E+00 -0.13743570291E+04  0.42234028200E+04  0.39935290328E+04 0.  0.
        5    1    3    3  502    0 -0.69166805363E+02 -0.10709386847E+04 -0.24679541576E+04  0.26911918414E+04  0.46999998093E+01 0.  1.
       -5    1    3    3    0  502  0.69166805363E+02  0.10709386847E+04  0.10935971285E+04  0.15322109785E+04  0.46999998093E+01 0. -1.
</event>
<event>
 5   0  0.8329875E-09  0.4006650E+04  0.7818609E-02  0.8003206E-01
        1   -1    0    0  501    0  0.00000000000E+00  0.00000000000E+00  0.16479320679E+04  0.16479320679E+04  0.50400001928E-02 0.  1.
       -1   -1    0    0    0  501  0.00000000000E+00  0.00000000000E+00 -0.24353622296E+04  0.24353622296E+04  0.50400001928E-02 0. -1.
    10030    2    1    2    0    0  0.00000000000E+00  0.00000000000E+00 -0.78743016167E+03  0.40832942975E+04  0.40066502294E+04 0.  0.
        3    1    3    3  502    0  0.59538142290E+03  0.28820808159E+02 -0.23428917750E+04  0.24175300530E+04  0.10100000352E+00 0. -1.
       -3    1    3    3    0  502 -0.59538142290E+03 -0.28820808159E+02  0.15554616133E+04  0.16657642445E+04  0.10100000352E+00 0.  1.
</event>
<event>
 5   0  0.8329875E-09  0.3998513E+04  0.7818609E-02  0.8004847E-01
        1   -1    0    0  501    0  0.00000000000E+00  0.00000000000E+00  0.20115367867E+04  0.20115367867E+04  0.50400001928E-02 0. -1.
       -1   -1    0    0    0  501  0.00000000000E+00  0.00000000000E+00 -0.19870511274E+04  0.19870511274E+04  0.50400001928E-02 0.  1.
    10030    2    1    2    0    0  0.00000000000E+00  0.00000000000E+00  0.24485659346E+02  0.39985879141E+04  0.39985129435E+04 0.  0.
        4    1    3    3  502    0 -0.66948709458E+03  0.11588660815E+04 -0.14729924986E+04  0.19901990047E+04  0.12699999809E+01 0.  1.
       -4    1    3    3    0  502  0.66948709458E+03 -0.11588660815E+04  0.14974781579E+04  0.20083889093E+04  0.12699999809E+01 0. -1.
</event>
<event>
 5   0  0.8329875E-09  0.4005734E+04  0.7818609E-02  0.8003391E-01
       -1   -1    0    0    0  501  0.00000000000E+00  0.00000000000E+00  0.15238805424E+04  0.15238805424E+04  0.50400001928E-02 0. -1.
        1   -1    0    0  501    0  0.00000000000E+00  0.00000000000E+00 -0.26324085086E+04  0.26324085087E+04  0.50400001928E-02 0.  1.
    10030    2    1    2    0    0  0.00000000000E+00  0.00000000000E+00 -0.11085279663E+04  0.41562890510E+04  0.40057339432E+04 0.  0.
        2    1    3    3  502    0 -0.12590872741E+04  0.10564983457E+04 -0.17418281017E+04  0.23948809269E+04  0.25500000920E-02 0.  1.
       -2    1    3    3    0  502  0.12590872741E+04 -0.10564983457E+04  0.63330013540E+03  0.17614081241E+04  0.25500000920E-02 0. -1.
</event>
<event>
 5   0  0.2612363E-08  0.3997783E+04  0.7818609E-02  0.8004994E-01
       -2   -1    0    0    0  501  0.00000000000E+00  0.00000000000E+00  0.25159685449E+04  0.25159685449E+04  0.25500000920E-02 0.  1.
        2   -1    0    0  501    0  0.00000000000E+00  0.00000000000E+00 -0.15880830974E+04  0.15880830974E+04  0.25500000920E-02 0. -1.
    10030    2    1    2    0    0  0.00000000000E+00  0.00000000000E+00  0.92788544756E+03  0.41040516423E+04  0.39977829454E+04 0.  0.
        4    1    3    3  502    0  0.10726250321E+04 -0.30202945078E+03 -0.12396325281E+04  0.16668643215E+04  0.12699999809E+01 0. -1.
       -4    1    3    3    0  502 -0.10726250321E+04  0.30202945078E+03  0.21675179757E+04  0.24371873208E+04  0.12699999809E+01 0.  1.
</event>
<event>
 5   0  0.8329875E-09  0.4009917E+04  0.7818609E-02  0.8002549E-01
        1   -1    0    0  501    0  0.00000000000E+00  0.00000000000E+00  0.16226536164E+04  0.16226536164E+04  0.50400001928E-02 0. -1.
       -1   -1    0    0    0  501  0.00000000000E+00  0.00000000000E+00 -0.24773361947E+04  0.24773361947E+04  0.50400001928E-02 0.  1.
    10030    2    1    2    0    0  0.00000000000E+00  0.00000000000E+00 -0.85468257834E+03  0.40999898111E+04  0.40099169744E+04 0.  0.
        5    1    3    3  502    0  0.17984942726E+04 -0.17114103771E+03 -0.13163344031E+04  0.22353141287E+04  0.46999998093E+01 0.  1.
       -5    1    3    3    0  502 -0.17984942726E+04  0.17114103771E+03  0.46165182472E+03  0.18646756824E+04  0.46999998093E+01 0. -1.
</event>
<event>
 5   0  0.2587493E-08  0.3977648E+04  0.7818609E-02  0.8009071E-01
       -2   -1    0    0    0  501  0.00000000000E+00  0.00000000000E+00  0.19853872523E+04  0.19853872523E+04  0.25500000920E-02 0.  1.
        2   -1    0    0  501    0  0.00000000000E+00  0.00000000000E+00 -0.19922670479E+04  0.19922670479E+04  0.25500000920E-02 0. -1.
    10030    2    1    2    0    0  0.00000000000E+00  0.00000000000E+00 -0.68797955716E+01  0.39776543002E+04  0.39776483505E+04 0.  0.
        5    1    3    3  502    0  0.17066677369E+04 -0.96737219992E+03 -0.33035898915E+03  0.19893925930E+04  0.46999998093E+01 0.  1.
       -5    1    3    3    0  502 -0.17066677369E+04  0.96737219992E+03  0.32347919357E+03  0.19882617072E+04  0.46999998093E+01 0. -1.
</event>
<event>
 5   0  0.8329875E-09  0.4003712E+04  0.7818609E-02  0.8003798E-01
        1   -1    0    0  501    0  0.00000000000E+00  0.00000000000E+00  0.22215702901E+04  0.22215702901E+04  0.50400001928E-02 0. -1.
       -1   -1    0    0    0  501  0.00000000000E+00  0.00000000000E+00 -0.18038715894E+04  0.18038715894E+04  0.50400001928E-02 0.  1.
    10030    2    1    2    0    0  0.00000000000E+00  0.00000000000E+00  0.41769870068E+03  0.40254418795E+04  0.40037120427E+04 0.  0.
        2    1    3    3  502    0 -0.88526288865E+03  0.95952111140E+03  0.17346683259E+04  0.21710470621E+04  0.25500000920E-02 0. -1.
       -2    1    3    3    0  502  0.88526288865E+03 -0.95952111140E+03 -0.13169696252E+04  0.18543948174E+04  0.25500000920E-02 0.  1.
</event>
<event>
 5   0  0.2746876E-08  0.3999833E+04  0.7818609E-02  0.8004580E-01
       -2   -1    0    0    0  501  0.00000000000E+00  0.00000000000E+00  0.14254718983E+04  0.14254718983E+04  0.25500000920E-02 0.  1.
        2   -1    0    0  501    0  0.00000000000E+00  0.00000000000E+00 -0.28058534966E+04  0.28058534966E+04  0.25500000920E-02 0. -1.
    10030    2    1    2    0    0  0.00000000000E+00  0.00000000000E+00 -0.13803815983E+04  0.42313253950E+04  0.39998326516E+04 0.  0.
        1    1    3    3  502    0 -0.16135733818E+04 -0.35926469456E+03 -0.18809354750E+04  0.25041182960E+04  0.50400001928E-02 0. -1.
       -1    1    3    3    0  502  0.16135733818E+04  0.35926469456E+03  0.50055387673E+03  0.17272070989E+04  0.50400001928E-02 0.  1.
</event>
<event>
 5   0  0.8329875E-09  0.3998186E+04  0.7818609E-02  0.8004913E-01
       -1   -1    0    0    0  501  0.00000000000E+00  0.00000000000E+00  0.26436493457E+04  0.26436493457E+04  0.50400001928E-02 0. -1.
        1   -1    0    0  501    0  0.00000000000E+00  0.00000000000E+00 -0.15116882757E+04  0.15116882757E+04  0.50400001928E-02 0.  1.
    10030    2    1    2    0    0  0.00000000000E+00  0.00000000000E+00  0.11319610701E+04  0.41553376214E+04  0.39981864493E+04 0.  0.
        5    1    3    3  502    0  0.10143278106E+04  0.11797062077E+04  0.18706233131E+04  0.24330682920E+04  0.46999998093E+01 0. -1.
       -5    1    3    3    0  502 -0.10143278106E+04 -0.11797062077E+04 -0.73866224306E+03  0.17222693294E+04  0.46999998093E+01 0.  1.
</event>
<event>
 5   0  0.8329875E-09  0.4003517E+04  0.7818609E-02  0.8003837E-01
       -1   -1    0    0    0  501  0.00000000000E+00  0.00000000000E+00  0.24974627021E+04  0.24974627021E+04  0.50400001928E-02 0.  1.
        1   -1    0    0  501    0  0.00000000000E+00  0.00000000000E+00 -0.16044434945E+04  0.16044434945E+04  0.50400001928E-02 0. -1.
    10030    2    1    2    0    0  0.00000000000E+00  0.00000000000E+00  0.89301920762E+03  0.41019061965E+04  0.40035173460E+04 0.  0.
        2    1    3    3  502    0 -0.11046319664E+04  0.40133872858E+02  0.21564201634E+04  0.24232148955E+04  0.25500000920E-02 0.  1.
       -2    1    3    3    0  502  0.11046319664E+04 -0.40133872858E+02 -0.12634009558E+04  0.16786913010E+04  0.25500000920E-02 0. -1.
</event>
<event>
 5   0  0.2599332E-08  0.3973000E+04  0.7818609E-02  0.8010016E-01
       -2   -1    0    0    0  501  0.00000000000E+00  0.00000000000E+00  0.13340917982E+04  0.13340917982E+04  0.25500000920E-02 0. -1.
        2   -1    0    0  501    0  0.00000000000E+00  0.00000000000E+00 -0.29579541628E+04  0.29579541628E+04  0.25500000920E-02 0.  1.
    10030    2    1    2    0    0  0.00000000000E+00  0.00000000000E+00 -0.16238623647E+04  0.42920459610E+04  0.39730000694E+04 0.  0.
        2    1    3    3  502    0 -0.11355650187E+04 -0.15062943796E+04 -0.14846330861E+04  0.24005345384E+04  0.25500000920E-02 0.  1.
       -2    1    3    3    0  502  0.11355650187E+04  0.15062943796E+04 -0.13922927859E+03  0.18915114226E+04  0.25500000920E-02 0. -1.
</event>
<event>
 5   0  0.2599332E-08  0.3978813E+04  0.7818609E-02  0.8008834E-01
       -2   -1    0    0    0  501  0.00000000000E+00  0.00000000000E+00  0.16676222270E+04  0.16676222270E+04  0.25500000920E-02 0.  1.
        2   -1    0    0  501    0  0.00000000000E+00  0.00000000000E+00 -0.23732823307E+04  0.23732823307E+04  0.25500000920E-02 0. -1.
    10030    2    1    2    0    0  0.00000000000E+00  0.00000000000E+00 -0.70566010367E+03  0.40409045577E+04  0.39788130721E+04 0.  0.
        2    1    3    3  502    0 -0.90476654408E+03  0.91012744381E+03  0.11910252834E+04  0.17508499905E+04  0.25500000920E-02 0.  1.
       -2    1    3    3    0  502  0.90476654408E+03 -0.91012744381E+03 -0.18966853871E+04  0.22900545672E+04  0.25500000920E-02 0. -1.
</event>
<event>
 5   0  0.2612363E-08  0.3972456E+04  0.7818609E-02  0.8010126E-01
        2   -1    0    0  501    0  0.00000000000E+00  0.00000000000E+00  0.15266131660E+04  0.15266131660E+04  0.25500000920E-02 0. -1.
       -2   -1    0    0    0  501  0.00000000000E+00  0.00000000000E+00 -0.25842188553E+04  0.25842188553E+04  0.25500000920E-02 0.  1.
    10030    2    1    2    0    0  0.00000000000E+00  0.00000000000E+00 -0.10576056893E+04  0.41108320213E+04  0.39724564331E+04 0.  0.
        4    1    3    3  502    0  0.14443729442E+04  0.13199944215E+04 -0.88201700003E+03  0.21462884419E+04  0.12699999809E+01 0.  1.
       -4    1    3    3    0  502 -0.14443729442E+04 -0.13199944215E+04 -0.17558868930E+03  0.19645435794E+04  0.12699999809E+01 0. -1.
</event>
<event>
 5   0  0.2599332E-08  0.4002885E+04  0.7818609E-02  0.8003965E-01
       -2   -1    0    0    0  501  0.00000000000E+00  0.00000000000E+00  0.15640217183E+04  0.15640217183E+04  0.25500000920E-02 0.  1.
        2   -1    0    0  501    0  0.00000000000E+00  0.00000000000E+00 -0.25611999640E+04  0.25611999640E+04  0.25500000920E-02 0. -1.
    10030    2    1    2    0    0  0.00000000000E+00  0.00000000000E+00 -0.99717824577E+03  0.41252216823E+04  0.40028851438E+04 0.  0.
        2    1    3    3  502    0  0.17987192534E+04 -0.52753097187E+03 -0.12215212600E+04  0.22373631953E+04  0.25500000920E-02 0. -1.
       -2    1    3    3    0  502 -0.17987192534E+04  0.52753097187E+03  0.22434301421E+03  0.18878584870E+04  0.25500000920E-02 0.  1.
</event>
<event>
 5   0  0.2599332E-08  0.3998063E+04  0.7818609E-02  0.8004937E-01
       -2   -1    0    0    0  501  0.00000000000E+00  0.00000000000E+00  0.15170280433E+04  0.15170280434E+04  0.25500000920E-02 0.  1.
        2   -1    0    0  501    0  0.00000000000E+00  0.00000000000E+00 -0.26341815647E+04  0.26341815647E+04  0.25500000920E-02 0. -1.
    10030    2    1    2    0    0  0.00000000000E+00  0.00000000000E+00 -0.11171535213E+04  0.41512096080E+04  0.39980631836E+04 0.  0.
        2    1    3    3  502    0 -0.29036896484E+03  0.10403402239E+04 -0.23051237412E+04  0.25456271092E+04  0.25500000920E-02 0. -1.
       -2    1    3    3    0  502  0.29036896484E+03 -0.10403402239E+04  0.11879702198E+04  0.16055824988E+04  0.25500000920E-02 0.  1.
</event>
<event>
 5   0  0.2650452E-08  0.4001717E+04  0.7818609E-02  0.8004200E-01
       -2   -1    0    0    0  501  0.00000000000E+00  0.00000000000E+00  0.23930738063E+04  0.23930738063E+04  0.25500000920E-02 0.  1.
        2   -1    0    0  501    0  0.00000000000E+00  0.00000000000E+00 -0.16729256852E+04  0.16729256852E+04  0.25500000920E-02 0. -1.
    10030    2    1    2    0    0  0.00000000000E+00  0.00000000000E+00  0.72014812109E+03  0.40659994916E+04  0.40017169502E+04 0.  0.
        3    1    3    3  502    0  0.10205325325E+03  0.12859310869E+04  0.19141537650E+04  0.23082500456E+04  0.10100000352E+00 0.  1.
       -3    1    3    3    0  502 -0.10205325325E+03 -0.12859310869E+04 -0.11940056439E+04  0.17577494459E+04  0.10100000352E+00 0. -1.
</event>
<event>
 5   0  0.8329875E-09  0.3989530E+04  0.7818609E-02  0.8006662E-01
        1   -1    0    0  501    0  0.00000000000E+00  0.00000000000E+00  0.15957519420E+04  0.15957519420E+04  0.50400001928E-02 0.  1.
       -1   -1    0    0    0  501  0.00000000000E+00  0.00000000000E+00 -0.24935506022E+04  0.24935506022E+04  0.50400001928E-02 0. -1.
    10030    2    1    2    0    0  0.00000000000E+00  0.00000000000E+00 -0.89779866027E+03  0.40893025442E+04  0.39895304064E+04 0.  0.
        4    1    3    3  502    0 -0.16635683984E+04  0.77907299659E+03  0.34815405671E+03  0.18696597044E+04  0.12699999809E+01 0. -1.
       -4    1    3    3    0  502  0.16635683984E+04 -0.77907299659E+03 -0.12459527170E+04  0.22196428398E+04  0.12699999809E+01 0.  1.
</event>
<event>
 5   0  0.8329875E-09  0.3998945E+04  0.7818609E-02  0.8004759E-01
       -1   -1    0    0    0  501  0.00000000000E+00  0.00000000000E+00  0.16070504103E+04  0.16070504103E+04  0.50400001928E-02 0.  1.
        1   -1    0    0  501    0  0.00000000000E+00  0.00000000000E+00 -0.24877191446E+04  0.24877191446E+04  0.50400001928E-02 0. -1.
    10030    2    1    2    0    0  0.00000000000E+00  0.00000000000E+00 -0.88066873431E+03  0.40947695549E+04  0.39989448969E+04 0.  0.
        1    1    3    3  502    0 -0.12880386349E+04  0.39199681227E+03  0.10733250099E+04  0.17218395984E+04  0.50400001928E-02 0.  1.
       -1    1    3    3    0  502  0.12880386349E+04 -0.39199681227E+03 -0.19539937442E+04  0.23729299565E+04  0.50400001928E-02 0. -1.
</event>
<event>
 5   0  0.8329875E-09  0.4004419E+04  0.7818609E-02  0.8003656E-01
        1   -1    0    0  501    0  0.00000000000E+00  0.00000000000E+00  0.17764360006E+04  0.17764360006E+04  0.50400001928E-02 0.  1.
       -1   -1    0    0    0  501  0.00000000000E+00  0.00000000000E+00 -0.22566769275E+04  0.22566769275E+04  0.50400001928E-02 0. -1.
    10030    2    1    2    0    0  0.00000000000E+00  0.00000000000E+00 -0.48024092692E+03  0.40331129281E+04  0.40044186274E+04 0.  0.
        3    1    3    3  502    0  0.17775453149E+04 -0.49094447388E+03 -0.10255471606E+04  0.21100807595E+04  0.10100000352E+00 0. -1.
       -3    1    3    3    0  502 -0.17775453149E+04  0.49094447388E+03  0.54530623364E+03  0.19230321686E+04  0.10100000352E+00 0.  1.
</event>
<event>
 5   0  0.8329875E-09  0.4004310E+04  0.7818609E-02  0.8003678E-01
       -1   -1    0    0    0  501  0.00000000000E+00  0.00000000000E+00  0.15487832577E+04  0.15487832578E+04  0.50400001928E-02 0.  1.
        1   -1    0    0  501    0  0.00000000000E+00  0.00000000000E+00 -0.25882417953E+04  0.25882417953E+04  0.50400001928E-02 0. -1.
    10030    2    1    2    0    0  0.00000000000E+00  0.00000000000E+00 -0.10394585376E+04  0.41370250531E+04  0.40043104573E+04 0.  0.
        2    1    3    3  502    0  0.12524511471E+04  0.15547989607E+04 -0.67501678838E+03  0.21075296792E+04  0.25500000920E-02 0. -1.
       -2    1    3    3    0  502 -0.12524511471E+04 -0.15547989607E+04 -0.36444174919E+03  0.20294953739E+04  0.25500000920E-02 0.  1.
</event>
<event>
 5   0  0.8329875E-09  0.4004854E+04  0.7818609E-02  0.8003568E-01
        1   -1    0    0  501    0  0.00000000000E+00  0.00000000000E+00  0.21776862650E+04  0.21776862650E+04  0.50400001928E-02 0.  1.
       -1   -1    0    0    0  501  0.00000000000E+00  0.00000000000E+00 -0.18412725182E+04  0.18412725182E+04  0.50400001928E-02 0. -1.
    10030    2    1    2    0    0  0.00000000000E+00  0.00000000000E+00  0.33641374686E+03  0.40189587832E+04  0.40048539913E+04 0.  0.
        3    1    3    3  502    0  0.11364330777E+04 -0.15326133735E+04  0.77807247782E+03  0.20605292242E+04  0.10100000352E+00 0.  1.
       -3    1    3    3    0  502 -0.11364330777E+04  0.15326133735E+04 -0.44165873095E+03  0.19584295590E+04  0.10100000352E+00 0. -1.
</event>
<event>
 5   0  0.2612363E-08  0.3983475E+04  0.7818609E-02  0.8007889E-01
       -2   -1    0    0    0  501  0.00000000000E+00  0.00000000000E+00  0.12656740025E+04  0.12656740025E+04  0.25500000920E-02 0. -1.
        2   -1    0    0  501    0  0.00000000000E+00  0.00000000000E+00 -0.31343126498E+04  0.31343126498E+04  0.25500000920E-02 0.  1.
    10030    2    1    2    0    0  0.00000000000E+00  0.00000000000E+00 -0.18686386473E+04  0.43999866523E+04  0.39834748833E+04 0.  0.
        4    1    3    3  502    0 -0.51776687905E+03 -0.13264423739E+04 -0.24725888396E+04  0.28532839142E+04  0.12699999809E+01 0.  1.
       -4    1    3    3    0  502  0.51776687905E+03  0.13264423739E+04  0.60395019228E+03  0.15467027381E+04  0.12699999809E+01 0. -1.
</event>
<event>
 5   0  0.2612363E-08  0.4003795E+04  0.7818609E-02  0.8003781E-01
       -2   -1    0    0    0  501  0.00000000000E+00  0.00000000000E+00  0.19763237336E+04  0.19763237336E+04  0.25500000920E-02 0. -1.
        2   -1    0    0  501    0  0.00000000000E+00  0.00000000000E+00 -0.20278018778E+04  0.20278018778E+04  0.25500000920E-02 0.  1.
    10030    2    1    2    0    0  0.00000000000E+00  0.00000000000E+00 -0.51478144203E+02  0.40041256114E+04  0.40037946891E+04 0.  0.
        4    1    3    3  502    0 -0.21454870551E+03  0.97971840173E+02  0.19623793952E+04  0.19765030058E+04  0.12699999809E+01 0. -1.
       -4    1    3    3    0  502  0.21454870551E+03 -0.97971840173E+02 -0.20138575394E+04  0.20276226055E+04  0.12699999809E+01 0.  1.
</event>
<event>
 5   0  0.2599332E-08  0.4008237E+04  0.7818609E-02  0.8002887E-01
        2   -1    0    0  501    0  0.00000000000E+00  0.00000000000E+00  0.12549194166E+04  0.12549194166E+04  0.25500000920E-02 0. -1.
       -2   -1    0    0    0  501  0.00000000000E+00  0.00000000000E+00 -0.32005967796E+04  0.32005967796E+04  0.25500000920E-02 0.  1.
    10030    2    1    2    0    0  0.00000000000E+00  0.00000000000E+00 -0.19456773629E+04  0.44555161962E+04  0.40082370406E+04 0.  0.
        2    1    3    3  502    0 -0.18858366638E+04  0.10918874142E+03 -0.22866347408E+03  0.19027845616E+04  0.25500000920E-02 0. -1.
       -2    1    3    3    0  502  0.18858366638E+04 -0.10918874142E+03 -0.17170138888E+04  0.25527316346E+04  0.25500000920E-02 0.  1.
</event>
<event>
 5   0  0.8329875E-09  0.3996061E+04  0.7818609E-02  0.8005342E-01
        1   -1    0    0  501    0  0.00000000000E+00  0.00000000000E+00  0.15344608680E+04  0.15344608680E+04  0.50400001928E-02 0. -1.
       -1   -1    0    0    0  501  0.00000000000E+00  0.00000000000E+00 -0.26016477986E+04  0.26016477986E+04  0.50400001928E-02 0.  1.
    10030    2    1    2    0    0  0.00000000000E+00  0.00000000000E+00 -0.10671869307E+04  0.41361086666E+04  0.39960614306E+04 0.  0.
        4    1    3    3  502    0 -0.46660297022E+03 -0.14040743612E+04  0.85621668055E+03  0.17094594937E+04  0.12699999809E+01 0. -1.
       -4    1    3    3    0  502  0.46660297022E+03  0.14040743612E+04 -0.19234036112E+04  0.24266491729E+04  0.12699999809E+01 0.  1.
</event>
<event>
 5   0  0.8329875E-09  0.4001639E+04  0.7818609E-02  0.8004216E-01
       -1   -1    0    0    0  501  0.00000000000E+00  0.00000000000E+00  0.24339052125E+04  0.24339052125E+04  0.50400001928E-02 0.  1.
        1   -1    0    0  501    0  0.00000000000E+00  0.00000000000E+00 -0.16447964384E+04  0.16447964384E+04  0.50400001928E-02 0. -1.
    10030    2    1    2    0    0  0.00000000000E+00  0.00000000000E+00  0.78910877410E+03  0.40787016509E+04  0.40016389767E+04 0.  0.
        3    1    3    3  502    0  0.18937549706E+04 -0.89895782070E+02  0.10463133313E+04  0.21654470064E+04  0.10100000352E+00 0.  1.
       -3    1    3    3    0  502 -0.18937549706E+04  0.89895782070E+02 -0.25720455716E+03  0.19132546445E+04  0.10100000352E+00 0. -1.
</event>
<event>
 5   0  0.8329875E-09  0.4006404E+04  0.7818609E-02  0.8003256E-01
        1   -1    0    0  501    0  0.00000000000E+00  0.00000000000E+00  0.25094543796E+04  0.25094543796E+04  0.50400001928E-02 0.  1.
       -1   -1    0    0    0  501  0.00000000000E+00  0.00000000000E+00 -0.15990797302E+04  0.15990797303E+04  0.50400001928E-02 0. -1.
    10030    2    1    2    0    0  0.00000000000E+00  0.00000000000E+00  0.91037464938E+03  0.41085341099E+04  0.40064036903E+04 0.  0.
        4    1    3    3  502    0 -0.77044468849E+03 -0.16075779798E+04 -0.48184737289E+03  0.18466376155E+04  0.12699999809E+01 0. -1.
       -4    1    3    3    0  502  0.77044468849E+03  0.16075779798E+04  0.13922220223E+04  0.22618964944E+04  0.12699999809E+01 0.  1.
</event>
<event>
 5   0  0.8329875E-09  0.3963272E+04  0.7818609E-02  0.8011997E-01
        1   -1    0    0  501    0  0.00000000000E+00  0.00000000000E+00  0.19035195953E+04  0.19035195954E+04  0.50400001928E-02 0. -1.
       -1   -1    0    0    0  501  0.00000000000E+00  0.00000000000E+00 -0.20629581678E+04  0.20629581678E+04  0.50400001928E-02 0.  1.
    10030    2    1    2    0    0  0.00000000000E+00  0.00000000000E+00 -0.15943857241E+03  0.39664777631E+04  0.39632720304E+04 0.  0.
        4    1    3    3  502    0 -0.31890473250E+03  0.15985464223E+04  0.10480589942E+04  0.19379061280E+04  0.12699999809E+01 0. -1.
       -4    1    3    3    0  502  0.31890473250E+03 -0.15985464223E+04 -0.12074975666E+04  0.20285716351E+04  0.12699999809E+01 0.  1.
</event>
<event>
 5   0  0.2746876E-08  0.3997123E+04  0.7818609E-02  0.8005127E-01
        2   -1    0    0  501    0  0.00000000000E+00  0.00000000000E+00  0.28334372792E+04  0.28334372792E+04  0.25500000920E-02 0. -1.
       -2   -1    0    0    0  501  0.00000000000E+00  0.00000000000E+00 -0.14096827496E+04  0.14096827496E+04  0.25500000920E-02 0.  1.
    10030    2    1    2    0    0  0.00000000000E+00  0.00000000000E+00  0.14237545296E+04  0.42431200288E+04  0.39971227925E+04 0.  0.
        1    1    3    3  502    0  0.12388915490E+04  0.89230097748E+03  0.20808957984E+04  0.25809263121E+04  0.50400001928E-02 0. -1.
       -1    1    3    3    0  502 -0.12388915490E+04 -0.89230097748E+03 -0.65714126882E+03  0.16621937167E+04  0.50400001928E-02 0.  1.
</event>
<event>
 5   0  0.2599332E-08  0.3998987E+04  0.7818609E-02  0.8004751E-01
       -2   -1    0    0    0  501  0.00000000000E+00  0.00000000000E+00  0.15096755549E+04  0.15096755549E+04  0.25500000920E-02 0.  1.
        2   -1    0    0  501    0  0.00000000000E+00  0.00000000000E+00 -0.26482335498E+04  0.26482335498E+04  0.25500000920E-02 0. -1.
    10030    2    1    2    0    0  0.00000000000E+00  0.00000000000E+00 -0.11385579949E+04  0.41579091047E+04  0.39989865986E+04 0.  0.
        2    1    3    3  502    0  0.97120215865E+02 -0.14688723105E+04  0.83762319899E+03  0.16937032870E+04  0.25500000920E-02 0.  1.
       -2    1    3    3    0  502 -0.97120215865E+02  0.14688723105E+04 -0.19761811939E+04  0.24642058177E+04  0.25500000920E-02 0. -1.
</event>
<event>
 5   0  0.2650452E-08  0.4015199E+04  0.7818609E-02  0.8001487E-01
        2   -1    0    0  501    0  0.00000000000E+00  0.00000000000E+00  0.26172086934E+04  0.26172086934E+04  0.25500000920E-02 0. -1.
       -2   -1    0    0    0  501  0.00000000000E+00  0.00000000000E+00 -0.15399826578E+04  0.15399826578E+04  0.25500000920E-02 0.  1.
    10030    2    1    2    0    0  0.00000000000E+00  0.00000000000E+00  0.10772260356E+04  0.41571913512E+04  0.40151991232E+04 0.  0.
        3    1    3    3  502    0  0.12048783470E+04  0.47840406226E+03  0.21257460865E+04  0.24898591752E+04  0.10100000352E+00 0. -1.
       -3    1    3    3    0  502 -0.12048783470E+04 -0.47840406226E+03 -0.10485200510E+04  0.16673321760E+04  0.10100000352E+00 0.  1.
</event>
<event>
 5   0  0.2587493E-08  0.3999011E+04  0.7818609E-02  0.8004746E-01
        2   -1    0    0  501    0  0.00000000000E+00  0.00000000000E+00  0.11837479750E+04  0.11837479750E+04  0.25500000920E-02 0.  1.
       -2   -1    0    0    0  501  0.00000000000E+00  0.00000000000E+00 -0.33774263176E+04  0.33774263176E+04  0.25500000920E-02 0. -1.
    10030    2    1    2    0    0  0.00000000000E+00  0.00000000000E+00 -0.21936783425E+04  0.45611742926E+04  0.39990106598E+04 0.  0.
        5    1    3    3  502    0 -0.98505023691E+03  0.86930970948E+03  0.62235919046E+03  0.14537456422E+04  0.46999998093E+01 0.  1.
       -5    1    3    3    0  502  0.98505023691E+03 -0.86930970948E+03 -0.28160375330E+04  0.31074286504E+04  0.46999998093E+01 0. -1.
</event>
<event>
 5   0  0.8329875E-09  0.3995547E+04  0.7818609E-02  0.8005445E-01
       -1   -1    0    0    0  501  0.00000000000E+00  0.00000000000E+00  0.15545736193E+04  0.15545736193E+04  0.50400001928E-02 0. -1.
        1   -1    0    0  501    0  0.00000000000E+00  0.00000000000E+00 -0.25673275893E+04  0.25673275893E+04  0.50400001928E-02 0.  1.
    10030    2    1    2    0    0  0.00000000000E+00  0.00000000000E+00 -0.10127539700E+04  0.41219012086E+04  0.39955473930E+04 0.  0.
        5    1    3    3  502    0  0.11840872116E+04  0.70067170700E+03 -0.20006560875E+04  0.24280960104E+04  0.46999998093E+01 0.  1.
       -5    1    3    3    0  502 -0.11840872116E+04 -0.70067170700E+03  0.98790211752E+03  0.16938051982E+04  0.46999998093E+01 0. -1.
</event>
<event>
 5   0  0.8329875E-09  0.3988726E+04  0.7818609E-02  0.8006825E-01
        1   -1    0    0  501    0  0.00000000000E+00  0.00000000000E+00  0.22569131377E+04  0.22569131377E+04  0.50400001928E-02 0. -1.
       -1   -1    0    0    0  501  0.00000000000E+00  0.00000000000E+00 -0.17623554492E+04  0.17623554492E+04  0.50400001928E-02 0.  1.
    10030    2    1    2    0    0  0.00000000000E+00  0.00000000000E+00  0.49455768854E+03  0.40192685869E+04  0.39887256945E+04 0.  0.
        2    1    3    3  502    0  0.10250105279E+04  0.16940972646E+04  0.48758143417E+03  0.20392027313E+04  0.25500000920E-02 0.  1.
       -2    1    3    3    0  502 -0.10250105279E+04 -0.16940972646E+04  0.69762543694E+01  0.19800658556E+04  0.25500000920E-02 0. -1.
</event>
<event>
 5   0  0.8329875E-09  0.4000896E+04  0.7818609E-02  0.8004366E-01
        1   -1    0    0  501    0  0.00000000000E+00  0.00000000000E+00  0.26787240429E+04  0.26787240429E+04  0.50400001928E-02 0.  1.
       -1   -1    0    0    0  501  0.00000000000E+00  0.00000000000E+00 -0.14939170141E+04  0.14939170141E+04  0.50400001928E-02 0. -1.
    10030    2    1    2    0    0  0.00000000000E+00  0.00000000000E+00  0.11848070289E+04  0.41726410570E+04  0.40008956116E+04 0.  0.
        5    1    3    3  502    0  0.58966181725E+03 -0.12785658992E+04 -0.88963081535E+03  0.16655019949E+04  0.46999998093E+01 0. -1.
       -5    1    3    3    0  502 -0.58966181725E+03  0.12785658992E+04  0.20744378442E+04  0.25071390621E+04  0.46999998093E+01 0.  1.
</event>
<event>
 5   0  0.2599332E-08  0.4000301E+04  0.7818609E-02  0.8004486E-01
       -2   -1    0    0    0  501  0.00000000000E+00  0.00000000000E+00  0.21231642673E+04  0.21231642673E+04  0.25500000920E-02 0.  1.
        2   -1    0    0  501    0  0.00000000000E+00  0.00000000000E+00 -0.18842642065E+04  0.18842642065E+04  0.25500000920E-02 0. -1.
    10030    2    1    2    0    0  0.00000000000E+00  0.00000000000E+00  0.23890006071E+03  0.40074284738E+04  0.40003012054E+04 0.  0.
        2    1    3    3  502    0  0.16800926522E+03  0.13075090254E+04  0.16263892527E+04  0.20935493703E+04  0.25500000920E-02 0.  1.
       -2    1    3    3    0  502 -0.16800926522E+03 -0.13075090254E+04 -0.13874891920E+04  0.19138791035E+04  0.25500000920E-02 0. -1.
</event>
<event>
 5   0  0.2746876E-08  0.3998314E+04  0.7818609E-02  0.8004887E-01
        2   -1    0    0  501    0  0.00000000000E+00  0.00000000000E+00  0.19504682129E+04  0.19504682129E+04  0.25500000920E-02 0.  1.
       -2   -1    0    0    0  501  0.00000000000E+00  0.00000000000E+00 -0.20490609602E+04  0.20490609602E+04  0.25500000920E-02 0. -1.
    10030    2    1    2    0    0  0.00000000000E+00  0.00000000000E+00 -0.98592747293E+02  0.39995291731E+04  0.39983137792E+04 0.  0.
        1    1    3    3  502    0  0.84988127423E+03  0.13054881987E+04  0.12040931517E+04  0.19688671705E+04  0.50400001928E-02 0.  1.
       -1    1    3    3    0  502 -0.84988127423E+03 -0.13054881987E+04 -0.13026858990E+04  0.20306620026E+04  0.50400001928E-02 0. -1.
</event>
<event>
 5   0  0.2746876E-08  0.4002960E+04  0.7818609E-02  0.8003950E-01
       -2   -1    0    0    0  501  0.00000000000E+00  0.00000000000E+00  0.19595616996E+04  0.19595616996E+04  0.25500000920E-02 0. -1.
        2   -1    0    0  501    0  0.00000000000E+00  0.00000000000E+00 -0.20442949036E+04  0.20442949036E+04  0.25500000920E-02 0.  1.
    10030    2    1    2    0    0  0.00000000000E+00  0.00000000000E+00 -0.84733204037E+02  0.40038566032E+04  0.40029599027E+04 0.  0.
        1    1    3    3  502    0 -0.17464304136E+04 -0.96447232117E+03 -0.20270206668E+03  0.20053214645E+04  0.50400001928E-02 0. -1.
       -1    1    3    3    0  502  0.17464304136E+04  0.96447232117E+03  0.11796886265E+03  0.19985351387E+04  0.50400001928E-02 0.  1.
</event>
<event>
 5   0  0.2650452E-08  0.3993429E+04  0.7818609E-02  0.8005874E-01
        2   -1    0    0  501    0  0.00000000000E+00  0.00000000000E+00  0.19455367385E+04  0.19455367385E+04  0.25500000920E-02 0. -1.
       -2   -1    0    0    0  501  0.00000000000E+00  0.00000000000E+00 -0.20492380269E+04  0.20492380269E+04  0.25500000920E-02 0.  1.
    10030    2    1    2    0    0  0.00000000000E+00  0.00000000000E+00 -0.10370128841E+03  0.39947747654E+04  0.39934285356E+04 0.  0.
        3    1    3    3  502    0 -0.14701267488E+04  0.53975541163E+03 -0.12909204170E+04  0.20295526835E+04  0.10100000352E+00 0.  1.
       -3    1    3    3    0  502  0.14701267488E+04 -0.53975541163E+03  0.11872191286E+04  0.19652220819E+04  0.10100000352E+00 0. -1.
</event>
<event>
 5   0  0.8329875E-09  0.3990842E+04  0.7818609E-02  0.8006397E-01
        1   -1    0    0  501    0  0.00000000000E+00  0.00000000000E+00  0.19607084440E+04  0.19607084440E+04  0.50400001928E-02 0. -1.
       -1   -1    0    0    0  501  0.00000000000E+00  0.00000000000E+00 -0.20307476333E+04  0.20307476333E+04  0.50400001928E-02 0.  1.
    10030    2    1    2    0    0  0.00000000000E+00  0.00000000000E+00 -0.70039189319E+02  0.39914560773E+04  0.39908415315E+04 0.  0.
        4    1    3    3  502    0 -0.35589875694E+03 -0.17797069444E+04  0.79437385438E+03  0.19811744413E+04  0.12699999809E+01 0. -1.
       -4    1    3    3    0  502  0.35589875694E+03  0.17797069444E+04 -0.86441304370E+03  0.20102816361E+04  0.12699999809E+01 0.  1.
</event>
<event>
 5   0  0.2650452E-08  0.3995505E+04  0.7818609E-02  0.8005454E-01
        2   -1    0    0  501    0  0.00000000000E+00  0.00000000000E+00  0.28768665292E+04  0.28768665292E+04  0.25500000920E-02 0.  1.
       -2   -1    0    0    0  501  0.00000000000E+00  0.00000000000E+00 -0.13872784822E+04  0.13872784822E+04  0.25500000920E-02 0. -1.
    10030    2    1    2    0    0  0.00000000000E+00  0.00000000000E+00  0.14895880470E+04  0.42641450113E+04  0.39955049904E+04 0.  0.
        3    1    3    3  502    0  0.44244752159E+03 -0.16822644549E+04  0.17933178035E+04  0.24983519088E+04  0.10100000352E+00 0.  1.
       -3    1    3    3    0  502 -0.44244752159E+03  0.16822644549E+04 -0.30372975652E+03  0.17657931025E+04  0.10100000352E+00 0. -1.
</event>
<event>
 5   0  0.8329875E-09  0.3991865E+04  0.7818609E-02  0.8006190E-01
       -1   -1    0    0    0  501  0.00000000000E+00  0.00000000000E+00  0.12193592341E+04  0.12193592341E+04  0.50400001928E-02 0.  1.
        1   -1    0    0  501    0  0.00000000000E+00  0.00000000000E+00 -0.32670818483E+04  0.32670818483E+04  0.50400001928E-02 0. -1.
    10030    2    1    2    0    0  0.00000000000E+00  0.00000000000E+00 -0.20477226142E+04  0.44864410824E+04  0.39918649378E+04 0.  0.
        2    1    3    3  502    0 -0.39293251447E+03 -0.10600133486E+04  0.82484417607E+03  0.13994256589E+04  0.25500000920E-02 0.  1.
       -2    1    3    3    0  502  0.39293251447E+03  0.10600133486E+04 -0.28725667903E+04  0.30870154235E+04  0.25500000920E-02 0. -1.
</event>
<event>
 5   0  0.2587493E-08  0.4002101E+04  0.7818609E-02  0.8004123E-01
       -2   -1    0    0    0  501  0.00000000000E+00  0.00000000000E+00  0.15710480164E+04  0.15710480164E+04  0.25500000920E-02 0.  1.
        2   -1    0    0  501    0  0.00000000000E+00  0.00000000000E+00 -0.25487461611E+04  0.25487461611E+04  0.25500000920E-02 0. -1.
    10030    2    1    2    0    0  0.00000000000E+00  0.00000000000E+00 -0.97769814479E+03  0.41197941775E+04  0.40021007487E+04 0.  0.
        5    1    3    3  502    0  0.82676660152E+03 -0.10661091349E+04 -0.20101624074E+04  0.24209309563E+04  0.46999998093E+01 0. -1.
       -5    1    3    3    0  502 -0.82676660152E+03  0.10661091349E+04  0.10324642626E+04  0.16988632212E+04  0.46999998093E+01 0.  1.
</event>
<event>
 5   0  0.2650452E-08  0.3983617E+04  0.7818609E-02  0.8007860E-01
        2   -1    0    0  501    0  0.00000000000E+00  0.00000000000E+00  0.17598054419E+04  0.17598054419E+04  0.25500000920E-02 0.  1.
       -2   -1    0    0    0  501  0.00000000000E+00  0.00000000000E+00 -0.22543972775E+04  0.22543972775E+04  0.25500000920E-02 0. -1.
    10030    2    1    2    0    0  0.00000000000E+00  0.00000000000E+00 -0.49459183556E+03  0.40142027193E+04  0.39836167472E+04 0.  0.
        3    1    3    3  502    0  0.55801651299E+03  0.58499268724E+03 -0.20816300935E+04  0.22331105501E+04  0.10100000352E+00 0. -1.
       -3    1    3    3    0  502 -0.55801651299E+03 -0.58499268724E+03  0.15870382579E+04  0.17810921692E+04  0.10100000352E+00 0.  1.
</event>
<event>
 5   0  0.8329875E-09  0.3998909E+04  0.7818609E-02  0.8004767E-01
        1   -1    0    0  501    0  0.00000000000E+00  0.00000000000E+00  0.24722921429E+04  0.24722921429E+04  0.50400001928E-02 0. -1.
       -1   -1    0    0    0  501  0.00000000000E+00  0.00000000000E+00 -0.16170490600E+04  0.16170490600E+04  0.50400001928E-02 0.  1.
    10030    2    1    2    0    0  0.00000000000E+00  0.00000000000E+00  0.85524308291E+03  0.40893412029E+04  0.39989086940E+04 0.  0.
        2    1    3    3  502    0 -0.23777282413E+03  0.40758743963E+03  0.24145361863E+04  0.24602130866E+04  0.25500000920E-02 0. -1.
       -2    1    3    3    0  502  0.23777282413E+03 -0.40758743963E+03 -0.15592931034E+04  0.16291281162E+04  0.25500000920E-02 0.  1.
</event>
<event>
 5   0  0.8329875E-09  0.4001405E+04  0.7818609E-02  0.8004263E-01
       -1   -1    0    0    0  501  0.00000000000E+00  0.00000000000E+00  0.15783927677E+04  0.15783927677E+04  0.50400001928E-02 0.  1.
        1   -1    0    0  501    0  0.00000000000E+00  0.00000000000E+00 -0.25360039517E+04  0.25360039517E+04  0.50400001928E-02 0. -1.
    10030    2    1    2    0    0  0.00000000000E+00  0.00000000000E+00 -0.95761118398E+03  0.41143967195E+04  0.40014049015E+04 0.  0.
        2    1    3    3  502    0  0.86241978618E+03 -0.54488951883E+03  0.12908807369E+04  0.16453101690E+04  0.25500000920E-02 0.  1.
       -2    1    3    3    0  502 -0.86241978618E+03  0.54488951883E+03 -0.22484919209E+04  0.24690865505E+04  0.25500000920E-02 0. -1.
</event>
<event>
 5   0  0.8329875E-09  0.4001930E+04  0.7818609E-02  0.8004157E-01
       -3   -1    0    0    0  501  0.00000000000E+00  0.00000000000E+00  0.19283320374E+04  0.19283320400E+04  0.10100000352E+00 0.  1.
        3   -1    0    0  501    0  0.00000000000E+00  0.00000000000E+00 -0.20763338525E+04  0.20763338550E+04  0.10100000352E+00 0. -1.
    10030    2    1    2    0    0  0.00000000000E+00  0.00000000000E+00 -0.14800181513E+03  0.40046658950E+04  0.40019300835E+04 0.  0.
        5    1    3    3  502    0  0.48665413945E+03  0.15924243592E+04 -0.11843501021E+04  0.20433685047E+04  0.46999998093E+01 0. -1.
       -5    1    3    3    0  502 -0.48665413945E+03 -0.15924243592E+04  0.10363482870E+04  0.19612973903E+04  0.46999998093E+01 0.  1.
</event>
<event>
 5   0  0.2599332E-08  0.3991499E+04  0.7818609E-02  0.8006264E-01
       -2   -1    0    0    0  501  0.00000000000E+00  0.00000000000E+00  0.16387494637E+04  0.16387494637E+04  0.25500000920E-02 0.  1.
        2   -1    0    0  501    0  0.00000000000E+00  0.00000000000E+00 -0.24305210725E+04  0.24305210725E+04  0.25500000920E-02 0. -1.
    10030    2    1    2    0    0  0.00000000000E+00  0.00000000000E+00 -0.79177160878E+03  0.40692705361E+04  0.39914985176E+04 0.  0.
        2    1    3    3  502    0 -0.72260252016E+03  0.92471701164E+03 -0.20415746568E+04  0.23548424646E+04  0.25500000920E-02 0. -1.
       -2    1    3    3    0  502  0.72260252016E+03 -0.92471701164E+03  0.12498030480E+04  0.17144280716E+04  0.25500000920E-02 0.  1.
</event>
<event>
 5   0  0.2599332E-08  0.3993897E+04  0.7818609E-02  0.8005779E-01
        2   -1    0    0  501    0  0.00000000000E+00  0.00000000000E+00  0.29266924551E+04  0.29266924551E+04  0.25500000920E-02 0.  1.
       -2   -1    0    0    0  501  0.00000000000E+00  0.00000000000E+00 -0.13625633174E+04  0.13625633174E+04  0.25500000920E-02 0. -1.
    10030    2    1    2    0    0  0.00000000000E+00  0.00000000000E+00  0.15641291377E+04  0.42892557725E+04  0.39938972349E+04 0.  0.
        2    1    3    3  502    0 -0.11387796973E+03  0.15143265181E+04 -0.61062064777E+03  0.16367683315E+04  0.25500000920E-02 0. -1.
       -2    1    3    3    0  502  0.11387796973E+03 -0.15143265181E+04  0.21747497855E+04  0.26524874411E+04  0.25500000920E-02 0.  1.
</event>
<event>
 5   0  0.8329875E-09  0.4000157E+04  0.7818609E-02  0.8004515E-01
        1   -1    0    0  501    0  0.00000000000E+00  0.00000000000E+00  0.14470854938E+04  0.14470854938E+04  0.50400001928E-02 0.  1.
       -1   -1    0    0    0  501  0.00000000000E+00  0.00000000000E+00 -0.27643941257E+04  0.27643941257E+04  0.50400001928E-02 0. -1.
    10030    2    1    2    0    0  0.00000000000E+00  0.00000000000E+00 -0.13173086319E+04  0.42114796195E+04  0.40001573161E+04 0.  0.
        3    1    3    3  502    0 -0.13163217534E+04  0.97438275950E+03 -0.18674325274E+04  0.24838335240E+04  0.10100000352E+00 0. -1.
       -3    1    3    3    0  502  0.13163217534E+04 -0.97438275950E+03  0.55012389546E+03  0.17276460955E+04  0.10100000352E+00 0.  1.
</event>
<event>
 5   0  0.2612363E-08  0.3990153E+04  0.7818609E-02  0.8006536E-01
        2   -1    0    0  501    0  0.00000000000E+00  0.00000000000E+00  0.20150305724E+04  0.20150305724E+04  0.25500000920E-02 0.  1.
       -2   -1    0    0    0  501  0.00000000000E+00  0.00000000000E+00 -0.19753203479E+04  0.19753203479E+04  0.25500000920E-02 0. -1.
    10030    2    1    2    0    0  0.00000000000E+00  0.00000000000E+00  0.39710224505E+02  0.39903509203E+04  0.39901533261E+04 0.  0.
        4    1    3    3  502    0  0.65344978871E+03 -0.10116241598E+04  0.16105152853E+04  0.20110050135E+04  0.12699999809E+01 0.  1.
       -4    1    3    3    0  502 -0.65344978871E+03  0.10116241598E+04 -0.15708050608E+04  0.19793459069E+04  0.12699999809E+01 0. -1.
</event>
<event>
 5   0  0.8329875E-09  0.4038439E+04  0.7818609E-02  0.7996837E-01
        1   -1    0    0  501    0  0.00000000000E+00  0.00000000000E+00  0.23669884099E+04  0.23669884099E+04  0.50400001928E-02 0. -1.
       -1   -1    0    0    0  501  0.00000000000E+00  0.00000000000E+00 -0.17225463569E+04  0.17225463569E+04  0.50400001928E-02 0.  1.
    10030    2    1    2    0    0  0.00000000000E+00  0.00000000000E+00  0.64444205301E+03  0.40895347668E+04  0.40384389372E+04 0.  0.
        1    1    3    3  502    0  0.22076069834E+03 -0.18589188195E+04  0.10887211457E+04  0.21655549396E+04  0.50400001928E-02 0. -1.
       -1    1    3    3    0  502 -0.22076069834E+03  0.18589188195E+04 -0.44427909267E+03  0.19239798272E+04  0.50400001928E-02 0.  1.
</event>
<event>
 5   0  0.2599332E-08  0.3926101E+04  0.7818609E-02  0.8019623E-01
        2   -1    0    0  501    0  0.00000000000E+00  0.00000000000E+00  0.27473596533E+04  0.27473596533E+04  0.25500000920E-02 0.  1.
       -2   -1    0    0    0  501  0.00000000000E+00  0.00000000000E+00 -0.14026438087E+04  0.14026438087E+04  0.25500000920E-02 0. -1.
    10030    2    1    2    0    0  0.00000000000E+00  0.00000000000E+00  0.13447158446E+04  0.41500034619E+04  0.39261008687E+04 0.  0.
        2    1    3    3  502    0  0.14595358759E+04  0.98132968612E+03  0.15940450515E+04  0.23736538400E+04  0.25500000920E-02 0.  1.
       -2    1    3    3    0  502 -0.14595358759E+04 -0.98132968612E+03 -0.24932920691E+03  0.17763496219E+04  0.25500000920E-02 0. -1.
</event>
<event>
 5   0  0.8329875E-09  0.4000897E+04  0.7818609E-02  0.8004366E-01
       -1   -1    0    0    0  501  0.00000000000E+00  0.00000000000E+00  0.20664574378E+04  0.20664574378E+04  0.50400001928E-02 0. -1.
        1   -1    0    0  501    0  0.00000000000E+00  0.00000000000E+00 -0.19365478587E+04  0.19365478587E+04  0.50400001928E-02 0.  1.
    10030    2    1    2    0    0  0.00000000000E+00  0.00000000000E+00  0.12990957911E+03  0.40030052965E+04  0.40008967626E+04 0.  0.
        5    1    3    3  502    0 -0.15965542291E+04 -0.10119249165E+04 -0.59021410041E+03  0.19802404444E+04  0.46999998093E+01 0.  1.
       -5    1    3    3    0  502  0.15965542291E+04  0.10119249165E+04  0.72012367952E+03  0.20227648521E+04  0.46999998093E+01 0. -1.
</event>
<event>
 5   0  0.2746876E-08  0.3987975E+04  0.7818609E-02  0.8006977E-01
       -2   -1    0    0    0  501  0.00000000000E+00  0.00000000000E+00  0.16065723776E+04  0.16065723776E+04  0.25500000920E-02 0.  1.
        2   -1    0    0  501    0  0.00000000000E+00  0.00000000000E+00 -0.24748254106E+04  0.24748254106E+04  0.25500000920E-02 0. -1.
    10030    2    1    2    0    0  0.00000000000E+00  0.00000000000E+00 -0.86825303297E+03  0.40813977882E+04  0.39879749970E+04 0.  0.
        1    1    3    3  502    0  0.17337813469E+04 -0.13231567017E+03  0.56468754284E+03  0.18282169501E+04  0.50400001928E-02 0.  1.
       -1    1    3    3    0  502 -0.17337813469E+04  0.13231567017E+03 -0.14329405758E+04  0.22531808381E+04  0.50400001928E-02 0. -1.
</event>
<event>
 5   0  0.2587493E-08  0.4002722E+04  0.7818609E-02  0.8003998E-01
        2   -1    0    0  501    0  0.00000000000E+00  0.00000000000E+00  0.23573444916E+04  0.23573444916E+04  0.25500000920E-02 0. -1.
       -2   -1    0    0    0  501  0.00000000000E+00  0.00000000000E+00 -0.16991347864E+04  0.16991347864E+04  0.25500000920E-02 0.  1.
    10030    2    1    2    0    0  0.00000000000E+00  0.00000000000E+00  0.65820970528E+03  0.40564792780E+04  0.40027220884E+04 0.  0.
        5    1    3    3  502    0  0.11575591975E+04  0.50915957359E+03 -0.12429331473E+04  0.17731586691E+04  0.46999998093E+01 0.  1.
       -5    1    3    3    0  502 -0.11575591975E+04 -0.50915957359E+03  0.19011428526E+04  0.22833206089E+04  0.46999998093E+01 0. -1.
</event>
<event>
 5   0  0.8329875E-09  0.3996017E+04  0.7818609E-02  0.8005350E-01
        1   -1    0    0  501    0  0.00000000000E+00  0.00000000000E+00  0.30485039684E+04  0.30485039684E+04  0.50400001928E-02 0. -1.
       -1   -1    0    0    0  501  0.00000000000E+00  0.00000000000E+00 -0.13095075098E+04  0.13095075098E+04  0.50400001928E-02 0.  1.
    10030    2    1    2    0    0  0.00000000000E+00  0.00000000000E+00  0.17389964586E+04  0.43580114782E+04  0.39960174375E+04 0.  0.
        3    1    3    3  502    0  0.10682992899E+04 -0.82792275165E+03  0.24743021473E+04  0.28193776941E+04  0.10100000352E+00 0. -1.
       -3    1    3    3    0  502 -0.10682992899E+04  0.82792275165E+03 -0.73530568872E+03  0.15386337841E+04  0.10100000352E+00 0.  1.
</event>
<event>
 5   0  0.8329875E-09  0.3996808E+04  0.7818609E-02  0.8005191E-01
       -1   -1    0    0    0  501  0.00000000000E+00  0.00000000000E+00  0.17364696906E+04  0.17364696906E+04  0.50400001928E-02 0. -1.
        1   -1    0    0  501    0  0.00000000000E+00  0.00000000000E+00 -0.22998497168E+04  0.22998497168E+04  0.50400001928E-02 0.  1.
    10030    2    1    2    0    0  0.00000000000E+00  0.00000000000E+00 -0.56338002620E+03  0.40363194073E+04  0.39968083897E+04 0.  0.
        4    1    3    3  502    0  0.46721775206E+03 -0.17049792427E+03  0.16729685599E+04  0.17453330299E+04  0.12699999809E+01 0. -1.
       -4    1    3    3    0  502 -0.46721775206E+03  0.17049792427E+03 -0.22363485861E+04  0.22909863774E+04  0.12699999809E+01 0.  1.
</event>
<event>
 5   0  0.8329875E-09  0.4016773E+04  0.7818609E-02  0.8001172E-01
       -1   -1    0    0    0  501  0.00000000000E+00  0.00000000000E+00  0.23815584664E+04  0.23815584664E+04  0.50400001928E-02 0. -1.
        1   -1    0    0  501    0  0.00000000000E+00  0.00000000000E+00 -0.16936874511E+04  0.16936874511E+04  0.50400001928E-02 0.  1.
    10030    2    1    2    0    0  0.00000000000E+00  0.00000000000E+00  0.68787101525E+03  0.40752459175E+04  0.40167726790E+04 0.  0.
        4    1    3    3  502    0  0.18099697202E+04 -0.79360899550E+03  0.70664285277E+03  0.20988452444E+04  0.12699999809E+01 0. -1.
       -4    1    3    3    0  502 -0.18099697202E+04  0.79360899550E+03 -0.18771837514E+02  0.19764006731E+04  0.12699999809E+01 0.  1.
</event>
<event>
 5   0  0.2599332E-08  0.4003708E+04  0.7818609E-02  0.8003799E-01
       -2   -1    0    0    0  501  0.00000000000E+00  0.00000000000E+00  0.13267638749E+04  0.13267638749E+04  0.25500000920E-02 0.  1.
        2   -1    0    0  501    0  0.00000000000E+00  0.00000000000E+00 -0.30204463636E+04  0.30204463636E+04  0.25500000920E-02 0. -1.
    10030    2    1    2    0    0  0.00000000000E+00  0.00000000000E+00 -0.16936824887E+04  0.43472102385E+04  0.40037078422E+04 0.  0.
        2    1    3    3  502    0 -0.18451763957E+04 -0.32882642980E+03 -0.83212077693E+02  0.18760935483E+04  0.25500000920E-02 0.  1.
       -2    1    3    3    0  502  0.18451763957E+04  0.32882642980E+03 -0.16104704111E+04  0.24711166903E+04  0.25500000920E-02 0. -1.
</event>
<event>
 5   0  0.2599332E-08  0.3998076E+04  0.7818609E-02  0.8004935E-01
        2   -1    0    0  501    0  0.00000000000E+00  0.00000000000E+00  0.23208528266E+04  0.23208528266E+04  0.25500000920E-02 0.  1.
       -2   -1    0    0    0  501  0.00000000000E+00  0.00000000000E+00 -0.17218464325E+04  0.17218464325E+04  0.25500000920E-02 0. -1.
    10030    2    1    2    0    0  0.00000000000E+00  0.00000000000E+00  0.59900639418E+03  0.40426992591E+04  0.39980756170E+04 0.  0.
        2    1    3    3  502    0  0.56627531846E+03  0.10042173230E+04 -0.13518293611E+04  0.17766718294E+04  0.25500000920E-02 0. -1.
       -2    1    3    3    0  502 -0.56627531846E+03 -0.10042173230E+04  0.19508357552E+04  0.22660274297E+04  0.25500000920E-02 0.  1.
</event>
<event>
 5   0  0.2612363E-08  0.4004619E+04  0.7818609E-02  0.8003615E-01
        2   -1    0    0  501    0  0.00000000000E+00  0.00000000000E+00  0.19887112677E+04  0.19887112677E+04  0.25500000920E-02 0. -1.
       -2   -1    0    0    0  501  0.00000000000E+00  0.00000000000E+00 -0.20160006663E+04  0.20160006663E+04  0.25500000920E-02 0.  1.
    10030    2    1    2    0    0  0.00000000000E+00  0.00000000000E+00 -0.27289398587E+02  0.40047119340E+04  0.40046189535E+04 0.  0.
        4    1    3    3  502    0  0.12121604300E+04 -0.14608313086E+04 -0.65074708943E+03  0.20066973881E+04  0.12699999809E+01 0.  1.
       -4    1    3    3    0  502 -0.12121604300E+04  0.14608313086E+04  0.62345769084E+03  0.19980145458E+04  0.12699999809E+01 0. -1.
</event>
<event>
 5   0  0.2587493E-08  0.3982732E+04  0.7818609E-02  0.8008039E-01
        2   -1    0    0  501    0  0.00000000000E+00  0.00000000000E+00  0.20473949331E+04  0.20473949331E+04  0.25500000920E-02 0. -1.
       -2   -1    0    0    0  501  0.00000000000E+00  0.00000000000E+00 -0.19368706475E+04  0.19368706475E+04  0.25500000920E-02 0.  1.
    10030    2    1    2    0    0  0.00000000000E+00  0.00000000000E+00  0.11052428557E+03  0.39842655806E+04  0.39827323032E+04 0.  0.
        5    1    3    3  502    0  0.52687605404E+03 -0.10805686953E+04  0.16434154353E+04  0.20361884649E+04  0.46999998093E+01 0. -1.
       -5    1    3    3    0  502 -0.52687605404E+03  0.10805686953E+04 -0.15328911498E+04  0.19480771157E+04  0.46999998093E+01 0.  1.
</event>
<event>
 5   0  0.2599332E-08  0.4000983E+04  0.7818609E-02  0.8004348E-01
       -2   -1    0    0    0  501  0.00000000000E+00  0.00000000000E+00  0.16334702656E+04  0.16334702656E+04  0.25500000920E-02 0.  1.
        2   -1    0    0  501    0  0.00000000000E+00  0.00000000000E+00 -0.24499777485E+04  0.24499777485E+04  0.25500000920E-02 0. -1.
    10030    2    1    2    0    0  0.00000000000E+00  0.00000000000E+00 -0.81650748294E+03  0.40834480141E+04  0.40009827810E+04 0.  0.
        2    1    3    3  502    0  0.12436722390E+04 -0.11859380543E+04  0.63696185098E+03  0.18327275047E+04  0.25500000920E-02 0.  1.
       -2    1    3    3    0  502 -0.12436722390E+04  0.11859380543E+04 -0.14534693339E+04  0.22507205094E+04  0.25500000920E-02 0. -1.
</event>
<event>
 5   0  0.2746876E-08  0.4006716E+04  0.7818609E-02  0.8003193E-01
       -2   -1    0    0    0  501  0.00000000000E+00  0.00000000000E+00  0.20597459683E+04  0.20597459683E+04  0.25500000920E-02 0.  1.
        2   -1    0    0  501    0  0.00000000000E+00  0.00000000000E+00 -0.19485137940E+04  0.19485137940E+04  0.25500000920E-02 0. -1.
    10030    2    1    2    0    0  0.00000000000E+00  0.00000000000E+00  0.11123217431E+03  0.40082597623E+04  0.40067160775E+04 0.  0.
        1    1    3    3  502    0 -0.14168903863E+04 -0.11543986002E+04  0.87643750028E+03  0.20269082827E+04  0.50400001928E-02 0.  1.
       -1    1    3    3    0  502  0.14168903863E+04  0.11543986002E+04 -0.76520532596E+03  0.19813514796E+04  0.50400001928E-02 0. -1.
</event>
<event>
 5   0  0.2612363E-08  0.4001775E+04  0.7818609E-02  0.8004189E-01
        2   -1    0    0  501    0  0.00000000000E+00  0.00000000000E+00  0.15617079854E+04  0.15617079854E+04  0.25500000920E-02 0. -1.
       -2   -1    0    0    0  501  0.00000000000E+00  0.00000000000E+00 -0.25635724025E+04  0.25635724025E+04  0.25500000920E-02 0.  1.
    10030    2    1    2    0    0  0.00000000000E+00  0.00000000000E+00 -0.10018644171E+04  0.41252803879E+04  0.40017753521E+04 0.  0.
        4    1    3    3  502    0 -0.13888085786E+04  0.44307842162E+03  0.91192956967E+03  0.17195129859E+04  0.12699999809E+01 0. -1.
       -4    1    3    3    0  502  0.13888085786E+04 -0.44307842162E+03 -0.19137939868E+04  0.24057674020E+04  0.12699999809E+01 0.  1.
</event>
<event>
 5   0  0.2612363E-08  0.4005590E+04  0.7818609E-02  0.8003420E-01
        2   -1    0    0  501    0  0.00000000000E+00  0.00000000000E+00  0.23942712305E+04  0.23942712305E+04  0.25500000920E-02 0.  1.
       -2   -1    0    0    0  501  0.00000000000E+00  0.00000000000E+00 -0.16753275578E+04  0.16753275578E+04  0.25500000920E-02 0. -1.
    10030    2    1    2    0    0  0.00000000000E+00  0.00000000000E+00  0.71894367267E+03  0.40695987883E+04  0.40055903802E+04 0.  0.
        4    1    3    3  502    0 -0.64865988311E+03  0.97797519671E+03  0.20083640675E+04  0.23260960792E+04  0.12699999809E+01 0.  1.
       -4    1    3    3    0  502  0.64865988311E+03 -0.97797519671E+03 -0.12894203948E+04  0.17435027091E+04  0.12699999809E+01 0. -1.
</event>
<event>
 5   0  0.2587493E-08  0.3997126E+04  0.7818609E-02  0.8005127E-01
       -2   -1    0    0    0  501  0.00000000000E+00  0.00000000000E+00  0.18972565176E+04  0.18972565176E+04  0.25500000920E-02 0. -1.
        2   -1    0    0  501    0  0.00000000000E+00  0.00000000000E+00 -0.21052785346E+04  0.21052785346E+04  0.25500000920E-02 0.  1.
    10030    2    1    2    0    0  0.00000000000E+00  0.00000000000E+00 -0.20802201702E+03  0.40025350522E+04  0.39971256779E+04 0.  0.
        5    1    3    3  502    0 -0.19161928624E+04 -0.48708147920E+03 -0.39627562502E+03  0.20164572682E+04  0.46999998093E+01 0.  1.
       -5    1    3    3    0  502  0.19161928624E+04  0.48708147920E+03  0.18825360800E+03  0.19860777841E+04  0.46999998093E+01 0. -1.
</event>
<event>
 5   0  0.8329875E-09  0.3994743E+04  0.7818609E-02  0.8005608E-01
       -1   -1    0    0    0  501  0.00000000000E+00  0.00000000000E+00  0.30396275066E+04  0.30396275066E+04  0.50400001928E-02 0. -1.
        1   -1    0    0  501    0  0.00000000000E+00  0.00000000000E+00 -0.13124942740E+04  0.13124942740E+04  0.50400001928E-02 0.  1.
    10030    2    1    2    0    0  0.00000000000E+00  0.00000000000E+00  0.17271332326E+04  0.43521217806E+04  0.39947433948E+04 0.  0.
        4    1    3    3  502    0  0.14519386667E+04  0.65987975690E+03 -0.44647478276E+03  0.16561728563E+04  0.12699999809E+01 0. -1.
       -4    1    3    3    0  502 -0.14519386667E+04 -0.65987975690E+03  0.21736080154E+04  0.26959489243E+04  0.12699999809E+01 0.  1.
</event>
<event>
 5   0  0.2587493E-08  0.4000843E+04  0.7818609E-02  0.8004377E-01
       -2   -1    0    0    0  501  0.00000000000E+00  0.00000000000E+00  0.31376743448E+04  0.31376743448E+04  0.25500000920E-02 0.  1.
        2   -1    0    0  501    0  0.00000000000E+00  0.00000000000E+00 -0.12753667220E+04  0.12753667220E+04  0.25500000920E-02 0. -1.
    10030    2    1    2    0    0  0.00000000000E+00  0.00000000000E+00  0.18623076228E+04  0.44130410668E+04  0.40008426331E+04 0.  0.
        5    1    3    3  502    0 -0.10107156776E+03  0.19658240770E+04  0.13242151241E+04  0.23723927897E+04  0.46999998093E+01 0. -1.
       -5    1    3    3    0  502  0.10107156776E+03 -0.19658240770E+04  0.53809249865E+03  0.20406482771E+04  0.46999998093E+01 0.  1.
</event>
<event>
 5   0  0.2650452E-08  0.4003740E+04  0.7818609E-02  0.8003793E-01
        2   -1    0    0  501    0  0.00000000000E+00  0.00000000000E+00  0.14260759793E+04  0.14260759793E+04  0.25500000920E-02 0.  1.
       -2   -1    0    0    0  501  0.00000000000E+00  0.00000000000E+00 -0.28101468147E+04  0.28101468147E+04  0.25500000920E-02 0. -1.
    10030    2    1    2    0    0  0.00000000000E+00  0.00000000000E+00 -0.13840708354E+04  0.42362227940E+04  0.40037396872E+04 0.  0.
        3    1    3    3  502    0 -0.13572826710E+04  0.25898994034E+03 -0.22246588148E+04  0.26188544997E+04  0.10100000352E+00 0. -1.
       -3    1    3    3    0  502  0.13572826710E+04 -0.25898994034E+03  0.84058797935E+03  0.16173682943E+04  0.10100000352E+00 0.  1.
</event>
<event>
 5   0  0.2587493E-08  0.3995505E+04  0.7818609E-02  0.8005454E-01
        2   -1    0    0  501    0  0.00000000000E+00  0.00000000000E+00  0.20993758155E+04  0.20993758155E+04  0.25500000920E-02 0.  1.
       -2   -1    0    0    0  501  0.00000000000E+00  0.00000000000E+00 -0.19010482838E+04  0.19010482838E+04  0.25500000920E-02 0. -1.
    10030    2    1    2    0    0  0.00000000000E+00  0.00000000000E+00  0.19832753174E+03  0.40004240993E+04  0.39955048698E+04 0.  0.
        5    1    3    3  502    0  0.68971383795E+03  0.72963902868E+03 -0.16300742186E+04  0.19144822638E+04  0.46999998093E+01 0. -1.
       -5    1    3    3    0  502 -0.68971383795E+03 -0.72963902868E+03  0.18284017503E+04  0.20859418355E+04  0.46999998093E+01 0.  1.
</event>
<event>
 5   0  0.8329875E-09  0.4020463E+04  0.7818609E-02  0.8000431E-01
       -1   -1    0    0    0  501  0.00000000000E+00  0.00000000000E+00  0.16156987902E+04  0.16156987902E+04  0.50400001928E-02 0. -1.
        1   -1    0    0  501    0  0.00000000000E+00  0.00000000000E+00 -0.25011041824E+04  0.25011041824E+04  0.50400001928E-02 0.  1.
    10030    2    1    2    0    0  0.00000000000E+00  0.00000000000E+00 -0.88540539223E+03  0.41168029726E+04  0.40204631582E+04 0.  0.
        1    1    3    3  502    0 -0.11755063404E+04 -0.33867646903E+03 -0.20760796593E+04  0.24096936857E+04  0.50400001928E-02 0.  1.
       -1    1    3    3    0  502  0.11755063404E+04  0.33867646903E+03  0.11906742671E+04  0.17071092869E+04  0.50400001928E-02 0. -1.
</event>
<event>
 5   0  0.8329875E-09  0.3996653E+04  0.7818609E-02  0.8005222E-01
        1   -1    0    0  501    0  0.00000000000E+00  0.00000000000E+00  0.17167352989E+04  0.17167352989E+04  0.50400001928E-02 0. -1.
       -1   -1    0    0    0  501  0.00000000000E+00  0.00000000000E+00 -0.23261067881E+04  0.23261067881E+04  0.50400001928E-02 0.  1.
    10030    2    1    2    0    0  0.00000000000E+00  0.00000000000E+00 -0.60937148917E+03  0.40428420870E+04  0.39966534161E+04 0.  0.
        5    1    3    3  502    0 -0.12808357441E+04  0.15070997065E+04 -0.59328596573E+03  0.20649213195E+04  0.46999998093E+01 0.  1.
       -5    1    3    3    0  502  0.12808357441E+04 -0.15070997065E+04 -0.16085523446E+02  0.19779207675E+04  0.46999998093E+01 0. -1.
</event>
<event>
 5   0  0.8329875E-09  0.3992653E+04  0.7818609E-02  0.8006030E-01
       -1   -1    0    0    0  501  0.00000000000E+00  0.00000000000E+00  0.15772259048E+04  0.15772259048E+04  0.50400001928E-02 0.  1.
        1   -1    0    0  501    0  0.00000000000E+00  0.00000000000E+00 -0.25267910601E+04  0.25267910601E+04  0.50400001928E-02 0. -1.
    10030    2    1    2    0    0  0.00000000000E+00  0.00000000000E+00 -0.94956515538E+03  0.41040169649E+04  0.39926534115E+04 0.  0.
        5    1    3    3  502    0 -0.14893997231E+04  0.12029301362E+04 -0.10561969018E+04  0.21865329710E+04  0.46999998093E+01 0.  1.
       -5    1    3    3    0  502  0.14893997231E+04 -0.12029301362E+04  0.10663174640E+03  0.19174839940E+04  0.46999998093E+01 0. -1.
</event>
<event>
 5   0  0.2746876E-08  0.3993880E+04  0.7818609E-02  0.8005782E-01
        2   -1    0    0  501    0  0.00000000000E+00  0.00000000000E+00  0.29775144479E+04  0.29775144479E+04  0.25500000920E-02 0.  1.
       -2   -1    0    0    0  501  0.00000000000E+00  0.00000000000E+00 -0.13392947847E+04  0.13392947847E+04  0.25500000920E-02 0. -1.
    10030    2    1    2    0    0  0.00000000000E+00  0.00000000000E+00  0.16382196633E+04  0.43168092326E+04  0.39938801041E+04 0.  0.
        1    1    3    3  502    0  0.21893613338E+03 -0.72748132840E+03 -0.11769966381E+04  0.14008865764E+04  0.50400001928E-02 0. -1.
       -1    1    3    3    0  502 -0.21893613338E+03  0.72748132840E+03  0.28152163014E+04  0.29159226563E+04  0.50400001928E-02 0.  1.
</event>
<event>
 5   0  0.2746876E-08  0.4005998E+04  0.7818609E-02  0.8003338E-01
       -2   -1    0    0    0  501  0.00000000000E+00  0.00000000000E+00  0.21952754720E+04  0.21952754720E+04  0.25500000920E-02 0. -1.
        2   -1    0    0  501    0  0.00000000000E+00  0.00000000000E+00 -0.18275630985E+04  0.18275630985E+04  0.25500000920E-02 0.  1.
    10030    2    1    2    0    0  0.00000000000E+00  0.00000000000E+00  0.36771237348E+03  0.40228385705E+04  0.40059977252E+04 0.  0.
        1    1    3    3  502    0  0.32597360070E+03  0.84312796959E+03 -0.16110809471E+04  0.18473509086E+04  0.50400001928E-02 0.  1.
       -1    1    3    3    0  502 -0.32597360070E+03 -0.84312796959E+03  0.19787933206E+04  0.21754876619E+04  0.50400001928E-02 0. -1.
</event>
<event>
 5   0  0.8329875E-09  0.3997681E+04  0.7818609E-02  0.8005015E-01
       -1   -1    0    0    0  501  0.00000000000E+00  0.00000000000E+00  0.13720888370E+04  0.13720888370E+04  0.50400001928E-02 0. -1.
        1   -1    0    0  501    0  0.00000000000E+00  0.00000000000E+00 -0.29118836324E+04  0.29118836324E+04  0.50400001928E-02 0.  1.
    10030    2    1    2    0    0  0.00000000000E+00  0.00000000000E+00 -0.15397947954E+04  0.42839724695E+04  0.39976808411E+04 0.  0.
        1    1    3    3  502    0  0.12373307798E+04  0.15399770168E+04 -0.44336898024E+03  0.20246216248E+04  0.50400001928E-02 0. -1.
       -1    1    3    3    0  502 -0.12373307798E+04 -0.15399770168E+04 -0.10964258152E+04  0.22593508447E+04  0.50400001928E-02 0.  1.
</event>
<event>
 5   0  0.2599332E-08  0.3999369E+04  0.7818609E-02  0.8004674E-01
       -2   -1    0    0    0  501  0.00000000000E+00  0.00000000000E+00  0.22464868854E+04  0.22464868854E+04  0.25500000920E-02 0.  1.
        2   -1    0    0  501    0  0.00000000000E+00  0.00000000000E+00 -0.17799963467E+04  0.17799963467E+04  0.25500000920E-02 0. -1.
    10030    2    1    2    0    0  0.00000000000E+00  0.00000000000E+00  0.46649053870E+03  0.40264832321E+04  0.39993691747E+04 0.  0.
        2    1    3    3  502    0 -0.23700645598E+03  0.13161496784E+04 -0.12635473197E+04  0.18398298468E+04  0.25500000920E-02 0. -1.
       -2    1    3    3    0  502  0.23700645598E+03 -0.13161496784E+04  0.17300378584E+04  0.21866533853E+04  0.25500000920E-02 0.  1.
</event>
<event>
 5   0  0.2587493E-08  0.4003170E+04  0.7818609E-02  0.8003907E-01
       -2   -1    0    0    0  501  0.00000000000E+00  0.00000000000E+00  0.14182997940E+04  0.14182997940E+04  0.25500000920E-02 0. -1.
        2   -1    0    0  501    0  0.00000000000E+00  0.00000000000E+00 -0.28247494674E+04  0.28247494674E+04  0.25500000920E-02 0.  1.
    10030    2    1    2    0    0  0.00000000000E+00  0.00000000000E+00 -0.14064496734E+04  0.42430492614E+04  0.40031695381E+04 0.  0.
        5    1    3    3  502    0  0.13114206522E+04 -0.14510201139E+04 -0.11542040898E+04  0.22710113758E+04  0.46999998093E+01 0.  1.
       -5    1    3    3    0  502 -0.13114206522E+04  0.14510201139E+04 -0.25224558366E+03  0.19720378856E+04  0.46999998093E+01 0. -1.
</event>
<event>
 5   0  0.2587493E-08  0.3918418E+04  0.7818609E-02  0.8021210E-01
        2   -1    0    0  501    0  0.00000000000E+00  0.00000000000E+00  0.13428910025E+04  0.13428910025E+04  0.25500000920E-02 0.  1.
       -2   -1    0    0    0  501  0.00000000000E+00  0.00000000000E+00 -0.28583848955E+04  0.28583848955E+04  0.25500000920E-02 0. -1.
    10030    2    1    2    0    0  0.00000000000E+00  0.00000000000E+00 -0.15154938930E+04  0.42012758981E+04  0.39184177205E+04 0.  0.
        5    1    3    3  502    0  0.36583839021E+03  0.13746295545E+04 -0.22022309905E+04  0.26216955516E+04  0.46999998093E+01 0. -1.
       -5    1    3    3    0  502 -0.36583839021E+03 -0.13746295545E+04  0.68673709755E+03  0.15795803465E+04  0.46999998093E+01 0.  1.
</event>
<event>
 5   0  0.8329875E-09  0.4000239E+04  0.7818609E-02  0.8004498E-01
       -1   -1    0    0    0  501  0.00000000000E+00  0.00000000000E+00  0.13738111868E+04  0.13738111868E+04  0.50400001928E-02 0.  1.
        1   -1    0    0  501    0  0.00000000000E+00  0.00000000000E+00 -0.29119564714E+04  0.29119564714E+04  0.50400001928E-02 0. -1.
    10030    2    1    2    0    0  0.00000000000E+00  0.00000000000E+00 -0.15381452846E+04  0.42857676582E+04  0.40002391808E+04 0.  0.
        1    1    3    3  502    0  0.18409172267E+03  0.18656162273E+02 -0.29027669063E+04  0.29086583723E+04  0.50400001928E-02 0. -1.
       -1    1    3    3    0  502 -0.18409172267E+03 -0.18656162273E+02  0.13646216217E+04  0.13771092859E+04  0.50400001928E-02 0.  1.
</event>
<event>
 5   0  0.8329875E-09  0.4008384E+04  0.7818609E-02  0.8002857E-01
        1   -1    0    0  501    0  0.00000000000E+00  0.00000000000E+00  0.24145770714E+04  0.24145770714E+04  0.50400001928E-02 0. -1.
       -1   -1    0    0    0  501  0.00000000000E+00  0.00000000000E+00 -0.16635565635E+04  0.16635565635E+04  0.50400001928E-02 0.  1.
    10030    2    1    2    0    0  0.00000000000E+00  0.00000000000E+00  0.75102050790E+03  0.40781336348E+04  0.40083839811E+04 0.  0.
        4    1    3    3  502    0  0.13001257143E+04 -0.42013243582E+03 -0.11162735553E+04  0.17643430505E+04  0.12699999809E+01 0.  1.
       -4    1    3    3    0  502 -0.13001257143E+04  0.42013243582E+03  0.18672940632E+04  0.23137905843E+04  0.12699999809E+01 0. -1.
</event>
<event>
 5   0  0.2650452E-08  0.3998132E+04  0.7818609E-02  0.8004924E-01
        2   -1    0    0  501    0  0.00000000000E+00  0.00000000000E+00  0.24151838792E+04  0.24151838792E+04  0.25500000920E-02 0.  1.
       -2   -1    0    0    0  501  0.00000000000E+00  0.00000000000E+00 -0.16546418027E+04  0.16546418027E+04  0.25500000920E-02 0. -1.
    10030    2    1    2    0    0  0.00000000000E+00  0.00000000000E+00  0.76054207646E+03  0.40698256819E+04  0.39981316675E+04 0.  0.
        3    1    3    3  502    0 -0.10030715728E+04 -0.11498901137E+04  0.16948875349E+04  0.22805796676E+04  0.10100000352E+00 0.  1.
       -3    1    3    3    0  502  0.10030715728E+04  0.11498901137E+04 -0.93434545845E+03  0.17892460143E+04  0.10100000352E+00 0. -1.
</event>
<event>
 5   0  0.2746876E-08  0.3984280E+04  0.7818609E-02  0.8007725E-01
       -2   -1    0    0    0  501  0.00000000000E+00  0.00000000000E+00  0.14508062070E+04  0.14508062070E+04  0.25500000920E-02 0.  1.
        2   -1    0    0  501    0  0.00000000000E+00  0.00000000000E+00 -0.27354600982E+04  0.27354600982E+04  0.25500000920E-02 0. -1.
    10030    2    1    2    0    0  0.00000000000E+00  0.00000000000E+00 -0.12846538911E+04  0.41862663052E+04  0.39842803564E+04 0.  0.
        1    1    3    3  502    0  0.14616360155E+03 -0.18304560550E+04 -0.14539438701E+04  0.23421968204E+04  0.50400001928E-02 0. -1.
       -1    1    3    3    0  502 -0.14616360155E+03  0.18304560550E+04  0.16928997903E+03  0.18440694848E+04  0.50400001928E-02 0.  1.
</event>
<event>
 5   0  0.2587493E-08  0.3998024E+04  0.7818609E-02  0.8004945E-01
        2   -1    0    0  501    0  0.00000000000E+00  0.00000000000E+00  0.20361821041E+04  0.20361821041E+04  0.25500000920E-02 0. -1.
       -2   -1    0    0    0  501  0.00000000000E+00  0.00000000000E+00 -0.19625207628E+04  0.19625207628E+04  0.25500000920E-02 0.  1.
    10030    2    1    2    0    0  0.00000000000E+00  0.00000000000E+00  0.73661341343E+02  0.39987028669E+04  0.39980243401E+04 0.  0.
        5    1    3    3  502    0 -0.85674431571E+03  0.12669799932E+04 -0.12505468381E+04  0.19756362545E+04  0.46999998093E+01 0.  1.
       -5    1    3    3    0  502  0.85674431571E+03 -0.12669799932E+04  0.13242081794E+04  0.20230666124E+04  0.46999998093E+01 0. -1.
</event>
<event>
 5   0  0.2587493E-08  0.3994509E+04  0.7818609E-02  0.8005655E-01
       -2   -1    0    0    0  501  0.00000000000E+00  0.00000000000E+00  0.21057448813E+04  0.21057448813E+04  0.25500000920E-02 0.  1.
        2   -1    0    0  501    0  0.00000000000E+00  0.00000000000E+00 -0.18943538257E+04  0.18943538257E+04  0.25500000920E-02 0. -1.
    10030    2    1    2    0    0  0.00000000000E+00  0.00000000000E+00  0.21139105560E+03  0.40000987070E+04  0.39945091673E+04 0.  0.
        5    1    3    3  502    0  0.14034223434E+04  0.11407830279E+04  0.95424397432E+03  0.20448921349E+04  0.46999998093E+01 0.  1.
       -5    1    3    3    0  502 -0.14034223434E+04 -0.11407830279E+04 -0.74285291871E+03  0.19552065721E+04  0.46999998093E+01 0. -1.
</event>
<event>
 5   0  0.2650452E-08  0.3945217E+04  0.7818609E-02  0.8015690E-01
       -2   -1    0    0    0  501  0.00000000000E+00  0.00000000000E+00  0.11693364889E+04  0.11693364889E+04  0.25500000920E-02 0.  1.
        2   -1    0    0  501    0  0.00000000000E+00  0.00000000000E+00 -0.33276856006E+04  0.33276856006E+04  0.25500000920E-02 0. -1.
    10030    2    1    2    0    0  0.00000000000E+00  0.00000000000E+00 -0.21583491117E+04  0.44970220895E+04  0.39452169504E+04 0.  0.
        3    1    3    3  502    0  0.16426562601E+04  0.13602621608E+03 -0.23144250225E+04  0.28413704291E+04  0.10100000352E+00 0. -1.
       -3    1    3    3    0  502 -0.16426562601E+04 -0.13602621608E+03  0.15607591080E+03  0.16556516604E+04  0.10100000352E+00 0.  1.
</event>
<event>
 5   0  0.2612363E-08  0.3999132E+04  0.7818609E-02  0.8004722E-01
        2   -1    0    0  501    0  0.00000000000E+00  0.00000000000E+00  0.28083133962E+04  0.28083133962E+04  0.25500000920E-02 0. -1.
       -2   -1    0    0    0  501  0.00000000000E+00  0.00000000000E+00 -0.14237244485E+04  0.14237244485E+04  0.25500000920E-02 0.  1.
    10030    2    1    2    0    0  0.00000000000E+00  0.00000000000E+00  0.13845889477E+04  0.42320378448E+04  0.39991321265E+04 0.  0.
        4    1    3    3  502    0 -0.95909167132E+03 -0.51660177984E+03 -0.10821198812E+04  0.15354866600E+04  0.12699999809E+01 0.  1.
       -4    1    3    3    0  502  0.95909167132E+03  0.51660177984E+03  0.24667088288E+04  0.26965511848E+04  0.12699999809E+01 0. -1.
</event>
<event>
 5   0  0.2650452E-08  0.3989076E+04  0.7818609E-02  0.8006754E-01
       -2   -1    0    0    0  501  0.00000000000E+00  0.00000000000E+00  0.13363974626E+04  0.13363974626E+04  0.25500000920E-02 0. -1.
        2   -1    0    0  501    0  0.00000000000E+00  0.00000000000E+00 -0.29767960008E+04  0.29767960008E+04  0.25500000920E-02 0.  1.
    10030    2    1    2    0    0  0.00000000000E+00  0.00000000000E+00 -0.16403985382E+04  0.43131934634E+04  0.39890763954E+04 0.  0.
        3    1    3    3  502    0 -0.11441522068E+04 -0.16029555074E+04 -0.11614911583E+04  0.22863972428E+04  0.10100000352E+00 0. -1.
       -3    1    3    3    0  502  0.11441522068E+04  0.16029555074E+04 -0.47890737995E+03  0.20267962206E+04  0.10100000352E+00 0.  1.
</event>
<event>
 5   0  0.2612363E-08  0.3996379E+04  0.7818609E-02  0.8005277E-01
        2   -1    0    0  501    0  0.00000000000E+00  0.00000000000E+00  0.20075596982E+04  0.20075596982E+04  0.25500000920E-02 0.  1.
       -2   -1    0    0    0  501  0.00000000000E+00  0.00000000000E+00 -0.19888633552E+04  0.19888633552E+04  0.25500000920E-02 0. -1.
    10030    2    1    2    0    0  0.00000000000E+00  0.00000000000E+00  0.18696343021E+02  0.39964230535E+04  0.39963793200E+04 0.  0.
        4    1    3    3  502    0  0.80152755199E+02 -0.17879262221E+04 -0.87928726975E+03  0.19940542509E+04  0.12699999809E+01 0. -1.
       -4    1    3    3    0  502 -0.80152755199E+02  0.17879262221E+04  0.89798361278E+03  0.20023688026E+04  0.12699999809E+01 0.  1.
</event>
<event>
 5   0  0.2746876E-08  0.3999694E+04  0.7818609E-02  0.8004608E-01
       -2   -1    0    0    0  501  0.00000000000E+00  0.00000000000E+00  0.23841429355E+04  0.23841429355E+04  0.25500000920E-02 0. -1.
        2   -1    0    0  501    0  0.00000000000E+00  0.00000000000E+00 -0.16774948929E+04  0.16774948929E+04  0.25500000920E-02 0.  1.
    10030    2    1    2    0    0  0.00000000000E+00  0.00000000000E+00  0.70664804258E+03  0.40616378284E+04  0.39996937874E+04 0.  0.
        1    1    3    3  502    0  0.11813695274E+04  0.64481986859E+03  0.18554080818E+04  0.22921530868E+04  0.50400001928E-02 0. -1.
       -1    1    3    3    0  502 -0.11813695274E+04 -0.64481986859E+03 -0.11487600392E+04  0.17694847416E+04  0.50400001928E-02 0.  1.
</event>
<event>
 5   0  0.8329875E-09  0.4010241E+04  0.7818609E-02  0.8002484E-01
        1   -1    0    0  501    0  0.00000000000E+00  0.00000000000E+00  0.23445082298E+04  0.23445082298E+04  0.50400001928E-02 0.  1.
       -1   -1    0    0    0  501  0.00000000000E+00  0.00000000000E+00 -0.17148624217E+04  0.17148624217E+04  0.50400001928E-02 0. -1.
    10030    2    1    2    0    0  0.00000000000E+00  0.00000000000E+00  0.62964580811E+03  0.40593706515E+04  0.40102414195E+04 0.  0.
        4    1    3    3  502    0 -0.16756414833E+04  0.62303744989E+03  0.12339988209E+04  0.21722579836E+04  0.12699999809E+01 0.  1.
       -4    1    3    3    0  502  0.16756414833E+04 -0.62303744989E+03 -0.60435301276E+03  0.18871126679E+04  0.12699999809E+01 0. -1.
</event>
<event>
 5   0  0.2650452E-08  0.3962765E+04  0.7818609E-02  0.8012100E-01
       -2   -1    0    0    0  501  0.00000000000E+00  0.00000000000E+00  0.22856641944E+04  0.22856641944E+04  0.25500000920E-02 0.  1.
        2   -1    0    0  501    0  0.00000000000E+00  0.00000000000E+00 -0.17176087916E+04  0.17176087916E+04  0.25500000920E-02 0. -1.
    10030    2    1    2    0    0  0.00000000000E+00  0.00000000000E+00  0.56805540281E+03  0.40032729860E+04  0.39627651532E+04 0.  0.
        3    1    3    3  502    0  0.12344604483E+04 -0.10272207406E+04  0.14564085725E+04  0.21679946930E+04  0.10100000352E+00 0.  1.
       -3    1    3    3    0  502 -0.12344604483E+04  0.10272207406E+04 -0.88835316973E+03  0.18352782930E+04  0.10100000352E+00 0. -1.
</event>
<event>
 5   0  0.2587493E-08  0.3997557E+04  0.7818609E-02  0.8005040E-01
        2   -1    0    0  501    0  0.00000000000E+00  0.00000000000E+00  0.18373320623E+04  0.18373320623E+04  0.25500000920E-02 0.  1.
       -2   -1    0    0    0  501  0.00000000000E+00  0.00000000000E+00 -0.21744108736E+04  0.21744108736E+04  0.25500000920E-02 0. -1.
    10030    2    1    2    0    0  0.00000000000E+00  0.00000000000E+00 -0.33707881133E+03  0.40117429359E+04  0.39975566611E+04 0.  0.
        5    1    3    3  502    0  0.48168952134E+03  0.91485601368E+03 -0.18851963937E+04  0.21501101957E+04  0.46999998093E+01 0. -1.
       -5    1    3    3    0  502 -0.48168952134E+03 -0.91485601368E+03  0.15481175824E+04  0.18616327403E+04  0.46999998093E+01 0.  1.
</event>
<event>
 5   0  0.8329875E-09  0.4013378E+04  0.7818609E-02  0.8001853E-01
       -1   -1    0    0    0  501  0.00000000000E+00  0.00000000000E+00  0.18082525143E+04  0.18082525143E+04  0.50400001928E-02 0. -1.
        1   -1    0    0  501    0  0.00000000000E+00  0.00000000000E+00 -0.22269015717E+04  0.22269015717E+04  0.50400001928E-02 0.  1.
    10030    2    1    2    0    0  0.00000000000E+00  0.00000000000E+00 -0.41864905742E+03  0.40351540860E+04  0.40133778124E+04 0.  0.
        3    1    3    3  502    0 -0.46789257450E+02  0.79135554653E+03  0.16441441445E+04  0.18252788317E+04  0.10100000352E+00 0. -1.
       -3    1    3    3    0  502  0.46789257450E+02 -0.79135554653E+03 -0.20627932019E+04  0.22098752543E+04  0.10100000352E+00 0.  1.
</event>
<event>
 5   0  0.8329875E-09  0.3993111E+04  0.7818609E-02  0.8005938E-01
        1   -1    0    0  501    0  0.00000000000E+00  0.00000000000E+00  0.14506422188E+04  0.14506422188E+04  0.50400001928E-02 0.  1.
       -1   -1    0    0    0  501  0.00000000000E+00  0.00000000000E+00 -0.27479098960E+04  0.27479098960E+04  0.50400001928E-02 0. -1.
    10030    2    1    2    0    0  0.00000000000E+00  0.00000000000E+00 -0.12972676772E+04  0.41985521148E+04  0.39931111222E+04 0.  0.
        4    1    3    3  502    0 -0.88868891867E+03  0.55342660716E+03  0.11388859577E+04  0.15469685974E+04  0.12699999809E+01 0.  1.
       -4    1    3    3    0  502  0.88868891867E+03 -0.55342660716E+03 -0.24361536350E+04  0.26515835174E+04  0.12699999809E+01 0. -1.
</event>
<event>
 5   0  0.2612363E-08  0.3992507E+04  0.7818609E-02  0.8006060E-01
        2   -1    0    0  501    0  0.00000000000E+00  0.00000000000E+00  0.27781074846E+04  0.27781074846E+04  0.25500000920E-02 0. -1.
       -2   -1    0    0    0  501  0.00000000000E+00  0.00000000000E+00 -0.14344399134E+04  0.14344399134E+04  0.25500000920E-02 0.  1.
    10030    2    1    2    0    0  0.00000000000E+00  0.00000000000E+00  0.13436675712E+04  0.42125473981E+04  0.39925071120E+04 0.  0.
        4    1    3    3  502    0  0.16990304232E+04 -0.25379716651E+03  0.17446870224E+04  0.24484794873E+04  0.12699999809E+01 0. -1.
       -4    1    3    3    0  502 -0.16990304232E+04  0.25379716651E+03 -0.40101945118E+03  0.17640679108E+04  0.12699999809E+01 0.  1.
</event>
<event>
 5   0  0.8329875E-09  0.3989823E+04  0.7818609E-02  0.8006603E-01
        1   -1    0    0  501    0  0.00000000000E+00  0.00000000000E+00  0.22057733721E+04  0.22057733721E+04  0.50400001928E-02 0.  1.
       -1   -1    0    0    0  501  0.00000000000E+00  0.00000000000E+00 -0.18042070479E+04  0.18042070479E+04  0.50400001928E-02 0. -1.
    10030    2    1    2    0    0  0.00000000000E+00  0.00000000000E+00  0.40156632423E+03  0.40099804200E+04  0.39898229856E+04 0.  0.
        3    1    3    3  502    0 -0.46195298142E+03  0.86136865998E+03  0.19486251150E+04  0.21800221041E+04  0.10100000352E+00 0.  1.
       -3    1    3    3    0  502  0.46195298142E+03 -0.86136865998E+03 -0.15470587908E+04  0.18299583159E+04  0.10100000352E+00 0. -1.
</event>
<event>
 5   0  0.2587493E-08  0.4006652E+04  0.7818609E-02  0.8003206E-01
        2   -1    0    0  501    0  0.00000000000E+00  0.00000000000E+00  0.17104660234E+04  0.17104660234E+04  0.25500000920E-02 0.  1.
       -2   -1    0    0    0  501  0.00000000000E+00  0.00000000000E+00 -0.23463290066E+04  0.23463290066E+04  0.25500000920E-02 0. -1.
    10030    2    1    2    0    0  0.00000000000E+00  0.00000000000E+00 -0.63586298320E+03  0.40567950300E+04  0.40066524908E+04 0.  0.
        5    1    3    3  502    0  0.18045459244E+04  0.48206056013E+03 -0.10512366244E+04  0.21433359296E+04  0.46999998093E+01 0. -1.
       -5    1    3    3    0  502 -0.18045459244E+04 -0.48206056013E+03  0.41537364115E+03  0.19134591003E+04  0.46999998093E+01 0.  1.
</event>
<event>
 5   0  0.2599332E-08  0.3999992E+04  0.7818609E-02  0.8004548E-01
       -2   -1    0    0    0  501  0.00000000000E+00  0.00000000000E+00  0.17487172540E+04  0.17487172540E+04  0.25500000920E-02 0. -1.
        2   -1    0    0  501    0  0.00000000000E+00  0.00000000000E+00 -0.22873821764E+04  0.22873821764E+04  0.25500000920E-02 0.  1.
    10030    2    1    2    0    0  0.00000000000E+00  0.00000000000E+00 -0.53866492237E+03  0.40360994304E+04  0.39999923392E+04 0.  0.
        2    1    3    3  502    0 -0.77831857138E+03  0.10757767467E+04  0.12397983356E+04  0.18166384671E+04  0.25500000920E-02 0. -1.
       -2    1    3    3    0  502  0.77831857138E+03 -0.10757767467E+04 -0.17784632580E+04  0.22194609632E+04  0.25500000920E-02 0.  1.
</event>
<event>
 5   0  0.2587493E-08  0.3996714E+04  0.7818609E-02  0.8005210E-01
        2   -1    0    0  501    0  0.00000000000E+00  0.00000000000E+00  0.31116696661E+04  0.31116696661E+04  0.25500000920E-02 0. -1.
       -2   -1    0    0    0  501  0.00000000000E+00  0.00000000000E+00 -0.12833725683E+04  0.12833725683E+04  0.25500000920E-02 0.  1.
    10030    2    1    2    0    0  0.00000000000E+00  0.00000000000E+00  0.18282970978E+04  0.43950422344E+04  0.39967143961E+04 0.  0.
        5    1    3    3  502    0 -0.92719380658E+03 -0.23707375213E+03  0.28432726822E+04  0.30000189923E+04  0.46999998093E+01 0. -1.
       -5    1    3    3    0  502  0.92719380658E+03  0.23707375213E+03 -0.10149755844E+04  0.13950232421E+04  0.46999998093E+01 0.  1.
</event>
<event>
 5   0  0.8329875E-09  0.4000839E+04  0.7818609E-02  0.8004377E-01
       -1   -1    0    0    0  501  0.00000000000E+00  0.00000000000E+00  0.27872493289E+04  0.27872493290E+04  0.50400001928E-02 0.  1.
        1   -1    0    0  501    0  0.00000000000E+00  0.00000000000E+00 -0.14357090802E+04  0.14357090802E+04  0.50400001928E-02 0. -1.
    10030    2    1    2    0    0  0.00000000000E+00  0.00000000000E+00  0.13515402487E+04  0.42229584092E+04  0.40008394971E+04 0.  0.
        5    1    3    3  502    0 -0.66511034469E+03 -0.12803869787E+04 -0.78675843954E+03  0.16434030297E+04  0.46999998093E+01 0. -1.
       -5    1    3    3    0  502  0.66511034469E+03  0.12803869787E+04  0.21382986883E+04  0.25795553795E+04  0.46999998093E+01 0.  1.
</event>
<event>
 5   0  0.8329875E-09  0.4018051E+04  0.7818609E-02  0.8000915E-01
       -1   -1    0    0    0  501  0.00000000000E+00  0.00000000000E+00  0.11499569172E+04  0.11499569172E+04  0.50400001928E-02 0.  1.
        1   -1    0    0  501    0  0.00000000000E+00  0.00000000000E+00 -0.35098564370E+04  0.35098564370E+04  0.50400001928E-02 0. -1.
    10030    2    1    2    0    0  0.00000000000E+00  0.00000000000E+00 -0.23598995198E+04  0.46598133542E+04  0.40180511137E+04 0.  0.
        4    1    3    3  502    0 -0.18149714273E+03  0.11750438971E+04  0.69812062654E+03  0.13787833024E+04  0.12699999809E+01 0.  1.
       -4    1    3    3    0  502  0.18149714273E+03 -0.11750438971E+04 -0.30580201463E+04  0.32810300519E+04  0.12699999809E+01 0. -1.
</event>
<event>
 5   0  0.2650452E-08  0.3964281E+04  0.7818609E-02  0.8011791E-01
        2   -1    0    0  501    0  0.00000000000E+00  0.00000000000E+00  0.27665234879E+04  0.27665234879E+04  0.25500000920E-02 0. -1.
       -2   -1    0    0    0  501  0.00000000000E+00  0.00000000000E+00 -0.14201512069E+04  0.14201512069E+04  0.25500000920E-02 0.  1.
    10030    2    1    2    0    0  0.00000000000E+00  0.00000000000E+00  0.13463722810E+04  0.41866746947E+04  0.39642813574E+04 0.  0.
        3    1    3    3  502    0  0.98653387359E+03  0.60959233036E+03 -0.10244847557E+04  0.15473916498E+04  0.10100000352E+00 0.  1.
       -3    1    3    3    0  502 -0.98653387359E+03 -0.60959233036E+03  0.23708570367E+04  0.26392830450E+04  0.10100000352E+00 0. -1.
</event>
<event>
 5   0  0.8329875E-09  0.4006039E+04  0.7818609E-02  0.8003329E-01
       -1   -1    0    0    0  501  0.00000000000E+00  0.00000000000E+00  0.17883475259E+04  0.17883475259E+04  0.50400001928E-02 0.  1.
        1   -1    0    0  501    0  0.00000000000E+00  0.00000000000E+00 -0.22434602726E+04  0.22434602726E+04  0.50400001928E-02 0. -1.
    10030    2    1    2    0    0  0.00000000000E+00  0.00000000000E+00 -0.45511274673E+03  0.40318077985E+04  0.40060387557E+04 0.  0.
        2    1    3    3  502    0 -0.68450567362E+03  0.97935049684E+01 -0.21220684633E+04  0.22297574965E+04  0.25500000920E-02 0. -1.
       -2    1    3    3    0  502  0.68450567362E+03 -0.97935049684E+01  0.16669557166E+04  0.18020503021E+04  0.25500000920E-02 0.  1.
</event>
<event>
 5   0  0.2612363E-08  0.4004539E+04  0.7818609E-02  0.8003632E-01
        2   -1    0    0  501    0  0.00000000000E+00  0.00000000000E+00  0.28184713974E+04  0.28184713974E+04  0.25500000920E-02 0.  1.
       -2   -1    0    0    0  501  0.00000000000E+00  0.00000000000E+00 -0.14224314567E+04  0.14224314567E+04  0.25500000920E-02 0. -1.
    10030    2    1    2    0    0  0.00000000000E+00  0.00000000000E+00  0.13960399408E+04  0.42409028541E+04  0.40045386128E+04 0.  0.
        4    1    3    3  502    0 -0.35428764489E+03 -0.14120851001E+04 -0.75773439421E+03  0.16412394982E+04  0.12699999809E+01 0. -1.
       -4    1    3    3    0  502  0.35428764489E+03  0.14120851001E+04  0.21537743350E+04  0.25996633559E+04  0.12699999809E+01 0.  1.
</event>
<event>
 5   0  0.8329875E-09  0.4006720E+04  0.7818609E-02  0.8003192E-01
       -1   -1    0    0    0  501  0.00000000000E+00  0.00000000000E+00  0.21483533167E+04  0.21483533167E+04  0.50400001928E-02 0. -1.
        1   -1    0    0  501    0  0.00000000000E+00  0.00000000000E+00 -0.18681523432E+04  0.18681523432E+04  0.50400001928E-02 0.  1.
    10030    2    1    2    0    0  0.00000000000E+00  0.00000000000E+00  0.28020097345E+03  0.40165056599E+04  0.40067199965E+04 0.  0.
        4    1    3    3  502    0  0.57206626643E+03  0.17899766721E+04  0.83618344312E+03  0.20568132301E+04  0.12699999809E+01 0. -1.
       -4    1    3    3    0  502 -0.57206626643E+03 -0.17899766721E+04 -0.55598246967E+03  0.19596924298E+04  0.12699999809E+01 0.  1.
</event>
<event>
 5   0  0.8329875E-09  0.4001752E+04  0.7818609E-02  0.8004193E-01
       -1   -1    0    0    0  501  0.00000000000E+00  0.00000000000E+00  0.20282023032E+04  0.20282023032E+04  0.50400001928E-02 0.  1.
        1   -1    0    0  501    0  0.00000000000E+00  0.00000000000E+00 -0.19739178473E+04  0.19739178473E+04  0.50400001928E-02 0. -1.
    10030    2    1    2    0    0  0.00000000000E+00  0.00000000000E+00  0.54284455864E+02  0.40021201505E+04  0.40017519784E+04 0.  0.
        1    1    3    3  502    0 -0.40949877934E+03 -0.12581222275E+04 -0.14739768571E+04  0.19806990092E+04  0.50400001928E-02 0. -1.
       -1    1    3    3    0  502  0.40949877934E+03  0.12581222275E+04  0.15282613130E+04  0.20214211413E+04  0.50400001928E-02 0.  1.
</event>
<event>
 5   0  0.8329875E-09  0.3993371E+04  0.7818609E-02  0.8005885E-01
        1   -1    0    0  501    0  0.00000000000E+00  0.00000000000E+00  0.14652595447E+04  0.14652595447E+04  0.50400001928E-02 0. -1.
       -1   -1    0    0    0  501  0.00000000000E+00  0.00000000000E+00 -0.27208512732E+04  0.27208512732E+04  0.50400001928E-02 0.  1.
    10030    2    1    2    0    0  0.00000000000E+00  0.00000000000E+00 -0.12555917285E+04  0.41861108178E+04  0.39933711561E+04 0.  0.
        5    1    3    3  502    0 -0.13994462631E+04 -0.13855426407E+04 -0.97317163712E+03  0.21966482144E+04  0.46999998093E+01 0.  1.
       -5    1    3    3    0  502  0.13994462631E+04  0.13855426407E+04 -0.28242009137E+03  0.19894626034E+04  0.46999998093E+01 0. -1.
</event>
<event>
 5   0  0.8329875E-09  0.4011118E+04  0.7818609E-02  0.8002307E-01
        1   -1    0    0  501    0  0.00000000000E+00  0.00000000000E+00  0.26364211019E+04  0.26364211019E+04  0.50400001928E-02 0.  1.
       -1   -1    0    0    0  501  0.00000000000E+00  0.00000000000E+00 -0.15256542726E+04  0.15256542726E+04  0.50400001928E-02 0. -1.
    10030    2    1    2    0    0  0.00000000000E+00  0.00000000000E+00  0.11107668293E+04  0.41620753745E+04  0.40111181077E+04 0.  0.
        3    1    3    3  502    0 -0.10774301972E+04  0.69114708450E+03 -0.10466543429E+04  0.16534888708E+04  0.10100000352E+00 0. -1.
       -3    1    3    3    0  502  0.10774301972E+04 -0.69114708450E+03  0.21574211722E+04  0.25085865037E+04  0.10100000352E+00 0.  1.
</event>
<event>
 5   0  0.2599332E-08  0.3999429E+04  0.7818609E-02  0.8004662E-01
       -2   -1    0    0    0  501  0.00000000000E+00  0.00000000000E+00  0.13770503364E+04  0.13770503364E+04  0.25500000920E-02 0. -1.
        2   -1    0    0  501    0  0.00000000000E+00  0.00000000000E+00 -0.29039299001E+04  0.29039299001E+04  0.25500000920E-02 0.  1.
    10030    2    1    2    0    0  0.00000000000E+00  0.00000000000E+00 -0.15268795637E+04  0.42809802365E+04  0.39994287821E+04 0.  0.
        2    1    3    3  502    0 -0.46193799647E+03 -0.29308098582E+02  0.13189208011E+04  0.13977831580E+04  0.25500000920E-02 0. -1.
       -2    1    3    3    0  502  0.46193799647E+03  0.29308098582E+02 -0.28458003648E+04  0.28831970785E+04  0.25500000920E-02 0.  1.
</event>
<event>
 5   0  0.8329875E-09  0.4003627E+04  0.7818609E-02  0.8003815E-01
        1   -1    0    0  501    0  0.00000000000E+00  0.00000000000E+00  0.15082649439E+04  0.15082649439E+04  0.50400001928E-02 0.  1.
       -1   -1    0    0    0  501  0.00000000000E+00  0.00000000000E+00 -0.26568650639E+04  0.26568650639E+04  0.50400001928E-02 0. -1.
    10030    2    1    2    0    0  0.00000000000E+00  0.00000000000E+00 -0.11486001199E+04  0.41651300078E+04  0.40036265743E+04 0.  0.
        4    1    3    3  502    0 -0.37706053644E+03 -0.78683429668E+03 -0.24486357757E+04  0.25994425621E+04  0.12699999809E+01 0. -1.
       -4    1    3    3    0  502  0.37706053644E+03  0.78683429668E+03  0.13000356558E+04  0.15656874457E+04  0.12699999809E+01 0.  1.
</event>
<event>
 5   0  0.2650452E-08  0.3995622E+04  0.7818609E-02  0.8005430E-01
       -2   -1    0    0    0  501  0.00000000000E+00  0.00000000000E+00  0.19592582027E+04  0.19592582027E+04  0.25500000920E-02 0. -1.
        2   -1    0    0  501    0  0.00000000000E+00  0.00000000000E+00 -0.20371221588E+04  0.20371221588E+04  0.25500000920E-02 0.  1.
    10030    2    1    2    0    0  0.00000000000E+00  0.00000000000E+00 -0.77863956024E+02  0.39963803615E+04  0.39956217537E+04 0.  0.
        3    1    3    3  502    0  0.12333706913E+04 -0.70145493726E+02 -0.16093016103E+04  0.20287866658E+04  0.10100000352E+00 0.  1.
       -3    1    3    3    0  502 -0.12333706913E+04  0.70145493726E+02  0.15314376542E+04  0.19675936957E+04  0.10100000352E+00 0. -1.
</event>
<event>
 5   0  0.2612363E-08  0.3996928E+04  0.7818609E-02  0.8005167E-01
       -2   -1    0    0    0  501  0.00000000000E+00  0.00000000000E+00  0.17378560191E+04  0.17378560191E+04  0.25500000920E-02 0.  1.
        2   -1    0    0  501    0  0.00000000000E+00  0.00000000000E+00 -0.22981522616E+04  0.22981522616E+04  0.25500000920E-02 0. -1.
    10030    2    1    2    0    0  0.00000000000E+00  0.00000000000E+00 -0.56029624246E+03  0.40360082807E+04  0.39969276905E+04 0.  0.
        4    1    3    3  502    0 -0.19296740581E+04  0.34089881435E+03  0.11612001975E+03  0.19629924717E+04  0.12699999809E+01 0.  1.
       -4    1    3    3    0  502  0.19296740581E+04 -0.34089881435E+03 -0.67641626221E+03  0.20730158091E+04  0.12699999809E+01 0. -1.
</event>
<event>
 5   0  0.8329875E-09  0.3998085E+04  0.7818609E-02  0.8004933E-01
       -1   -1    0    0    0  501  0.00000000000E+00  0.00000000000E+00  0.26319325580E+04  0.26319325580E+04  0.50400001928E-02 0.  1.
        1   -1    0    0  501    0  0.00000000000E+00  0.00000000000E+00 -0.15183409722E+04  0.15183409722E+04  0.50400001928E-02 0. -1.
    10030    2    1    2    0    0  0.00000000000E+00  0.00000000000E+00  0.11135915858E+04  0.41502735302E+04  0.39980850610E+04 0.  0.
        3    1    3    3  502    0  0.22454185015E+01 -0.37185472099E+03  0.25957131079E+04  0.26222142407E+04  0.10100000352E+00 0.  1.
       -3    1    3    3    0  502 -0.22454185015E+01  0.37185472099E+03 -0.14821215221E+04  0.15280592894E+04  0.10100000352E+00 0. -1.
</event>
<event>
 5   0  0.2587493E-08  0.4004195E+04  0.7818609E-02  0.8003701E-01
       -2   -1    0    0    0  501  0.00000000000E+00  0.00000000000E+00  0.21690734162E+04  0.21690734162E+04  0.25500000920E-02 0.  1.
        2   -1    0    0  501    0  0.00000000000E+00  0.00000000000E+00 -0.18479758058E+04  0.18479758058E+04  0.25500000920E-02 0. -1.
    10030    2    1    2    0    0  0.00000000000E+00  0.00000000000E+00  0.32109761043E+03  0.40170492220E+04  0.40041953969E+04 0.  0.
        5    1    3    3  502    0  0.10436926910E+04  0.92168969690E+03  0.16037657287E+04  0.21238862807E+04  0.46999998093E+01 0.  1.
       -5    1    3    3    0  502 -0.10436926910E+04 -0.92168969690E+03 -0.12826681183E+04  0.18931629413E+04  0.46999998093E+01 0. -1.
</event>
<event>
 5   0  0.2746876E-08  0.4000963E+04  0.7818609E-02  0.8004352E-01
        2   -1    0    0  501    0  0.00000000000E+00  0.00000000000E+00  0.24375296137E+04  0.24375296137E+04  0.25500000920E-02 0.  1.
       -2   -1    0    0    0  501  0.00000000000E+00  0.00000000000E+00 -0.16417956068E+04  0.16417956068E+04  0.25500000920E-02 0. -1.
    10030    2    1    2    0    0  0.00000000000E+00  0.00000000000E+00  0.79573400689E+03  0.40793252204E+04  0.40009625897E+04 0.  0.
        1    1    3    3  502    0  0.18629420684E+04  0.71234010505E+03  0.55563565080E+03  0.20704377681E+04  0.50400001928E-02 0.  1.
       -1    1    3    3    0  502 -0.18629420684E+04 -0.71234010505E+03  0.24009835609E+03  0.20088874523E+04  0.50400001928E-02 0. -1.
</event>
<event>
 5   0  0.2650452E-08  0.4004333E+04  0.7818609E-02  0.8003673E-01
        2   -1    0    0  501    0  0.00000000000E+00  0.00000000000E+00  0.20262079162E+04  0.20262079162E+04  0.25500000920E-02 0.  1.
       -2   -1    0    0    0  501  0.00000000000E+00  0.00000000000E+00 -0.19784108156E+04  0.19784108156E+04  0.25500000920E-02 0. -1.
    10030    2    1    2    0    0  0.00000000000E+00  0.00000000000E+00  0.47797100542E+02  0.40046187318E+04  0.40043334806E+04 0.  0.
        3    1    3    3  502    0 -0.18518889075E+04 -0.62276230681E+03  0.46136111038E+03  0.20075306974E+04  0.10100000352E+00 0.  1.
       -3    1    3    3    0  502  0.18518889075E+04  0.62276230681E+03 -0.41356400984E+03  0.19970880344E+04  0.10100000352E+00 0. -1.
</event>
<event>
 5   0  0.8329875E-09  0.3985258E+04  0.7818609E-02  0.8007527E-01
        1   -1    0    0  501    0  0.00000000000E+00  0.00000000000E+00  0.24331895194E+04  0.24331895194E+04  0.50400001928E-02 0.  1.
       -1   -1    0    0    0  501  0.00000000000E+00  0.00000000000E+00 -0.16318376689E+04  0.16318376689E+04  0.50400001928E-02 0. -1.
    10030    2    1    2    0    0  0.00000000000E+00  0.00000000000E+00  0.80135185052E+03  0.40650271883E+04  0.39852579908E+04 0.  0.
        1    1    3    3  502    0 -0.68096171960E+03 -0.10411829467E+04  0.19883660846E+04  0.23455000487E+04  0.50400001928E-02 0.  1.
       -1    1    3    3    0  502  0.68096171960E+03  0.10411829467E+04 -0.11870142341E+04  0.17195271396E+04  0.50400001928E-02 0. -1.
</event>
<event>
 5   0  0.8329875E-09  0.3994489E+04  0.7818609E-02  0.8005659E-01
       -1   -1    0    0    0  501  0.00000000000E+00  0.00000000000E+00  0.21488687144E+04  0.21488687144E+04  0.50400001928E-02 0. -1.
        1   -1    0    0  501    0  0.00000000000E+00  0.00000000000E+00 -0.18563187691E+04  0.18563187691E+04  0.50400001928E-02 0.  1.
    10030    2    1    2    0    0  0.00000000000E+00  0.00000000000E+00  0.29254994528E+03  0.40051874835E+04  0.39944888669E+04 0.  0.
        2    1    3    3  502    0  0.13648634362E+04  0.55836367824E+03 -0.12043156848E+04  0.19039428735E+04  0.25500000920E-02 0.  1.
       -2    1    3    3    0  502 -0.13648634362E+04 -0.55836367824E+03  0.14968656301E+04  0.21012446101E+04  0.25500000920E-02 0. -1.
</event>
<event>
 5   0  0.2746876E-08  0.4004745E+04  0.7818609E-02  0.8003590E-01
        2   -1    0    0  501    0  0.00000000000E+00  0.00000000000E+00  0.13840463299E+04  0.13840463299E+04  0.25500000920E-02 0.  1.
       -2   -1    0    0    0  501  0.00000000000E+00  0.00000000000E+00 -0.28969371164E+04  0.28969371164E+04  0.25500000920E-02 0. -1.
    10030    2    1    2    0    0  0.00000000000E+00  0.00000000000E+00 -0.15128907865E+04  0.42809834463E+04  0.40047447778E+04 0.  0.
        1    1    3    3  502    0 -0.40402918913E+03  0.46428033269E+03  0.12804271301E+04  0.14206651430E+04  0.50400001928E-02 0.  1.
       -1    1    3    3    0  502  0.40402918913E+03 -0.46428033269E+03 -0.27933179166E+04  0.28603183033E+04  0.50400001928E-02 0. -1.
</event>
<event>
 5   0  0.2650452E-08  0.4007471E+04  0.7818609E-02  0.8003041E-01
       -2   -1    0    0    0  501  0.00000000000E+00  0.00000000000E+00  0.17827858419E+04  0.17827858419E+04  0.25500000920E-02 0. -1.
        2   -1    0    0  501    0  0.00000000000E+00  0.00000000000E+00 -0.22520686836E+04  0.22520686836E+04  0.25500000920E-02 0.  1.
    10030    2    1    2    0    0  0.00000000000E+00  0.00000000000E+00 -0.46928284171E+03  0.40348545256E+04  0.40074711050E+04 0.  0.
        3    1    3    3  502    0  0.91096143750E+03 -0.17764849392E+04 -0.40670879594E+03  0.20374399463E+04  0.10100000352E+00 0.  1.
       -3    1    3    3    0  502 -0.91096143750E+03  0.17764849392E+04 -0.62574045774E+02  0.19974145792E+04  0.10100000352E+00 0. -1.
</event>
<event>
 5   0  0.8329875E-09  0.4003043E+04  0.7818609E-02  0.8003933E-01
        1   -1    0    0  501    0  0.00000000000E+00  0.00000000000E+00  0.12549394642E+04  0.12549394642E+04  0.50400001928E-02 0. -1.
       -1   -1    0    0    0  501  0.00000000000E+00  0.00000000000E+00 -0.31922566406E+04  0.31922566406E+04  0.50400001928E-02 0.  1.
    10030    2    1    2    0    0  0.00000000000E+00  0.00000000000E+00 -0.19373171764E+04  0.44471961048E+04  0.40030432614E+04 0.  0.
        5    1    3    3  502    0  0.89717194271E+02 -0.65036332674E+03 -0.30692266623E+04  0.31386615023E+04  0.46999998093E+01 0.  1.
       -5    1    3    3    0  502 -0.89717194271E+02  0.65036332674E+03  0.11319094859E+04  0.13085346025E+04  0.46999998093E+01 0. -1.
</event>
<event>
 5   0  0.2650452E-08  0.3973046E+04  0.7818609E-02  0.8010006E-01
        2   -1    0    0  501    0  0.00000000000E+00  0.00000000000E+00  0.25671026396E+04  0.25671026396E+04  0.25500000920E-02 0. -1.
       -2   -1    0    0    0  501  0.00000000000E+00  0.00000000000E+00 -0.15372481367E+04  0.15372481367E+04  0.25500000920E-02 0.  1.
    10030    2    1    2    0    0  0.00000000000E+00  0.00000000000E+00  0.10298545029E+04  0.41043507763E+04  0.39730460603E+04 0.  0.
        3    1    3    3  502    0 -0.13318186454E+04  0.77182941881E+03 -0.78228443915E+03  0.17266819365E+04  0.10100000352E+00 0.  1.
       -3    1    3    3    0  502  0.13318186454E+04 -0.77182941881E+03  0.18121389421E+04  0.23776688398E+04  0.10100000352E+00 0. -1.
</event>
<event>
 5   0  0.8329875E-09  0.3995916E+04  0.7818609E-02  0.8005371E-01
        1   -1    0    0  501    0  0.00000000000E+00  0.00000000000E+00  0.24286900860E+04  0.24286900860E+04  0.50400001928E-02 0. -1.
       -1   -1    0    0    0  501  0.00000000000E+00  0.00000000000E+00 -0.16436172173E+04  0.16436172173E+04  0.50400001928E-02 0.  1.
    10030    2    1    2    0    0  0.00000000000E+00  0.00000000000E+00  0.78507286865E+03  0.40723073033E+04  0.39959163359E+04 0.  0.
        4    1    3    3  502    0  0.21004059577E+03  0.18519897487E+03  0.24085913592E+04  0.24248153870E+04  0.12699999809E+01 0. -1.
       -4    1    3    3    0  502 -0.21004059577E+03 -0.18519897487E+03 -0.16235184906E+04  0.16474919163E+04  0.12699999809E+01 0.  1.
</event>
<event>
 5   0  0.8329875E-09  0.4123735E+04  0.7818609E-02  0.7980040E-01
       -1   -1    0    0    0  501  0.00000000000E+00  0.00000000000E+00  0.17012281802E+04  0.17012281802E+04  0.50400001928E-02 0. -1.
        1   -1    0    0  501    0  0.00000000000E+00  0.00000000000E+00 -0.24989581580E+04  0.24989581580E+04  0.50400001928E-02 0.  1.
    10030    2    1    2    0    0  0.00000000000E+00  0.00000000000E+00 -0.79772997773E+03  0.42001863382E+04  0.41237352192E+04 0.  0.
        4    1    3    3  502    0 -0.74912814253E+03  0.10671669255E+04  0.12280130376E+04  0.17911046464E+04  0.12699999809E+01 0. -1.
       -4    1    3    3    0  502  0.74912814253E+03 -0.10671669255E+04 -0.20257430154E+04  0.24090816918E+04  0.12699999809E+01 0.  1.
</event>
<event>
 5   0  0.2650452E-08  0.4000349E+04  0.7818609E-02  0.8004476E-01
       -2   -1    0    0    0  501  0.00000000000E+00  0.00000000000E+00  0.12351288024E+04  0.12351288024E+04  0.25500000920E-02 0.  1.
        2   -1    0    0  501    0  0.00000000000E+00  0.00000000000E+00 -0.32390937537E+04  0.32390937537E+04  0.25500000920E-02 0. -1.
    10030    2    1    2    0    0  0.00000000000E+00  0.00000000000E+00 -0.20039649513E+04  0.44742225561E+04  0.40003489792E+04 0.  0.
        3    1    3    3  502    0  0.10205472740E+04 -0.44534603624E+03  0.85642508409E+03  0.14047468688E+04  0.10100000352E+00 0.  1.
       -3    1    3    3    0  502 -0.10205472740E+04  0.44534603624E+03 -0.28603900354E+04  0.30694756873E+04  0.10100000352E+00 0. -1.
</event>
<event>
 5   0  0.8329875E-09  0.3997875E+04  0.7818609E-02  0.8004975E-01
       -1   -1    0    0    0  501  0.00000000000E+00  0.00000000000E+00  0.11736812415E+04  0.11736812415E+04  0.50400001928E-02 0. -1.
        1   -1    0    0  501    0  0.00000000000E+00  0.00000000000E+00 -0.34044609986E+04  0.34044609986E+04  0.50400001928E-02 0.  1.
    10030    2    1    2    0    0  0.00000000000E+00  0.00000000000E+00 -0.22307797571E+04  0.45781422401E+04  0.39978754415E+04 0.  0.
        5    1    3    3  502    0  0.13800885011E+04  0.14451500215E+04 -0.10566956352E+04  0.22604713250E+04  0.46999998093E+01 0.  1.
       -5    1    3    3    0  502 -0.13800885011E+04 -0.14451500215E+04 -0.11740841219E+04  0.23176709151E+04  0.46999998093E+01 0. -1.
</event>
<event>
 5   0  0.8329875E-09  0.3999799E+04  0.7818609E-02  0.8004587E-01
        1   -1    0    0  501    0  0.00000000000E+00  0.00000000000E+00  0.18275803155E+04  0.18275803155E+04  0.50400001928E-02 0. -1.
       -1   -1    0    0    0  501  0.00000000000E+00  0.00000000000E+00 -0.21884662109E+04  0.21884662109E+04  0.50400001928E-02 0.  1.
    10030    2    1    2    0    0  0.00000000000E+00  0.00000000000E+00 -0.36088589537E+03  0.40160465264E+04  0.39997988790E+04 0.  0.
        1    1    3    3  502    0  0.17326358880E+04  0.99837149888E+03 -0.20928240263E+03  0.20106148050E+04  0.50400001928E-02 0.  1.
       -1    1    3    3    0  502 -0.17326358880E+04 -0.99837149888E+03 -0.15160349274E+03  0.20054317214E+04  0.50400001928E-02 0. -1.
</event>
<event>
 5   0  0.8329875E-09  0.4000778E+04  0.7818609E-02  0.8004390E-01
        1   -1    0    0  501    0  0.00000000000E+00  0.00000000000E+00  0.25811358306E+04  0.25811358306E+04  0.50400001928E-02 0. -1.
       -1   -1    0    0    0  501  0.00000000000E+00  0.00000000000E+00 -0.15503080079E+04  0.15503080079E+04  0.50400001928E-02 0.  1.
    10030    2    1    2    0    0  0.00000000000E+00  0.00000000000E+00  0.10308278226E+04  0.41314438385E+04  0.40007776983E+04 0.  0.
        4    1    3    3  502    0 -0.53414402508E+03 -0.73714830320E+03  0.23548412899E+04  0.25246735579E+04  0.12699999809E+01 0. -1.
       -4    1    3    3    0  502  0.53414402508E+03  0.73714830320E+03 -0.13240134672E+04  0.16067702807E+04  0.12699999809E+01 0.  1.
</event>
<event>
 5   0  0.2599332E-08  0.4001544E+04  0.7818609E-02  0.8004235E-01
        2   -1    0    0  501    0  0.00000000000E+00  0.00000000000E+00  0.17101721957E+04  0.17101721957E+04  0.25500000920E-02 0.  1.
       -2   -1    0    0    0  501  0.00000000000E+00  0.00000000000E+00 -0.23407514120E+04  0.23407514120E+04  0.25500000920E-02 0. -1.
    10030    2    1    2    0    0  0.00000000000E+00  0.00000000000E+00 -0.63057921632E+03  0.40509236077E+04  0.40015436931E+04 0.  0.
        2    1    3    3  502    0  0.11711190421E+03  0.16436239284E+04 -0.14641388373E+04  0.22042952050E+04  0.25500000920E-02 0. -1.
       -2    1    3    3    0  502 -0.11711190421E+03 -0.16436239284E+04  0.83355962097E+03  0.18466284027E+04  0.25500000920E-02 0.  1.
</event>
<event>
 5   0  0.2599332E-08  0.4004388E+04  0.7818609E-02  0.8003662E-01
       -2   -1    0    0    0  501  0.00000000000E+00  0.00000000000E+00  0.15727807674E+04  0.15727807674E+04  0.25500000920E-02 0. -1.
        2   -1    0    0  501    0  0.00000000000E+00  0.00000000000E+00 -0.25488494479E+04  0.25488494479E+04  0.25500000920E-02 0.  1.
    10030    2    1    2    0    0  0.00000000000E+00  0.00000000000E+00 -0.97606868050E+03  0.41216302154E+04  0.40043882883E+04 0.  0.
        2    1    3    3  502    0  0.10492702825E+04 -0.85172576897E+03 -0.20085737431E+04  0.24209034249E+04  0.25500000920E-02 0.  1.
       -2    1    3    3    0  502 -0.10492702825E+04  0.85172576897E+03  0.10325050626E+04  0.17007267904E+04  0.25500000920E-02 0. -1.
</event>
<event>
 5   0  0.2599332E-08  0.3999708E+04  0.7818609E-02  0.8004605E-01
        2   -1    0    0  501    0  0.00000000000E+00  0.00000000000E+00  0.16880613609E+04  0.16880613609E+04  0.25500000920E-02 0. -1.
       -2   -1    0    0    0  501  0.00000000000E+00  0.00000000000E+00 -0.23692360899E+04  0.23692360899E+04  0.25500000920E-02 0.  1.
    10030    2    1    2    0    0  0.00000000000E+00  0.00000000000E+00 -0.68117472904E+03  0.40572974508E+04  0.39997079384E+04 0.  0.
        2    1    3    3  502    0 -0.11793208011E+04 -0.15243229016E+04 -0.88218307236E+03  0.21195765694E+04  0.25500000920E-02 0.  1.
       -2    1    3    3    0  502  0.11793208011E+04  0.15243229016E+04  0.20100834332E+03  0.19377208814E+04  0.25500000920E-02 0. -1.
</event>
<event>
 5   0  0.8329875E-09  0.4001379E+04  0.7818609E-02  0.8004268E-01
        1   -1    0    0  501    0  0.00000000000E+00  0.00000000000E+00  0.30186507203E+04  0.30186507203E+04  0.50400001928E-02 0.  1.
       -1   -1    0    0    0  501  0.00000000000E+00  0.00000000000E+00 -0.13260090281E+04  0.13260090281E+04  0.50400001928E-02 0. -1.
    10030    2    1    2    0    0  0.00000000000E+00  0.00000000000E+00  0.16926416922E+04  0.43446597484E+04  0.40013788162E+04 0.  0.
        2    1    3    3  502    0  0.23843275019E+03  0.38965422580E+03  0.29612664486E+04  0.29962943066E+04  0.25500000920E-02 0.  1.
       -2    1    3    3    0  502 -0.23843275019E+03 -0.38965422580E+03 -0.12686247564E+04  0.13483654418E+04  0.25500000920E-02 0. -1.
</event>
<event>
 5   0  0.8329875E-09  0.3982601E+04  0.7818609E-02  0.8008066E-01
       -1   -1    0    0    0  501  0.00000000000E+00  0.00000000000E+00  0.26204895666E+04  0.26204895666E+04  0.50400001928E-02 0. -1.
        1   -1    0    0  501    0  0.00000000000E+00  0.00000000000E+00 -0.15131823173E+04  0.15131823173E+04  0.50400001928E-02 0.  1.
    10030    2    1    2    0    0  0.00000000000E+00  0.00000000000E+00  0.11073072494E+04  0.41336718839E+04  0.39826013985E+04 0.  0.
        4    1    3    3  502    0  0.13607568741E+03 -0.13242022366E+02 -0.15083047079E+04  0.15144889067E+04  0.12699999809E+01 0.  1.
       -4    1    3    3    0  502 -0.13607568741E+03  0.13242022366E+02  0.26156119573E+04  0.26191829771E+04  0.12699999809E+01 0. -1.
</event>
<event>
 5   0  0.8329875E-09  0.3996041E+04  0.7818609E-02  0.8005346E-01
        1   -1    0    0  501    0  0.00000000000E+00  0.00000000000E+00  0.20770531606E+04  0.20770531606E+04  0.50400001928E-02 0. -1.
       -1   -1    0    0    0  501  0.00000000000E+00  0.00000000000E+00 -0.19219950419E+04  0.19219950419E+04  0.50400001928E-02 0.  1.
    10030    2    1    2    0    0  0.00000000000E+00  0.00000000000E+00  0.15505811869E+03  0.39990482025E+04  0.39960409790E+04 0.  0.
        3    1    3    3  502    0 -0.11113745247E+04 -0.84786833527E+02  0.17370120889E+04  0.20638684911E+04  0.10100000352E+00 0. -1.
       -3    1    3    3    0  502  0.11113745247E+04  0.84786833527E+02 -0.15819539702E+04  0.19351797114E+04  0.10100000352E+00 0.  1.
</event>
<event>
 5   0  0.2587493E-08  0.3990717E+04  0.7818609E-02  0.8006422E-01
        2   -1    0    0  501    0  0.00000000000E+00  0.00000000000E+00  0.23716546148E+04  0.23716546148E+04  0.25500000920E-02 0. -1.
       -2   -1    0    0    0  501  0.00000000000E+00  0.00000000000E+00 -0.16787673676E+04  0.16787673676E+04  0.25500000920E-02 0.  1.
    10030    2    1    2    0    0  0.00000000000E+00  0.00000000000E+00  0.69288724723E+03  0.40504219825E+04  0.39907174165E+04 0.  0.
        5    1    3    3  502    0  0.74059272870E+03 -0.85615609182E+03  0.20141801188E+04  0.23105030804E+04  0.46999998093E+01 0. -1.
       -5    1    3    3    0  502 -0.74059272870E+03  0.85615609182E+03 -0.13212928716E+04  0.17399189021E+04  0.46999998093E+01 0.  1.
</event>
<event>
 5   0  0.8329875E-09  0.4000151E+04  0.7818609E-02  0.8004516E-01
        1   -1    0    0  501    0  0.00000000000E+00  0.00000000000E+00  0.18824437342E+04  0.18824437342E+04  0.50400001928E-02 0. -1.
       -1   -1    0    0    0  501  0.00000000000E+00  0.00000000000E+00 -0.21250584255E+04  0.21250584255E+04  0.50400001928E-02 0.  1.
    10030    2    1    2    0    0  0.00000000000E+00  0.00000000000E+00 -0.24261469133E+03  0.40075021597E+04  0.40001514560E+04 0.  0.
        4    1    3    3  502    0 -0.15749367586E+04 -0.11056708108E+04  0.42500892069E+03  0.19706770235E+04  0.12699999809E+01 0. -1.
       -4    1    3    3    0  502  0.15749367586E+04  0.11056708108E+04 -0.66762361201E+03  0.20368251362E+04  0.12699999809E+01 0.  1.
</event>
<event>
 5   0  0.2587493E-08  0.4045293E+04  0.7818609E-02  0.7995471E-01
       -2   -1    0    0    0  501  0.00000000000E+00  0.00000000000E+00  0.15245244668E+04  0.15245244668E+04  0.25500000920E-02 0.  1.
        2   -1    0    0  501    0  0.00000000000E+00  0.00000000000E+00 -0.26835244920E+04  0.26835244920E+04  0.25500000920E-02 0. -1.
    10030    2    1    2    0    0  0.00000000000E+00  0.00000000000E+00 -0.11590000252E+04  0.42080489588E+04  0.40452929413E+04 0.  0.
        5    1    3    3  502    0 -0.14857481117E+04 -0.20118769597E+03 -0.19917496355E+04  0.24929927078E+04  0.46999998093E+01 0. -1.
       -5    1    3    3    0  502  0.14857481117E+04  0.20118769597E+03  0.83274961031E+03  0.17150562510E+04  0.46999998093E+01 0.  1.
</event>
<event>
 5   0  0.8329875E-09  0.4006719E+04  0.7818609E-02  0.8003192E-01
        1   -1    0    0  501    0  0.00000000000E+00  0.00000000000E+00  0.26346388955E+04  0.26346388956E+04  0.50400001928E-02 0.  1.
       -1   -1    0    0    0  501  0.00000000000E+00  0.00000000000E+00 -0.15233397918E+04  0.15233397919E+04  0.50400001928E-02 0. -1.
    10030    2    1    2    0    0  0.00000000000E+00  0.00000000000E+00  0.11112991037E+04  0.41579786874E+04  0.40067194894E+04 0.  0.
        4    1    3    3  502    0  0.26249400002E+03 -0.30095687512E+03 -0.14816154015E+04  0.15344914309E+04  0.12699999809E+01 0. -1.
       -4    1    3    3    0  502 -0.26249400002E+03  0.30095687512E+03  0.25929145052E+04  0.26234872565E+04  0.12699999809E+01 0.  1.
</event>
<event>
 5   0  0.8329875E-09  0.4005427E+04  0.7818609E-02  0.8003453E-01
       -1   -1    0    0    0  501  0.00000000000E+00  0.00000000000E+00  0.26260438406E+04  0.26260438406E+04  0.50400001928E-02 0. -1.
        1   -1    0    0  501    0  0.00000000000E+00  0.00000000000E+00 -0.15273396141E+04  0.15273396142E+04  0.50400001928E-02 0.  1.
    10030    2    1    2    0    0  0.00000000000E+00  0.00000000000E+00  0.10987042265E+04  0.41533834548E+04  0.40054267120E+04 0.  0.
        3    1    3    3  502    0 -0.16909923960E+04  0.52369323321E+02 -0.56199453678E+03  0.17827046023E+04  0.10100000352E+00 0.  1.
       -3    1    3    3    0  502  0.16909923960E+04 -0.52369323321E+02  0.16606987633E+04  0.23706788525E+04  0.10100000352E+00 0. -1.
</event>
<event>
 5   0  0.8329875E-09  0.4015861E+04  0.7818609E-02  0.8001355E-01
        1   -1    0    0  501    0  0.00000000000E+00  0.00000000000E+00  0.17697384898E+04  0.17697384898E+04  0.50400001928E-02 0.  1.
       -1   -1    0    0    0  501  0.00000000000E+00  0.00000000000E+00 -0.22781810733E+04  0.22781810733E+04  0.50400001928E-02 0. -1.
    10030    2    1    2    0    0  0.00000000000E+00  0.00000000000E+00 -0.50844258350E+03  0.40479195632E+04  0.40158609200E+04 0.  0.
        3    1    3    3  502    0  0.10749065895E+04 -0.34610390253E+03  0.14193257736E+04  0.18137523947E+04  0.10100000352E+00 0.  1.
       -3    1    3    3    0  502 -0.10749065895E+04  0.34610390253E+03 -0.19277683571E+04  0.22341671684E+04  0.10100000352E+00 0. -1.
</event>
<event>
 5   0  0.2612363E-08  0.4014135E+04  0.7818609E-02  0.8001701E-01
       -2   -1    0    0    0  501  0.00000000000E+00  0.00000000000E+00  0.22021859016E+04  0.22021859016E+04  0.25500000920E-02 0.  1.
        2   -1    0    0  501    0  0.00000000000E+00  0.00000000000E+00 -0.18292371782E+04  0.18292371783E+04  0.25500000920E-02 0. -1.
    10030    2    1    2    0    0  0.00000000000E+00  0.00000000000E+00  0.37294872331E+03  0.40314230798E+04  0.40141351868E+04 0.  0.
        4    1    3    3  502    0 -0.12613800718E+04 -0.80507264898E+03 -0.11568575565E+04  0.18914393130E+04  0.12699999809E+01 0. -1.
       -4    1    3    3    0  502  0.12613800718E+04  0.80507264898E+03  0.15298062798E+04  0.21399837668E+04  0.12699999809E+01 0.  1.
</event>
<event>
 5   0  0.2599332E-08  0.3984132E+04  0.7818609E-02  0.8007755E-01
        2   -1    0    0  501    0  0.00000000000E+00  0.00000000000E+00  0.23356465543E+04  0.23356465543E+04  0.25500000920E-02 0. -1.
       -2   -1    0    0    0  501  0.00000000000E+00  0.00000000000E+00 -0.16990268541E+04  0.16990268541E+04  0.25500000920E-02 0.  1.
    10030    2    1    2    0    0  0.00000000000E+00  0.00000000000E+00  0.63661970021E+03  0.40346734084E+04  0.39841316331E+04 0.  0.
        2    1    3    3  502    0  0.14119080169E+04  0.78968061098E+03 -0.85886777428E+03  0.18315931779E+04  0.25500000920E-02 0.  1.
       -2    1    3    3    0  502 -0.14119080169E+04 -0.78968061098E+03  0.14954874745E+04  0.22030802305E+04  0.25500000920E-02 0. -1.
</event>
<event>
 5   0  0.8329875E-09  0.3994920E+04  0.7818609E-02  0.8005572E-01
       -1   -1    0    0    0  501  0.00000000000E+00  0.00000000000E+00  0.22389825043E+04  0.22389825043E+04  0.50400001928E-02 0.  1.
        1   -1    0    0  501    0  0.00000000000E+00  0.00000000000E+00 -0.17819905643E+04  0.17819905643E+04  0.50400001928E-02 0. -1.
    10030    2    1    2    0    0  0.00000000000E+00  0.00000000000E+00  0.45699194004E+03  0.40209730686E+04  0.39949196219E+04 0.  0.
        3    1    3    3  502    0 -0.37811445327E+03 -0.55328045867E+03 -0.16654653758E+04  0.17952338940E+04  0.10100000352E+00 0. -1.
       -3    1    3    3    0  502  0.37811445327E+03  0.55328045867E+03  0.21224573159E+04  0.22257391747E+04  0.10100000352E+00 0.  1.
</event>
<event>
 5   0  0.2650452E-08  0.3999600E+04  0.7818609E-02  0.8004627E-01
        2   -1    0    0  501    0  0.00000000000E+00  0.00000000000E+00  0.23202131612E+04  0.23202131612E+04  0.25500000920E-02 0.  1.
       -2   -1    0    0    0  501  0.00000000000E+00  0.00000000000E+00 -0.17236343228E+04  0.17236343228E+04  0.25500000920E-02 0. -1.
    10030    2    1    2    0    0  0.00000000000E+00  0.00000000000E+00  0.59657883837E+03  0.40438474840E+04  0.39995995003E+04 0.  0.
        3    1    3    3  502    0 -0.82944134076E+03 -0.36050012202E+03 -0.15050531612E+04  0.17558810621E+04  0.10100000352E+00 0. -1.
       -3    1    3    3    0  502  0.82944134076E+03  0.36050012202E+03  0.21016319996E+04  0.22879664219E+04  0.10100000352E+00 0.  1.
</event>
<event>
 5   0  0.8329875E-09  0.4001808E+04  0.7818609E-02  0.8004182E-01
       -1   -1    0    0    0  501  0.00000000000E+00  0.00000000000E+00  0.29310272593E+04  0.29310272593E+04  0.50400001928E-02 0. -1.
        1   -1    0    0  501    0  0.00000000000E+00  0.00000000000E+00 -0.13659432262E+04  0.13659432262E+04  0.50400001928E-02 0.  1.
    10030    2    1    2    0    0  0.00000000000E+00  0.00000000000E+00  0.15650840331E+04  0.42969704855E+04  0.40018080067E+04 0.  0.
        1    1    3    3  502    0  0.17820034800E+04 -0.89074975130E+03  0.58268088700E+03  0.20756898945E+04  0.50400001928E-02 0.  1.
       -1    1    3    3    0  502 -0.17820034800E+04  0.89074975130E+03  0.98240314608E+03  0.22212805909E+04  0.50400001928E-02 0. -1.
</event>
<event>
 5   0  0.8329875E-09  0.3998012E+04  0.7818609E-02  0.8004948E-01
       -1   -1    0    0    0  501  0.00000000000E+00  0.00000000000E+00  0.25910010961E+04  0.25910010961E+04  0.50400001928E-02 0.  1.
        1   -1    0    0  501    0  0.00000000000E+00  0.00000000000E+00 -0.15422702812E+04  0.15422702813E+04  0.50400001928E-02 0. -1.
    10030    2    1    2    0    0  0.00000000000E+00  0.00000000000E+00  0.10487308148E+04  0.41332713774E+04  0.39980115003E+04 0.  0.
        4    1    3    3  502    0 -0.11702999749E+04 -0.12742757524E+04 -0.51083099159E+03  0.18039763412E+04  0.12699999809E+01 0. -1.
       -4    1    3    3    0  502  0.11702999749E+04  0.12742757524E+04  0.15595618064E+04  0.23292950362E+04  0.12699999809E+01 0.  1.
</event>
<event>
 5   0  0.8329875E-09  0.3989791E+04  0.7818609E-02  0.8006609E-01
        1   -1    0    0  501    0  0.00000000000E+00  0.00000000000E+00  0.22003295604E+04  0.22003295604E+04  0.50400001928E-02 0. -1.
       -1   -1    0    0    0  501  0.00000000000E+00  0.00000000000E+00 -0.18086414643E+04  0.18086414643E+04  0.50400001928E-02 0.  1.
    10030    2    1    2    0    0  0.00000000000E+00  0.00000000000E+00  0.39168809604E+03  0.40089710247E+04  0.39897906101E+04 0.  0.
        5    1    3    3  502    0 -0.19855611286E+04 -0.13029834415E+03  0.53194895842E+02  0.19905482765E+04  0.46999998093E+01 0. -1.
       -5    1    3    3    0  502  0.19855611286E+04  0.13029834415E+03  0.33849320020E+03  0.20184227482E+04  0.46999998093E+01 0.  1.
</event>
<event>
 5   0  0.2650452E-08  0.4003191E+04  0.7818609E-02  0.8003903E-01
        2   -1    0    0  501    0  0.00000000000E+00  0.00000000000E+00  0.20562833746E+04  0.20562833746E+04  0.25500000920E-02 0. -1.
       -2   -1    0    0    0  501  0.00000000000E+00  0.00000000000E+00 -0.19483617631E+04  0.19483617631E+04  0.25500000920E-02 0.  1.
    10030    2    1    2    0    0  0.00000000000E+00  0.00000000000E+00  0.10792161151E+03  0.40046451377E+04  0.40031906781E+04 0.  0.
        3    1    3    3  502    0 -0.12530760159E+04 -0.16491594014E+03  0.16066159288E+04  0.20441652384E+04  0.10100000352E+00 0. -1.
       -3    1    3    3    0  502  0.12530760159E+04  0.16491594014E+03 -0.14986943173E+04  0.19604798994E+04  0.10100000352E+00 0.  1.
</event>
<event>
 5   0  0.8329875E-09  0.3907993E+04  0.7818609E-02  0.8023369E-01
        1   -1    0    0  501    0  0.00000000000E+00  0.00000000000E+00  0.21970561840E+04  0.21970561840E+04  0.50400001928E-02 0. -1.
       -1   -1    0    0    0  501  0.00000000000E+00  0.00000000000E+00 -0.17378263872E+04  0.17378263872E+04  0.50400001928E-02 0.  1.
    10030    2    1    2    0    0  0.00000000000E+00  0.00000000000E+00  0.45922979679E+03  0.39348825713E+04  0.39079929431E+04 0.  0.
        1    1    3    3  502    0 -0.14514337641E+04 -0.12622845911E+04  0.57560677524E+03  0.20078210877E+04  0.50400001928E-02 0. -1.
       -1    1    3    3    0  502  0.14514337641E+04  0.12622845911E+04 -0.11637697846E+03  0.19270614836E+04  0.50400001928E-02 0.  1.
</event>
<event>
 5   0  0.2746876E-08  0.4033025E+04  0.7818609E-02  0.7997917E-01
       -2   -1    0    0    0  501  0.00000000000E+00  0.00000000000E+00  0.18334829932E+04  0.18334829932E+04  0.25500000920E-02 0. -1.
        2   -1    0    0  501    0  0.00000000000E+00  0.00000000000E+00 -0.22178129118E+04  0.22178129118E+04  0.25500000920E-02 0.  1.
    10030    2    1    2    0    0  0.00000000000E+00  0.00000000000E+00 -0.38432991858E+03  0.40512959050E+04  0.40330247983E+04 0.  0.
        1    1    3    3  502    0  0.98341708220E+03 -0.17446580314E+04  0.44233826260E+02  0.20032217639E+04  0.50400001928E-02 0.  1.
       -1    1    3    3    0  502 -0.98341708220E+03  0.17446580314E+04 -0.42856374484E+03  0.20480741411E+04  0.50400001928E-02 0. -1.
</event>
<event>
 5   0  0.8329875E-09  0.4000250E+04  0.7818609E-02  0.8004496E-01
       -1   -1    0    0    0  501  0.00000000000E+00  0.00000000000E+00  0.27799836848E+04  0.27799836848E+04  0.50400001928E-02 0. -1.
        1   -1    0    0  501    0  0.00000000000E+00  0.00000000000E+00 -0.14390375281E+04  0.14390375281E+04  0.50400001928E-02 0.  1.
    10030    2    1    2    0    0  0.00000000000E+00  0.00000000000E+00  0.13409461567E+04  0.42190212129E+04  0.40002504171E+04 0.  0.
        4    1    3    3  502    0 -0.76985669783E+02  0.11720140748E+04 -0.10370019052E+04  0.15668179056E+04  0.12699999809E+01 0.  1.
       -4    1    3    3    0  502  0.76985669783E+02 -0.11720140748E+04  0.23779480619E+04  0.26522033073E+04  0.12699999809E+01 0. -1.
</event>
<event>
 5   0  0.8329875E-09  0.3998161E+04  0.7818609E-02  0.8004918E-01
       -1   -1    0    0    0  501  0.00000000000E+00  0.00000000000E+00  0.22843053367E+04  0.22843053367E+04  0.50400001928E-02 0.  1.
        1   -1    0    0  501    0  0.00000000000E+00  0.00000000000E+00 -0.17494696573E+04  0.17494696573E+04  0.50400001928E-02 0. -1.
    10030    2    1    2    0    0  0.00000000000E+00  0.00000000000E+00  0.53483567943E+03  0.40337749941E+04  0.39981610146E+04 0.  0.
        5    1    3    3  502    0  0.16532607786E+04  0.10775146510E+01 -0.86643828677E+03  0.18665502292E+04  0.46999998093E+01 0. -1.
       -5    1    3    3    0  502 -0.16532607786E+04 -0.10775146510E+01  0.14012739662E+04  0.21672247649E+04  0.46999998093E+01 0.  1.
</event>
<event>
 5   0  0.8329875E-09  0.3996545E+04  0.7818609E-02  0.8005244E-01
        1   -1    0    0  501    0  0.00000000000E+00  0.00000000000E+00  0.17385618505E+04  0.17385618505E+04  0.50400001928E-02 0. -1.
       -1   -1    0    0    0  501  0.00000000000E+00  0.00000000000E+00 -0.22967795786E+04  0.22967795786E+04  0.50400001928E-02 0.  1.
    10030    2    1    2    0    0  0.00000000000E+00  0.00000000000E+00 -0.55821772812E+03  0.40353414291E+04  0.39965451852E+04 0.  0.
        2    1    3    3  502    0 -0.17308896325E+04 -0.10109834177E+03 -0.12821776502E+04  0.21564274440E+04  0.25500000920E-02 0.  1.
       -2    1    3    3    0  502  0.17308896325E+04  0.10109834177E+03  0.72395992206E+03  0.18789139851E+04  0.25500000920E-02 0. -1.
</event>
<event>
 5   0  0.8329875E-09  0.4001206E+04  0.7818609E-02  0.8004303E-01
        1   -1    0    0  501    0  0.00000000000E+00  0.00000000000E+00  0.25426093040E+04  0.25426093040E+04  0.50400001928E-02 0.  1.
       -1   -1    0    0    0  501  0.00000000000E+00  0.00000000000E+00 -0.15741356425E+04  0.15741356425E+04  0.50400001928E-02 0. -1.
    10030    2    1    2    0    0  0.00000000000E+00  0.00000000000E+00  0.96847366155E+03  0.41167449465E+04  0.40012057834E+04 0.  0.
        4    1    3    3  502    0 -0.13390092819E+04  0.50596487532E+03 -0.95378599553E+03  0.17200743153E+04  0.12699999809E+01 0. -1.
       -4    1    3    3    0  502  0.13390092819E+04 -0.50596487532E+03  0.19222596571E+04  0.23966706312E+04  0.12699999809E+01 0.  1.
</event>
<event>
 5   0  0.8329875E-09  0.4001607E+04  0.7818609E-02  0.8004222E-01
       -1   -1    0    0    0  501  0.00000000000E+00  0.00000000000E+00  0.23064821329E+04  0.23064821329E+04  0.50400001928E-02 0. -1.
        1   -1    0    0  501    0  0.00000000000E+00  0.00000000000E+00 -0.17356364301E+04  0.17356364301E+04  0.50400001928E-02 0.  1.
    10030    2    1    2    0    0  0.00000000000E+00  0.00000000000E+00  0.57084570279E+03  0.40421185631E+04  0.40016068849E+04 0.  0.
        5    1    3    3  502    0 -0.13613447951E+04 -0.37045562025E+03 -0.11476347381E+04  0.18186766067E+04  0.46999998093E+01 0.  1.
       -5    1    3    3    0  502  0.13613447951E+04  0.37045562025E+03  0.17184804409E+04  0.22234419564E+04  0.46999998093E+01 0. -1.
</event>
<event>
 5   0  0.2599332E-08  0.4019579E+04  0.7818609E-02  0.8000608E-01
        2   -1    0    0  501    0  0.00000000000E+00  0.00000000000E+00  0.17817721129E+04  0.17817721129E+04  0.25500000920E-02 0.  1.
       -2   -1    0    0    0  501  0.00000000000E+00  0.00000000000E+00 -0.22669869974E+04  0.22669869974E+04  0.25500000920E-02 0. -1.
    10030    2    1    2    0    0  0.00000000000E+00  0.00000000000E+00 -0.48521488452E+03  0.40487591102E+04  0.40195791880E+04 0.  0.
        2    1    3    3  502    0  0.12782161336E+04 -0.11004001036E+04  0.85827568174E+03  0.18924465694E+04  0.25500000920E-02 0.  1.
       -2    1    3    3    0  502 -0.12782161336E+04  0.11004001036E+04 -0.13434905663E+04  0.21563125408E+04  0.25500000920E-02 0. -1.
</event>
<event>
 5   0  0.8329875E-09  0.3993864E+04  0.7818609E-02  0.8005785E-01
        1   -1    0    0  501    0  0.00000000000E+00  0.00000000000E+00  0.20569380361E+04  0.20569380362E+04  0.50400001928E-02 0.  1.
       -1   -1    0    0    0  501  0.00000000000E+00  0.00000000000E+00 -0.19386767168E+04  0.19386767168E+04  0.50400001928E-02 0. -1.
    10030    2    1    2    0    0  0.00000000000E+00  0.00000000000E+00  0.11826131940E+03  0.39956147529E+04  0.39938642333E+04 0.  0.
        1    1    3    3  502    0 -0.80791941109E+03  0.16585360927E+04 -0.70557478155E+03  0.19751737944E+04  0.50400001928E-02 0. -1.
       -1    1    3    3    0  502  0.80791941109E+03 -0.16585360927E+04  0.82383610095E+03  0.20204409585E+04  0.50400001928E-02 0.  1.
</event>
<event>
 5   0  0.8329875E-09  0.4003280E+04  0.7818609E-02  0.8003885E-01
        1   -1    0    0  501    0  0.00000000000E+00  0.00000000000E+00  0.19418255002E+04  0.19418255002E+04  0.50400001928E-02 0. -1.
       -1   -1    0    0    0  501  0.00000000000E+00  0.00000000000E+00 -0.20632969821E+04  0.20632969821E+04  0.50400001928E-02 0.  1.
    10030    2    1    2    0    0  0.00000000000E+00  0.00000000000E+00 -0.12147148186E+03  0.40051224823E+04  0.40032800024E+04 0.  0.
        1    1    3    3  502    0 -0.15914602109E+04  0.12134388703E+04 -0.97944246120E+02  0.20036897390E+04  0.50400001928E-02 0.  1.
       -1    1    3    3    0  502  0.15914602109E+04 -0.12134388703E+04 -0.23527235744E+02  0.20014327433E+04  0.50400001928E-02 0. -1.
</event>
<event>
 5   0  0.8329875E-09  0.4003212E+04  0.7818609E-02  0.8003899E-01
        1   -1    0    0  501    0  0.00000000000E+00  0.00000000000E+00  0.17340242555E+04  0.17340242555E+04  0.50400001928E-02 0.  1.
       -1   -1    0    0    0  501  0.00000000000E+00  0.00000000000E+00 -0.23104784239E+04  0.23104784239E+04  0.50400001928E-02 0. -1.
    10030    2    1    2    0    0  0.00000000000E+00  0.00000000000E+00 -0.57645416836E+03  0.40445026795E+04  0.40032115252E+04 0.  0.
        1    1    3    3  502    0 -0.11869779878E+04  0.77449588861E+03  0.11397390897E+04  0.18187264274E+04  0.50400001928E-02 0.  1.
       -1    1    3    3    0  502  0.11869779878E+04 -0.77449588861E+03 -0.17161932581E+04  0.22257762520E+04  0.50400001928E-02 0. -1.
</event>
<event>
 5   0  0.2612363E-08  0.4015841E+04  0.7818609E-02  0.8001359E-01
       -2   -1    0    0    0  501  0.00000000000E+00  0.00000000000E+00  0.13541995544E+04  0.13541995544E+04  0.25500000920E-02 0. -1.
        2   -1    0    0  501    0  0.00000000000E+00  0.00000000000E+00 -0.29772159288E+04  0.29772159288E+04  0.25500000920E-02 0.  1.
    10030    2    1    2    0    0  0.00000000000E+00  0.00000000000E+00 -0.16230163744E+04  0.43314154832E+04  0.40158408754E+04 0.  0.
        4    1    3    3  502    0  0.49082391840E+03  0.91169125646E+03  0.10440467020E+04  0.14704163339E+04  0.12699999809E+01 0. -1.
       -4    1    3    3    0  502 -0.49082391840E+03 -0.91169125646E+03 -0.26670630765E+04  0.28609991494E+04  0.12699999809E+01 0.  1.
</event>
<event>
 5   0  0.8329875E-09  0.4002537E+04  0.7818609E-02  0.8004035E-01
        1   -1    0    0  501    0  0.00000000000E+00  0.00000000000E+00  0.17854870609E+04  0.17854870609E+04  0.50400001928E-02 0. -1.
       -1   -1    0    0    0  501  0.00000000000E+00  0.00000000000E+00 -0.22431276808E+04  0.22431276808E+04  0.50400001928E-02 0.  1.
    10030    2    1    2    0    0  0.00000000000E+00  0.00000000000E+00 -0.45764061991E+03  0.40286147417E+04  0.40025369205E+04 0.  0.
        3    1    3    3  502    0  0.76937208403E+02 -0.13841911105E+04 -0.16815434667E+04  0.21793331101E+04  0.10100000352E+00 0.  1.
       -3    1    3    3    0  502 -0.76937208403E+02  0.13841911105E+04  0.12239028468E+04  0.18492816316E+04  0.10100000352E+00 0. -1.
</event>
<event>
 5   0  0.2612363E-08  0.3997514E+04  0.7818609E-02  0.8005048E-01
        2   -1    0    0  501    0  0.00000000000E+00  0.00000000000E+00  0.20003139916E+04  0.20003139916E+04  0.25500000920E-02 0. -1.
       -2   -1    0    0    0  501  0.00000000000E+00  0.00000000000E+00 -0.19972008194E+04  0.19972008194E+04  0.25500000920E-02 0.  1.
    10030    2    1    2    0    0  0.00000000000E+00  0.00000000000E+00  0.31131722210E+01  0.39975148109E+04  0.39975135987E+04 0.  0.
        4    1    3    3  502    0  0.17900445680E+04 -0.85551529409E+03 -0.24105666996E+03  0.19985684639E+04  0.12699999809E+01 0.  1.
       -4    1    3    3    0  502 -0.17900445680E+04  0.85551529409E+03  0.24416984218E+03  0.19989463471E+04  0.12699999809E+01 0. -1.
</event>
<event>
 5   0  0.2650452E-08  0.3984836E+04  0.7818609E-02  0.8007613E-01
       -2   -1    0    0    0  501  0.00000000000E+00  0.00000000000E+00  0.18798140633E+04  0.18798140633E+04  0.25500000920E-02 0.  1.
        2   -1    0    0  501    0  0.00000000000E+00  0.00000000000E+00 -0.21117674967E+04  0.21117674967E+04  0.25500000920E-02 0. -1.
    10030    2    1    2    0    0  0.00000000000E+00  0.00000000000E+00 -0.23195343333E+03  0.39915815600E+04  0.39848363774E+04 0.  0.
        3    1    3    3  502    0 -0.19961797357E+03  0.17599794828E+04 -0.10298560161E+04  0.20488969080E+04  0.10100000352E+00 0. -1.
       -3    1    3    3    0  502  0.19961797357E+03 -0.17599794828E+04  0.79790258278E+03  0.19426846520E+04  0.10100000352E+00 0.  1.
</event>
<event>
 5   0  0.2746876E-08  0.3997687E+04  0.7818609E-02  0.8005013E-01
       -2   -1    0    0    0  501  0.00000000000E+00  0.00000000000E+00  0.14968302202E+04  0.14968302202E+04  0.25500000920E-02 0.  1.
        2   -1    0    0  501    0  0.00000000000E+00  0.00000000000E+00 -0.26692243136E+04  0.26692243136E+04  0.25500000920E-02 0. -1.
    10030    2    1    2    0    0  0.00000000000E+00  0.00000000000E+00 -0.11723940934E+04  0.41660545338E+04  0.39976871399E+04 0.  0.
        1    1    3    3  502    0  0.65589087974E+03 -0.53078050344E+03  0.13021493784E+04  0.15516165095E+04  0.50400001928E-02 0.  1.
       -1    1    3    3    0  502 -0.65589087974E+03  0.53078050344E+03 -0.24745434718E+04  0.26144380243E+04  0.50400001928E-02 0. -1.
</event>
<event>
 5   0  0.2612363E-08  0.4004199E+04  0.7818609E-02  0.8003700E-01
        2   -1    0    0  501    0  0.00000000000E+00  0.00000000000E+00  0.20115002041E+04  0.20115002041E+04  0.25500000920E-02 0. -1.
       -2   -1    0    0    0  501  0.00000000000E+00  0.00000000000E+00 -0.19927425192E+04  0.19927425192E+04  0.25500000920E-02 0.  1.
    10030    2    1    2    0    0  0.00000000000E+00  0.00000000000E+00  0.18757684908E+02  0.40042427233E+04  0.40041987883E+04 0.  0.
        4    1    3    3  502    0  0.30651645008E+03 -0.20920878204E+02  0.19877863448E+04  0.20113891177E+04  0.12699999809E+01 0. -1.
       -4    1    3    3    0  502 -0.30651645008E+03  0.20920878204E+02 -0.19690286598E+04  0.19928536056E+04  0.12699999809E+01 0.  1.
</event>
<event>
 5   0  0.8329875E-09  0.3994909E+04  0.7818609E-02  0.8005574E-01
        1   -1    0    0  501    0  0.00000000000E+00  0.00000000000E+00  0.15553786995E+04  0.15553786995E+04  0.50400001928E-02 0. -1.
       -1   -1    0    0    0  501  0.00000000000E+00  0.00000000000E+00 -0.25651785908E+04  0.25651785908E+04  0.50400001928E-02 0.  1.
    10030    2    1    2    0    0  0.00000000000E+00  0.00000000000E+00 -0.10097998912E+04  0.41205572903E+04  0.39949088303E+04 0.  0.
        3    1    3    3  502    0 -0.85797573293E+03  0.14160102542E+04  0.64766036294E+03  0.17778277066E+04  0.10100000352E+00 0. -1.
       -3    1    3    3    0  502  0.85797573293E+03 -0.14160102542E+04 -0.16574602542E+04  0.23427295837E+04  0.10100000352E+00 0.  1.
</event>
<event>
 5   0  0.2650452E-08  0.4009455E+04  0.7818609E-02  0.8002642E-01
       -2   -1    0    0    0  501  0.00000000000E+00  0.00000000000E+00  0.18206056258E+04  0.18206056258E+04  0.25500000920E-02 0.  1.
        2   -1    0    0  501    0  0.00000000000E+00  0.00000000000E+00 -0.22074701067E+04  0.22074701067E+04  0.25500000920E-02 0. -1.
    10030    2    1    2    0    0  0.00000000000E+00  0.00000000000E+00 -0.38686448091E+03  0.40280757326E+04  0.40094550728E+04 0.  0.
        3    1    3    3  502    0 -0.52354570497E+03  0.22267019493E+03 -0.21246631779E+04  0.21995171630E+04  0.10100000352E+00 0. -1.
       -3    1    3    3    0  502  0.52354570497E+03 -0.22267019493E+03  0.17377986969E+04  0.18285585695E+04  0.10100000352E+00 0.  1.
</event>
<event>
 5   0  0.8329875E-09  0.4001358E+04  0.7818609E-02  0.8004273E-01
        1   -1    0    0  501    0  0.00000000000E+00  0.00000000000E+00  0.13008006529E+04  0.13008006529E+04  0.50400001928E-02 0. -1.
       -1   -1    0    0    0  501  0.00000000000E+00  0.00000000000E+00 -0.30771178075E+04  0.30771178075E+04  0.50400001928E-02 0.  1.
    10030    2    1    2    0    0  0.00000000000E+00  0.00000000000E+00 -0.17763171546E+04  0.43779184605E+04  0.40013581960E+04 0.  0.
        3    1    3    3  502    0  0.16034034325E+04  0.35438230760E+03  0.36230095621E+03  0.16815919185E+04  0.10100000352E+00 0. -1.
       -3    1    3    3    0  502 -0.16034034325E+04 -0.35438230760E+03 -0.21386181108E+04  0.26963265420E+04  0.10100000352E+00 0.  1.
</event>
<event>
 5   0  0.2612363E-08  0.4002230E+04  0.7818609E-02  0.8004097E-01
       -2   -1    0    0    0  501  0.00000000000E+00  0.00000000000E+00  0.18745778391E+04  0.18745778391E+04  0.25500000920E-02 0.  1.
        2   -1    0    0  501    0  0.00000000000E+00  0.00000000000E+00 -0.21361941514E+04  0.21361941514E+04  0.25500000920E-02 0. -1.
    10030    2    1    2    0    0  0.00000000000E+00  0.00000000000E+00 -0.26161631226E+03  0.40107719905E+04  0.40022304863E+04 0.  0.
        4    1    3    3  502    0 -0.18767685396E+04 -0.39995049220E+03  0.43806526041E+03  0.19682792822E+04  0.12699999809E+01 0. -1.
       -4    1    3    3    0  502  0.18767685396E+04  0.39995049220E+03 -0.69968157267E+03  0.20424927083E+04  0.12699999809E+01 0.  1.
</event>
<event>
 5   0  0.2599332E-08  0.3997399E+04  0.7818609E-02  0.8005071E-01
       -2   -1    0    0    0  501  0.00000000000E+00  0.00000000000E+00  0.25079562732E+04  0.25079562732E+04  0.25500000920E-02 0. -1.
        2   -1    0    0  501    0  0.00000000000E+00  0.00000000000E+00 -0.15928509573E+04  0.15928509573E+04  0.25500000920E-02 0.  1.
    10030    2    1    2    0    0  0.00000000000E+00  0.00000000000E+00  0.91510531592E+03  0.41008072305E+04  0.39973994300E+04 0.  0.
        2    1    3    3  502    0  0.11454213671E+04 -0.79307253978E+03  0.19277505231E+04  0.23784819194E+04  0.25500000920E-02 0. -1.
       -2    1    3    3    0  502 -0.11454213671E+04  0.79307253978E+03 -0.10126452072E+04  0.17223253111E+04  0.25500000920E-02 0.  1.
</event>
<event>
 5   0  0.2746876E-08  0.4000663E+04  0.7818609E-02  0.8004413E-01
        2   -1    0    0  501    0  0.00000000000E+00  0.00000000000E+00  0.11662817488E+04  0.11662817488E+04  0.25500000920E-02 0. -1.
       -2   -1    0    0    0  501  0.00000000000E+00  0.00000000000E+00 -0.34308399675E+04  0.34308399675E+04  0.25500000920E-02 0.  1.
    10030    2    1    2    0    0  0.00000000000E+00  0.00000000000E+00 -0.22645582187E+04  0.45971217163E+04  0.40006629636E+04 0.  0.
        1    1    3    3  502    0 -0.17348585982E+04 -0.57028224745E+03 -0.19425996319E+03  0.18364893495E+04  0.50400001928E-02 0. -1.
       -1    1    3    3    0  502  0.17348585982E+04  0.57028224745E+03 -0.20702982555E+04  0.27606323668E+04  0.50400001928E-02 0.  1.
</event>
<event>
 5   0  0.2650452E-08  0.4003523E+04  0.7818609E-02  0.8003836E-01
        2   -1    0    0  501    0  0.00000000000E+00  0.00000000000E+00  0.25004957282E+04  0.25004957282E+04  0.25500000920E-02 0.  1.
       -2   -1    0    0    0  501  0.00000000000E+00  0.00000000000E+00 -0.16025015575E+04  0.16025015575E+04  0.25500000920E-02 0. -1.
    10030    2    1    2    0    0  0.00000000000E+00  0.00000000000E+00  0.89799417077E+03  0.41029972857E+04  0.40035225984E+04 0.  0.
        3    1    3    3  502    0 -0.17280581237E+04 -0.27916156243E+03  0.14441714634E+04  0.22693054626E+04  0.10100000352E+00 0.  1.
       -3    1    3    3    0  502  0.17280581237E+04  0.27916156243E+03 -0.54617729259E+03  0.18336918231E+04  0.10100000352E+00 0. -1.
</event>
<event>
 5   0  0.2599332E-08  0.3973291E+04  0.7818609E-02  0.8009956E-01
       -2   -1    0    0    0  501  0.00000000000E+00  0.00000000000E+00  0.19982909122E+04  0.19982909122E+04  0.25500000920E-02 0. -1.
        2   -1    0    0  501    0  0.00000000000E+00  0.00000000000E+00 -0.19750677052E+04  0.19750677052E+04  0.25500000920E-02 0.  1.
    10030    2    1    2    0    0  0.00000000000E+00  0.00000000000E+00  0.23223206986E+02  0.39733586173E+04  0.39732907501E+04 0.  0.
        2    1    3    3  502    0  0.14513566561E+04  0.28804875636E+03  0.13372856402E+04  0.19944275150E+04  0.25500000920E-02 0. -1.
       -2    1    3    3    0  502 -0.14513566561E+04 -0.28804875636E+03 -0.13140624333E+04  0.19789311023E+04  0.25500000920E-02 0.  1.
</event>
<event>
 5   0  0.8329875E-09  0.4017384E+04  0.7818609E-02  0.8001049E-01
        1   -1    0    0  501    0  0.00000000000E+00  0.00000000000E+00  0.23763576523E+04  0.23763576523E+04  0.50400001928E-02 0.  1.
       -1   -1    0    0    0  501  0.00000000000E+00  0.00000000000E+00 -0.16979105015E+04  0.16979105016E+04  0.50400001928E-02 0. -1.
    10030    2    1    2    0    0  0.00000000000E+00  0.00000000000E+00  0.67844715071E+03  0.40742681538E+04  0.40173835332E+04 0.  0.
        2    1    3    3  502    0 -0.15230208558E+04  0.12614018679E+04  0.69651218714E+03  0.20966297781E+04  0.25500000920E-02 0.  1.
       -2    1    3    3    0  502  0.15230208558E+04 -0.12614018679E+04 -0.18065036430E+02  0.19776383757E+04  0.25500000920E-02 0. -1.
</event>
<event>
 5   0  0.8329875E-09  0.3997682E+04  0.7818609E-02  0.8005014E-01
       -1   -1    0    0    0  501  0.00000000000E+00  0.00000000000E+00  0.25320988071E+04  0.25320988071E+04  0.50400001928E-02 0. -1.
        1   -1    0    0  501    0  0.00000000000E+00  0.00000000000E+00 -0.15778869152E+04  0.15778869152E+04  0.50400001928E-02 0.  1.
    10030    2    1    2    0    0  0.00000000000E+00  0.00000000000E+00  0.95421189195E+03  0.41099857223E+04  0.39976821163E+04 0.  0.
        2    1    3    3  502    0 -0.30562398854E+03 -0.79081800253E+03  0.23380852578E+04  0.24870548463E+04  0.25500000920E-02 0. -1.
       -2    1    3    3    0  502  0.30562398854E+03  0.79081800253E+03 -0.13838733659E+04  0.16229308760E+04  0.25500000920E-02 0.  1.
</event>
<event>
 5   0  0.8329875E-09  0.3996177E+04  0.7818609E-02  0.8005318E-01
        1   -1    0    0  501    0  0.00000000000E+00  0.00000000000E+00  0.16709582305E+04  0.16709582305E+04  0.50400001928E-02 0.  1.
       -1   -1    0    0    0  501  0.00000000000E+00  0.00000000000E+00 -0.23892626758E+04  0.23892626758E+04  0.50400001928E-02 0. -1.
    10030    2    1    2    0    0  0.00000000000E+00  0.00000000000E+00 -0.71830444527E+03  0.40602209063E+04  0.39961772398E+04 0.  0.
        4    1    3    3  502    0  0.32246458999E+03  0.60384846444E+03  0.15480944152E+04  0.16926943938E+04  0.12699999809E+01 0.  1.
       -4    1    3    3    0  502 -0.32246458999E+03 -0.60384846444E+03 -0.22663988604E+04  0.23675265125E+04  0.12699999809E+01 0. -1.
</event>
<event>
 5   0  0.8329875E-09  0.4006319E+04  0.7818609E-02  0.8003273E-01
       -1   -1    0    0    0  501  0.00000000000E+00  0.00000000000E+00  0.17942934718E+04  0.17942934718E+04  0.50400001928E-02 0.  1.
        1   -1    0    0  501    0  0.00000000000E+00  0.00000000000E+00 -0.22363382641E+04  0.22363382641E+04  0.50400001928E-02 0. -1.
    10030    2    1    2    0    0  0.00000000000E+00  0.00000000000E+00 -0.44204479229E+03  0.40306317360E+04  0.40063185835E+04 0.  0.
        5    1    3    3  502    0  0.42335585155E+03  0.11164017322E+04  0.13971671184E+04  0.18378468520E+04  0.46999998093E+01 0.  1.
       -5    1    3    3    0  502 -0.42335585155E+03 -0.11164017322E+04 -0.18392119107E+04  0.21927848839E+04  0.46999998093E+01 0. -1.
</event>
<event>
 5   0  0.8329875E-09  0.3995487E+04  0.7818609E-02  0.8005458E-01
       -1   -1    0    0    0  501  0.00000000000E+00  0.00000000000E+00  0.28039188181E+04  0.28039188181E+04  0.50400001928E-02 0. -1.
        1   -1    0    0  501    0  0.00000000000E+00  0.00000000000E+00 -0.14233573057E+04  0.14233573058E+04  0.50400001928E-02 0.  1.
    10030    2    1    2    0    0  0.00000000000E+00  0.00000000000E+00  0.13805615123E+04  0.42272761238E+04  0.39954866209E+04 0.  0.
        5    1    3    3  502    0 -0.15694074358E+04 -0.11500778879E+04  0.11695937302E+04  0.22701740972E+04  0.46999998093E+01 0. -1.
       -5    1    3    3    0  502  0.15694074358E+04  0.11500778879E+04  0.21096778209E+03  0.19571020267E+04  0.46999998093E+01 0.  1.
</event>
<event>
 5   0  0.2650452E-08  0.3996361E+04  0.7818609E-02  0.8005281E-01
        2   -1    0    0  501    0  0.00000000000E+00  0.00000000000E+00  0.19550574814E+04  0.19550574814E+04  0.25500000920E-02 0. -1.
       -2   -1    0    0    0  501  0.00000000000E+00  0.00000000000E+00 -0.20422547331E+04  0.20422547331E+04  0.25500000920E-02 0.  1.
    10030    2    1    2    0    0  0.00000000000E+00  0.00000000000E+00 -0.87197251667E+02  0.39973122145E+04  0.39963610422E+04 0.  0.
        3    1    3    3  502    0 -0.83725426105E+03  0.14564048159E+04 -0.11258060926E+04  0.20222633493E+04  0.10100000352E+00 0.  1.
       -3    1    3    3    0  502  0.83725426105E+03 -0.14564048159E+04  0.10386088409E+04  0.19750488652E+04  0.10100000352E+00 0. -1.
</event>
<event>
 5   0  0.2650452E-08  0.4001255E+04  0.7818609E-02  0.8004293E-01
        2   -1    0    0  501    0  0.00000000000E+00  0.00000000000E+00  0.14640518781E+04  0.14640518781E+04  0.25500000920E-02 0. -1.
       -2   -1    0    0    0  501  0.00000000000E+00  0.00000000000E+00 -0.27338586354E+04  0.27338586354E+04  0.25500000920E-02 0.  1.
    10030    2    1    2    0    0  0.00000000000E+00  0.00000000000E+00 -0.12698067573E+04  0.41979105136E+04  0.40012552379E+04 0.  0.
        3    1    3    3  502    0  0.45636905749E+03 -0.85479254026E+03 -0.24712331402E+04  0.26544182502E+04  0.10100000352E+00 0.  1.
       -3    1    3    3    0  502 -0.45636905749E+03  0.85479254026E+03  0.12014263829E+04  0.15434922634E+04  0.10100000352E+00 0. -1.
</event>
<event>
 5   0  0.2746876E-08  0.4002947E+04  0.7818609E-02  0.8003952E-01
        2   -1    0    0  501    0  0.00000000000E+00  0.00000000000E+00  0.13390320926E+04  0.13390320926E+04  0.25500000920E-02 0. -1.
       -2   -1    0    0    0  501  0.00000000000E+00  0.00000000000E+00 -0.29916362857E+04  0.29916362857E+04  0.25500000920E-02 0.  1.
    10030    2    1    2    0    0  0.00000000000E+00  0.00000000000E+00 -0.16526041931E+04  0.43306683783E+04  0.40029474121E+04 0.  0.
        1    1    3    3  502    0 -0.18934875877E+04  0.58400287308E+03 -0.52117949575E+03  0.20488979153E+04  0.50400001928E-02 0. -1.
       -1    1    3    3    0  502  0.18934875877E+04 -0.58400287308E+03 -0.11314246974E+04  0.22817704631E+04  0.50400001928E-02 0.  1.
</event>
<event>
 5   0  0.8329875E-09  0.3981229E+04  0.7818609E-02  0.8008344E-01
       -1   -1    0    0    0  501  0.00000000000E+00  0.00000000000E+00  0.16998599745E+04  0.16998599745E+04  0.50400001928E-02 0. -1.
        1   -1    0    0  501    0  0.00000000000E+00  0.00000000000E+00 -0.23311015790E+04  0.23311015790E+04  0.50400001928E-02 0.  1.
    10030    2    1    2    0    0  0.00000000000E+00  0.00000000000E+00 -0.63124160450E+03  0.40309615535E+04  0.39812290920E+04 0.  0.
        2    1    3    3  502    0  0.62681601992E+02  0.19783567248E+04 -0.52973816538E+03  0.20490111853E+04  0.25500000920E-02 0. -1.
       -2    1    3    3    0  502 -0.62681601992E+02 -0.19783567248E+04 -0.10150343912E+03  0.19819503682E+04  0.25500000920E-02 0.  1.
</event>
<event>
 5   0  0.2650452E-08  0.4007915E+04  0.7818609E-02  0.8002952E-01
        2   -1    0    0  501    0  0.00000000000E+00  0.00000000000E+00  0.18237705015E+04  0.18237705015E+04  0.25500000920E-02 0.  1.
       -2   -1    0    0    0  501  0.00000000000E+00  0.00000000000E+00 -0.22019472337E+04  0.22019472337E+04  0.25500000920E-02 0. -1.
    10030    2    1    2    0    0  0.00000000000E+00  0.00000000000E+00 -0.37817673223E+03  0.40257177352E+04  0.40079153737E+04 0.  0.
        3    1    3    3  502    0  0.92294723920E+03  0.17579653498E+04 -0.46153591018E+03  0.20384526446E+04  0.10100000352E+00 0.  1.
       -3    1    3    3    0  502 -0.92294723920E+03 -0.17579653498E+04  0.83359177947E+02  0.19872650906E+04  0.10100000352E+00 0. -1.
</event>
<event>
 5   0  0.2612363E-08  0.4002077E+04  0.7818609E-02  0.8004128E-01
       -2   -1    0    0    0  501  0.00000000000E+00  0.00000000000E+00  0.20143263327E+04  0.20143263327E+04  0.25500000920E-02 0.  1.
        2   -1    0    0  501    0  0.00000000000E+00  0.00000000000E+00 -0.19878381461E+04  0.19878381461E+04  0.25500000920E-02 0. -1.
    10030    2    1    2    0    0  0.00000000000E+00  0.00000000000E+00  0.26488186653E+02  0.40021644788E+04  0.40020768223E+04 0.  0.
        4    1    3    3  502    0 -0.10588318551E+04  0.14777250128E+04  0.84953808183E+03  0.20066172221E+04  0.12699999809E+01 0.  1.
       -4    1    3    3    0  502  0.10588318551E+04 -0.14777250128E+04 -0.82304989517E+03  0.19955472567E+04  0.12699999809E+01 0. -1.
</event>
<event>
 5   0  0.2587493E-08  0.4011070E+04  0.7818609E-02  0.8002317E-01
        2   -1    0    0  501    0  0.00000000000E+00  0.00000000000E+00  0.27690903391E+04  0.27690903391E+04  0.25500000920E-02 0.  1.
       -2   -1    0    0    0  501  0.00000000000E+00  0.00000000000E+00 -0.14525242996E+04  0.14525242996E+04  0.25500000920E-02 0. -1.
    10030    2    1    2    0    0  0.00000000000E+00  0.00000000000E+00  0.13165660395E+04  0.42216146387E+04  0.40110701840E+04 0.  0.
        5    1    3    3  502    0 -0.86394927422E+03  0.41294156005E+03 -0.11963778183E+04  0.15324069481E+04  0.46999998093E+01 0. -1.
       -5    1    3    3    0  502  0.86394927422E+03 -0.41294156005E+03  0.25129438578E+04  0.26892076906E+04  0.46999998093E+01 0.  1.
</event>
<event>
 5   0  0.8329875E-09  0.4000779E+04  0.7818609E-02  0.8004390E-01
       -1   -1    0    0    0  501  0.00000000000E+00  0.00000000000E+00  0.20901594732E+04  0.20901594732E+04  0.50400001928E-02 0.  1.
        1   -1    0    0  501    0  0.00000000000E+00  0.00000000000E+00 -0.19144746153E+04  0.19144746153E+04  0.50400001928E-02 0. -1.
    10030    2    1    2    0    0  0.00000000000E+00  0.00000000000E+00  0.17568485794E+03  0.40046340885E+04  0.40007785509E+04 0.  0.
        1    1    3    3  502    0  0.12588898508E+04  0.15153162499E+04 -0.25972448243E+03  0.19870691484E+04  0.50400001928E-02 0. -1.
       -1    1    3    3    0  502 -0.12588898508E+04 -0.15153162499E+04  0.43540934037E+03  0.20175649401E+04  0.50400001928E-02 0.  1.
</event>
<event>
 5   0  0.8329875E-09  0.4023722E+04  0.7818609E-02  0.7999778E-01
        1   -1    0    0  501    0  0.00000000000E+00  0.00000000000E+00  0.12286009703E+04  0.12286009703E+04  0.50400001928E-02 0.  1.
       -1   -1    0    0    0  501  0.00000000000E+00  0.00000000000E+00 -0.32944658941E+04  0.32944658941E+04  0.50400001928E-02 0. -1.
    10030    2    1    2    0    0  0.00000000000E+00  0.00000000000E+00 -0.20658649239E+04  0.45230668644E+04  0.40237216574E+04 0.  0.
        3    1    3    3  502    0  0.91117854617E+03  0.15980346066E+04 -0.19486590082E+04  0.26797822462E+04  0.10100000352E+00 0. -1.
       -3    1    3    3    0  502 -0.91117854617E+03 -0.15980346066E+04 -0.11720591572E+03  0.18432846182E+04  0.10100000352E+00 0.  1.
</event>
<event>
 5   0  0.8329875E-09  0.4002776E+04  0.7818609E-02  0.8003987E-01
        1   -1    0    0  501    0  0.00000000000E+00  0.00000000000E+00  0.16697319830E+04  0.16697319830E+04  0.50400001928E-02 0. -1.
       -1   -1    0    0    0  501  0.00000000000E+00  0.00000000000E+00 -0.23989198571E+04  0.23989198571E+04  0.50400001928E-02 0.  1.
    10030    2    1    2    0    0  0.00000000000E+00  0.00000000000E+00 -0.72918787414E+03  0.40686518401E+04  0.40027756420E+04 0.  0.
        4    1    3    3  502    0 -0.17147730488E+04 -0.75259167385E+03 -0.10824107882E+04  0.21629737779E+04  0.12699999809E+01 0.  1.
       -4    1    3    3    0  502  0.17147730488E+04  0.75259167385E+03  0.35322291411E+03  0.19056780621E+04  0.12699999809E+01 0. -1.
</event>
<event>
 5   0  0.8329875E-09  0.3986484E+04  0.7818609E-02  0.8007279E-01
        1   -1    0    0  501    0  0.00000000000E+00  0.00000000000E+00  0.16062750477E+04  0.16062750477E+04  0.50400001928E-02 0. -1.
       -1   -1    0    0    0  501  0.00000000000E+00  0.00000000000E+00 -0.24734328875E+04  0.24734328875E+04  0.50400001928E-02 0.  1.
    10030    2    1    2    0    0  0.00000000000E+00  0.00000000000E+00 -0.86715783982E+03  0.40797079352E+04  0.39864839292E+04 0.  0.
        5    1    3    3  502    0  0.11486599662E+04 -0.16148601595E+04 -0.65258902089E+03  0.20864054191E+04  0.46999998093E+01 0.  1.
       -5    1    3    3    0  502 -0.11486599662E+04  0.16148601595E+04 -0.21456881892E+03  0.19933025161E+04  0.46999998093E+01 0. -1.
</event>
<event>
 5   0  0.2650452E-08  0.4000980E+04  0.7818609E-02  0.8004349E-01
       -2   -1    0    0    0  501  0.00000000000E+00  0.00000000000E+00  0.27592451335E+04  0.27592451335E+04  0.25500000920E-02 0.  1.
        2   -1    0    0  501    0  0.00000000000E+00  0.00000000000E+00 -0.14503826009E+04  0.14503826009E+04  0.25500000920E-02 0. -1.
    10030    2    1    2    0    0  0.00000000000E+00  0.00000000000E+00  0.13088625326E+04  0.42096277345E+04  0.40009804466E+04 0.  0.
        3    1    3    3  502    0 -0.10155159728E+03  0.17710238024E+04  0.16273836339E+04  0.24073253909E+04  0.10100000352E+00 0. -1.
       -3    1    3    3    0  502  0.10155159728E+03 -0.17710238024E+04 -0.31852110132E+03  0.18023023436E+04  0.10100000352E+00 0.  1.
</event>
<event>
 5   0  0.8329875E-09  0.4001244E+04  0.7818609E-02  0.8004296E-01
        1   -1    0    0  501    0  0.00000000000E+00  0.00000000000E+00  0.14445346953E+04  0.14445346953E+04  0.50400001928E-02 0.  1.
       -1   -1    0    0    0  501  0.00000000000E+00  0.00000000000E+00 -0.27707805149E+04  0.27707805149E+04  0.50400001928E-02 0. -1.
    10030    2    1    2    0    0  0.00000000000E+00  0.00000000000E+00 -0.13262458196E+04  0.42153152103E+04  0.40012441000E+04 0.  0.
        2    1    3    3  502    0 -0.68410784983E+03  0.18587627329E+04 -0.36610631705E+03  0.20142085996E+04  0.25500000920E-02 0. -1.
       -2    1    3    3    0  502  0.68410784983E+03 -0.18587627329E+04 -0.96013950254E+03  0.22011066107E+04  0.25500000920E-02 0.  1.
</event>
<event>
 5   0  0.8329875E-09  0.3999984E+04  0.7818609E-02  0.8004550E-01
       -1   -1    0    0    0  501  0.00000000000E+00  0.00000000000E+00  0.26897461475E+04  0.26897461475E+04  0.50400001928E-02 0.  1.
        1   -1    0    0  501    0  0.00000000000E+00  0.00000000000E+00 -0.14871172827E+04  0.14871172827E+04  0.50400001928E-02 0. -1.
    10030    2    1    2    0    0  0.00000000000E+00  0.00000000000E+00  0.12026288648E+04  0.41768634301E+04  0.39999839909E+04 0.  0.
        4    1    3    3  502    0 -0.76559212257E+03 -0.32876479722E+03  0.24998858806E+04  0.26350803819E+04  0.12699999809E+01 0.  1.
       -4    1    3    3    0  502  0.76559212257E+03  0.32876479722E+03 -0.12972570158E+04  0.15417830483E+04  0.12699999809E+01 0. -1.
</event>
<event>
 5   0  0.8329875E-09  0.3994895E+04  0.7818609E-02  0.8005577E-01
       -1   -1    0    0    0  501  0.00000000000E+00  0.00000000000E+00  0.21341231367E+04  0.21341231368E+04  0.50400001928E-02 0. -1.
        1   -1    0    0  501    0  0.00000000000E+00  0.00000000000E+00 -0.18695248304E+04  0.18695248304E+04  0.50400001928E-02 0.  1.
    10030    2    1    2    0    0  0.00000000000E+00  0.00000000000E+00  0.26459830637E+03  0.40036479671E+04  0.39948948398E+04 0.  0.
        3    1    3    3  502    0  0.62400438461E+03  0.18960846587E+04  0.59492333856E+02  0.19970122316E+04  0.10100000352E+00 0.  1.
       -3    1    3    3    0  502 -0.62400438461E+03 -0.18960846587E+04  0.20510597251E+03  0.20066357356E+04  0.10100000352E+00 0. -1.
</event>
<event>
 5   0  0.8329875E-09  0.3998969E+04  0.7818609E-02  0.8004755E-01
       -1   -1    0    0    0  501  0.00000000000E+00  0.00000000000E+00  0.28499652960E+04  0.28499652960E+04  0.50400001928E-02 0.  1.
        1   -1    0    0  501    0  0.00000000000E+00  0.00000000000E+00 -0.14028021466E+04  0.14028021466E+04  0.50400001928E-02 0. -1.
    10030    2    1    2    0    0  0.00000000000E+00  0.00000000000E+00  0.14471631494E+04  0.42527674426E+04  0.39989685845E+04 0.  0.
        4    1    3    3  502    0  0.82451863150E+03  0.78144927895E+03  0.24734412083E+04  0.27218388955E+04  0.12699999809E+01 0.  1.
       -4    1    3    3    0  502 -0.82451863150E+03 -0.78144927895E+03 -0.10262780589E+04  0.15309285471E+04  0.12699999809E+01 0. -1.
</event>
<event>
 5   0  0.2599332E-08  0.3956058E+04  0.7818609E-02  0.8013470E-01
       -2   -1    0    0    0  501  0.00000000000E+00  0.00000000000E+00  0.27176553712E+04  0.27176553712E+04  0.25500000920E-02 0.  1.
        2   -1    0    0  501    0  0.00000000000E+00  0.00000000000E+00 -0.14396967168E+04  0.14396967168E+04  0.25500000920E-02 0. -1.
    10030    2    1    2    0    0  0.00000000000E+00  0.00000000000E+00  0.12779586545E+04  0.41573520880E+04  0.39560583996E+04 0.  0.
        2    1    3    3  502    0  0.97185769616E+03  0.15911553310E+04 -0.55173510404E+02  0.18652953614E+04  0.25500000920E-02 0. -1.
       -2    1    3    3    0  502 -0.97185769616E+03 -0.15911553310E+04  0.13331321649E+04  0.22920567266E+04  0.25500000920E-02 0.  1.
</event>
<event>
 5   0  0.2587493E-08  0.3995869E+04  0.7818609E-02  0.8005380E-01
       -2   -1    0    0    0  501  0.00000000000E+00  0.00000000000E+00  0.31248261074E+04  0.31248261074E+04  0.25500000920E-02 0.  1.
        2   -1    0    0  501    0  0.00000000000E+00  0.00000000000E+00 -0.12774285056E+04  0.12774285056E+04  0.25500000920E-02 0. -1.
    10030    2    1    2    0    0  0.00000000000E+00  0.00000000000E+00  0.18473976018E+04  0.44022546130E+04  0.39958688390E+04 0.  0.
        5    1    3    3  502    0  0.65092568892E+03 -0.15761978790E+04 -0.22313796381E+03  0.17198594847E+04  0.46999998093E+01 0.  1.
       -5    1    3    3    0  502 -0.65092568892E+03  0.15761978790E+04  0.20705355656E+04  0.26823951283E+04  0.46999998093E+01 0. -1.
</event>
<event>
 5   0  0.2650452E-08  0.3962463E+04  0.7818609E-02  0.8012162E-01
       -2   -1    0    0    0  501  0.00000000000E+00  0.00000000000E+00  0.13643158339E+04  0.13643158339E+04  0.25500000920E-02 0.  1.
        2   -1    0    0  501    0  0.00000000000E+00  0.00000000000E+00 -0.28771038583E+04  0.28771038583E+04  0.25500000920E-02 0. -1.
    10030    2    1    2    0    0  0.00000000000E+00  0.00000000000E+00 -0.15127880244E+04  0.42414196923E+04  0.39624630471E+04 0.  0.
        3    1    3    3  502    0  0.12869678458E+03 -0.12299101483E+04 -0.24132804323E+04  0.27116718626E+04  0.10100000352E+00 0. -1.
       -3    1    3    3    0  502 -0.12869678458E+03  0.12299101483E+04  0.90049240796E+03  0.15297478296E+04  0.10100000352E+00 0.  1.
</event>
<event>
 5   0  0.2587493E-08  0.4005494E+04  0.7818609E-02  0.8003439E-01
        2   -1    0    0  501    0  0.00000000000E+00  0.00000000000E+00  0.13326326416E+04  0.13326326416E+04  0.25500000920E-02 0.  1.
       -2   -1    0    0    0  501  0.00000000000E+00  0.00000000000E+00 -0.30098289170E+04  0.30098289170E+04  0.25500000920E-02 0. -1.
    10030    2    1    2    0    0  0.00000000000E+00  0.00000000000E+00 -0.16771962754E+04  0.43424615585E+04  0.40054943566E+04 0.  0.
        5    1    3    3  502    0 -0.70603789247E+03  0.92420178289E+03  0.92900503567E+03  0.14885264147E+04  0.46999998093E+01 0.  1.
       -5    1    3    3    0  502  0.70603789247E+03 -0.92420178289E+03 -0.26062013111E+04  0.28539351438E+04  0.46999998093E+01 0. -1.
</event>
<event>
 5   0  0.8329875E-09  0.4001702E+04  0.7818609E-02  0.8004203E-01
        1   -1    0    0  501    0  0.00000000000E+00  0.00000000000E+00  0.19547460786E+04  0.19547460786E+04  0.50400001928E-02 0.  1.
       -1   -1    0    0    0  501  0.00000000000E+00  0.00000000000E+00 -0.20480435967E+04  0.20480435968E+04  0.50400001928E-02 0. -1.
    10030    2    1    2    0    0  0.00000000000E+00  0.00000000000E+00 -0.93297518195E+02  0.40027896753E+04  0.40017022325E+04 0.  0.
        4    1    3    3  502    0  0.75719384988E+03  0.35635335556E+02  0.18055539675E+04  0.19582234668E+04  0.12699999809E+01 0.  1.
       -4    1    3    3    0  502 -0.75719384988E+03 -0.35635335556E+02 -0.18988514857E+04  0.20445662085E+04  0.12699999809E+01 0. -1.
</event>
<event>
 5   0  0.8329875E-09  0.4000166E+04  0.7818609E-02  0.8004513E-01
       -1   -1    0    0    0  501  0.00000000000E+00  0.00000000000E+00  0.15028184921E+04  0.15028184921E+04  0.50400001928E-02 0. -1.
        1   -1    0    0  501    0  0.00000000000E+00  0.00000000000E+00 -0.26618862926E+04  0.26618862926E+04  0.50400001928E-02 0.  1.
    10030    2    1    2    0    0  0.00000000000E+00  0.00000000000E+00 -0.11590678006E+04  0.41647047847E+04  0.40001659687E+04 0.  0.
        5    1    3    3  502    0  0.15239460727E+04  0.22863806011E+03  0.74790979727E+03  0.17129151029E+04  0.46999998093E+01 0. -1.
       -5    1    3    3    0  502 -0.15239460727E+04 -0.22863806011E+03 -0.19069775978E+04  0.24517896818E+04  0.46999998093E+01 0.  1.
</event>
<event>
 5   0  0.8329875E-09  0.4001581E+04  0.7818609E-02  0.8004228E-01
       -1   -1    0    0    0  501  0.00000000000E+00  0.00000000000E+00  0.16420274570E+04  0.16420274570E+04  0.50400001928E-02 0.  1.
        1   -1    0    0  501    0  0.00000000000E+00  0.00000000000E+00 -0.24379391218E+04  0.24379391219E+04  0.50400001928E-02 0. -1.
    10030    2    1    2    0    0  0.00000000000E+00  0.00000000000E+00 -0.79591166483E+03  0.40799665789E+04  0.40015811758E+04 0.  0.
        3    1    3    3  502    0 -0.79322790314E+03 -0.18327814015E+04 -0.27364630123E+03  0.20157332364E+04  0.10100000352E+00 0.  1.
       -3    1    3    3    0  502  0.79322790314E+03  0.18327814015E+04 -0.52226536361E+03  0.20642333425E+04  0.10100000352E+00 0. -1.
</event>
<event>
 5   0  0.8329875E-09  0.3995120E+04  0.7818609E-02  0.8005532E-01
       -1   -1    0    0    0  501  0.00000000000E+00  0.00000000000E+00  0.17253869625E+04  0.17253869625E+04  0.50400001928E-02 0. -1.
        1   -1    0    0  501    0  0.00000000000E+00  0.00000000000E+00 -0.23126675778E+04  0.23126675778E+04  0.50400001928E-02 0.  1.
    10030    2    1    2    0    0  0.00000000000E+00  0.00000000000E+00 -0.58728061534E+03  0.40380545403E+04  0.39951202672E+04 0.  0.
        5    1    3    3  502    0 -0.14154944271E+04 -0.93267390840E+03 -0.13617462587E+04  0.21743688868E+04  0.46999998093E+01 0.  1.
       -5    1    3    3    0  502  0.14154944271E+04  0.93267390840E+03  0.77446564339E+03  0.18636856536E+04  0.46999998093E+01 0. -1.
</event>
<event>
 5   0  0.2599332E-08  0.4000726E+04  0.7818609E-02  0.8004400E-01
        2   -1    0    0  501    0  0.00000000000E+00  0.00000000000E+00  0.28763612466E+04  0.28763612466E+04  0.25500000920E-02 0.  1.
       -2   -1    0    0    0  501  0.00000000000E+00  0.00000000000E+00 -0.13911505764E+04  0.13911505764E+04  0.25500000920E-02 0. -1.
    10030    2    1    2    0    0  0.00000000000E+00  0.00000000000E+00  0.14852106702E+04  0.42675118229E+04  0.40007257372E+04 0.  0.
        2    1    3    3  502    0 -0.26236865470E+02 -0.28669926197E+03  0.28541466255E+04  0.28686299517E+04  0.25500000920E-02 0.  1.
       -2    1    3    3    0  502  0.26236865470E+02  0.28669926197E+03 -0.13689359553E+04  0.13988818712E+04  0.25500000920E-02 0. -1.
</event>
<event>
 5   0  0.2650452E-08  0.4000313E+04  0.7818609E-02  0.8004483E-01
       -2   -1    0    0    0  501  0.00000000000E+00  0.00000000000E+00  0.18327306390E+04  0.18327306390E+04  0.25500000920E-02 0. -1.
        2   -1    0    0  501    0  0.00000000000E+00  0.00000000000E+00 -0.21828775814E+04  0.21828775814E+04  0.25500000920E-02 0.  1.
    10030    2    1    2    0    0  0.00000000000E+00  0.00000000000E+00 -0.35014694234E+03  0.40156082204E+04  0.40003133000E+04 0.  0.
        3    1    3    3  502    0  0.76367041584E+03  0.86971793368E+03  0.14624283500E+04  0.18650196989E+04  0.10100000352E+00 0. -1.
       -3    1    3    3    0  502 -0.76367041584E+03 -0.86971793368E+03 -0.18125752923E+04  0.21505885215E+04  0.10100000352E+00 0.  1.
</event>
<event>
 5   0  0.2650452E-08  0.4003546E+04  0.7818609E-02  0.8003832E-01
       -2   -1    0    0    0  501  0.00000000000E+00  0.00000000000E+00  0.24586554736E+04  0.24586554736E+04  0.25500000920E-02 0. -1.
        2   -1    0    0  501    0  0.00000000000E+00  0.00000000000E+00 -0.16297916079E+04  0.16297916079E+04  0.25500000920E-02 0.  1.
    10030    2    1    2    0    0  0.00000000000E+00  0.00000000000E+00  0.82886386564E+03  0.40884470815E+04  0.40035464566E+04 0.  0.
        3    1    3    3  502    0  0.17371866546E+04 -0.92461352241E+03  0.78876836402E+03  0.21201139547E+04  0.10100000352E+00 0. -1.
       -3    1    3    3    0  502 -0.17371866546E+04  0.92461352241E+03  0.40095501624E+02  0.19683331268E+04  0.10100000352E+00 0.  1.
</event>
<event>
 5   0  0.8329875E-09  0.4000170E+04  0.7818609E-02  0.8004512E-01
        1   -1    0    0  501    0  0.00000000000E+00  0.00000000000E+00  0.20106606622E+04  0.20106606622E+04  0.50400001928E-02 0.  1.
       -1   -1    0    0    0  501  0.00000000000E+00  0.00000000000E+00 -0.19895646881E+04  0.19895646881E+04  0.50400001928E-02 0. -1.
    10030    2    1    2    0    0  0.00000000000E+00  0.00000000000E+00  0.21095974057E+02  0.40002253503E+04  0.40001697231E+04 0.  0.
        2    1    3    3  502    0  0.19450628340E+03  0.88913720380E+02  0.19991935304E+04  0.20106001880E+04  0.25500000920E-02 0.  1.
       -2    1    3    3    0  502 -0.19450628340E+03 -0.88913720380E+02 -0.19780975564E+04  0.19896251623E+04  0.25500000920E-02 0. -1.
</event>
<event>
 5   0  0.2612363E-08  0.3891601E+04  0.7818609E-02  0.8026778E-01
        2   -1    0    0  501    0  0.00000000000E+00  0.00000000000E+00  0.29041989037E+04  0.29041989037E+04  0.25500000920E-02 0. -1.
       -2   -1    0    0    0  501  0.00000000000E+00  0.00000000000E+00 -0.13036779326E+04  0.13036779326E+04  0.25500000920E-02 0.  1.
    10030    2    1    2    0    0  0.00000000000E+00  0.00000000000E+00  0.16005209712E+04  0.42078768363E+04  0.38916012245E+04 0.  0.
        4    1    3    3  502    0  0.16137008089E+03  0.15839116751E+04  0.20097976388E+04  0.25640016886E+04  0.12699999809E+01 0. -1.
       -4    1    3    3    0  502 -0.16137008089E+03 -0.15839116751E+04 -0.40927666760E+03  0.16438751477E+04  0.12699999809E+01 0.  1.
</event>
<event>
 5   0  0.2650452E-08  0.3919919E+04  0.7818609E-02  0.8020899E-01
       -2   -1    0    0    0  501  0.00000000000E+00  0.00000000000E+00  0.19672803384E+04  0.19672803384E+04  0.25500000920E-02 0.  1.
        2   -1    0    0  501    0  0.00000000000E+00  0.00000000000E+00 -0.19526656403E+04  0.19526656403E+04  0.25500000920E-02 0. -1.
    10030    2    1    2    0    0  0.00000000000E+00  0.00000000000E+00  0.14614698098E+02  0.39199459787E+04  0.39199187347E+04 0.  0.
        3    1    3    3  502    0 -0.13211371330E+04  0.83108291703E+03 -0.11781706587E+04  0.19555531827E+04  0.10100000352E+00 0. -1.
       -3    1    3    3    0  502  0.13211371330E+04 -0.83108291703E+03  0.11927853568E+04  0.19643927960E+04  0.10100000352E+00 0.  1.
</event>
<event>
 5   0  0.2650452E-08  0.3970835E+04  0.7818609E-02  0.8010456E-01
        2   -1    0    0  501    0  0.00000000000E+00  0.00000000000E+00  0.20532003010E+04  0.20532003010E+04  0.25500000920E-02 0. -1.
       -2   -1    0    0    0  501  0.00000000000E+00  0.00000000000E+00 -0.19198719992E+04  0.19198719992E+04  0.25500000920E-02 0.  1.
    10030    2    1    2    0    0  0.00000000000E+00  0.00000000000E+00  0.13332830178E+03  0.39730723003E+04  0.39708345555E+04 0.  0.
        3    1    3    3  502    0 -0.13621284249E+04  0.12319081401E+04  0.82133733613E+03  0.20118614618E+04  0.10100000352E+00 0.  1.
       -3    1    3    3    0  502  0.13621284249E+04 -0.12319081401E+04 -0.68800903435E+03  0.19612108385E+04  0.10100000352E+00 0. -1.
</event>
<event>
 5   0  0.2650452E-08  0.3999801E+04  0.7818609E-02  0.8004587E-01
       -2   -1    0    0    0  501  0.00000000000E+00  0.00000000000E+00  0.14023539174E+04  0.14023539174E+04  0.25500000920E-02 0.  1.
        2   -1    0    0  501    0  0.00000000000E+00  0.00000000000E+00 -0.28520633667E+04  0.28520633667E+04  0.25500000920E-02 0. -1.
    10030    2    1    2    0    0  0.00000000000E+00  0.00000000000E+00 -0.14497094493E+04  0.42544172842E+04  0.39998011126E+04 0.  0.
        3    1    3    3  502    0  0.65083312047E+03 -0.25205718869E+02 -0.27360904827E+04  0.28125451496E+04  0.10100000352E+00 0. -1.
       -3    1    3    3    0  502 -0.65083312047E+03  0.25205718869E+02  0.12863810334E+04  0.14418721345E+04  0.10100000352E+00 0.  1.
</event>
<event>
 5   0  0.2587493E-08  0.4000827E+04  0.7818609E-02  0.8004380E-01
        2   -1    0    0  501    0  0.00000000000E+00  0.00000000000E+00  0.21946599257E+04  0.21946599257E+04  0.25500000920E-02 0.  1.
       -2   -1    0    0    0  501  0.00000000000E+00  0.00000000000E+00 -0.18233595104E+04  0.18233595104E+04  0.25500000920E-02 0. -1.
    10030    2    1    2    0    0  0.00000000000E+00  0.00000000000E+00  0.37130041522E+03  0.40180194361E+04  0.40008269384E+04 0.  0.
        5    1    3    3  502    0 -0.11597326717E+04 -0.13546423834E+04 -0.72466427514E+03  0.19248886353E+04  0.46999998093E+01 0. -1.
       -5    1    3    3    0  502  0.11597326717E+04  0.13546423834E+04  0.10959646904E+04  0.20931308008E+04  0.46999998093E+01 0.  1.
</event>
<event>
 5   0  0.8329875E-09  0.3998139E+04  0.7818609E-02  0.8004922E-01
       -1   -1    0    0    0  501  0.00000000000E+00  0.00000000000E+00  0.22367884677E+04  0.22367884677E+04  0.50400001928E-02 0.  1.
        1   -1    0    0  501    0  0.00000000000E+00  0.00000000000E+00 -0.17866146791E+04  0.17866146791E+04  0.50400001928E-02 0. -1.
    10030    2    1    2    0    0  0.00000000000E+00  0.00000000000E+00  0.45017378856E+03  0.40234031468E+04  0.39981391224E+04 0.  0.
        3    1    3    3  502    0 -0.12557395068E+04 -0.14670554701E+04  0.74521424754E+03  0.20698980038E+04  0.10100000352E+00 0.  1.
       -3    1    3    3    0  502  0.12557395068E+04  0.14670554701E+04 -0.29504045898E+03  0.19535051430E+04  0.10100000352E+00 0. -1.
</event>
<event>
 5   0  0.8329875E-09  0.3991052E+04  0.7818609E-02  0.8006354E-01
       -1   -1    0    0    0  501  0.00000000000E+00  0.00000000000E+00  0.14557560309E+04  0.14557560309E+04  0.50400001928E-02 0. -1.
        1   -1    0    0  501    0  0.00000000000E+00  0.00000000000E+00 -0.27354332027E+04  0.27354332027E+04  0.50400001928E-02 0.  1.
    10030    2    1    2    0    0  0.00000000000E+00  0.00000000000E+00 -0.12796771718E+04  0.41911892336E+04  0.39910516819E+04 0.  0.
        2    1    3    3  502    0  0.15685505608E+04 -0.50865757704E+03  0.54036918175E+03  0.17352470271E+04  0.25500000920E-02 0. -1.
       -2    1    3    3    0  502 -0.15685505608E+04  0.50865757704E+03 -0.18200463535E+04  0.24559422065E+04  0.25500000920E-02 0.  1.
</event>
<event>
 5   0  0.8329875E-09  0.3997827E+04  0.7818609E-02  0.8004985E-01
       -1   -1    0    0    0  501  0.00000000000E+00  0.00000000000E+00  0.14259371842E+04  0.14259371843E+04  0.50400001928E-02 0.  1.
        1   -1    0    0  501    0  0.00000000000E+00  0.00000000000E+00 -0.28021249666E+04  0.28021249666E+04  0.50400001928E-02 0. -1.
    10030    2    1    2    0    0  0.00000000000E+00  0.00000000000E+00 -0.13761877824E+04  0.42280621509E+04  0.39978265019E+04 0.  0.
        4    1    3    3  502    0 -0.15974402018E+04 -0.13514376296E+03  0.57464115015E+03  0.17030246914E+04  0.12699999809E+01 0.  1.
       -4    1    3    3    0  502  0.15974402018E+04  0.13514376296E+03 -0.19508289325E+04  0.25250374595E+04  0.12699999809E+01 0. -1.
</event>
<event>
 5   0  0.2650452E-08  0.4000542E+04  0.7818609E-02  0.8004437E-01
        2   -1    0    0  501    0  0.00000000000E+00  0.00000000000E+00  0.21149759599E+04  0.21149759599E+04  0.25500000920E-02 0. -1.
       -2   -1    0    0    0  501  0.00000000000E+00  0.00000000000E+00 -0.18917874810E+04  0.18917874810E+04  0.25500000920E-02 0.  1.
    10030    2    1    2    0    0  0.00000000000E+00  0.00000000000E+00  0.22318847891E+03  0.40067634409E+04  0.40005424850E+04 0.  0.
        3    1    3    3  502    0  0.46180952416E+03 -0.43647235933E+03  0.20112008850E+04  0.21091953838E+04  0.10100000352E+00 0. -1.
       -3    1    3    3    0  502 -0.46180952416E+03  0.43647235933E+03 -0.17880124060E+04  0.18975680571E+04  0.10100000352E+00 0.  1.
</event>
<event>
 5   0  0.2650452E-08  0.3996763E+04  0.7818609E-02  0.8005200E-01
       -2   -1    0    0    0  501  0.00000000000E+00  0.00000000000E+00  0.25498742366E+04  0.25498742366E+04  0.25500000920E-02 0. -1.
        2   -1    0    0  501    0  0.00000000000E+00  0.00000000000E+00 -0.15661668894E+04  0.15661668894E+04  0.25500000920E-02 0.  1.
    10030    2    1    2    0    0  0.00000000000E+00  0.00000000000E+00  0.98370734714E+03  0.41160411260E+04  0.39967629910E+04 0.  0.
        3    1    3    3  502    0  0.47082854086E+03 -0.18720392672E+04  0.10243117995E+04  0.21852746293E+04  0.10100000352E+00 0. -1.
       -3    1    3    3    0  502 -0.47082854086E+03  0.18720392672E+04 -0.40604452359E+02  0.19307664966E+04  0.10100000352E+00 0.  1.
</event>
<event>
 5   0  0.2746876E-08  0.3996752E+04  0.7818609E-02  0.8005202E-01
        2   -1    0    0  501    0  0.00000000000E+00  0.00000000000E+00  0.22298526177E+04  0.22298526177E+04  0.25500000920E-02 0. -1.
       -2   -1    0    0    0  501  0.00000000000E+00  0.00000000000E+00 -0.17909289381E+04  0.17909289381E+04  0.25500000920E-02 0.  1.
    10030    2    1    2    0    0  0.00000000000E+00  0.00000000000E+00  0.43892367956E+03  0.40207815558E+04  0.39967524720E+04 0.  0.
        1    1    3    3  502    0 -0.19127863844E+04 -0.56119172168E+03  0.36109062924E+03  0.20258515107E+04  0.50400001928E-02 0.  1.
       -1    1    3    3    0  502  0.19127863844E+04  0.56119172168E+03  0.77833050324E+02  0.19949300451E+04  0.50400001928E-02 0. -1.
</event>
<event>
 5   0  0.8329875E-09  0.3988873E+04  0.7818609E-02  0.8006795E-01
        1   -1    0    0  501    0  0.00000000000E+00  0.00000000000E+00  0.22597239949E+04  0.22597239949E+04  0.50400001928E-02 0.  1.
       -1   -1    0    0    0  501  0.00000000000E+00  0.00000000000E+00 -0.17602936755E+04  0.17602936755E+04  0.50400001928E-02 0. -1.
    10030    2    1    2    0    0  0.00000000000E+00  0.00000000000E+00  0.49943031940E+03  0.40200176705E+04  0.39888734534E+04 0.  0.
        1    1    3    3  502    0 -0.59950029473E+03 -0.18569590779E+04 -0.16591267885E+03  0.19583729567E+04  0.50400001928E-02 0.  1.
       -1    1    3    3    0  502  0.59950029473E+03  0.18569590779E+04  0.66534299824E+03  0.20616447138E+04  0.50400001928E-02 0. -1.
</event>
<event>
 5   0  0.2599332E-08  0.3986588E+04  0.7818609E-02  0.8007258E-01
        2   -1    0    0  501    0  0.00000000000E+00  0.00000000000E+00  0.20928052106E+04  0.20928052106E+04  0.25500000920E-02 0. -1.
       -2   -1    0    0    0  501  0.00000000000E+00  0.00000000000E+00 -0.18985141747E+04  0.18985141747E+04  0.25500000920E-02 0.  1.
    10030    2    1    2    0    0  0.00000000000E+00  0.00000000000E+00  0.19429103592E+03  0.39913193853E+04  0.39865876923E+04 0.  0.
        2    1    3    3  502    0  0.14879809161E+04  0.18761500939E+03 -0.12173994496E+04  0.19316697488E+04  0.25500000920E-02 0.  1.
       -2    1    3    3    0  502 -0.14879809161E+04 -0.18761500939E+03  0.14116904855E+04  0.20596496365E+04  0.25500000920E-02 0. -1.
</event>
<event>
 5   0  0.2650452E-08  0.4001974E+04  0.7818609E-02  0.8004149E-01
       -2   -1    0    0    0  501  0.00000000000E+00  0.00000000000E+00  0.18444690718E+04  0.18444690718E+04  0.25500000920E-02 0. -1.
        2   -1    0    0  501    0  0.00000000000E+00  0.00000000000E+00 -0.21707863594E+04  0.21707863594E+04  0.25500000920E-02 0.  1.
    10030    2    1    2    0    0  0.00000000000E+00  0.00000000000E+00 -0.32631728760E+03  0.40152554313E+04  0.40019736639E+04 0.  0.
        3    1    3    3  502    0 -0.12904451240E+04 -0.12186879966E+04  0.76375766041E+03  0.19322978096E+04  0.10100000352E+00 0. -1.
       -3    1    3    3    0  502  0.12904451240E+04  0.12186879966E+04 -0.10900749480E+04  0.20829576216E+04  0.10100000352E+00 0.  1.
</event>
<event>
 5   0  0.8329875E-09  0.4003907E+04  0.7818609E-02  0.8003759E-01
       -1   -1    0    0    0  501  0.00000000000E+00  0.00000000000E+00  0.13095301627E+04  0.13095301627E+04  0.50400001928E-02 0.  1.
        1   -1    0    0  501    0  0.00000000000E+00  0.00000000000E+00 -0.30605001613E+04  0.30605001613E+04  0.50400001928E-02 0. -1.
    10030    2    1    2    0    0  0.00000000000E+00  0.00000000000E+00 -0.17509699986E+04  0.43700303241E+04  0.40039067293E+04 0.  0.
        1    1    3    3  502    0 -0.13501172271E+04  0.13629871711E+04 -0.25110149686E+03  0.19348391451E+04  0.50400001928E-02 0.  1.
       -1    1    3    3    0  502  0.13501172271E+04 -0.13629871711E+04 -0.14998685018E+04  0.24351911790E+04  0.50400001928E-02 0. -1.
</event>
<event>
 5   0  0.2612363E-08  0.4001341E+04  0.7818609E-02  0.8004276E-01
        2   -1    0    0  501    0  0.00000000000E+00  0.00000000000E+00  0.23678797460E+04  0.23678797460E+04  0.25500000920E-02 0. -1.
       -2   -1    0    0    0  501  0.00000000000E+00  0.00000000000E+00 -0.16904077647E+04  0.16904077647E+04  0.25500000920E-02 0.  1.
    10030    2    1    2    0    0  0.00000000000E+00  0.00000000000E+00  0.67747198127E+03  0.40582875106E+04  0.40013409294E+04 0.  0.
        4    1    3    3  502    0  0.11819557079E+04  0.16112734555E+04  0.43737884824E+03  0.20456107434E+04  0.12699999809E+01 0. -1.
       -4    1    3    3    0  502 -0.11819557079E+04 -0.16112734555E+04  0.24009313303E+03  0.20126767672E+04  0.12699999809E+01 0.  1.
</event>
<event>
 5   0  0.2587493E-08  0.3994217E+04  0.7818609E-02  0.8005714E-01
        2   -1    0    0  501    0  0.00000000000E+00  0.00000000000E+00  0.16432921881E+04  0.16432921881E+04  0.25500000920E-02 0. -1.
       -2   -1    0    0    0  501  0.00000000000E+00  0.00000000000E+00 -0.24271051555E+04  0.24271051555E+04  0.25500000920E-02 0.  1.
    10030    2    1    2    0    0  0.00000000000E+00  0.00000000000E+00 -0.78381296739E+03  0.40703973436E+04  0.39942172909E+04 0.  0.
        5    1    3    3  502    0  0.10553713660E+04  0.30228312633E+03  0.13082160233E+04  0.17078158748E+04  0.46999998093E+01 0. -1.
       -5    1    3    3    0  502 -0.10553713660E+04 -0.30228312633E+03 -0.20920289907E+04  0.23625814688E+04  0.46999998093E+01 0.  1.
</event>
<event>
 5   0  0.2612363E-08  0.4002564E+04  0.7818609E-02  0.8004029E-01
        2   -1    0    0  501    0  0.00000000000E+00  0.00000000000E+00  0.16411475944E+04  0.16411475944E+04  0.25500000920E-02 0.  1.
       -2   -1    0    0    0  501  0.00000000000E+00  0.00000000000E+00 -0.24404448476E+04  0.24404448476E+04  0.25500000920E-02 0. -1.
    10030    2    1    2    0    0  0.00000000000E+00  0.00000000000E+00 -0.79929725327E+03  0.40815924420E+04  0.40025642735E+04 0.  0.
        4    1    3    3  502    0 -0.78020071421E+02  0.36631550653E+03  0.16050906125E+04  0.16482086243E+04  0.12699999809E+01 0.  1.
       -4    1    3    3    0  502  0.78020071421E+02 -0.36631550653E+03 -0.24043878658E+04  0.24333838177E+04  0.12699999809E+01 0. -1.
</event>
<event>
 5   0  0.2650452E-08  0.3983848E+04  0.7818609E-02  0.8007813E-01
        2   -1    0    0  501    0  0.00000000000E+00  0.00000000000E+00  0.24243072069E+04  0.24243072069E+04  0.25500000920E-02 0. -1.
       -2   -1    0    0    0  501  0.00000000000E+00  0.00000000000E+00 -0.16366577467E+04  0.16366577467E+04  0.25500000920E-02 0.  1.
    10030    2    1    2    0    0  0.00000000000E+00  0.00000000000E+00  0.78764946022E+03  0.40609649536E+04  0.39838479743E+04 0.  0.
        3    1    3    3  502    0  0.17397189297E+04  0.83531779063E+03 -0.10906406193E+03  0.19329440617E+04  0.10100000352E+00 0.  1.
       -3    1    3    3    0  502 -0.17397189297E+04 -0.83531779063E+03  0.89671352216E+03  0.21280208920E+04  0.10100000352E+00 0. -1.
</event>
<event>
 5   0  0.2650452E-08  0.3996151E+04  0.7818609E-02  0.8005323E-01
       -2   -1    0    0    0  501  0.00000000000E+00  0.00000000000E+00  0.21542147652E+04  0.21542147652E+04  0.25500000920E-02 0.  1.
        2   -1    0    0  501    0  0.00000000000E+00  0.00000000000E+00 -0.18532536692E+04  0.18532536692E+04  0.25500000920E-02 0. -1.
    10030    2    1    2    0    0  0.00000000000E+00  0.00000000000E+00  0.30096109598E+03  0.40074684344E+04  0.39961513574E+04 0.  0.
        3    1    3    3  502    0  0.11734439432E+03 -0.51698462505E+03  0.20824002969E+04  0.21488214947E+04  0.10100000352E+00 0.  1.
       -3    1    3    3    0  502 -0.11734439432E+03  0.51698462505E+03 -0.17814392009E+04  0.18586469396E+04  0.10100000352E+00 0. -1.
</event>
<event>
 5   0  0.2599332E-08  0.4010263E+04  0.7818609E-02  0.8002479E-01
        2   -1    0    0  501    0  0.00000000000E+00  0.00000000000E+00  0.17541918166E+04  0.17541918166E+04  0.25500000920E-02 0. -1.
       -2   -1    0    0    0  501  0.00000000000E+00  0.00000000000E+00 -0.22919685635E+04  0.22919685635E+04  0.25500000920E-02 0.  1.
    10030    2    1    2    0    0  0.00000000000E+00  0.00000000000E+00 -0.53777674690E+03  0.40461603800E+04  0.40102630826E+04 0.  0.
        2    1    3    3  502    0  0.24404637606E+03  0.52447264925E+03 -0.22059494618E+04  0.22805357313E+04  0.25500000920E-02 0.  1.
       -2    1    3    3    0  502 -0.24404637606E+03 -0.52447264925E+03  0.16681727149E+04  0.17656246488E+04  0.25500000920E-02 0. -1.
</event>
<event>
 5   0  0.2650452E-08  0.3998037E+04  0.7818609E-02  0.8004943E-01
        2   -1    0    0  501    0  0.00000000000E+00  0.00000000000E+00  0.18385774197E+04  0.18385774197E+04  0.25500000920E-02 0.  1.
       -2   -1    0    0    0  501  0.00000000000E+00  0.00000000000E+00 -0.21734599255E+04  0.21734599255E+04  0.25500000920E-02 0. -1.
    10030    2    1    2    0    0  0.00000000000E+00  0.00000000000E+00 -0.33488250583E+03  0.40120373453E+04  0.39980366891E+04 0.  0.
        3    1    3    3  502    0  0.14385884004E+04  0.11246009946E+04  0.64892485941E+03  0.19378770513E+04  0.10100000352E+00 0.  1.
       -3    1    3    3    0  502 -0.14385884004E+04 -0.11246009946E+04 -0.98380736524E+03  0.20741602939E+04  0.10100000352E+00 0. -1.
</event>
<event>
 5   0  0.8329875E-09  0.4118883E+04  0.7818609E-02  0.7980984E-01
       -1   -1    0    0    0  501  0.00000000000E+00  0.00000000000E+00  0.24143903259E+04  0.24143903260E+04  0.50400001928E-02 0. -1.
        1   -1    0    0  501    0  0.00000000000E+00  0.00000000000E+00 -0.17566750641E+04  0.17566750641E+04  0.50400001928E-02 0.  1.
    10030    2    1    2    0    0  0.00000000000E+00  0.00000000000E+00  0.65771526189E+03  0.41710653900E+04  0.41188829945E+04 0.  0.
        5    1    3    3  502    0  0.15217088796E+03  0.11704264688E+03 -0.17475886740E+04  0.17581078533E+04  0.46999998093E+01 0.  1.
       -5    1    3    3    0  502 -0.15217088796E+03 -0.11704264688E+03  0.24053039359E+04  0.24129575368E+04  0.46999998093E+01 0. -1.
</event>
<event>
 5   0  0.2746876E-08  0.3995738E+04  0.7818609E-02  0.8005407E-01
        2   -1    0    0  501    0  0.00000000000E+00  0.00000000000E+00  0.24427442380E+04  0.24427442380E+04  0.25500000920E-02 0. -1.
       -2   -1    0    0    0  501  0.00000000000E+00  0.00000000000E+00 -0.16340151753E+04  0.16340151753E+04  0.25500000920E-02 0.  1.
    10030    2    1    2    0    0  0.00000000000E+00  0.00000000000E+00  0.80872906270E+03  0.40767594133E+04  0.39957383069E+04 0.  0.
        1    1    3    3  502    0  0.74909560833E+03 -0.11983489120E+04 -0.10364661326E+04  0.17525542472E+04  0.50400001928E-02 0.  1.
       -1    1    3    3    0  502 -0.74909560833E+03  0.11983489120E+04  0.18451951953E+04  0.23242051661E+04  0.50400001928E-02 0. -1.
</event>
<event>
 5   0  0.8329875E-09  0.4001374E+04  0.7818609E-02  0.8004269E-01
       -1   -1    0    0    0  501  0.00000000000E+00  0.00000000000E+00  0.17612394363E+04  0.17612394363E+04  0.50400001928E-02 0. -1.
        1   -1    0    0  501    0  0.00000000000E+00  0.00000000000E+00 -0.22726882410E+04  0.22726882410E+04  0.50400001928E-02 0.  1.
    10030    2    1    2    0    0  0.00000000000E+00  0.00000000000E+00 -0.51144880473E+03  0.40339276773E+04  0.40013738423E+04 0.  0.
        3    1    3    3  502    0 -0.18905850753E+02 -0.42197436439E+03  0.17157746172E+04  0.17670037755E+04  0.10100000352E+00 0. -1.
       -3    1    3    3    0  502  0.18905850753E+02  0.42197436439E+03 -0.22272234219E+04  0.22669239018E+04  0.10100000352E+00 0.  1.
</event>
<event>
 5   0  0.2612363E-08  0.3993986E+04  0.7818609E-02  0.8005761E-01
       -2   -1    0    0    0  501  0.00000000000E+00  0.00000000000E+00  0.21686497312E+04  0.21686497312E+04  0.25500000920E-02 0. -1.
        2   -1    0    0  501    0  0.00000000000E+00  0.00000000000E+00 -0.18389238619E+04  0.18389238619E+04  0.25500000920E-02 0.  1.
    10030    2    1    2    0    0  0.00000000000E+00  0.00000000000E+00  0.32972586926E+03  0.40075735931E+04  0.39939863490E+04 0.  0.
        4    1    3    3  502    0  0.18469868831E+04 -0.98152502706E+02 -0.59068316821E+03  0.19416237221E+04  0.12699999809E+01 0. -1.
       -4    1    3    3    0  502 -0.18469868831E+04  0.98152502706E+02  0.92040903747E+03  0.20659498710E+04  0.12699999809E+01 0.  1.
</event>
<event>
 5   0  0.2612363E-08  0.3998749E+04  0.7818609E-02  0.8004799E-01
       -2   -1    0    0    0  501  0.00000000000E+00  0.00000000000E+00  0.16613040372E+04  0.16613040372E+04  0.25500000920E-02 0.  1.
        2   -1    0    0  501    0  0.00000000000E+00  0.00000000000E+00 -0.24062415783E+04  0.24062415783E+04  0.25500000920E-02 0. -1.
    10030    2    1    2    0    0  0.00000000000E+00  0.00000000000E+00 -0.74493754109E+03  0.40675456155E+04  0.39987492287E+04 0.  0.
        4    1    3    3  502    0  0.48616376286E+03 -0.13949786078E+04 -0.17429330446E+04  0.22847620733E+04  0.12699999809E+01 0. -1.
       -4    1    3    3    0  502 -0.48616376286E+03  0.13949786078E+04  0.99799550348E+03  0.17827835422E+04  0.12699999809E+01 0.  1.
</event>
<event>
 5   0  0.2612363E-08  0.4003983E+04  0.7818609E-02  0.8003743E-01
        2   -1    0    0  501    0  0.00000000000E+00  0.00000000000E+00  0.21102566077E+04  0.21102566077E+04  0.25500000920E-02 0.  1.
       -2   -1    0    0    0  501  0.00000000000E+00  0.00000000000E+00 -0.18992810701E+04  0.18992810701E+04  0.25500000920E-02 0. -1.
    10030    2    1    2    0    0  0.00000000000E+00  0.00000000000E+00  0.21097553761E+03  0.40095376778E+04  0.40039832308E+04 0.  0.
        4    1    3    3  502    0 -0.31391984283E+03 -0.99693020781E+03 -0.16043800644E+04  0.19147982951E+04  0.12699999809E+01 0. -1.
       -4    1    3    3    0  502  0.31391984283E+03  0.99693020781E+03  0.18153556020E+04  0.20947393827E+04  0.12699999809E+01 0.  1.
</event>
<event>
 5   0  0.2746876E-08  0.3998642E+04  0.7818609E-02  0.8004821E-01
        2   -1    0    0  501    0  0.00000000000E+00  0.00000000000E+00  0.16155121491E+04  0.16155121491E+04  0.25500000920E-02 0. -1.
       -2   -1    0    0    0  501  0.00000000000E+00  0.00000000000E+00 -0.24743142538E+04  0.24743142538E+04  0.25500000920E-02 0.  1.
    10030    2    1    2    0    0  0.00000000000E+00  0.00000000000E+00 -0.85880210467E+03  0.40898264028E+04  0.39986421383E+04 0.  0.
        1    1    3    3  502    0 -0.12314487554E+04 -0.61903380382E+03  0.10519408710E+04  0.17338536512E+04  0.50400001928E-02 0. -1.
       -1    1    3    3    0  502  0.12314487554E+04  0.61903380382E+03 -0.19107429757E+04  0.23559727517E+04  0.50400001928E-02 0.  1.
</event>
<event>
 5   0  0.8329875E-09  0.4003620E+04  0.7818609E-02  0.8003817E-01
        1   -1    0    0  501    0  0.00000000000E+00  0.00000000000E+00  0.19479066755E+04  0.19479066755E+04  0.50400001928E-02 0.  1.
       -1   -1    0    0    0  501  0.00000000000E+00  0.00000000000E+00 -0.20572045248E+04  0.20572045248E+04  0.50400001928E-02 0. -1.
    10030    2    1    2    0    0  0.00000000000E+00  0.00000000000E+00 -0.10929784931E+03  0.40051112003E+04  0.40036195757E+04 0.  0.
        4    1    3    3  502    0  0.11430746930E+04 -0.17501879440E+02 -0.16985245971E+04  0.20474162960E+04  0.12699999809E+01 0. -1.
       -4    1    3    3    0  502 -0.11430746930E+04  0.17501879440E+02  0.15892267477E+04  0.19576949043E+04  0.12699999809E+01 0.  1.
</event>
<event>
 5   0  0.8329875E-09  0.3980569E+04  0.7818609E-02  0.8008478E-01
       -1   -1    0    0    0  501  0.00000000000E+00  0.00000000000E+00  0.12240989196E+04  0.12240989196E+04  0.50400001928E-02 0. -1.
        1   -1    0    0  501    0  0.00000000000E+00  0.00000000000E+00 -0.32360389179E+04  0.32360389179E+04  0.50400001928E-02 0.  1.
    10030    2    1    2    0    0  0.00000000000E+00  0.00000000000E+00 -0.20119399984E+04  0.44601378375E+04  0.39805686745E+04 0.  0.
        5    1    3    3  502    0  0.11947637973E+04  0.82677701746E+03 -0.25300620339E+04  0.29175772061E+04  0.46999998093E+01 0.  1.
       -5    1    3    3    0  502 -0.11947637973E+04 -0.82677701746E+03  0.51812203555E+03  0.15425606314E+04  0.46999998093E+01 0. -1.
</event>
<event>
 5   0  0.2612363E-08  0.3995138E+04  0.7818609E-02  0.8005528E-01
       -2   -1    0    0    0  501  0.00000000000E+00  0.00000000000E+00  0.16182162355E+04  0.16182162355E+04  0.25500000920E-02 0.  1.
        2   -1    0    0  501    0  0.00000000000E+00  0.00000000000E+00 -0.24658525506E+04  0.24658525506E+04  0.25500000920E-02 0. -1.
    10030    2    1    2    0    0  0.00000000000E+00  0.00000000000E+00 -0.84763631507E+03  0.40840687861E+04  0.39951383614E+04 0.  0.
        4    1    3    3  502    0  0.10235364521E+04  0.90748428458E+03  0.10643076789E+04  0.17331783070E+04  0.12699999809E+01 0.  1.
       -4    1    3    3    0  502 -0.10235364521E+04 -0.90748428458E+03 -0.19119439940E+04  0.23508904791E+04  0.12699999809E+01 0. -1.
</event>
<event>
 5   0  0.2746876E-08  0.4001774E+04  0.7818609E-02  0.8004189E-01
        2   -1    0    0  501    0  0.00000000000E+00  0.00000000000E+00  0.20705497231E+04  0.20705497231E+04  0.25500000920E-02 0.  1.
       -2   -1    0    0    0  501  0.00000000000E+00  0.00000000000E+00 -0.19335680423E+04  0.19335680423E+04  0.25500000920E-02 0. -1.
    10030    2    1    2    0    0  0.00000000000E+00  0.00000000000E+00  0.13698168075E+03  0.40041177654E+04  0.40017739939E+04 0.  0.
        1    1    3    3  502    0  0.12326765443E+04 -0.11228746171E+04  0.11751268023E+04  0.20399171234E+04  0.50400001928E-02 0.  1.
       -1    1    3    3    0  502 -0.12326765443E+04  0.11228746171E+04 -0.10381451216E+04  0.19642006420E+04  0.50400001928E-02 0. -1.
</event>
<event>
 5   0  0.2599332E-08  0.3990893E+04  0.7818609E-02  0.8006386E-01
        2   -1    0    0  501    0  0.00000000000E+00  0.00000000000E+00  0.31909060955E+04  0.31909060955E+04  0.25500000920E-02 0.  1.
       -2   -1    0    0    0  501  0.00000000000E+00  0.00000000000E+00 -0.12478607751E+04  0.12478607751E+04  0.25500000920E-02 0. -1.
    10030    2    1    2    0    0  0.00000000000E+00  0.00000000000E+00  0.19430453204E+04  0.44387668705E+04  0.39908929093E+04 0.  0.
        2    1    3    3  502    0 -0.12768852026E+04  0.13578055972E+04  0.17640434823E+04  0.25663049834E+04  0.25500000920E-02 0.  1.
       -2    1    3    3    0  502  0.12768852026E+04 -0.13578055972E+04  0.17900183814E+03  0.18724618871E+04  0.25500000920E-02 0. -1.
</event>
<event>
 5   0  0.2587493E-08  0.4011001E+04  0.7818609E-02  0.8002331E-01
        2   -1    0    0  501    0  0.00000000000E+00  0.00000000000E+00  0.28525575045E+04  0.28525575045E+04  0.25500000920E-02 0.  1.
       -2   -1    0    0    0  501  0.00000000000E+00  0.00000000000E+00 -0.14099738161E+04  0.14099738161E+04  0.25500000920E-02 0. -1.
    10030    2    1    2    0    0  0.00000000000E+00  0.00000000000E+00  0.14425836884E+04  0.42625313206E+04  0.40110005686E+04 0.  0.
        5    1    3    3  502    0 -0.78666858982E+03 -0.17934577590E+04  0.26214310199E+03  0.19758743127E+04  0.46999998093E+01 0.  1.
       -5    1    3    3    0  502  0.78666858982E+03  0.17934577590E+04  0.11804405864E+04  0.22866570079E+04  0.46999998093E+01 0. -1.
</event>
<event>
 5   0  0.2599332E-08  0.3987985E+04  0.7818609E-02  0.8006975E-01
       -2   -1    0    0    0  501  0.00000000000E+00  0.00000000000E+00  0.16205640661E+04  0.16205640661E+04  0.25500000920E-02 0. -1.
        2   -1    0    0  501    0  0.00000000000E+00  0.00000000000E+00 -0.24534707132E+04  0.24534707132E+04  0.25500000920E-02 0.  1.
    10030    2    1    2    0    0  0.00000000000E+00  0.00000000000E+00 -0.83290664711E+03  0.40740347792E+04  0.39879851930E+04 0.  0.
        2    1    3    3  502    0 -0.33128421741E+03  0.19534421359E+04 -0.64561716972E+03  0.20838682638E+04  0.25500000920E-02 0.  1.
       -2    1    3    3    0  502  0.33128421741E+03 -0.19534421359E+04 -0.18728947738E+03  0.19901665155E+04  0.25500000920E-02 0. -1.
</event>
<event>
 5   0  0.8329875E-09  0.3999467E+04  0.7818609E-02  0.8004654E-01
        1   -1    0    0  501    0  0.00000000000E+00  0.00000000000E+00  0.15796382044E+04  0.15796382044E+04  0.50400001928E-02 0. -1.
       -1   -1    0    0    0  501  0.00000000000E+00  0.00000000000E+00 -0.25315509022E+04  0.25315509022E+04  0.50400001928E-02 0.  1.
    10030    2    1    2    0    0  0.00000000000E+00  0.00000000000E+00 -0.95191269774E+03  0.41111891066E+04  0.39994672253E+04 0.  0.
        3    1    3    3  502    0 -0.18142988632E+03  0.98232457793E+03 -0.22567039623E+04  0.24679123088E+04  0.10100000352E+00 0.  1.
       -3    1    3    3    0  502  0.18142988632E+03 -0.98232457793E+03  0.13047912646E+04  0.16432767978E+04  0.10100000352E+00 0. -1.
</event>
<event>
 5   0  0.2746876E-08  0.3997073E+04  0.7818609E-02  0.8005137E-01
       -2   -1    0    0    0  501  0.00000000000E+00  0.00000000000E+00  0.16944308258E+04  0.16944308258E+04  0.25500000920E-02 0. -1.
        2   -1    0    0  501    0  0.00000000000E+00  0.00000000000E+00 -0.23572208735E+04  0.23572208735E+04  0.25500000920E-02 0.  1.
    10030    2    1    2    0    0  0.00000000000E+00  0.00000000000E+00 -0.66279004763E+03  0.40516516993E+04  0.39970727846E+04 0.  0.
        1    1    3    3  502    0  0.64028927109E+03 -0.18317984754E+04 -0.81614216297E+03  0.21051232827E+04  0.50400001928E-02 0. -1.
       -1    1    3    3    0  502 -0.64028927109E+03  0.18317984754E+04  0.15335211534E+03  0.19465284166E+04  0.50400001928E-02 0.  1.
</event>
<event>
 5   0  0.8329875E-09  0.3997754E+04  0.7818609E-02  0.8005000E-01
        1   -1    0    0  501    0  0.00000000000E+00  0.00000000000E+00  0.24134659953E+04  0.24134659953E+04  0.50400001928E-02 0. -1.
       -1   -1    0    0    0  501  0.00000000000E+00  0.00000000000E+00 -0.16555064507E+04  0.16555064507E+04  0.50400001928E-02 0.  1.
    10030    2    1    2    0    0  0.00000000000E+00  0.00000000000E+00  0.75795954461E+03  0.40689724461E+04  0.39977536312E+04 0.  0.
        2    1    3    3  502    0  0.15829155598E+04  0.11209750674E+04  0.87059771318E+03  0.21260637689E+04  0.25500000920E-02 0.  1.
       -2    1    3    3    0  502 -0.15829155598E+04 -0.11209750674E+04 -0.11263816856E+03  0.19429086772E+04  0.25500000920E-02 0. -1.
</event>
<event>
 5   0  0.8329875E-09  0.3930494E+04  0.7818609E-02  0.8018717E-01
        1   -1    0    0  501    0  0.00000000000E+00  0.00000000000E+00  0.16770146132E+04  0.16770146132E+04  0.50400001928E-02 0. -1.
       -1   -1    0    0    0  501  0.00000000000E+00  0.00000000000E+00 -0.23030184094E+04  0.23030184094E+04  0.50400001928E-02 0.  1.
    10030    2    1    2    0    0  0.00000000000E+00  0.00000000000E+00 -0.62600379624E+03  0.39800330226E+04  0.39304938759E+04 0.  0.
        4    1    3    3  502    0 -0.81209028456E+03 -0.10199829870E+04  0.11760208780E+04  0.17558139544E+04  0.12699999809E+01 0. -1.
       -4    1    3    3    0  502  0.81209028456E+03  0.10199829870E+04 -0.18020246742E+04  0.22242190682E+04  0.12699999809E+01 0.  1.
</event>
<event>
 5   0  0.2650452E-08  0.4001026E+04  0.7818609E-02  0.8004340E-01
        2   -1    0    0  501    0  0.00000000000E+00  0.00000000000E+00  0.21297097600E+04  0.21297097600E+04  0.25500000920E-02 0.  1.
       -2   -1    0    0    0  501  0.00000000000E+00  0.00000000000E+00 -0.18791536324E+04  0.18791536324E+04  0.25500000920E-02 0. -1.
    10030    2    1    2    0    0  0.00000000000E+00  0.00000000000E+00  0.25055612759E+03  0.40088633924E+04  0.40010257842E+04 0.  0.
        3    1    3    3  502    0  0.87773988803E+03 -0.65284204990E+03 -0.15529423070E+04  0.18995420164E+04  0.10100000352E+00 0. -1.
       -3    1    3    3    0  502 -0.87773988803E+03  0.65284204990E+03  0.18034984346E+04  0.21093213759E+04  0.10100000352E+00 0.  1.
</event>
<event>
 5   0  0.2587493E-08  0.4002759E+04  0.7818609E-02  0.8003990E-01
        2   -1    0    0  501    0  0.00000000000E+00  0.00000000000E+00  0.22370886055E+04  0.22370886055E+04  0.25500000920E-02 0.  1.
       -2   -1    0    0    0  501  0.00000000000E+00  0.00000000000E+00 -0.17905055107E+04  0.17905055107E+04  0.25500000920E-02 0. -1.
    10030    2    1    2    0    0  0.00000000000E+00  0.00000000000E+00  0.44658309485E+03  0.40275941162E+04  0.40027587866E+04 0.  0.
        5    1    3    3  502    0  0.19872598248E+04  0.12132616801E+03  0.42845795326E+03  0.20365460854E+04  0.46999998093E+01 0.  1.
       -5    1    3    3    0  502 -0.19872598248E+04 -0.12132616801E+03  0.18125141588E+02  0.19910480308E+04  0.46999998093E+01 0. -1.
</event>
<event>
 5   0  0.2587493E-08  0.3993303E+04  0.7818609E-02  0.8005899E-01
        2   -1    0    0  501    0  0.00000000000E+00  0.00000000000E+00  0.18614677405E+04  0.18614677405E+04  0.25500000920E-02 0. -1.
       -2   -1    0    0    0  501  0.00000000000E+00  0.00000000000E+00 -0.21416529851E+04  0.21416529851E+04  0.25500000920E-02 0.  1.
    10030    2    1    2    0    0  0.00000000000E+00  0.00000000000E+00 -0.28018524461E+03  0.40031207256E+04  0.39933033659E+04 0.  0.
        5    1    3    3  502    0  0.98920581929E+03 -0.16780404330E+04 -0.57963151008E+03  0.20323244389E+04  0.46999998093E+01 0.  1.
       -5    1    3    3    0  502 -0.98920581929E+03  0.16780404330E+04  0.29944626547E+03  0.19707962867E+04  0.46999998093E+01 0. -1.
</event>
<event>
 5   0  0.2746876E-08  0.3998192E+04  0.7818609E-02  0.8004911E-01
        2   -1    0    0  501    0  0.00000000000E+00  0.00000000000E+00  0.18761658240E+04  0.18761658240E+04  0.25500000920E-02 0. -1.
       -2   -1    0    0    0  501  0.00000000000E+00  0.00000000000E+00 -0.21300809302E+04  0.21300809302E+04  0.25500000920E-02 0.  1.
    10030    2    1    2    0    0  0.00000000000E+00  0.00000000000E+00 -0.25391510621E+03  0.40062467542E+04  0.39981921133E+04 0.  0.
        1    1    3    3  502    0  0.15835306168E+04 -0.40685032379E+03 -0.12796178374E+04  0.20761787520E+04  0.50400001928E-02 0.  1.
       -1    1    3    3    0  502 -0.15835306168E+04  0.40685032379E+03  0.10257027312E+04  0.19300680022E+04  0.50400001928E-02 0. -1.
</event>
<event>
 5   0  0.8329875E-09  0.3928754E+04  0.7818609E-02  0.8019075E-01
       -1   -1    0    0    0  501  0.00000000000E+00  0.00000000000E+00  0.24564269255E+04  0.24564269255E+04  0.50400001928E-02 0.  1.
        1   -1    0    0  501    0  0.00000000000E+00  0.00000000000E+00 -0.15708898693E+04  0.15708898693E+04  0.50400001928E-02 0. -1.
    10030    2    1    2    0    0  0.00000000000E+00  0.00000000000E+00  0.88553705624E+03  0.40273167948E+04  0.39287535794E+04 0.  0.
        4    1    3    3  502    0  0.14783293766E+04  0.97494660646E+03 -0.42873440296E+03  0.18220300306E+04  0.12699999809E+01 0. -1.
       -4    1    3    3    0  502 -0.14783293766E+04 -0.97494660646E+03  0.13142714592E+04  0.22052867642E+04  0.12699999809E+01 0.  1.
</event>
<event>
 5   0  0.2587493E-08  0.3996125E+04  0.7818609E-02  0.8005329E-01
       -2   -1    0    0    0  501  0.00000000000E+00  0.00000000000E+00  0.17196777189E+04  0.17196777189E+04  0.25500000920E-02 0. -1.
        2   -1    0    0  501    0  0.00000000000E+00  0.00000000000E+00 -0.23215126731E+04  0.23215126731E+04  0.25500000920E-02 0.  1.
    10030    2    1    2    0    0  0.00000000000E+00  0.00000000000E+00 -0.60183495422E+03  0.40411903920E+04  0.39961249320E+04 0.  0.
        5    1    3    3  502    0  0.41691907233E+03  0.87777020453E+03  0.14646028089E+04  0.17576647925E+04  0.46999998093E+01 0. -1.
       -5    1    3    3    0  502 -0.41691907233E+03 -0.87777020453E+03 -0.20664377631E+04  0.22835255995E+04  0.46999998093E+01 0.  1.
</event>
<event>
 5   0  0.2599332E-08  0.3996191E+04  0.7818609E-02  0.8005315E-01
        2   -1    0    0  501    0  0.00000000000E+00  0.00000000000E+00  0.14112125831E+04  0.14112125831E+04  0.25500000920E-02 0. -1.
       -2   -1    0    0    0  501  0.00000000000E+00  0.00000000000E+00 -0.28290456955E+04  0.28290456955E+04  0.25500000920E-02 0.  1.
    10030    2    1    2    0    0  0.00000000000E+00  0.00000000000E+00 -0.14178331125E+04  0.42402582786E+04  0.39961906279E+04 0.  0.
        2    1    3    3  502    0 -0.17887290121E+04  0.30380743441E+03  0.17918138174E+03  0.18231720719E+04  0.25500000920E-02 0. -1.
       -2    1    3    3    0  502  0.17887290121E+04 -0.30380743441E+03 -0.15970144942E+04  0.24170862067E+04  0.25500000920E-02 0.  1.
</event>
<event>
 5   0  0.2650452E-08  0.3997173E+04  0.7818609E-02  0.8005117E-01
        2   -1    0    0  501    0  0.00000000000E+00  0.00000000000E+00  0.14357803304E+04  0.14357803304E+04  0.25500000920E-02 0.  1.
       -2   -1    0    0    0  501  0.00000000000E+00  0.00000000000E+00 -0.27820044163E+04  0.27820044163E+04  0.25500000920E-02 0. -1.
    10030    2    1    2    0    0  0.00000000000E+00  0.00000000000E+00 -0.13462240859E+04  0.42177847466E+04  0.39971726107E+04 0.  0.
        3    1    3    3  502    0  0.27247548901E+03 -0.28038864612E+03  0.13950338222E+04  0.14487857192E+04  0.10100000352E+00 0.  1.
       -3    1    3    3    0  502 -0.27247548901E+03  0.28038864612E+03 -0.27412579081E+04  0.27689990274E+04  0.10100000352E+00 0. -1.
</event>
<event>
 5   0  0.8329875E-09  0.3989305E+04  0.7818609E-02  0.8006708E-01
       -1   -1    0    0    0  501  0.00000000000E+00  0.00000000000E+00  0.29454193256E+04  0.29454193256E+04  0.50400001928E-02 0.  1.
        1   -1    0    0  501    0  0.00000000000E+00  0.00000000000E+00 -0.13507885810E+04  0.13507885810E+04  0.50400001928E-02 0. -1.
    10030    2    1    2    0    0  0.00000000000E+00  0.00000000000E+00  0.15946307446E+04  0.42962079065E+04  0.39893050980E+04 0.  0.
        1    1    3    3  502    0 -0.19671427527E+04  0.20935883854E+03  0.52241914987E+03  0.20460702581E+04  0.50400001928E-02 0. -1.
       -1    1    3    3    0  502  0.19671427527E+04 -0.20935883854E+03  0.10722115947E+04  0.22501376484E+04  0.50400001928E-02 0.  1.
</event>
<event>
 5   0  0.2650452E-08  0.4067677E+04  0.7818609E-02  0.7991031E-01
       -2   -1    0    0    0  501  0.00000000000E+00  0.00000000000E+00  0.15413735391E+04  0.15413735391E+04  0.25500000920E-02 0.  1.
        2   -1    0    0  501    0  0.00000000000E+00  0.00000000000E+00 -0.26836450760E+04  0.26836450760E+04  0.25500000920E-02 0. -1.
    10030    2    1    2    0    0  0.00000000000E+00  0.00000000000E+00 -0.11422715370E+04  0.42250186151E+04  0.40676772283E+04 0.  0.
        3    1    3    3  502    0 -0.12036376606E+04  0.13230292144E+04 -0.15767535329E+04  0.23843870563E+04  0.10100000352E+00 0. -1.
       -3    1    3    3    0  502  0.12036376606E+04 -0.13230292144E+04  0.43448199594E+03  0.18406315588E+04  0.10100000352E+00 0.  1.
</event>
<event>
 5   0  0.2587493E-08  0.3976876E+04  0.7818609E-02  0.8009228E-01
        2   -1    0    0  501    0  0.00000000000E+00  0.00000000000E+00  0.23734237971E+04  0.23734237971E+04  0.25500000920E-02 0. -1.
       -2   -1    0    0    0  501  0.00000000000E+00  0.00000000000E+00 -0.16658997944E+04  0.16658997944E+04  0.25500000920E-02 0.  1.
    10030    2    1    2    0    0  0.00000000000E+00  0.00000000000E+00  0.70752400279E+03  0.40393235915E+04  0.39768762694E+04 0.  0.
        5    1    3    3  502    0  0.75892646306E+02 -0.19389828061E+04 -0.87163039587E+02  0.19424297932E+04  0.46999998093E+01 0.  1.
       -5    1    3    3    0  502 -0.75892646306E+02  0.19389828061E+04  0.79468704237E+03  0.20968937983E+04  0.46999998093E+01 0. -1.
</event>
<event>
 5   0  0.8329875E-09  0.3990929E+04  0.7818609E-02  0.8006379E-01
        1   -1    0    0  501    0  0.00000000000E+00  0.00000000000E+00  0.13997292159E+04  0.13997292159E+04  0.50400001928E-02 0. -1.
       -1   -1    0    0    0  501  0.00000000000E+00  0.00000000000E+00 -0.28447498903E+04  0.28447498903E+04  0.50400001928E-02 0.  1.
    10030    2    1    2    0    0  0.00000000000E+00  0.00000000000E+00 -0.14450206744E+04  0.42444791061E+04  0.39909294823E+04 0.  0.
        1    1    3    3  502    0 -0.16274506671E+04 -0.84193492794E+03  0.11790124697E+03  0.18361238522E+04  0.50400001928E-02 0. -1.
       -1    1    3    3    0  502  0.16274506671E+04  0.84193492794E+03 -0.15629219214E+04  0.24083552539E+04  0.50400001928E-02 0.  1.
</event>
<event>
 5   0  0.8329875E-09  0.4044297E+04  0.7818609E-02  0.7995670E-01
        1   -1    0    0  501    0  0.00000000000E+00  0.00000000000E+00  0.13535175369E+04  0.13535175369E+04  0.50400001928E-02 0. -1.
       -1   -1    0    0    0  501  0.00000000000E+00  0.00000000000E+00 -0.30210798527E+04  0.30210798527E+04  0.50400001928E-02 0.  1.
    10030    2    1    2    0    0  0.00000000000E+00  0.00000000000E+00 -0.16675623158E+04  0.43745973896E+04  0.40442970024E+04 0.  0.
        2    1    3    3  502    0  0.36605195895E+03  0.18201865615E+04  0.32914098825E+02  0.18569212404E+04  0.25500000920E-02 0. -1.
       -2    1    3    3    0  502 -0.36605195895E+03 -0.18201865615E+04 -0.17004764146E+04  0.25176761492E+04  0.25500000920E-02 0.  1.
</event>
<event>
 5   0  0.2612363E-08  0.4004960E+04  0.7818609E-02  0.8003547E-01
        2   -1    0    0  501    0  0.00000000000E+00  0.00000000000E+00  0.18196302047E+04  0.18196302047E+04  0.25500000920E-02 0. -1.
       -2   -1    0    0    0  501  0.00000000000E+00  0.00000000000E+00 -0.22037042281E+04  0.22037042281E+04  0.25500000920E-02 0.  1.
    10030    2    1    2    0    0  0.00000000000E+00  0.00000000000E+00 -0.38407402334E+03  0.40233344328E+04  0.40049603122E+04 0.  0.
        4    1    3    3  502    0  0.18133306694E+04  0.82384590246E+03 -0.40043748266E+03  0.20315614630E+04  0.12699999809E+01 0. -1.
       -4    1    3    3    0  502 -0.18133306694E+04 -0.82384590246E+03  0.16363459323E+02  0.19917729698E+04  0.12699999809E+01 0.  1.
</event>
<event>
 5   0  0.2612363E-08  0.4003143E+04  0.7818609E-02  0.8003913E-01
       -2   -1    0    0    0  501  0.00000000000E+00  0.00000000000E+00  0.21132956389E+04  0.21132956389E+04  0.25500000920E-02 0. -1.
        2   -1    0    0  501    0  0.00000000000E+00  0.00000000000E+00 -0.18957540423E+04  0.18957540423E+04  0.25500000920E-02 0.  1.
    10030    2    1    2    0    0  0.00000000000E+00  0.00000000000E+00  0.21754159667E+03  0.40090496812E+04  0.40031431401E+04 0.  0.
        4    1    3    3  502    0 -0.16128055001E+04 -0.43947909239E+03 -0.99376395682E+03  0.19446984004E+04  0.12699999809E+01 0.  1.
       -4    1    3    3    0  502  0.16128055001E+04  0.43947909239E+03  0.12113055535E+04  0.20643512808E+04  0.12699999809E+01 0. -1.
</event>
<event>
 5   0  0.2599332E-08  0.3998749E+04  0.7818609E-02  0.8004799E-01
       -2   -1    0    0    0  501  0.00000000000E+00  0.00000000000E+00  0.18654342654E+04  0.18654342654E+04  0.25500000920E-02 0. -1.
        2   -1    0    0  501    0  0.00000000000E+00  0.00000000000E+00 -0.21429322334E+04  0.21429322334E+04  0.25500000920E-02 0.  1.
    10030    2    1    2    0    0  0.00000000000E+00  0.00000000000E+00 -0.27749796795E+03  0.40083664988E+04  0.39987494128E+04 0.  0.
        2    1    3    3  502    0 -0.11857063274E+03 -0.53495865054E+03 -0.20661993311E+04  0.21376200384E+04  0.25500000920E-02 0.  1.
       -2    1    3    3    0  502  0.11857063274E+03  0.53495865054E+03  0.17887013631E+04  0.18707464604E+04  0.25500000920E-02 0. -1.
</event>
<event>
 5   0  0.2746876E-08  0.4001139E+04  0.7818609E-02  0.8004317E-01
        2   -1    0    0  501    0  0.00000000000E+00  0.00000000000E+00  0.24251906742E+04  0.24251906742E+04  0.25500000920E-02 0.  1.
       -2   -1    0    0    0  501  0.00000000000E+00  0.00000000000E+00 -0.16502943572E+04  0.16502943572E+04  0.25500000920E-02 0. -1.
    10030    2    1    2    0    0  0.00000000000E+00  0.00000000000E+00  0.77489631704E+03  0.40754850314E+04  0.40011390802E+04 0.  0.
        1    1    3    3  502    0 -0.21727935424E+03  0.12239786747E+04 -0.12091415162E+04  0.17341733824E+04  0.50400001928E-02 0. -1.
       -1    1    3    3    0  502  0.21727935424E+03 -0.12239786747E+04  0.19840378333E+04  0.23413116490E+04  0.50400001928E-02 0.  1.
</event>
<event>
 5   0  0.2612363E-08  0.4001648E+04  0.7818609E-02  0.8004214E-01
       -2   -1    0    0    0  501  0.00000000000E+00  0.00000000000E+00  0.17008918643E+04  0.17008918643E+04  0.25500000920E-02 0. -1.
        2   -1    0    0  501    0  0.00000000000E+00  0.00000000000E+00 -0.23536458903E+04  0.23536458903E+04  0.25500000920E-02 0.  1.
    10030    2    1    2    0    0  0.00000000000E+00  0.00000000000E+00 -0.65275402607E+03  0.40545377546E+04  0.40016482335E+04 0.  0.
        4    1    3    3  502    0  0.61653597046E+02  0.62220202431E+03  0.15993640557E+04  0.17172371765E+04  0.12699999809E+01 0. -1.
       -4    1    3    3    0  502 -0.61653597046E+02 -0.62220202431E+03 -0.22521180817E+04  0.23373005780E+04  0.12699999809E+01 0.  1.
</event>
<event>
 5   0  0.2650452E-08  0.4004043E+04  0.7818609E-02  0.8003732E-01
        2   -1    0    0  501    0  0.00000000000E+00  0.00000000000E+00  0.26354819523E+04  0.26354819523E+04  0.25500000920E-02 0.  1.
       -2   -1    0    0    0  501  0.00000000000E+00  0.00000000000E+00 -0.15208183059E+04  0.15208183059E+04  0.25500000920E-02 0. -1.
    10030    2    1    2    0    0  0.00000000000E+00  0.00000000000E+00  0.11146636464E+04  0.41563002581E+04  0.40040425561E+04 0.  0.
        3    1    3    3  502    0  0.39271095246E+02  0.55864029122E+03 -0.14378578293E+04  0.15430671863E+04  0.10100000352E+00 0. -1.
       -3    1    3    3    0  502 -0.39271095246E+02 -0.55864029122E+03  0.25525214757E+04  0.26132330719E+04  0.10100000352E+00 0.  1.
</event>
<event>
 5   0  0.8329875E-09  0.4001755E+04  0.7818609E-02  0.8004193E-01
        1   -1    0    0  501    0  0.00000000000E+00  0.00000000000E+00  0.22166659933E+04  0.22166659933E+04  0.50400001928E-02 0. -1.
       -1   -1    0    0    0  501  0.00000000000E+00  0.00000000000E+00 -0.18060955241E+04  0.18060955241E+04  0.50400001928E-02 0.  1.
    10030    2    1    2    0    0  0.00000000000E+00  0.00000000000E+00  0.41057046917E+03  0.40227615175E+04  0.40017548796E+04 0.  0.
        3    1    3    3  502    0 -0.11997150859E+04  0.11552355801E+04 -0.90942026421E+03  0.18976118570E+04  0.10100000352E+00 0.  1.
       -3    1    3    3    0  502  0.11997150859E+04 -0.11552355801E+04  0.13199907334E+04  0.21251496604E+04  0.10100000352E+00 0. -1.
</event>
<event>
 5   0  0.8329875E-09  0.3994070E+04  0.7818609E-02  0.8005744E-01
        1   -1    0    0  501    0  0.00000000000E+00  0.00000000000E+00  0.21810971768E+04  0.21810971768E+04  0.50400001928E-02 0.  1.
       -1   -1    0    0    0  501  0.00000000000E+00  0.00000000000E+00 -0.18285061394E+04  0.18285061394E+04  0.50400001928E-02 0. -1.
    10030    2    1    2    0    0  0.00000000000E+00  0.00000000000E+00  0.35259103740E+03  0.40096033162E+04  0.39940703942E+04 0.  0.
        3    1    3    3  502    0  0.39653032013E+03 -0.29104006288E+03 -0.17667442632E+04  0.18339372712E+04  0.10100000352E+00 0. -1.
       -3    1    3    3    0  502 -0.39653032013E+03  0.29104006288E+03  0.21193353006E+04  0.21756660450E+04  0.10100000352E+00 0.  1.
</event>
<event>
 5   0  0.8329875E-09  0.3999908E+04  0.7818609E-02  0.8004565E-01
        1   -1    0    0  501    0  0.00000000000E+00  0.00000000000E+00  0.20415806260E+04  0.20415806260E+04  0.50400001928E-02 0. -1.
       -1   -1    0    0    0  501  0.00000000000E+00  0.00000000000E+00 -0.19591765893E+04  0.19591765893E+04  0.50400001928E-02 0.  1.
    10030    2    1    2    0    0  0.00000000000E+00  0.00000000000E+00  0.82404036714E+02  0.40007572154E+04  0.39999084828E+04 0.  0.
        4    1    3    3  502    0 -0.16695581652E+04  0.34551388491E+03 -0.10044915027E+04  0.19788403431E+04  0.12699999809E+01 0. -1.
       -4    1    3    3    0  502  0.16695581652E+04 -0.34551388491E+03  0.10868955394E+04  0.20219168722E+04  0.12699999809E+01 0.  1.
</event>
<event>
 5   0  0.8329875E-09  0.4002196E+04  0.7818609E-02  0.8004104E-01
       -1   -1    0    0    0  501  0.00000000000E+00  0.00000000000E+00  0.17781702214E+04  0.17781702214E+04  0.50400001928E-02 0. -1.
        1   -1    0    0  501    0  0.00000000000E+00  0.00000000000E+00 -0.22519740666E+04  0.22519740666E+04  0.50400001928E-02 0.  1.
    10030    2    1    2    0    0  0.00000000000E+00  0.00000000000E+00 -0.47380384521E+03  0.40301442881E+04  0.40021960095E+04 0.  0.
        1    1    3    3  502    0 -0.13030383248E+04 -0.14752229861E+04  0.12645230518E+03  0.19723544104E+04  0.50400001928E-02 0. -1.
       -1    1    3    3    0  502  0.13030383248E+04  0.14752229861E+04 -0.60025615039E+03  0.20577898777E+04  0.50400001928E-02 0.  1.
</event>
<event>
 5   0  0.2746876E-08  0.3968236E+04  0.7818609E-02  0.8010985E-01
       -2   -1    0    0    0  501  0.00000000000E+00  0.00000000000E+00  0.15407603292E+04  0.15407603293E+04  0.25500000920E-02 0. -1.
        2   -1    0    0  501    0  0.00000000000E+00  0.00000000000E+00 -0.25550524693E+04  0.25550524693E+04  0.25500000920E-02 0.  1.
    10030    2    1    2    0    0  0.00000000000E+00  0.00000000000E+00 -0.10142921401E+04  0.40958127986E+04  0.39682356200E+04 0.  0.
        1    1    3    3  502    0 -0.52619221224E+03 -0.54623707964E+03  0.13852292975E+04  0.15792762260E+04  0.50400001928E-02 0. -1.
       -1    1    3    3    0  502  0.52619221224E+03  0.54623707964E+03 -0.23995214376E+04  0.25165365726E+04  0.50400001928E-02 0.  1.
</event>
<event>
 5   0  0.2612363E-08  0.3976433E+04  0.7818609E-02  0.8009318E-01
        2   -1    0    0  501    0  0.00000000000E+00  0.00000000000E+00  0.24810123938E+04  0.24810123938E+04  0.25500000920E-02 0.  1.
       -2   -1    0    0    0  501  0.00000000000E+00  0.00000000000E+00 -0.15933032345E+04  0.15933032345E+04  0.25500000920E-02 0. -1.
    10030    2    1    2    0    0  0.00000000000E+00  0.00000000000E+00  0.88770915929E+03  0.40743156284E+04  0.39764331112E+04 0.  0.
        4    1    3    3  502    0  0.10775165809E+02 -0.87772188420E+03  0.22717217163E+04  0.24354122812E+04  0.12699999809E+01 0.  1.
       -4    1    3    3    0  502 -0.10775165809E+02  0.87772188420E+03 -0.13840125571E+04  0.16389033471E+04  0.12699999809E+01 0. -1.
</event>
<event>
 5   0  0.2599332E-08  0.4001845E+04  0.7818609E-02  0.8004174E-01
       -2   -1    0    0    0  501  0.00000000000E+00  0.00000000000E+00  0.25946088824E+04  0.25946088824E+04  0.25500000920E-02 0. -1.
        2   -1    0    0  501    0  0.00000000000E+00  0.00000000000E+00 -0.15430810063E+04  0.15430810063E+04  0.25500000920E-02 0.  1.
    10030    2    1    2    0    0  0.00000000000E+00  0.00000000000E+00  0.10515278761E+04  0.41376898886E+04  0.40018454168E+04 0.  0.
        2    1    3    3  502    0  0.14139483952E+04 -0.13768246831E+04  0.18472582122E+03  0.19821755475E+04  0.25500000920E-02 0.  1.
       -2    1    3    3    0  502 -0.14139483952E+04  0.13768246831E+04  0.86680205488E+03  0.21555143411E+04  0.25500000920E-02 0. -1.
</event>
<event>
 5   0  0.8329875E-09  0.3999004E+04  0.7818609E-02  0.8004747E-01
        3   -1    0    0  501    0  0.00000000000E+00  0.00000000000E+00  0.26997847516E+04  0.26997847535E+04  0.10100000352E+00 0. -1.
       -3   -1    0    0    0  501  0.00000000000E+00  0.00000000000E+00 -0.14808620527E+04  0.14808620561E+04  0.10100000352E+00 0.  1.
    10030    2    1    2    0    0  0.00000000000E+00  0.00000000000E+00  0.12189226989E+04  0.41806468096E+04  0.39990042762E+04 0.  0.
        3    1    3    3  502    0 -0.10640934452E+04 -0.43476417791E+03  0.23198349173E+04  0.25890053697E+04  0.10100000352E+00 0. -1.
       -3    1    3    3    0  502  0.10640934452E+04  0.43476417791E+03 -0.11009122184E+04  0.15916414400E+04  0.10100000352E+00 0.  1.
</event>
<event>
 5   0  0.8329875E-09  0.3993294E+04  0.7818609E-02  0.8005901E-01
       -1   -1    0    0    0  501  0.00000000000E+00  0.00000000000E+00  0.20691669358E+04  0.20691669358E+04  0.50400001928E-02 0.  1.
        1   -1    0    0  501    0  0.00000000000E+00  0.00000000000E+00 -0.19266688333E+04  0.19266688333E+04  0.50400001928E-02 0. -1.
    10030    2    1    2    0    0  0.00000000000E+00  0.00000000000E+00  0.14249810243E+03  0.39958357691E+04  0.39932941019E+04 0.  0.
        3    1    3    3  502    0  0.63089591095E+02  0.19631357668E+04  0.43024905879E+03  0.20107204177E+04  0.10100000352E+00 0. -1.
       -3    1    3    3    0  502 -0.63089591095E+02 -0.19631357668E+04 -0.28775095636E+03  0.19851153514E+04  0.10100000352E+00 0.  1.
</event>
<event>
 5   0  0.2746876E-08  0.4003263E+04  0.7818609E-02  0.8003889E-01
       -2   -1    0    0    0  501  0.00000000000E+00  0.00000000000E+00  0.30573000861E+04  0.30573000861E+04  0.25500000920E-02 0. -1.
        2   -1    0    0  501    0  0.00000000000E+00  0.00000000000E+00 -0.13104795432E+04  0.13104795432E+04  0.25500000920E-02 0.  1.
    10030    2    1    2    0    0  0.00000000000E+00  0.00000000000E+00  0.17468205428E+04  0.43677796293E+04  0.40032632790E+04 0.  0.
        1    1    3    3  502    0  0.43751567219E+03  0.78159511371E+03 -0.10796138903E+04  0.14028104068E+04  0.50400001928E-02 0.  1.
       -1    1    3    3    0  502 -0.43751567219E+03 -0.78159511371E+03  0.28264344332E+04  0.29649692225E+04  0.50400001928E-02 0. -1.
</event>
<event>
 5   0  0.8329875E-09  0.3996176E+04  0.7818609E-02  0.8005318E-01
       -1   -1    0    0    0  501  0.00000000000E+00  0.00000000000E+00  0.30345518769E+04  0.30345518769E+04  0.50400001928E-02 0.  1.
        1   -1    0    0  501    0  0.00000000000E+00  0.00000000000E+00 -0.13156328472E+04  0.13156328472E+04  0.50400001928E-02 0. -1.
    10030    2    1    2    0    0  0.00000000000E+00  0.00000000000E+00  0.17189190297E+04  0.43501847241E+04  0.39961762352E+04 0.  0.
        4    1    3    3  502    0  0.11960735172E+04  0.12389611906E+04 -0.24358451028E+03  0.17392388327E+04  0.12699999809E+01 0. -1.
       -4    1    3    3    0  502 -0.11960735172E+04 -0.12389611906E+04  0.19625035400E+04  0.26109458914E+04  0.12699999809E+01 0.  1.
</event>
<event>
 5   0  0.8329875E-09  0.4005221E+04  0.7818609E-02  0.8003494E-01
        1   -1    0    0  501    0  0.00000000000E+00  0.00000000000E+00  0.25781387303E+04  0.25781387303E+04  0.50400001928E-02 0.  1.
       -1   -1    0    0    0  501  0.00000000000E+00  0.00000000000E+00 -0.15555598475E+04  0.15555598475E+04  0.50400001928E-02 0. -1.
    10030    2    1    2    0    0  0.00000000000E+00  0.00000000000E+00  0.10225788828E+04  0.41336985778E+04  0.40052211375E+04 0.  0.
        3    1    3    3  502    0 -0.43764921834E+03  0.18976718183E+04  0.99289921139E+03  0.21859881113E+04  0.10100000352E+00 0. -1.
       -3    1    3    3    0  502  0.43764921834E+03 -0.18976718183E+04  0.29679671456E+02  0.19477104665E+04  0.10100000352E+00 0.  1.
</event>
<event>
 5   0  0.8329875E-09  0.4119188E+04  0.7818609E-02  0.7980925E-01
        1   -1    0    0  501    0  0.00000000000E+00  0.00000000000E+00  0.22080706864E+04  0.22080706864E+04  0.50400001928E-02 0.  1.
       -1   -1    0    0    0  501  0.00000000000E+00  0.00000000000E+00 -0.19211012350E+04  0.19211012350E+04  0.50400001928E-02 0. -1.
    10030    2    1    2    0    0  0.00000000000E+00  0.00000000000E+00  0.28696945132E+03  0.41291719214E+04  0.41191879407E+04 0.  0.
        1    1    3    3  502    0  0.74100238210E+03 -0.17138641712E+03 -0.17751736218E+04  0.19312429215E+04  0.50400001928E-02 0. -1.
       -1    1    3    3    0  502 -0.74100238210E+03  0.17138641712E+03  0.20621430732E+04  0.21979289999E+04  0.50400001928E-02 0.  1.
</event>
<event>
 5   0  0.8329875E-09  0.3998456E+04  0.7818609E-02  0.8004858E-01
        3   -1    0    0  501    0  0.00000000000E+00  0.00000000000E+00  0.20679276175E+04  0.20679276199E+04  0.10100000352E+00 0.  1.
       -3   -1    0    0    0  501  0.00000000000E+00  0.00000000000E+00 -0.19328105643E+04  0.19328105670E+04  0.10100000352E+00 0. -1.
    10030    2    1    2    0    0  0.00000000000E+00  0.00000000000E+00  0.13511705313E+03  0.40007381869E+04  0.39984558797E+04 0.  0.
        3    1    3    3  502    0 -0.18972699940E+04  0.36316674846E+02 -0.56205418679E+03  0.19791051640E+04  0.10100000352E+00 0. -1.
       -3    1    3    3    0  502  0.18972699940E+04 -0.36316674846E+02  0.69717123992E+03  0.20216330229E+04  0.10100000352E+00 0.  1.
</event>
<event>
 5   0  0.8329875E-09  0.3976783E+04  0.7818609E-02  0.8009246E-01
        1   -1    0    0  501    0  0.00000000000E+00  0.00000000000E+00  0.25204900755E+04  0.25204900755E+04  0.50400001928E-02 0.  1.
       -1   -1    0    0    0  501  0.00000000000E+00  0.00000000000E+00 -0.15686241794E+04  0.15686241794E+04  0.50400001928E-02 0. -1.
    10030    2    1    2    0    0  0.00000000000E+00  0.00000000000E+00  0.95186589613E+03  0.40891142549E+04  0.39767834622E+04 0.  0.
        3    1    3    3  502    0  0.75041991229E+03  0.53584264969E+03  0.22873534434E+04  0.24662204231E+04  0.10100000352E+00 0.  1.
       -3    1    3    3    0  502 -0.75041991229E+03 -0.53584264969E+03 -0.13354875473E+04  0.16228938318E+04  0.10100000352E+00 0. -1.
</event>
<event>
 5   0  0.2612363E-08  0.3992779E+04  0.7818609E-02  0.8006005E-01
       -2   -1    0    0    0  501  0.00000000000E+00  0.00000000000E+00  0.18148446532E+04  0.18148446532E+04  0.25500000920E-02 0.  1.
        2   -1    0    0  501    0  0.00000000000E+00  0.00000000000E+00 -0.21960944966E+04  0.21960944966E+04  0.25500000920E-02 0. -1.
    10030    2    1    2    0    0  0.00000000000E+00  0.00000000000E+00 -0.38124984340E+03  0.40109391498E+04  0.39927786591E+04 0.  0.
        4    1    3    3  502    0 -0.30073819495E+03 -0.18884900870E+04 -0.76658292724E+03  0.20602158304E+04  0.12699999809E+01 0.  1.
       -4    1    3    3    0  502  0.30073819495E+03  0.18884900870E+04  0.38533308384E+03  0.19507233194E+04  0.12699999809E+01 0. -1.
</event>
<event>
 5   0  0.2746876E-08  0.4003429E+04  0.7818609E-02  0.8003855E-01
       -2   -1    0    0    0  501  0.00000000000E+00  0.00000000000E+00  0.22846899640E+04  0.22846899640E+04  0.25500000920E-02 0. -1.
        2   -1    0    0  501    0  0.00000000000E+00  0.00000000000E+00 -0.17537875667E+04  0.17537875667E+04  0.25500000920E-02 0.  1.
    10030    2    1    2    0    0  0.00000000000E+00  0.00000000000E+00  0.53090239737E+03  0.40384775307E+04  0.40034289566E+04 0.  0.
        1    1    3    3  502    0 -0.16609307430E+04  0.56518754644E+03  0.12375960344E+04  0.21470379223E+04  0.50400001928E-02 0. -1.
       -1    1    3    3    0  502  0.16609307430E+04 -0.56518754644E+03 -0.70669363698E+03  0.18914396084E+04  0.50400001928E-02 0.  1.
</event>
<event>
 5   0  0.8329875E-09  0.4000463E+04  0.7818609E-02  0.8004453E-01
        1   -1    0    0  501    0  0.00000000000E+00  0.00000000000E+00  0.22758321070E+04  0.22758321070E+04  0.50400001928E-02 0. -1.
       -1   -1    0    0    0  501  0.00000000000E+00  0.00000000000E+00 -0.17580061810E+04  0.17580061810E+04  0.50400001928E-02 0.  1.
    10030    2    1    2    0    0  0.00000000000E+00  0.00000000000E+00  0.51782592602E+03  0.40338382880E+04  0.40004634287E+04 0.  0.
        4    1    3    3  502    0 -0.19822282563E+04  0.97606179570E+02  0.74947313126E+01  0.19846444544E+04  0.12699999809E+01 0. -1.
       -4    1    3    3    0  502  0.19822282563E+04 -0.97606179570E+02  0.51033119471E+03  0.20491938336E+04  0.12699999809E+01 0.  1.
</event>
<event>
 5   0  0.2587493E-08  0.4001571E+04  0.7818609E-02  0.8004230E-01
        2   -1    0    0  501    0  0.00000000000E+00  0.00000000000E+00  0.21763340795E+04  0.21763340795E+04  0.25500000920E-02 0.  1.
       -2   -1    0    0    0  501  0.00000000000E+00  0.00000000000E+00 -0.18393967513E+04  0.18393967513E+04  0.25500000920E-02 0. -1.
    10030    2    1    2    0    0  0.00000000000E+00  0.00000000000E+00  0.33693732814E+03  0.40157308308E+04  0.40015706095E+04 0.  0.
        5    1    3    3  502    0 -0.17788371171E+04  0.65685729956E+03  0.80900369652E+03  0.20616090978E+04  0.46999998093E+01 0.  1.
       -5    1    3    3    0  502  0.17788371171E+04 -0.65685729956E+03 -0.47206636838E+03  0.19541217330E+04  0.46999998093E+01 0. -1.
</event>
<event>
 5   0  0.8329875E-09  0.3990039E+04  0.7818609E-02  0.8006559E-01
        1   -1    0    0  501    0  0.00000000000E+00  0.00000000000E+00  0.21902276795E+04  0.21902276795E+04  0.50400001928E-02 0. -1.
       -1   -1    0    0    0  501  0.00000000000E+00  0.00000000000E+00 -0.18172100212E+04  0.18172100212E+04  0.50400001928E-02 0.  1.
    10030    2    1    2    0    0  0.00000000000E+00  0.00000000000E+00  0.37301765831E+03  0.40074377007E+04  0.39900394424E+04 0.  0.
        4    1    3    3  502    0  0.16104560360E+04 -0.22376431987E+03 -0.97458697120E+03  0.18956425011E+04  0.12699999809E+01 0.  1.
       -4    1    3    3    0  502 -0.16104560360E+04  0.22376431987E+03  0.13476046295E+04  0.21117951996E+04  0.12699999809E+01 0. -1.
</event>
<event>
 5   0  0.8329875E-09  0.3992869E+04  0.7818609E-02  0.8005987E-01
       -1   -1    0    0    0  501  0.00000000000E+00  0.00000000000E+00  0.21513853995E+04  0.21513853995E+04  0.50400001928E-02 0. -1.
        1   -1    0    0  501    0  0.00000000000E+00  0.00000000000E+00 -0.18526437909E+04  0.18526437909E+04  0.50400001928E-02 0.  1.
    10030    2    1    2    0    0  0.00000000000E+00  0.00000000000E+00  0.29874160856E+03  0.40040291904E+04  0.39928690448E+04 0.  0.
        1    1    3    3  502    0 -0.54130052734E+03  0.18699975828E+03 -0.17685059678E+04  0.18589213347E+04  0.50400001928E-02 0.  1.
       -1    1    3    3    0  502  0.54130052734E+03 -0.18699975828E+03  0.20672475763E+04  0.21451078557E+04  0.50400001928E-02 0. -1.
</event>
<event>
 5   0  0.8329875E-09  0.3902372E+04  0.7818609E-02  0.8024536E-01
        1   -1    0    0  501    0  0.00000000000E+00  0.00000000000E+00  0.18772111194E+04  0.18772111194E+04  0.50400001928E-02 0.  1.
       -1   -1    0    0    0  501  0.00000000000E+00  0.00000000000E+00 -0.20280763498E+04  0.20280763498E+04  0.50400001928E-02 0. -1.
    10030    2    1    2    0    0  0.00000000000E+00  0.00000000000E+00 -0.15086523041E+03  0.39052874691E+04  0.39023723424E+04 0.  0.
        3    1    3    3  502    0  0.16777016234E+04  0.65827573034E+03  0.67286775223E+03  0.19237361296E+04  0.10100000352E+00 0. -1.
       -3    1    3    3    0  502 -0.16777016234E+04 -0.65827573034E+03 -0.82373298265E+03  0.19815513395E+04  0.10100000352E+00 0.  1.
</event>
<event>
 5   0  0.8329875E-09  0.4005878E+04  0.7818609E-02  0.8003362E-01
        1   -1    0    0  501    0  0.00000000000E+00  0.00000000000E+00  0.19498606484E+04  0.19498606484E+04  0.50400001928E-02 0. -1.
       -1   -1    0    0    0  501  0.00000000000E+00  0.00000000000E+00 -0.20574618320E+04  0.20574618320E+04  0.50400001928E-02 0.  1.
    10030    2    1    2    0    0  0.00000000000E+00  0.00000000000E+00 -0.10760118358E+03  0.40073224804E+04  0.40058776126E+04 0.  0.
        3    1    3    3  502    0  0.42852940024E+03  0.59385820880E+03  0.18111300745E+04  0.19535857227E+04  0.10100000352E+00 0. -1.
       -3    1    3    3    0  502 -0.42852940024E+03 -0.59385820880E+03 -0.19187312581E+04  0.20537367577E+04  0.10100000352E+00 0.  1.
</event>
<event>
 5   0  0.2587493E-08  0.4004754E+04  0.7818609E-02  0.8003588E-01
       -2   -1    0    0    0  501  0.00000000000E+00  0.00000000000E+00  0.11850044644E+04  0.11850044644E+04  0.25500000920E-02 0. -1.
        2   -1    0    0  501    0  0.00000000000E+00  0.00000000000E+00 -0.33835425983E+04  0.33835425983E+04  0.25500000920E-02 0.  1.
    10030    2    1    2    0    0  0.00000000000E+00  0.00000000000E+00 -0.21985381340E+04  0.45685470627E+04  0.40047537175E+04 0.  0.
        5    1    3    3  502    0 -0.19310818247E+04 -0.51993407597E+03 -0.12138169870E+04  0.23393978339E+04  0.46999998093E+01 0. -1.
       -5    1    3    3    0  502  0.19310818247E+04  0.51993407597E+03 -0.98472114692E+03  0.22291492288E+04  0.46999998093E+01 0.  1.
</event>
<event>
 5   0  0.2746876E-08  0.4002695E+04  0.7818609E-02  0.8004003E-01
        2   -1    0    0  501    0  0.00000000000E+00  0.00000000000E+00  0.32645882794E+04  0.32645882794E+04  0.25500000920E-02 0. -1.
       -2   -1    0    0    0  501  0.00000000000E+00  0.00000000000E+00 -0.12269207186E+04  0.12269207186E+04  0.25500000920E-02 0.  1.
    10030    2    1    2    0    0  0.00000000000E+00  0.00000000000E+00  0.20376675608E+04  0.44915089980E+04  0.40026945913E+04 0.  0.
        1    1    3    3  502    0 -0.46926548963E+03  0.19598349493E+03  0.31908767671E+04  0.32311475009E+04  0.50400001928E-02 0. -1.
       -1    1    3    3    0  502  0.46926548963E+03 -0.19598349493E+03 -0.11532092062E+04  0.12603614971E+04  0.50400001928E-02 0.  1.
</event>
<event>
 5   0  0.8329875E-09  0.3998785E+04  0.7818609E-02  0.8004792E-01
       -1   -1    0    0    0  501  0.00000000000E+00  0.00000000000E+00  0.15681311930E+04  0.15681311930E+04  0.50400001928E-02 0. -1.
        1   -1    0    0  501    0  0.00000000000E+00  0.00000000000E+00 -0.25492571572E+04  0.25492571572E+04  0.50400001928E-02 0.  1.
    10030    2    1    2    0    0  0.00000000000E+00  0.00000000000E+00 -0.98112596421E+03  0.41173883502E+04  0.39987846490E+04 0.  0.
        4    1    3    3  502    0 -0.16921331874E+04 -0.18588394236E+02  0.60587150401E+03  0.17974265339E+04  0.12699999809E+01 0. -1.
       -4    1    3    3    0  502  0.16921331874E+04  0.18588394236E+02 -0.15869974682E+04  0.23199618164E+04  0.12699999809E+01 0.  1.
</event>
<event>
 5   0  0.8329875E-09  0.4008045E+04  0.7818609E-02  0.8002926E-01
        1   -1    0    0  501    0  0.00000000000E+00  0.00000000000E+00  0.26589967390E+04  0.26589967390E+04  0.50400001928E-02 0.  1.
       -1   -1    0    0    0  501  0.00000000000E+00  0.00000000000E+00 -0.15103841418E+04  0.15103841418E+04  0.50400001928E-02 0. -1.
    10030    2    1    2    0    0  0.00000000000E+00  0.00000000000E+00  0.11486125972E+04  0.41693808808E+04  0.40080451632E+04 0.  0.
        3    1    3    3  502    0  0.14088606482E+04  0.33130193414E+03 -0.86765738124E+03  0.16874473737E+04  0.10100000352E+00 0. -1.
       -3    1    3    3    0  502 -0.14088606482E+04 -0.33130193414E+03  0.20162699784E+04  0.24819335071E+04  0.10100000352E+00 0.  1.
</event>
<event>
 5   0  0.2587493E-08  0.3999467E+04  0.7818609E-02  0.8004654E-01
       -2   -1    0    0    0  501  0.00000000000E+00  0.00000000000E+00  0.16342296670E+04  0.16342296670E+04  0.25500000920E-02 0.  1.
        2   -1    0    0  501    0  0.00000000000E+00  0.00000000000E+00 -0.24469839322E+04  0.24469839322E+04  0.25500000920E-02 0. -1.
    10030    2    1    2    0    0  0.00000000000E+00  0.00000000000E+00 -0.81275426518E+03  0.40812135993E+04  0.39994668329E+04 0.  0.
        5    1    3    3  502    0  0.15505649932E+03  0.12807713216E+04  0.11527574407E+04  0.17301125695E+04  0.46999998093E+01 0.  1.
       -5    1    3    3    0  502 -0.15505649932E+03 -0.12807713216E+04 -0.19655117059E+04  0.23511010298E+04  0.46999998093E+01 0. -1.
</event>
<event>
 5   0  0.8329875E-09  0.3995127E+04  0.7818609E-02  0.8005530E-01
       -1   -1    0    0    0  501  0.00000000000E+00  0.00000000000E+00  0.16746982202E+04  0.16746982202E+04  0.50400001928E-02 0. -1.
        1   -1    0    0  501    0  0.00000000000E+00  0.00000000000E+00 -0.23826739552E+04  0.23826739552E+04  0.50400001928E-02 0.  1.
    10030    2    1    2    0    0  0.00000000000E+00  0.00000000000E+00 -0.70797573497E+03  0.40573721754E+04  0.39951269477E+04 0.  0.
        5    1    3    3  502    0  0.15122296406E+04  0.10782437648E+04 -0.11008293705E+04  0.21590033569E+04  0.46999998093E+01 0.  1.
       -5    1    3    3    0  502 -0.15122296406E+04 -0.10782437648E+04  0.39285363550E+03  0.18983688185E+04  0.46999998093E+01 0. -1.
</event>
<event>
 5   0  0.8329875E-09  0.4004845E+04  0.7818609E-02  0.8003570E-01
       -1   -1    0    0    0  501  0.00000000000E+00  0.00000000000E+00  0.13623196083E+04  0.13623196083E+04  0.50400001928E-02 0. -1.
        1   -1    0    0  501    0  0.00000000000E+00  0.00000000000E+00 -0.29432859349E+04  0.29432859350E+04  0.50400001928E-02 0.  1.
    10030    2    1    2    0    0  0.00000000000E+00  0.00000000000E+00 -0.15809663267E+04  0.43056055433E+04  0.40048451366E+04 0.  0.
        3    1    3    3  502    0  0.11210288435E+04  0.16275155010E+04 -0.44346794432E+03  0.20253829765E+04  0.10100000352E+00 0.  1.
       -3    1    3    3    0  502 -0.11210288435E+04 -0.16275155010E+04 -0.11374983823E+04  0.22802225667E+04  0.10100000352E+00 0. -1.
</event>
<event>
 5   0  0.2612363E-08  0.3994040E+04  0.7818609E-02  0.8005750E-01
       -2   -1    0    0    0  501  0.00000000000E+00  0.00000000000E+00  0.16729168890E+04  0.16729168890E+04  0.25500000920E-02 0. -1.
        2   -1    0    0  501    0  0.00000000000E+00  0.00000000000E+00 -0.23839136946E+04  0.23839136946E+04  0.25500000920E-02 0.  1.
    10030    2    1    2    0    0  0.00000000000E+00  0.00000000000E+00 -0.71099680560E+03  0.40568305836E+04  0.39940403011E+04 0.  0.
        4    1    3    3  502    0  0.68721928960E+03  0.65340708199E+03  0.14296516019E+04  0.17155513640E+04  0.12699999809E+01 0. -1.
       -4    1    3    3    0  502 -0.68721928960E+03 -0.65340708199E+03 -0.21406484075E+04  0.23412792196E+04  0.12699999809E+01 0.  1.
</event>
<event>
 5   0  0.2599332E-08  0.4002402E+04  0.7818609E-02  0.8004062E-01
       -2   -1    0    0    0  501  0.00000000000E+00  0.00000000000E+00  0.19182230118E+04  0.19182230118E+04  0.25500000920E-02 0. -1.
        2   -1    0    0  501    0  0.00000000000E+00  0.00000000000E+00 -0.20877684111E+04  0.20877684111E+04  0.25500000920E-02 0.  1.
    10030    2    1    2    0    0  0.00000000000E+00  0.00000000000E+00 -0.16954539931E+03  0.40059914229E+04  0.40024019836E+04 0.  0.
        2    1    3    3  502    0  0.12378687055E+04 -0.14623979417E+04  0.49356791401E+03  0.19785186270E+04  0.25500000920E-02 0.  1.
       -2    1    3    3    0  502 -0.12378687055E+04  0.14623979417E+04 -0.66311331332E+03  0.20274727959E+04  0.25500000920E-02 0. -1.
</event>
<event>
 5   0  0.8329875E-09  0.3996179E+04  0.7818609E-02  0.8005318E-01
       -1   -1    0    0    0  501  0.00000000000E+00  0.00000000000E+00  0.25077312625E+04  0.25077312625E+04  0.50400001928E-02 0. -1.
        1   -1    0    0  501    0  0.00000000000E+00  0.00000000000E+00 -0.15920211239E+04  0.15920211239E+04  0.50400001928E-02 0.  1.
    10030    2    1    2    0    0  0.00000000000E+00  0.00000000000E+00  0.91571013858E+03  0.40997523864E+04  0.39961787463E+04 0.  0.
        2    1    3    3  502    0  0.69939490509E+03 -0.17811867875E+04  0.10477192429E+04  0.21816267365E+04  0.25500000920E-02 0. -1.
       -2    1    3    3    0  502 -0.69939490509E+03  0.17811867875E+04 -0.13200910431E+03  0.19181256500E+04  0.25500000920E-02 0.  1.
</event>
<event>
 5   0  0.2599332E-08  0.4004456E+04  0.7818609E-02  0.8003648E-01
        2   -1    0    0  501    0  0.00000000000E+00  0.00000000000E+00  0.24804913461E+04  0.24804913461E+04  0.25500000920E-02 0.  1.
       -2   -1    0    0    0  501  0.00000000000E+00  0.00000000000E+00 -0.16161787823E+04  0.16161787823E+04  0.25500000920E-02 0. -1.
    10030    2    1    2    0    0  0.00000000000E+00  0.00000000000E+00  0.86431256379E+03  0.40966701284E+04  0.40044562593E+04 0.  0.
        2    1    3    3  502    0 -0.12884763085E+04  0.92078077629E+03 -0.82117139078E+03  0.17839088790E+04  0.25500000920E-02 0. -1.
       -2    1    3    3    0  502  0.12884763085E+04 -0.92078077629E+03  0.16854839546E+04  0.23127612494E+04  0.25500000920E-02 0.  1.
</event>
<event>
 5   0  0.8329875E-09  0.3998906E+04  0.7818609E-02  0.8004767E-01
       -1   -1    0    0    0  501  0.00000000000E+00  0.00000000000E+00  0.20242930822E+04  0.20242930822E+04  0.50400001928E-02 0. -1.
        1   -1    0    0  501    0  0.00000000000E+00  0.00000000000E+00 -0.19749174550E+04  0.19749174551E+04  0.50400001928E-02 0.  1.
    10030    2    1    2    0    0  0.00000000000E+00  0.00000000000E+00  0.49375627175E+02  0.39992105373E+04  0.39989057214E+04 0.  0.
        2    1    3    3  502    0  0.17442569658E+03 -0.15175720771E+04  0.13148878564E+04  0.20155345216E+04  0.25500000920E-02 0. -1.
       -2    1    3    3    0  502 -0.17442569658E+03  0.15175720771E+04 -0.12655122293E+04  0.19836760157E+04  0.25500000920E-02 0.  1.
</event>
<event>
 5   0  0.8329875E-09  0.3998235E+04  0.7818609E-02  0.8004903E-01
        1   -1    0    0  501    0  0.00000000000E+00  0.00000000000E+00  0.31931972568E+04  0.31931972568E+04  0.50400001928E-02 0.  1.
       -1   -1    0    0    0  501  0.00000000000E+00  0.00000000000E+00 -0.12515579374E+04  0.12515579374E+04  0.50400001928E-02 0. -1.
    10030    2    1    2    0    0  0.00000000000E+00  0.00000000000E+00  0.19416393194E+04  0.44447551942E+04  0.39982352970E+04 0.  0.
        1    1    3    3  502    0 -0.51389304858E+03 -0.59723666973E+03  0.30133147054E+04  0.31146176682E+04  0.50400001928E-02 0.  1.
       -1    1    3    3    0  502  0.51389304858E+03  0.59723666973E+03 -0.10716753861E+04  0.13301375260E+04  0.50400001928E-02 0. -1.
</event>
<event>
 5   0  0.2599332E-08  0.4013565E+04  0.7818609E-02  0.8001816E-01
        2   -1    0    0  501    0  0.00000000000E+00  0.00000000000E+00  0.24251526890E+04  0.24251526890E+04  0.25500000920E-02 0.  1.
       -2   -1    0    0    0  501  0.00000000000E+00  0.00000000000E+00 -0.16605863892E+04  0.16605863892E+04  0.25500000920E-02 0. -1.
    10030    2    1    2    0    0  0.00000000000E+00  0.00000000000E+00  0.76456629979E+03  0.40857390781E+04  0.40135647731E+04 0.  0.
        2    1    3    3  502    0  0.14983430916E+04 -0.83945616361E+03  0.14389553963E+04  0.22406051198E+04  0.25500000920E-02 0.  1.
       -2    1    3    3    0  502 -0.14983430916E+04  0.83945616361E+03 -0.67438909647E+03  0.18451339583E+04  0.25500000920E-02 0. -1.
</event>
<event>
 5   0  0.2612363E-08  0.4006333E+04  0.7818609E-02  0.8003270E-01
        2   -1    0    0  501    0  0.00000000000E+00  0.00000000000E+00  0.19602813604E+04  0.19602813604E+04  0.25500000920E-02 0.  1.
       -2   -1    0    0    0  501  0.00000000000E+00  0.00000000000E+00 -0.20469896250E+04  0.20469896250E+04  0.25500000920E-02 0. -1.
    10030    2    1    2    0    0  0.00000000000E+00  0.00000000000E+00 -0.86708264561E+02  0.40072709854E+04  0.40063327904E+04 0.  0.
        4    1    3    3  502    0  0.63493708149E+03 -0.71497979281E+03 -0.18039745017E+04  0.20417313283E+04  0.12699999809E+01 0. -1.
       -4    1    3    3    0  502 -0.63493708149E+03  0.71497979281E+03  0.17172662371E+04  0.19655396571E+04  0.12699999809E+01 0.  1.
</event>
<event>
 5   0  0.2746876E-08  0.3996030E+04  0.7818609E-02  0.8005348E-01
       -2   -1    0    0    0  501  0.00000000000E+00  0.00000000000E+00  0.24664987559E+04  0.24664987559E+04  0.25500000920E-02 0.  1.
        2   -1    0    0  501    0  0.00000000000E+00  0.00000000000E+00 -0.16185143983E+04  0.16185143983E+04  0.25500000920E-02 0. -1.
    10030    2    1    2    0    0  0.00000000000E+00  0.00000000000E+00  0.84798435758E+03  0.40850131542E+04  0.39960299047E+04 0.  0.
        1    1    3    3  502    0  0.12301715827E+04  0.13623959999E+04 -0.38264053805E+03  0.18750623363E+04  0.50400001928E-02 0. -1.
       -1    1    3    3    0  502 -0.12301715827E+04 -0.13623959999E+04  0.12306248956E+04  0.22099508179E+04  0.50400001928E-02 0.  1.
</event>
<event>
 5   0  0.2746876E-08  0.4003728E+04  0.7818609E-02  0.8003795E-01
       -2   -1    0    0    0  501  0.00000000000E+00  0.00000000000E+00  0.21462968763E+04  0.21462968763E+04  0.25500000920E-02 0.  1.
        2   -1    0    0  501    0  0.00000000000E+00  0.00000000000E+00 -0.18671506348E+04  0.18671506348E+04  0.25500000920E-02 0. -1.
    10030    2    1    2    0    0  0.00000000000E+00  0.00000000000E+00  0.27914624150E+03  0.40134475111E+04  0.40037280503E+04 0.  0.
        1    1    3    3  502    0  0.51740711350E+03  0.39449629268E+02 -0.17985612673E+04  0.18719212127E+04  0.50400001928E-02 0. -1.
       -1    1    3    3    0  502 -0.51740711350E+03 -0.39449629268E+02  0.20777075088E+04  0.21415262984E+04  0.50400001928E-02 0.  1.
</event>
<event>
 5   0  0.8329875E-09  0.4010965E+04  0.7818609E-02  0.8002338E-01
       -1   -1    0    0    0  501  0.00000000000E+00  0.00000000000E+00  0.13632802632E+04  0.13632802633E+04  0.50400001928E-02 0. -1.
        1   -1    0    0  501    0  0.00000000000E+00  0.00000000000E+00 -0.29502083663E+04  0.29502083663E+04  0.50400001928E-02 0.  1.
    10030    2    1    2    0    0  0.00000000000E+00  0.00000000000E+00 -0.15869281031E+04  0.43134886296E+04  0.40109653892E+04 0.  0.
        2    1    3    3  502    0 -0.45788845985E+03  0.25229549407E+03  0.12887096507E+04  0.13907147162E+04  0.25500000920E-02 0. -1.
       -2    1    3    3    0  502  0.45788845985E+03 -0.25229549407E+03 -0.28756377538E+04  0.29227739134E+04  0.25500000920E-02 0.  1.
</event>
<event>
 5   0  0.2587493E-08  0.3997471E+04  0.7818609E-02  0.8005057E-01
        2   -1    0    0  501    0  0.00000000000E+00  0.00000000000E+00  0.23575883969E+04  0.23575883969E+04  0.25500000920E-02 0. -1.
       -2   -1    0    0    0  501  0.00000000000E+00  0.00000000000E+00 -0.16945044099E+04  0.16945044099E+04  0.25500000920E-02 0.  1.
    10030    2    1    2    0    0  0.00000000000E+00  0.00000000000E+00  0.66308398703E+03  0.40520928067E+04  0.39974711682E+04 0.  0.
        5    1    3    3  502    0 -0.72088456850E+02  0.94527253499E+03 -0.14520991843E+04  0.17341715723E+04  0.46999998093E+01 0.  1.
       -5    1    3    3    0  502  0.72088456850E+02 -0.94527253499E+03  0.21151831713E+04  0.23179212345E+04  0.46999998093E+01 0. -1.
</event>
<event>
 5   0  0.2746876E-08  0.3983317E+04  0.7818609E-02  0.8007921E-01
       -2   -1    0    0    0  501  0.00000000000E+00  0.00000000000E+00  0.28964877528E+04  0.28964877529E+04  0.25500000920E-02 0. -1.
        2   -1    0    0  501    0  0.00000000000E+00  0.00000000000E+00 -0.13694873969E+04  0.13694873969E+04  0.25500000920E-02 0.  1.
    10030    2    1    2    0    0  0.00000000000E+00  0.00000000000E+00  0.15270003560E+04  0.42659751497E+04  0.39833169458E+04 0.  0.
        1    1    3    3  502    0 -0.77064116178E+03  0.34173357733E+03 -0.11689927441E+04  0.14412542017E+04  0.50400001928E-02 0.  1.
       -1    1    3    3    0  502  0.77064116178E+03 -0.34173357733E+03  0.26959931001E+04  0.28247209480E+04  0.50400001928E-02 0. -1.
</event>
<event>
 5   0  0.2587493E-08  0.4000706E+04  0.7818609E-02  0.8004404E-01
        2   -1    0    0  501    0  0.00000000000E+00  0.00000000000E+00  0.21206723618E+04  0.21206723618E+04  0.25500000920E-02 0. -1.
       -2   -1    0    0    0  501  0.00000000000E+00  0.00000000000E+00 -0.18868600422E+04  0.18868600422E+04  0.25500000920E-02 0.  1.
    10030    2    1    2    0    0  0.00000000000E+00  0.00000000000E+00  0.23381231959E+03  0.40075324039E+04  0.40007059087E+04 0.  0.
        5    1    3    3  502    0  0.17393500725E+04  0.23066867985E+03 -0.84538026364E+03  0.19476233195E+04  0.46999998093E+01 0.  1.
       -5    1    3    3    0  502 -0.17393500725E+04 -0.23066867985E+03  0.10791925832E+04  0.20599090844E+04  0.46999998093E+01 0. -1.
</event>
<event>
 5   0  0.2612363E-08  0.4001396E+04  0.7818609E-02  0.8004265E-01
       -2   -1    0    0    0  501  0.00000000000E+00  0.00000000000E+00  0.15172962748E+04  0.15172962748E+04  0.25500000920E-02 0.  1.
        2   -1    0    0  501    0  0.00000000000E+00  0.00000000000E+00 -0.26381087078E+04  0.26381087078E+04  0.25500000920E-02 0. -1.
    10030    2    1    2    0    0  0.00000000000E+00  0.00000000000E+00 -0.11208124330E+04  0.41554049826E+04  0.40013960139E+04 0.  0.
        4    1    3    3  502    0 -0.66886877739E+03  0.18786850202E+03 -0.25088146163E+04  0.26032349889E+04  0.12699999809E+01 0. -1.
       -4    1    3    3    0  502  0.66886877739E+03 -0.18786850202E+03  0.13880021834E+04  0.15521699937E+04  0.12699999809E+01 0.  1.
</event>
<event>
 5   0  0.8329875E-09  0.4002430E+04  0.7818609E-02  0.8004057E-01
       -1   -1    0    0    0  501  0.00000000000E+00  0.00000000000E+00  0.26389749801E+04  0.26389749801E+04  0.50400001928E-02 0. -1.
        1   -1    0    0  501    0  0.00000000000E+00  0.00000000000E+00 -0.15175821645E+04  0.15175821645E+04  0.50400001928E-02 0.  1.
    10030    2    1    2    0    0  0.00000000000E+00  0.00000000000E+00  0.11213928156E+04  0.41565571446E+04  0.40024299431E+04 0.  0.
        1    1    3    3  502    0  0.13442306605E+04 -0.89850775275E+03 -0.66394637927E+03  0.17478835903E+04  0.50400001928E-02 0.  1.
       -1    1    3    3    0  502 -0.13442306605E+04  0.89850775275E+03  0.17853391949E+04  0.24086735543E+04  0.50400001928E-02 0. -1.
</event>
<event>
 5   0  0.2650452E-08  0.4000737E+04  0.7818609E-02  0.8004398E-01
        2   -1    0    0  501    0  0.00000000000E+00  0.00000000000E+00  0.16687297223E+04  0.16687297223E+04  0.25500000920E-02 0. -1.
       -2   -1    0    0    0  501  0.00000000000E+00  0.00000000000E+00 -0.23979162165E+04  0.23979162165E+04  0.25500000920E-02 0.  1.
    10030    2    1    2    0    0  0.00000000000E+00  0.00000000000E+00 -0.72918649422E+03  0.40666459387E+04  0.40007369631E+04 0.  0.
        3    1    3    3  502    0  0.45802193762E+03 -0.14989886468E+04  0.89875088982E+03  0.18067939093E+04  0.10100000352E+00 0. -1.
       -3    1    3    3    0  502 -0.45802193762E+03  0.14989886468E+04 -0.16279373840E+04  0.22598520295E+04  0.10100000352E+00 0.  1.
</event>
<event>
 5   0  0.2746876E-08  0.4000607E+04  0.7818609E-02  0.8004424E-01
       -2   -1    0    0    0  501  0.00000000000E+00  0.00000000000E+00  0.30354404020E+04  0.30354404020E+04  0.25500000920E-02 0. -1.
        2   -1    0    0  501    0  0.00000000000E+00  0.00000000000E+00 -0.13181661126E+04  0.13181661126E+04  0.25500000920E-02 0.  1.
    10030    2    1    2    0    0  0.00000000000E+00  0.00000000000E+00  0.17172742894E+04  0.43536065146E+04  0.40006072912E+04 0.  0.
        1    1    3    3  502    0 -0.42065153716E+03 -0.91874037288E+03  0.27372821620E+04  0.29178322815E+04  0.50400001928E-02 0. -1.
       -1    1    3    3    0  502  0.42065153716E+03  0.91874037288E+03 -0.10200078725E+04  0.14357742331E+04  0.50400001928E-02 0.  1.
</event>
<event>
 5   0  0.8329875E-09  0.3996596E+04  0.7818609E-02  0.8005234E-01
        1   -1    0    0  501    0  0.00000000000E+00  0.00000000000E+00  0.15994034293E+04  0.15994034293E+04  0.50400001928E-02 0.  1.
       -1   -1    0    0    0  501  0.00000000000E+00  0.00000000000E+00 -0.24966776756E+04  0.24966776756E+04  0.50400001928E-02 0. -1.
    10030    2    1    2    0    0  0.00000000000E+00  0.00000000000E+00 -0.89727424632E+03  0.40960811049E+04  0.39965959696E+04 0.  0.
        4    1    3    3  502    0  0.23979229056E+03  0.14062191461E+04  0.98556818596E+03  0.17338681875E+04  0.12699999809E+01 0.  1.
       -4    1    3    3    0  502 -0.23979229056E+03 -0.14062191461E+04 -0.18828424323E+04  0.23622129174E+04  0.12699999809E+01 0. -1.
</event>
<event>
 5   0  0.2650452E-08  0.3999808E+04  0.7818609E-02  0.8004585E-01
       -2   -1    0    0    0  501  0.00000000000E+00  0.00000000000E+00  0.26125224786E+04  0.26125224786E+04  0.25500000920E-02 0.  1.
        2   -1    0    0  501    0  0.00000000000E+00  0.00000000000E+00 -0.15309400903E+04  0.15309400903E+04  0.25500000920E-02 0. -1.
    10030    2    1    2    0    0  0.00000000000E+00  0.00000000000E+00  0.10815823883E+04  0.41434625690E+04  0.39998076951E+04 0.  0.
        3    1    3    3  502    0 -0.15394175417E+04 -0.12552050200E+04  0.78211587237E+03  0.21347251012E+04  0.10100000352E+00 0. -1.
       -3    1    3    3    0  502  0.15394175417E+04  0.12552050200E+04  0.29946651594E+03  0.20087374677E+04  0.10100000352E+00 0.  1.
</event>
<event>
 5   0  0.2746876E-08  0.3994120E+04  0.7818609E-02  0.8005734E-01
       -2   -1    0    0    0  501  0.00000000000E+00  0.00000000000E+00  0.21033513262E+04  0.21033513262E+04  0.25500000920E-02 0. -1.
        2   -1    0    0  501    0  0.00000000000E+00  0.00000000000E+00 -0.18961398009E+04  0.18961398009E+04  0.25500000920E-02 0.  1.
    10030    2    1    2    0    0  0.00000000000E+00  0.00000000000E+00  0.20721152530E+03  0.39994911271E+04  0.39941197603E+04 0.  0.
        1    1    3    3  502    0 -0.28439599184E+01 -0.12423858816E+04  0.16692676746E+04  0.20808616812E+04  0.50400001928E-02 0. -1.
       -1    1    3    3    0  502  0.28439599184E+01  0.12423858816E+04 -0.14620561493E+04  0.19186294459E+04  0.50400001928E-02 0.  1.
</event>
<event>
 5   0  0.8329875E-09  0.4001180E+04  0.7818609E-02  0.8004308E-01
        1   -1    0    0  501    0  0.00000000000E+00  0.00000000000E+00  0.16515597921E+04  0.16515597922E+04  0.50400001928E-02 0.  1.
       -1   -1    0    0    0  501  0.00000000000E+00  0.00000000000E+00 -0.24233825656E+04  0.24233825656E+04  0.50400001928E-02 0. -1.
    10030    2    1    2    0    0  0.00000000000E+00  0.00000000000E+00 -0.77182277343E+03  0.40749423577E+04  0.40011804290E+04 0.  0.
        2    1    3    3  502    0  0.82349627821E+03  0.14424975450E+04  0.74973087373E+03  0.18223725389E+04  0.25500000920E-02 0.  1.
       -2    1    3    3    0  502 -0.82349627821E+03 -0.14424975450E+04 -0.15215536472E+04  0.22525698188E+04  0.25500000920E-02 0. -1.
</event>
<event>
 5   0  0.2587493E-08  0.4002289E+04  0.7818609E-02  0.8004085E-01
        2   -1    0    0  501    0  0.00000000000E+00  0.00000000000E+00  0.13299048833E+04  0.13299048833E+04  0.25500000920E-02 0. -1.
       -2   -1    0    0    0  501  0.00000000000E+00  0.00000000000E+00 -0.30111773978E+04  0.30111773978E+04  0.25500000920E-02 0.  1.
    10030    2    1    2    0    0  0.00000000000E+00  0.00000000000E+00 -0.16812725145E+04  0.43410822811E+04  0.40022891079E+04 0.  0.
        5    1    3    3  502    0 -0.11922677644E+04 -0.51003446407E+03 -0.24937649888E+04  0.28107869870E+04  0.46999998093E+01 0.  1.
       -5    1    3    3    0  502  0.11922677644E+04  0.51003446407E+03  0.81249247430E+03  0.15302952942E+04  0.46999998093E+01 0. -1.
</event>
<event>
 5   0  0.8329875E-09  0.3999861E+04  0.7818609E-02  0.8004575E-01
        1   -1    0    0  501    0  0.00000000000E+00  0.00000000000E+00  0.27539854904E+04  0.27539854904E+04  0.50400001928E-02 0. -1.
       -1   -1    0    0    0  501  0.00000000000E+00  0.00000000000E+00 -0.14523392105E+04  0.14523392105E+04  0.50400001928E-02 0.  1.
    10030    2    1    2    0    0  0.00000000000E+00  0.00000000000E+00  0.13016462798E+04  0.42063247009E+04  0.39998605540E+04 0.  0.
        1    1    3    3  502    0 -0.92492461226E+03  0.14085519000E+04 -0.48190992552E+03  0.17526383454E+04  0.50400001928E-02 0.  1.
       -1    1    3    3    0  502  0.92492461226E+03 -0.14085519000E+04  0.17835562053E+04  0.24536863555E+04  0.50400001928E-02 0. -1.
</event>
<event>
 5   0  0.2746876E-08  0.4004751E+04  0.7818609E-02  0.8003589E-01
        2   -1    0    0  501    0  0.00000000000E+00  0.00000000000E+00  0.26856222319E+04  0.26856222319E+04  0.25500000920E-02 0.  1.
       -2   -1    0    0    0  501  0.00000000000E+00  0.00000000000E+00 -0.14929528195E+04  0.14929528195E+04  0.25500000920E-02 0. -1.
    10030    2    1    2    0    0  0.00000000000E+00  0.00000000000E+00  0.11926694124E+04  0.41785750515E+04  0.40047508204E+04 0.  0.
        1    1    3    3  502    0 -0.12618710027E+04  0.12396795239E+04  0.15753481680E+04  0.23687223560E+04  0.50400001928E-02 0.  1.
       -1    1    3    3    0  502  0.12618710027E+04 -0.12396795239E+04 -0.38267875563E+03  0.18098526955E+04  0.50400001928E-02 0. -1.
</event>
<event>
 5   0  0.2599332E-08  0.3995675E+04  0.7818609E-02  0.8005420E-01
       -2   -1    0    0    0  501  0.00000000000E+00  0.00000000000E+00  0.25133503246E+04  0.25133503246E+04  0.25500000920E-02 0.  1.
        2   -1    0    0  501    0  0.00000000000E+00  0.00000000000E+00 -0.15880616303E+04  0.15880616303E+04  0.25500000920E-02 0. -1.
    10030    2    1    2    0    0  0.00000000000E+00  0.00000000000E+00  0.92528869430E+03  0.41014119549E+04  0.39956752691E+04 0.  0.
        2    1    3    3  502    0  0.17935935531E+04 -0.47566168370E+03  0.12225896872E+04  0.22221515282E+04  0.25500000920E-02 0.  1.
       -2    1    3    3    0  502 -0.17935935531E+04  0.47566168370E+03 -0.29730099294E+03  0.18792604267E+04  0.25500000920E-02 0. -1.
</event>
<event>
 5   0  0.8329875E-09  0.3995445E+04  0.7818609E-02  0.8005466E-01
       -3   -1    0    0    0  501  0.00000000000E+00  0.00000000000E+00  0.22288344667E+04  0.22288344690E+04  0.10100000352E+00 0.  1.
        3   -1    0    0  501    0  0.00000000000E+00  0.00000000000E+00 -0.17905753013E+04  0.17905753041E+04  0.10100000352E+00 0. -1.
    10030    2    1    2    0    0  0.00000000000E+00  0.00000000000E+00  0.43825916550E+03  0.40194097731E+04  0.39954453855E+04 0.  0.
        5    1    3    3  502    0 -0.32103265079E+03 -0.95586496492E+03 -0.15157820412E+04  0.18205375801E+04  0.46999998093E+01 0. -1.
       -5    1    3    3    0  502  0.32103265079E+03  0.95586496492E+03  0.19540412067E+04  0.21988721931E+04  0.46999998093E+01 0.  1.
</event>
<event>
 5   0  0.8329875E-09  0.4013461E+04  0.7818609E-02  0.8001837E-01
       -1   -1    0    0    0  501  0.00000000000E+00  0.00000000000E+00  0.22332290235E+04  0.22332290235E+04  0.50400001928E-02 0. -1.
        1   -1    0    0  501    0  0.00000000000E+00  0.00000000000E+00 -0.18032040007E+04  0.18032040008E+04  0.50400001928E-02 0.  1.
    10030    2    1    2    0    0  0.00000000000E+00  0.00000000000E+00  0.43002502279E+03  0.40364330243E+04  0.40134611048E+04 0.  0.
        3    1    3    3  502    0  0.10240050662E+04  0.14149648717E+03  0.19448455733E+04  0.22025058333E+04  0.10100000352E+00 0. -1.
       -3    1    3    3    0  502 -0.10240050662E+04 -0.14149648717E+03 -0.15148205505E+04  0.18339271910E+04  0.10100000352E+00 0.  1.
</event>
<event>
 5   0  0.2650452E-08  0.4000572E+04  0.7818609E-02  0.8004431E-01
        2   -1    0    0  501    0  0.00000000000E+00  0.00000000000E+00  0.29387030784E+04  0.29387030784E+04  0.25500000920E-02 0.  1.
       -2   -1    0    0    0  501  0.00000000000E+00  0.00000000000E+00 -0.13615341629E+04  0.13615341629E+04  0.25500000920E-02 0. -1.
    10030    2    1    2    0    0  0.00000000000E+00  0.00000000000E+00  0.15771689155E+04  0.43002372412E+04  0.40005722769E+04 0.  0.
        3    1    3    3  502    0  0.18084775899E+04  0.52742911170E+03  0.15115508944E+04  0.24152761286E+04  0.10100000352E+00 0. -1.
       -3    1    3    3    0  502 -0.18084775899E+04 -0.52742911170E+03  0.65618021140E+02  0.18849611126E+04  0.10100000352E+00 0.  1.
</event>
<event>
 5   0  0.2587493E-08  0.4004027E+04  0.7818609E-02  0.8003735E-01
        2   -1    0    0  501    0  0.00000000000E+00  0.00000000000E+00  0.24087611182E+04  0.24087611182E+04  0.25500000920E-02 0. -1.
       -2   -1    0    0    0  501  0.00000000000E+00  0.00000000000E+00 -0.16639499439E+04  0.16639499439E+04  0.25500000920E-02 0.  1.
    10030    2    1    2    0    0  0.00000000000E+00  0.00000000000E+00  0.74481117430E+03  0.40727110621E+04  0.40040269367E+04 0.  0.
        5    1    3    3  502    0 -0.18101615150E+04  0.82684242402E+03  0.59451510988E+03  0.20769745811E+04  0.46999998093E+01 0.  1.
       -5    1    3    3    0  502  0.18101615150E+04 -0.82684242402E+03  0.15029606442E+03  0.19957364810E+04  0.46999998093E+01 0. -1.
</event>
<event>
 5   0  0.8329875E-09  0.3992308E+04  0.7818609E-02  0.8006100E-01
       -3   -1    0    0    0  501  0.00000000000E+00  0.00000000000E+00  0.19980241153E+04  0.19980241179E+04  0.10100000352E+00 0. -1.
        3   -1    0    0  501    0  0.00000000000E+00  0.00000000000E+00 -0.19942854946E+04  0.19942854972E+04  0.10100000352E+00 0.  1.
    10030    2    1    2    0    0  0.00000000000E+00  0.00000000000E+00  0.37386206766E+01  0.39923096150E+04  0.39923078645E+04 0.  0.
        5    1    3    3  502    0 -0.10064136696E+04 -0.13184965324E+04 -0.11086746701E+04  0.19951148324E+04  0.46999998093E+01 0.  1.
       -5    1    3    3    0  502  0.10064136696E+04  0.13184965324E+04  0.11124132908E+04  0.19971947826E+04  0.46999998093E+01 0. -1.
</event>
<event>
 5   0  0.2746876E-08  0.4000744E+04  0.7818609E-02  0.8004396E-01
        2   -1    0    0  501    0  0.00000000000E+00  0.00000000000E+00  0.20486297975E+04  0.20486297975E+04  0.25500000920E-02 0.  1.
       -2   -1    0    0    0  501  0.00000000000E+00  0.00000000000E+00 -0.19532513858E+04  0.19532513858E+04  0.25500000920E-02 0. -1.
    10030    2    1    2    0    0  0.00000000000E+00  0.00000000000E+00  0.95378411675E+02  0.40018811833E+04  0.40007444262E+04 0.  0.
        1    1    3    3  502    0  0.17945804229E+03  0.45971287695E+03  0.19867827352E+04  0.20471557721E+04  0.50400001928E-02 0.  1.
       -1    1    3    3    0  502 -0.17945804229E+03 -0.45971287695E+03 -0.18914043235E+04  0.19547254112E+04  0.50400001928E-02 0. -1.
</event>
<event>
 5   0  0.8329875E-09  0.3999007E+04  0.7818609E-02  0.8004747E-01
        1   -1    0    0  501    0  0.00000000000E+00  0.00000000000E+00  0.19923007266E+04  0.19923007266E+04  0.50400001928E-02 0.  1.
       -1   -1    0    0    0  501  0.00000000000E+00  0.00000000000E+00 -0.20067319070E+04  0.20067319070E+04  0.50400001928E-02 0. -1.
    10030    2    1    2    0    0  0.00000000000E+00  0.00000000000E+00 -0.14431180391E+02  0.39990326336E+04  0.39990065948E+04 0.  0.
        1    1    3    3  502    0 -0.11144532372E+04 -0.10349671627E+04 -0.13052419119E+04  0.20042004626E+04  0.50400001928E-02 0. -1.
       -1    1    3    3    0  502  0.11144532372E+04  0.10349671627E+04  0.12908107315E+04  0.19948321710E+04  0.50400001928E-02 0.  1.
</event>
<event>
 5   0  0.2650452E-08  0.3989722E+04  0.7818609E-02  0.8006623E-01
        2   -1    0    0  501    0  0.00000000000E+00  0.00000000000E+00  0.21753947898E+04  0.21753947898E+04  0.25500000920E-02 0. -1.
       -2   -1    0    0    0  501  0.00000000000E+00  0.00000000000E+00 -0.18293093939E+04  0.18293093939E+04  0.25500000920E-02 0.  1.
    10030    2    1    2    0    0  0.00000000000E+00  0.00000000000E+00  0.34608539593E+03  0.40047041837E+04  0.39897218572E+04 0.  0.
        3    1    3    3  502    0 -0.16765781772E+03  0.41602375183E+03 -0.17780378116E+04  0.18337402694E+04  0.10100000352E+00 0.  1.
       -3    1    3    3    0  502  0.16765781772E+03 -0.41602375183E+03  0.21241232076E+04  0.21709639143E+04  0.10100000352E+00 0. -1.
</event>
<event>
 5   0  0.2612363E-08  0.4012603E+04  0.7818609E-02  0.8002009E-01
        2   -1    0    0  501    0  0.00000000000E+00  0.00000000000E+00  0.27540725307E+04  0.27540725307E+04  0.25500000920E-02 0.  1.
       -2   -1    0    0    0  501  0.00000000000E+00  0.00000000000E+00 -0.14615615937E+04  0.14615615937E+04  0.25500000920E-02 0. -1.
    10030    2    1    2    0    0  0.00000000000E+00  0.00000000000E+00  0.12925109370E+04  0.42156341245E+04  0.40126034627E+04 0.  0.
        4    1    3    3  502    0  0.20308205250E+03 -0.53406747650E+02 -0.14499843266E+04  0.14651111770E+04  0.12699999809E+01 0. -1.
       -4    1    3    3    0  502 -0.20308205250E+03  0.53406747650E+02  0.27424952636E+04  0.27505229474E+04  0.12699999809E+01 0.  1.
</event>
<event>
 5   0  0.2599332E-08  0.3990395E+04  0.7818609E-02  0.8006487E-01
       -2   -1    0    0    0  501  0.00000000000E+00  0.00000000000E+00  0.16549606874E+04  0.16549606874E+04  0.25500000920E-02 0.  1.
        2   -1    0    0  501    0  0.00000000000E+00  0.00000000000E+00 -0.24053817746E+04  0.24053817746E+04  0.25500000920E-02 0. -1.
    10030    2    1    2    0    0  0.00000000000E+00  0.00000000000E+00 -0.75042108711E+03  0.40603424620E+04  0.39903946047E+04 0.  0.
        2    1    3    3  502    0  0.19918911249E+03  0.64761526765E+02  0.16437429916E+04  0.16570339105E+04  0.25500000920E-02 0.  1.
       -2    1    3    3    0  502 -0.19918911249E+03 -0.64761526765E+02 -0.23941640788E+04  0.24033085515E+04  0.25500000920E-02 0. -1.
</event>
<event>
 5   0  0.2599332E-08  0.4044736E+04  0.7818609E-02  0.7995582E-01
       -2   -1    0    0    0  501  0.00000000000E+00  0.00000000000E+00  0.20018780045E+04  0.20018780045E+04  0.25500000920E-02 0. -1.
        2   -1    0    0  501    0  0.00000000000E+00  0.00000000000E+00 -0.20430677323E+04  0.20430677323E+04  0.25500000920E-02 0.  1.
    10030    2    1    2    0    0  0.00000000000E+00  0.00000000000E+00 -0.41189727864E+02  0.40449457368E+04  0.40447360136E+04 0.  0.
        2    1    3    3  502    0 -0.54475123176E+03  0.32170019633E+03  0.19003710585E+04  0.20029116508E+04  0.25500000920E-02 0. -1.
       -2    1    3    3    0  502  0.54475123176E+03 -0.32170019633E+03 -0.19415607864E+04  0.20420340859E+04  0.25500000920E-02 0.  1.
</event>
<event>
 5   0  0.2746876E-08  0.3990351E+04  0.7818609E-02  0.8006496E-01
        2   -1    0    0  501    0  0.00000000000E+00  0.00000000000E+00  0.24281833456E+04  0.24281833456E+04  0.25500000920E-02 0. -1.
       -2   -1    0    0    0  501  0.00000000000E+00  0.00000000000E+00 -0.16393842299E+04  0.16393842299E+04  0.25500000920E-02 0.  1.
    10030    2    1    2    0    0  0.00000000000E+00  0.00000000000E+00  0.78879911572E+03  0.40675675755E+04  0.39903511044E+04 0.  0.
        1    1    3    3  502    0 -0.90236811718E+03  0.73869949981E+03 -0.12558095336E+04  0.17137685826E+04  0.50400001928E-02 0.  1.
       -1    1    3    3    0  502  0.90236811718E+03 -0.73869949981E+03  0.20446086494E+04  0.23537989929E+04  0.50400001928E-02 0. -1.
</event>
<event>
 5   0  0.8329875E-09  0.3992680E+04  0.7818609E-02  0.8006025E-01
       -3   -1    0    0    0  501  0.00000000000E+00  0.00000000000E+00  0.19776156848E+04  0.19776156874E+04  0.10100000352E+00 0.  1.
        3   -1    0    0  501    0  0.00000000000E+00  0.00000000000E+00 -0.20152419116E+04  0.20152419142E+04  0.10100000352E+00 0. -1.
    10030    2    1    2    0    0  0.00000000000E+00  0.00000000000E+00 -0.37626226859E+02  0.39928576015E+04  0.39926803144E+04 0.  0.
        5    1    3    3  502    0 -0.11990811129E+04 -0.10995189515E+04  0.11382233480E+04  0.19855256029E+04  0.46999998093E+01 0.  1.
       -5    1    3    3    0  502  0.11990811129E+04  0.10995189515E+04 -0.11758495748E+04  0.20073319986E+04  0.46999998093E+01 0. -1.
</event>
<event>
 5   0  0.8329875E-09  0.4004633E+04  0.7818609E-02  0.8003613E-01
        1   -1    0    0  501    0  0.00000000000E+00  0.00000000000E+00  0.13950891288E+04  0.13950891288E+04  0.50400001928E-02 0. -1.
       -1   -1    0    0    0  501  0.00000000000E+00  0.00000000000E+00 -0.28738459991E+04  0.28738459991E+04  0.50400001928E-02 0.  1.
    10030    2    1    2    0    0  0.00000000000E+00  0.00000000000E+00 -0.14787568703E+04  0.42689351278E+04  0.40046329725E+04 0.  0.
        1    1    3    3  502    0 -0.14494328401E+04  0.21433099344E+03 -0.21941754778E+04  0.26384084900E+04  0.50400001928E-02 0.  1.
       -1    1    3    3    0  502  0.14494328401E+04 -0.21433099344E+03  0.71541860750E+03  0.16305266378E+04  0.50400001928E-02 0. -1.
</event>
<event>
 5   0  0.2746876E-08  0.3998271E+04  0.7818609E-02  0.8004895E-01
        2   -1    0    0  501    0  0.00000000000E+00  0.00000000000E+00  0.22164519279E+04  0.22164519279E+04  0.25500000920E-02 0.  1.
       -2   -1    0    0    0  501  0.00000000000E+00  0.00000000000E+00 -0.18031262702E+04  0.18031262702E+04  0.25500000920E-02 0. -1.
    10030    2    1    2    0    0  0.00000000000E+00  0.00000000000E+00  0.41332565767E+03  0.40195781981E+04  0.39982709752E+04 0.  0.
        1    1    3    3  502    0 -0.45672919486E+03  0.11663002702E+04 -0.13597434276E+04  0.18487184931E+04  0.50400001928E-02 0. -1.
       -1    1    3    3    0  502  0.45672919486E+03 -0.11663002702E+04  0.17730690853E+04  0.21708597050E+04  0.50400001928E-02 0.  1.
</event>
<event>
 5   0  0.8329875E-09  0.4009111E+04  0.7818609E-02  0.8002711E-01
       -1   -1    0    0    0  501  0.00000000000E+00  0.00000000000E+00  0.19636488143E+04  0.19636488143E+04  0.50400001928E-02 0.  1.
        1   -1    0    0  501    0  0.00000000000E+00  0.00000000000E+00 -0.20463142272E+04  0.20463142272E+04  0.50400001928E-02 0. -1.
    10030    2    1    2    0    0  0.00000000000E+00  0.00000000000E+00 -0.82665412908E+02  0.40099630416E+04  0.40091108770E+04 0.  0.
        2    1    3    3  502    0  0.18425123653E+04 -0.67893149263E+03  0.36179479443E+03  0.19966710449E+04  0.25500000920E-02 0.  1.
       -2    1    3    3    0  502 -0.18425123653E+04  0.67893149263E+03 -0.44446020734E+03  0.20132919967E+04  0.25500000920E-02 0. -1.
</event>
<event>
 5   0  0.8329875E-09  0.3988645E+04  0.7818609E-02  0.8006841E-01
       -1   -1    0    0    0  501  0.00000000000E+00  0.00000000000E+00  0.18335689688E+04  0.18335689688E+04  0.50400001928E-02 0. -1.
        1   -1    0    0  501    0  0.00000000000E+00  0.00000000000E+00 -0.21691700756E+04  0.21691700756E+04  0.50400001928E-02 0.  1.
    10030    2    1    2    0    0  0.00000000000E+00  0.00000000000E+00 -0.33560110684E+03  0.40027390445E+04  0.39886453534E+04 0.  0.
        5    1    3    3  502    0 -0.14272295288E+04 -0.13235092942E+04  0.26806103514E+03  0.19648256382E+04  0.46999998093E+01 0. -1.
       -5    1    3    3    0  502  0.14272295288E+04  0.13235092942E+04 -0.60366214198E+03  0.20379134063E+04  0.46999998093E+01 0.  1.
</event>
<event>
 5   0  0.8329875E-09  0.3994720E+04  0.7818609E-02  0.8005612E-01
        1   -1    0    0  501    0  0.00000000000E+00  0.00000000000E+00  0.22866938274E+04  0.22866938274E+04  0.50400001928E-02 0.  1.
       -1   -1    0    0    0  501  0.00000000000E+00  0.00000000000E+00 -0.17446357511E+04  0.17446357511E+04  0.50400001928E-02 0. -1.
    10030    2    1    2    0    0  0.00000000000E+00  0.00000000000E+00  0.54205807638E+03  0.40313295785E+04  0.39947204173E+04 0.  0.
        4    1    3    3  502    0 -0.58920804288E+03 -0.53695727968E+03 -0.15771356060E+04  0.17671580491E+04  0.12699999809E+01 0. -1.
       -4    1    3    3    0  502  0.58920804288E+03  0.53695727968E+03  0.21191936824E+04  0.22641715294E+04  0.12699999809E+01 0.  1.
</event>
<event>
 5   0  0.2746876E-08  0.3997872E+04  0.7818609E-02  0.8004976E-01
       -2   -1    0    0    0  501  0.00000000000E+00  0.00000000000E+00  0.13823103988E+04  0.13823103988E+04  0.25500000920E-02 0.  1.
        2   -1    0    0  501    0  0.00000000000E+00  0.00000000000E+00 -0.28906278595E+04  0.28906278595E+04  0.25500000920E-02 0. -1.
    10030    2    1    2    0    0  0.00000000000E+00  0.00000000000E+00 -0.15083174608E+04  0.42729382583E+04  0.39978719085E+04 0.  0.
        1    1    3    3  502    0 -0.32717065382E+03  0.12178589160E+04 -0.24118459417E+04  0.27216211754E+04  0.50400001928E-02 0. -1.
       -1    1    3    3    0  502  0.32717065382E+03 -0.12178589160E+04  0.90352848089E+03  0.15513170829E+04  0.50400001928E-02 0.  1.
</event>
<event>
 5   0  0.8329875E-09  0.4001795E+04  0.7818609E-02  0.8004184E-01
        1   -1    0    0  501    0  0.00000000000E+00  0.00000000000E+00  0.19016897340E+04  0.19016897340E+04  0.50400001928E-02 0.  1.
       -1   -1    0    0    0  501  0.00000000000E+00  0.00000000000E+00 -0.21052811926E+04  0.21052811926E+04  0.50400001928E-02 0. -1.
    10030    2    1    2    0    0  0.00000000000E+00  0.00000000000E+00 -0.20359145868E+03  0.40069709266E+04  0.40017954126E+04 0.  0.
        2    1    3    3  502    0 -0.10472092285E+04  0.91735523339E+03 -0.15408056871E+04  0.20766005774E+04  0.25500000920E-02 0. -1.
       -2    1    3    3    0  502  0.10472092285E+04 -0.91735523339E+03  0.13372142284E+04  0.19303703492E+04  0.25500000920E-02 0.  1.
</event>
<event>
 5   0  0.8329875E-09  0.3991145E+04  0.7818609E-02  0.8006335E-01
       -1   -1    0    0    0  501  0.00000000000E+00  0.00000000000E+00  0.19909526751E+04  0.19909526751E+04  0.50400001928E-02 0.  1.
        1   -1    0    0  501    0  0.00000000000E+00  0.00000000000E+00 -0.20002029553E+04  0.20002029553E+04  0.50400001928E-02 0. -1.
    10030    2    1    2    0    0  0.00000000000E+00  0.00000000000E+00 -0.92502801990E+01  0.39911556303E+04  0.39911449107E+04 0.  0.
        5    1    3    3  502    0  0.10395535615E+04 -0.16158617262E+04 -0.54370599680E+03  0.19968272400E+04  0.46999998093E+01 0.  1.
       -5    1    3    3    0  502 -0.10395535615E+04  0.16158617262E+04  0.53445571660E+03  0.19943283903E+04  0.46999998093E+01 0. -1.
</event>
<event>
 5   0  0.8329875E-09  0.4019424E+04  0.7818609E-02  0.8000640E-01
       -1   -1    0    0    0  501  0.00000000000E+00  0.00000000000E+00  0.15408399742E+04  0.15408399742E+04  0.50400001928E-02 0. -1.
        1   -1    0    0  501    0  0.00000000000E+00  0.00000000000E+00 -0.26212598092E+04  0.26212598092E+04  0.50400001928E-02 0.  1.
    10030    2    1    2    0    0  0.00000000000E+00  0.00000000000E+00 -0.10804198350E+04  0.41620997834E+04  0.40194237879E+04 0.  0.
        5    1    3    3  502    0  0.18146832855E+04  0.73953321558E+03 -0.10020634738E+04  0.22009402761E+04  0.46999998093E+01 0.  1.
       -5    1    3    3    0  502 -0.18146832855E+04 -0.73953321558E+03 -0.78356361158E+02  0.19611595073E+04  0.46999998093E+01 0. -1.
</event>
<event>
 5   0  0.2746876E-08  0.4004349E+04  0.7818609E-02  0.8003670E-01
       -2   -1    0    0    0  501  0.00000000000E+00  0.00000000000E+00  0.17226385010E+04  0.17226385010E+04  0.25500000920E-02 0.  1.
        2   -1    0    0  501    0  0.00000000000E+00  0.00000000000E+00 -0.23270717748E+04  0.23270717748E+04  0.25500000920E-02 0. -1.
    10030    2    1    2    0    0  0.00000000000E+00  0.00000000000E+00 -0.60443327381E+03  0.40497102758E+04  0.40043493524E+04 0.  0.
        1    1    3    3  502    0  0.17645805120E+04 -0.16419263816E+03  0.64000226842E+03  0.18842257055E+04  0.50400001928E-02 0.  1.
       -1    1    3    3    0  502 -0.17645805120E+04  0.16419263816E+03 -0.12444355422E+04  0.21654845704E+04  0.50400001928E-02 0. -1.
</event>
<event>
 5   0  0.8329875E-09  0.3996351E+04  0.7818609E-02  0.8005283E-01
       -1   -1    0    0    0  501  0.00000000000E+00  0.00000000000E+00  0.15875790574E+04  0.15875790574E+04  0.50400001928E-02 0. -1.
        1   -1    0    0  501    0  0.00000000000E+00  0.00000000000E+00 -0.25149652677E+04  0.25149652677E+04  0.50400001928E-02 0.  1.
    10030    2    1    2    0    0  0.00000000000E+00  0.00000000000E+00 -0.92738621027E+03  0.41025443252E+04  0.39963514306E+04 0.  0.
        5    1    3    3  502    0  0.83889350816E+03 -0.77860100986E+03  0.12177317593E+04  0.16711835860E+04  0.46999998093E+01 0. -1.
       -5    1    3    3    0  502 -0.83889350816E+03  0.77860100986E+03 -0.21451179695E+04  0.24313607391E+04  0.46999998093E+01 0.  1.
</event>
<event>
 5   0  0.2599332E-08  0.4013080E+04  0.7818609E-02  0.8001913E-01
       -2   -1    0    0    0  501  0.00000000000E+00  0.00000000000E+00  0.27557433070E+04  0.27557433070E+04  0.25500000920E-02 0.  1.
        2   -1    0    0  501    0  0.00000000000E+00  0.00000000000E+00 -0.14610225972E+04  0.14610225972E+04  0.25500000920E-02 0. -1.
    10030    2    1    2    0    0  0.00000000000E+00  0.00000000000E+00  0.12947207098E+04  0.42167659042E+04  0.40130802352E+04 0.  0.
        2    1    3    3  502    0  0.10901239909E+04 -0.48278487672E+03  0.23432001138E+04  0.26290755649E+04  0.25500000920E-02 0.  1.
       -2    1    3    3    0  502 -0.10901239909E+04  0.48278487672E+03 -0.10484794040E+04  0.15876903393E+04  0.25500000920E-02 0. -1.
</event>
<event>
 5   0  0.8329875E-09  0.4007552E+04  0.7818609E-02  0.8003025E-01
        1   -1    0    0  501    0  0.00000000000E+00  0.00000000000E+00  0.15614998721E+04  0.15614998722E+04  0.50400001928E-02 0.  1.
       -1   -1    0    0    0  501  0.00000000000E+00  0.00000000000E+00 -0.25713214817E+04  0.25713214817E+04  0.50400001928E-02 0. -1.
    10030    2    1    2    0    0  0.00000000000E+00  0.00000000000E+00 -0.10098216096E+04  0.41328213539E+04  0.40075519535E+04 0.  0.
        2    1    3    3  502    0  0.99056096350E+03  0.47123091793E+03  0.12243616962E+04  0.16438768699E+04  0.25500000920E-02 0.  1.
       -2    1    3    3    0  502 -0.99056096350E+03 -0.47123091793E+03 -0.22341833057E+04  0.24889444839E+04  0.25500000920E-02 0. -1.
</event>
<event>
 5   0  0.2587493E-08  0.4014741E+04  0.7818609E-02  0.8001580E-01
        2   -1    0    0  501    0  0.00000000000E+00  0.00000000000E+00  0.24198141714E+04  0.24198141714E+04  0.25500000920E-02 0. -1.
       -2   -1    0    0    0  501  0.00000000000E+00  0.00000000000E+00 -0.16652251328E+04  0.16652251328E+04  0.25500000920E-02 0.  1.
    10030    2    1    2    0    0  0.00000000000E+00  0.00000000000E+00  0.75458903863E+03  0.40850393042E+04  0.40147405271E+04 0.  0.
        5    1    3    3  502    0 -0.66849985713E+03 -0.63643511037E+03 -0.14364930803E+04  0.17074765499E+04  0.46999998093E+01 0.  1.
       -5    1    3    3    0  502  0.66849985713E+03  0.63643511037E+03  0.21910821189E+04  0.23775627543E+04  0.46999998093E+01 0. -1.
</event>
<event>
 5   0  0.2612363E-08  0.4004040E+04  0.7818609E-02  0.8003732E-01
       -2   -1    0    0    0  501  0.00000000000E+00  0.00000000000E+00  0.13290905156E+04  0.13290905156E+04  0.25500000920E-02 0.  1.
        2   -1    0    0  501    0  0.00000000000E+00  0.00000000000E+00 -0.30156597712E+04  0.30156597712E+04  0.25500000920E-02 0. -1.
    10030    2    1    2    0    0  0.00000000000E+00  0.00000000000E+00 -0.16865692556E+04  0.43447502868E+04  0.40040403595E+04 0.  0.
        4    1    3    3  502    0  0.12569824110E+03  0.63113396887E+03  0.12138019667E+04  0.13738438637E+04  0.12699999809E+01 0.  1.
       -4    1    3    3    0  502 -0.12569824110E+03 -0.63113396887E+03 -0.29003712223E+04  0.29709064231E+04  0.12699999809E+01 0. -1.
</event>
<event>
 5   0  0.2612363E-08  0.4006628E+04  0.7818609E-02  0.8003211E-01
        2   -1    0    0  501    0  0.00000000000E+00  0.00000000000E+00  0.18773713596E+04  0.18773713596E+04  0.25500000920E-02 0.  1.
       -2   -1    0    0    0  501  0.00000000000E+00  0.00000000000E+00 -0.21377049255E+04  0.21377049255E+04  0.25500000920E-02 0. -1.
    10030    2    1    2    0    0  0.00000000000E+00  0.00000000000E+00 -0.26033356584E+03  0.40150762851E+04  0.40066275107E+04 0.  0.
        4    1    3    3  502    0  0.14140825312E+04 -0.98828814369E+03  0.89027393203E+03  0.19413737783E+04  0.12699999809E+01 0.  1.
       -4    1    3    3    0  502 -0.14140825312E+04  0.98828814369E+03 -0.11506074979E+04  0.20737025069E+04  0.12699999809E+01 0. -1.
</event>
<event>
 5   0  0.8329875E-09  0.3995870E+04  0.7818609E-02  0.8005380E-01
       -3   -1    0    0    0  501  0.00000000000E+00  0.00000000000E+00  0.20211279750E+04  0.20211279775E+04  0.10100000352E+00 0.  1.
        3   -1    0    0  501    0  0.00000000000E+00  0.00000000000E+00 -0.19750079701E+04  0.19750079727E+04  0.10100000352E+00 0. -1.
    10030    2    1    2    0    0  0.00000000000E+00  0.00000000000E+00  0.46120004830E+02  0.39961359502E+04  0.39958698024E+04 0.  0.
        5    1    3    3  502    0 -0.51476025713E+03  0.15616379172E+04 -0.11119299794E+04  0.19849688854E+04  0.46999998093E+01 0. -1.
       -5    1    3    3    0  502  0.51476025713E+03 -0.15616379172E+04  0.11580499842E+04  0.20111670649E+04  0.46999998093E+01 0.  1.
</event>
<event>
 5   0  0.8329875E-09  0.4014390E+04  0.7818609E-02  0.8001650E-01
        3   -1    0    0  501    0  0.00000000000E+00  0.00000000000E+00  0.14627500907E+04  0.14627500942E+04  0.10100000352E+00 0. -1.
       -3   -1    0    0    0  501  0.00000000000E+00  0.00000000000E+00 -0.27542853827E+04  0.27542853846E+04  0.10100000352E+00 0.  1.
    10030    2    1    2    0    0  0.00000000000E+00  0.00000000000E+00 -0.12915352921E+04  0.42170354788E+04  0.40143897193E+04 0.  0.
        4    1    3    3  502    0  0.63546964002E+03 -0.15562005624E+04  0.50653152652E+03  0.17556074886E+04  0.12699999809E+01 0. -1.
       -4    1    3    3    0  502 -0.63546964002E+03  0.15562005624E+04 -0.17980668186E+04  0.24614279902E+04  0.12699999809E+01 0.  1.
</event>
<event>
 5   0  0.2612363E-08  0.3995599E+04  0.7818609E-02  0.8005435E-01
        2   -1    0    0  501    0  0.00000000000E+00  0.00000000000E+00  0.18257825273E+04  0.18257825273E+04  0.25500000920E-02 0. -1.
       -2   -1    0    0    0  501  0.00000000000E+00  0.00000000000E+00 -0.21860229492E+04  0.21860229492E+04  0.25500000920E-02 0.  1.
    10030    2    1    2    0    0  0.00000000000E+00  0.00000000000E+00 -0.36024042194E+03  0.40118054764E+04  0.39955988311E+04 0.  0.
        4    1    3    3  502    0  0.10889600150E+04 -0.10919583595E+04 -0.14553086141E+04  0.21204083919E+04  0.12699999809E+01 0.  1.
       -4    1    3    3    0  502 -0.10889600150E+04  0.10919583595E+04  0.10950681922E+04  0.18913970846E+04  0.12699999809E+01 0. -1.
</event>
<event>
 5   0  0.2587493E-08  0.3960904E+04  0.7818609E-02  0.8012480E-01
       -2   -1    0    0    0  501  0.00000000000E+00  0.00000000000E+00  0.13903158316E+04  0.13903158316E+04  0.25500000920E-02 0. -1.
        2   -1    0    0  501    0  0.00000000000E+00  0.00000000000E+00 -0.28210782979E+04  0.28210782979E+04  0.25500000920E-02 0.  1.
    10030    2    1    2    0    0  0.00000000000E+00  0.00000000000E+00 -0.14307624663E+04  0.42113941295E+04  0.39609038463E+04 0.  0.
        5    1    3    3  502    0 -0.23954866590E+03  0.93968075259E+03  0.11206061647E+04  0.14819459324E+04  0.46999998093E+01 0. -1.
       -5    1    3    3    0  502  0.23954866590E+03 -0.93968075259E+03 -0.25513686309E+04  0.27294481972E+04  0.46999998093E+01 0.  1.
</event>
<event>
 5   0  0.8329875E-09  0.4003998E+04  0.7818609E-02  0.8003740E-01
        1   -1    0    0  501    0  0.00000000000E+00  0.00000000000E+00  0.17811361849E+04  0.17811361849E+04  0.50400001928E-02 0. -1.
       -1   -1    0    0    0  501  0.00000000000E+00  0.00000000000E+00 -0.22502494582E+04  0.22502494582E+04  0.50400001928E-02 0.  1.
    10030    2    1    2    0    0  0.00000000000E+00  0.00000000000E+00 -0.46911327329E+03  0.40313856432E+04  0.40039983692E+04 0.  0.
        5    1    3    3  502    0 -0.12614992272E+04 -0.13765297276E+04  0.49271661343E+03  0.19310634745E+04  0.46999998093E+01 0. -1.
       -5    1    3    3    0  502  0.12614992272E+04  0.13765297276E+04 -0.96182988672E+03  0.21003221687E+04  0.46999998093E+01 0.  1.
</event>
<event>
 5   0  0.2612363E-08  0.4000638E+04  0.7818609E-02  0.8004418E-01
        2   -1    0    0  501    0  0.00000000000E+00  0.00000000000E+00  0.24795178125E+04  0.24795178125E+04  0.25500000920E-02 0. -1.
       -2   -1    0    0    0  501  0.00000000000E+00  0.00000000000E+00 -0.16137317131E+04  0.16137317131E+04  0.25500000920E-02 0.  1.
    10030    2    1    2    0    0  0.00000000000E+00  0.00000000000E+00  0.86578609939E+03  0.40932495256E+04  0.40006382127E+04 0.  0.
        4    1    3    3  502    0  0.80682126298E+03 -0.17053713776E+04  0.11131316790E+04  0.21905058397E+04  0.12699999809E+01 0. -1.
       -4    1    3    3    0  502 -0.80682126298E+03  0.17053713776E+04 -0.24734557956E+03  0.19027436860E+04  0.12699999809E+01 0.  1.
</event>
<event>
 5   0  0.2746876E-08  0.4001965E+04  0.7818609E-02  0.8004150E-01
        2   -1    0    0  501    0  0.00000000000E+00  0.00000000000E+00  0.20886584596E+04  0.20886584596E+04  0.25500000920E-02 0. -1.
       -2   -1    0    0    0  501  0.00000000000E+00  0.00000000000E+00 -0.19169869936E+04  0.19169869936E+04  0.25500000920E-02 0.  1.
    10030    2    1    2    0    0  0.00000000000E+00  0.00000000000E+00  0.17167146604E+03  0.40056454532E+04  0.40019650679E+04 0.  0.
        1    1    3    3  502    0 -0.17841740167E+04 -0.27686118117E+03 -0.77751305496E+03  0.19658218602E+04  0.50400001928E-02 0.  1.
       -1    1    3    3    0  502  0.17841740167E+04  0.27686118117E+03  0.94918452099E+03  0.20398235930E+04  0.50400001928E-02 0. -1.
</event>
<event>
 5   0  0.8329875E-09  0.4007421E+04  0.7818609E-02  0.8003051E-01
        1   -1    0    0  501    0  0.00000000000E+00  0.00000000000E+00  0.16330458184E+04  0.16330458184E+04  0.50400001928E-02 0.  1.
       -1   -1    0    0    0  501  0.00000000000E+00  0.00000000000E+00 -0.24585083387E+04  0.24585083387E+04  0.50400001928E-02 0. -1.
    10030    2    1    2    0    0  0.00000000000E+00  0.00000000000E+00 -0.82546252035E+03  0.40915541572E+04  0.40074214962E+04 0.  0.
        3    1    3    3  502    0  0.18298489709E+04  0.79304595235E+03 -0.21478575013E+03  0.20058419846E+04  0.10100000352E+00 0. -1.
       -3    1    3    3    0  502 -0.18298489709E+04 -0.79304595235E+03 -0.61067677022E+03  0.20857121725E+04  0.10100000352E+00 0.  1.
</event>
<event>
 5   0  0.2650452E-08  0.4001072E+04  0.7818609E-02  0.8004330E-01
       -2   -1    0    0    0  501  0.00000000000E+00  0.00000000000E+00  0.32862210190E+04  0.32862210190E+04  0.25500000920E-02 0.  1.
        2   -1    0    0  501    0  0.00000000000E+00  0.00000000000E+00 -0.12178562633E+04  0.12178562633E+04  0.25500000920E-02 0. -1.
    10030    2    1    2    0    0  0.00000000000E+00  0.00000000000E+00  0.20683647557E+04  0.45040772823E+04  0.40010722815E+04 0.  0.
        3    1    3    3  502    0 -0.17688303010E+04  0.86304853799E+03  0.63059822758E+03  0.20667045138E+04  0.10100000352E+00 0. -1.
       -3    1    3    3    0  502  0.17688303010E+04 -0.86304853799E+03  0.14377665281E+04  0.24373727684E+04  0.10100000352E+00 0.  1.
</event>
<event>
 5   0  0.8329875E-09  0.4001301E+04  0.7818609E-02  0.8004284E-01
       -1   -1    0    0    0  501  0.00000000000E+00  0.00000000000E+00  0.17630263860E+04  0.17630263860E+04  0.50400001928E-02 0. -1.
        1   -1    0    0  501    0  0.00000000000E+00  0.00000000000E+00 -0.22703024288E+04  0.22703024289E+04  0.50400001928E-02 0.  1.
    10030    2    1    2    0    0  0.00000000000E+00  0.00000000000E+00 -0.50727604287E+03  0.40333288148E+04  0.40013013314E+04 0.  0.
        3    1    3    3  502    0  0.87378764053E+03  0.90430719991E+03  0.13148783935E+04  0.18193904343E+04  0.10100000352E+00 0. -1.
       -3    1    3    3    0  502 -0.87378764053E+03 -0.90430719991E+03 -0.18221544364E+04  0.22139383805E+04  0.10100000352E+00 0.  1.
</event>
<event>
 5   0  0.8329875E-09  0.3986148E+04  0.7818609E-02  0.8007347E-01
       -1   -1    0    0    0  501  0.00000000000E+00  0.00000000000E+00  0.15228406972E+04  0.15228406972E+04  0.50400001928E-02 0. -1.
        1   -1    0    0  501    0  0.00000000000E+00  0.00000000000E+00 -0.26085096132E+04  0.26085096132E+04  0.50400001928E-02 0.  1.
    10030    2    1    2    0    0  0.00000000000E+00  0.00000000000E+00 -0.10856689160E+04  0.41313503104E+04  0.39861483154E+04 0.  0.
        5    1    3    3  502    0 -0.29730150729E+03 -0.65352549999E+03 -0.24698185454E+04  0.25720632773E+04  0.46999998093E+01 0.  1.
       -5    1    3    3    0  502  0.29730150729E+03  0.65352549999E+03  0.13841496293E+04  0.15592870331E+04  0.46999998093E+01 0. -1.
</event>
<event>
 5   0  0.8329875E-09  0.3974900E+04  0.7818609E-02  0.8009629E-01
        1   -1    0    0  501    0  0.00000000000E+00  0.00000000000E+00  0.18355811551E+04  0.18355811551E+04  0.50400001928E-02 0. -1.
       -1   -1    0    0    0  501  0.00000000000E+00  0.00000000000E+00 -0.21518833681E+04  0.21518833681E+04  0.50400001928E-02 0.  1.
    10030    2    1    2    0    0  0.00000000000E+00  0.00000000000E+00 -0.31630221303E+03  0.39874645232E+04  0.39748995250E+04 0.  0.
        1    1    3    3  502    0 -0.15213657197E+04 -0.10255270812E+04 -0.92456690551E+03  0.20545275394E+04  0.50400001928E-02 0.  1.
       -1    1    3    3    0  502  0.15213657197E+04  0.10255270812E+04  0.60826469248E+03  0.19329369838E+04  0.50400001928E-02 0. -1.
</event>
<event>
 5   0  0.8329875E-09  0.4001004E+04  0.7818609E-02  0.8004344E-01
        1   -1    0    0  501    0  0.00000000000E+00  0.00000000000E+00  0.21750605582E+04  0.21750605582E+04  0.50400001928E-02 0. -1.
       -1   -1    0    0    0  501  0.00000000000E+00  0.00000000000E+00 -0.18399522422E+04  0.18399522422E+04  0.50400001928E-02 0.  1.
    10030    2    1    2    0    0  0.00000000000E+00  0.00000000000E+00  0.33510831604E+03  0.40150128005E+04  0.40010036496E+04 0.  0.
        1    1    3    3  502    0  0.12440029557E+04  0.14213108903E+04  0.82890616432E+03  0.20627053667E+04  0.50400001928E-02 0. -1.
       -1    1    3    3    0  502 -0.12440029557E+04 -0.14213108903E+04 -0.49379784827E+03  0.19523074337E+04  0.50400001928E-02 0.  1.
</event>
<event>
 5   0  0.2650452E-08  0.4011845E+04  0.7818609E-02  0.8002161E-01
       -2   -1    0    0    0  501  0.00000000000E+00  0.00000000000E+00  0.17990515248E+04  0.17990515248E+04  0.25500000920E-02 0.  1.
        2   -1    0    0  501    0  0.00000000000E+00  0.00000000000E+00 -0.22365815896E+04  0.22365815896E+04  0.25500000920E-02 0. -1.
    10030    2    1    2    0    0  0.00000000000E+00  0.00000000000E+00 -0.43753006483E+03  0.40356331144E+04  0.40118452209E+04 0.  0.
        3    1    3    3  502    0 -0.62564116733E+03  0.25003571976E+03  0.16818242720E+04  0.18117609179E+04  0.10100000352E+00 0.  1.
       -3    1    3    3    0  502  0.62564116733E+03 -0.25003571976E+03 -0.21193543368E+04  0.22238721965E+04  0.10100000352E+00 0. -1.
</event>
<event>
 5   0  0.8329875E-09  0.4006260E+04  0.7818609E-02  0.8003285E-01
       -1   -1    0    0    0  501  0.00000000000E+00  0.00000000000E+00  0.18037660870E+04  0.18037660870E+04  0.50400001928E-02 0. -1.
        1   -1    0    0  501    0  0.00000000000E+00  0.00000000000E+00 -0.22245286468E+04  0.22245286468E+04  0.50400001928E-02 0.  1.
    10030    2    1    2    0    0  0.00000000000E+00  0.00000000000E+00 -0.42076255972E+03  0.40282947338E+04  0.40062597683E+04 0.  0.
        1    1    3    3  502    0 -0.51488156467E+02  0.73127986424E+03 -0.20847986052E+04  0.22099335951E+04  0.50400001928E-02 0.  1.
       -1    1    3    3    0  502  0.51488156467E+02 -0.73127986424E+03  0.16640360455E+04  0.18183611387E+04  0.50400001928E-02 0. -1.
</event>
<event>
 5   0  0.8329875E-09  0.3987719E+04  0.7818609E-02  0.8007029E-01
       -1   -1    0    0    0  501  0.00000000000E+00  0.00000000000E+00  0.20304066668E+04  0.20304066668E+04  0.50400001928E-02 0. -1.
        1   -1    0    0  501    0  0.00000000000E+00  0.00000000000E+00 -0.19579699502E+04  0.19579699502E+04  0.50400001928E-02 0.  1.
    10030    2    1    2    0    0  0.00000000000E+00  0.00000000000E+00  0.72436716546E+02  0.39883766170E+04  0.39877187666E+04 0.  0.
        2    1    3    3  502    0  0.17508549605E+03  0.16515961975E+04 -0.10671636673E+04  0.19741487338E+04  0.25500000920E-02 0. -1.
       -2    1    3    3    0  502 -0.17508549605E+03 -0.16515961975E+04  0.11396003839E+04  0.20142278832E+04  0.25500000920E-02 0.  1.
</event>
<event>
 5   0  0.8329875E-09  0.3996555E+04  0.7818609E-02  0.8005242E-01
        1   -1    0    0  501    0  0.00000000000E+00  0.00000000000E+00  0.13566896423E+04  0.13566896423E+04  0.50400001928E-02 0.  1.
       -1   -1    0    0    0  501  0.00000000000E+00  0.00000000000E+00 -0.29432760022E+04  0.29432760022E+04  0.50400001928E-02 0. -1.
    10030    2    1    2    0    0  0.00000000000E+00  0.00000000000E+00 -0.15865863599E+04  0.42999656445E+04  0.39965545494E+04 0.  0.
        5    1    3    3  502    0  0.76003713599E+03  0.17396899749E+04 -0.12232010810E+03  0.19024095131E+04  0.46999998093E+01 0.  1.
       -5    1    3    3    0  502 -0.76003713599E+03 -0.17396899749E+04 -0.14642662518E+04  0.23975561313E+04  0.46999998093E+01 0. -1.
</event>
<event>
 5   0  0.2612363E-08  0.3998699E+04  0.7818609E-02  0.8004809E-01
       -2   -1    0    0    0  501  0.00000000000E+00  0.00000000000E+00  0.13661967132E+04  0.13661967132E+04  0.25500000920E-02 0.  1.
        2   -1    0    0  501    0  0.00000000000E+00  0.00000000000E+00 -0.29259317801E+04  0.29259317801E+04  0.25500000920E-02 0. -1.
    10030    2    1    2    0    0  0.00000000000E+00  0.00000000000E+00 -0.15597350669E+04  0.42921284933E+04  0.39986989789E+04 0.  0.
        4    1    3    3  502    0 -0.11944623813E+04  0.65780075555E+03 -0.23493383252E+04  0.27164010002E+04  0.12699999809E+01 0. -1.
       -4    1    3    3    0  502  0.11944623813E+04 -0.65780075555E+03  0.78960325832E+03  0.15757274932E+04  0.12699999809E+01 0.  1.
</event>
<event>
 5   0  0.2650452E-08  0.3999717E+04  0.7818609E-02  0.8004604E-01
        2   -1    0    0  501    0  0.00000000000E+00  0.00000000000E+00  0.16579328938E+04  0.16579328938E+04  0.25500000920E-02 0.  1.
       -2   -1    0    0    0  501  0.00000000000E+00  0.00000000000E+00 -0.24123012020E+04  0.24123012020E+04  0.25500000920E-02 0. -1.
    10030    2    1    2    0    0  0.00000000000E+00  0.00000000000E+00 -0.75436830816E+03  0.40702340958E+04  0.39997167463E+04 0.  0.
        3    1    3    3  502    0 -0.26659165694E+03 -0.12154487532E+04 -0.19703681911E+04  0.23303943018E+04  0.10100000352E+00 0. -1.
       -3    1    3    3    0  502  0.26659165694E+03  0.12154487532E+04  0.12159998830E+04  0.17398397940E+04  0.10100000352E+00 0.  1.
</event>
<event>
 5   0  0.8329875E-09  0.4005822E+04  0.7818609E-02  0.8003373E-01
        1   -1    0    0  501    0  0.00000000000E+00  0.00000000000E+00  0.15285846856E+04  0.15285846856E+04  0.50400001928E-02 0. -1.
       -1   -1    0    0    0  501  0.00000000000E+00  0.00000000000E+00 -0.26244224212E+04  0.26244224212E+04  0.50400001928E-02 0.  1.
    10030    2    1    2    0    0  0.00000000000E+00  0.00000000000E+00 -0.10958377356E+04  0.41530071068E+04  0.40058217242E+04 0.  0.
        1    1    3    3  502    0 -0.93525421819E+03 -0.14035179633E+04  0.57209398545E+03  0.17809701441E+04  0.50400001928E-02 0. -1.
       -1    1    3    3    0  502  0.93525421819E+03  0.14035179633E+04 -0.16679317211E+04  0.23720369627E+04  0.50400001928E-02 0.  1.
</event>
<event>
 5   0  0.8329875E-09  0.3995644E+04  0.7818609E-02  0.8005426E-01
       -1   -1    0    0    0  501  0.00000000000E+00  0.00000000000E+00  0.20305502305E+04  0.20305502305E+04  0.50400001928E-02 0. -1.
        1   -1    0    0  501    0  0.00000000000E+00  0.00000000000E+00 -0.19656214155E+04  0.19656214155E+04  0.50400001928E-02 0.  1.
    10030    2    1    2    0    0  0.00000000000E+00  0.00000000000E+00  0.64928814934E+02  0.39961716460E+04  0.39956441375E+04 0.  0.
        2    1    3    3  502    0 -0.65513735111E+03 -0.57983838463E+03 -0.17638449588E+04  0.19688998298E+04  0.25500000920E-02 0.  1.
       -2    1    3    3    0  502  0.65513735111E+03  0.57983838463E+03  0.18287737738E+04  0.20272718162E+04  0.25500000920E-02 0. -1.
</event>
<event>
 5   0  0.8329875E-09  0.4002611E+04  0.7818609E-02  0.8004020E-01
       -1   -1    0    0    0  501  0.00000000000E+00  0.00000000000E+00  0.19504061623E+04  0.19504061623E+04  0.50400001928E-02 0. -1.
        1   -1    0    0  501    0  0.00000000000E+00  0.00000000000E+00 -0.20535327637E+04  0.20535327637E+04  0.50400001928E-02 0.  1.
    10030    2    1    2    0    0  0.00000000000E+00  0.00000000000E+00 -0.10312660141E+03  0.40039389260E+04  0.40026106265E+04 0.  0.
        4    1    3    3  502    0  0.57901199409E+03 -0.11165697554E+02 -0.19678821470E+04  0.20513267218E+04  0.12699999809E+01 0.  1.
       -4    1    3    3    0  502 -0.57901199409E+03  0.11165697554E+02  0.18647555456E+04  0.19526122042E+04  0.12699999809E+01 0. -1.
</event>
<event>
 5   0  0.8329875E-09  0.4036892E+04  0.7818609E-02  0.7997145E-01
        1   -1    0    0  501    0  0.00000000000E+00  0.00000000000E+00  0.25108445383E+04  0.25108445383E+04  0.50400001928E-02 0. -1.
       -1   -1    0    0    0  501  0.00000000000E+00  0.00000000000E+00 -0.16226109711E+04  0.16226109711E+04  0.50400001928E-02 0.  1.
    10030    2    1    2    0    0  0.00000000000E+00  0.00000000000E+00  0.88823356723E+03  0.41334555094E+04  0.40368918214E+04 0.  0.
        3    1    3    3  502    0 -0.28468247372E+03 -0.63554982782E+03 -0.14957072461E+04  0.16498811686E+04  0.10100000352E+00 0.  1.
       -3    1    3    3    0  502  0.28468247372E+03  0.63554982782E+03  0.23839408133E+04  0.24835743407E+04  0.10100000352E+00 0. -1.
</event>
<event>
 5   0  0.8329875E-09  0.4003517E+04  0.7818609E-02  0.8003838E-01
        1   -1    0    0  501    0  0.00000000000E+00  0.00000000000E+00  0.34429150280E+04  0.34429150280E+04  0.50400001928E-02 0.  1.
       -1   -1    0    0    0  501  0.00000000000E+00  0.00000000000E+00 -0.11638498581E+04  0.11638498581E+04  0.50400001928E-02 0. -1.
    10030    2    1    2    0    0  0.00000000000E+00  0.00000000000E+00  0.22790651699E+04  0.46067648862E+04  0.40035165377E+04 0.  0.
        1    1    3    3  502    0 -0.69714343976E+03 -0.27040407230E+03  0.32761772748E+04  0.33604262935E+04  0.50400001928E-02 0.  1.
       -1    1    3    3    0  502  0.69714343976E+03  0.27040407230E+03 -0.99711210487E+03  0.12463385927E+04  0.50400001928E-02 0. -1.
</event>
<event>
 5   0  0.2612363E-08  0.3998728E+04  0.7818609E-02  0.8004803E-01
        2   -1    0    0  501    0  0.00000000000E+00  0.00000000000E+00  0.14915522588E+04  0.14915522588E+04  0.25500000920E-02 0.  1.
       -2   -1    0    0    0  501  0.00000000000E+00  0.00000000000E+00 -0.26800645319E+04  0.26800645319E+04  0.25500000920E-02 0. -1.
    10030    2    1    2    0    0  0.00000000000E+00  0.00000000000E+00 -0.11885122731E+04  0.41716167907E+04  0.39987279509E+04 0.  0.
        4    1    3    3  502    0 -0.17493587907E+04 -0.11972585714E+03 -0.15964493464E+04  0.23713377212E+04  0.12699999809E+01 0. -1.
       -4    1    3    3    0  502  0.17493587907E+04  0.11972585714E+03  0.40793707328E+03  0.18002790695E+04  0.12699999809E+01 0.  1.
</event>
<event>
 5   0  0.2612363E-08  0.3988817E+04  0.7818609E-02  0.8006806E-01
        2   -1    0    0  501    0  0.00000000000E+00  0.00000000000E+00  0.22068902371E+04  0.22068902371E+04  0.25500000920E-02 0. -1.
       -2   -1    0    0    0  501  0.00000000000E+00  0.00000000000E+00 -0.18023846985E+04  0.18023846985E+04  0.25500000920E-02 0.  1.
    10030    2    1    2    0    0  0.00000000000E+00  0.00000000000E+00  0.40450553858E+03  0.40092749356E+04  0.39888169648E+04 0.  0.
        4    1    3    3  502    0 -0.11293384176E+04 -0.37096180151E+03 -0.14074119152E+04  0.18422344671E+04  0.12699999809E+01 0.  1.
       -4    1    3    3    0  502  0.11293384176E+04  0.37096180151E+03  0.18119174538E+04  0.21670404685E+04  0.12699999809E+01 0. -1.
</event>
<event>
 5   0  0.8329875E-09  0.3998083E+04  0.7818609E-02  0.8004933E-01
       -1   -1    0    0    0  501  0.00000000000E+00  0.00000000000E+00  0.27341895895E+04  0.27341895895E+04  0.50400001928E-02 0.  1.
        1   -1    0    0  501    0  0.00000000000E+00  0.00000000000E+00 -0.14615541485E+04  0.14615541485E+04  0.50400001928E-02 0. -1.
    10030    2    1    2    0    0  0.00000000000E+00  0.00000000000E+00  0.12726354411E+04  0.41957437380E+04  0.39980826091E+04 0.  0.
        3    1    3    3  502    0  0.15625381705E+04 -0.75368535290E+03 -0.40606576717E+03  0.17817004695E+04  0.10100000352E+00 0. -1.
       -3    1    3    3    0  502 -0.15625381705E+04  0.75368535290E+03  0.16787012082E+04  0.24140432685E+04  0.10100000352E+00 0.  1.
</event>
<event>
 5   0  0.8329875E-09  0.4004469E+04  0.7818609E-02  0.8003646E-01
        1   -1    0    0  501    0  0.00000000000E+00  0.00000000000E+00  0.19705998403E+04  0.19705998403E+04  0.50400001928E-02 0.  1.
       -1   -1    0    0    0  501  0.00000000000E+00  0.00000000000E+00 -0.20343770978E+04  0.20343770978E+04  0.50400001928E-02 0. -1.
    10030    2    1    2    0    0  0.00000000000E+00  0.00000000000E+00 -0.63777257578E+02  0.40049769381E+04  0.40044690954E+04 0.  0.
        4    1    3    3  502    0  0.94826287547E+03  0.13544569042E+04  0.10974957349E+04  0.19845035871E+04  0.12699999809E+01 0.  1.
       -4    1    3    3    0  502 -0.94826287547E+03 -0.13544569042E+04 -0.11612729924E+04  0.20204733510E+04  0.12699999809E+01 0. -1.
</event>
<event>
 5   0  0.2612363E-08  0.4004255E+04  0.7818609E-02  0.8003689E-01
       -2   -1    0    0    0  501  0.00000000000E+00  0.00000000000E+00  0.16863195546E+04  0.16863195546E+04  0.25500000920E-02 0.  1.
        2   -1    0    0  501    0  0.00000000000E+00  0.00000000000E+00 -0.23770791452E+04  0.23770791452E+04  0.25500000920E-02 0. -1.
    10030    2    1    2    0    0  0.00000000000E+00  0.00000000000E+00 -0.69075959054E+03  0.40633986998E+04  0.40042552593E+04 0.  0.
        4    1    3    3  502    0  0.56702344769E+03  0.14839346323E+04  0.89119824177E+03  0.18214866187E+04  0.12699999809E+01 0.  1.
       -4    1    3    3    0  502 -0.56702344769E+03 -0.14839346323E+04 -0.15819578323E+04  0.22419120811E+04  0.12699999809E+01 0. -1.
</event>
<event>
 5   0  0.2612363E-08  0.4004486E+04  0.7818609E-02  0.8003642E-01
        2   -1    0    0  501    0  0.00000000000E+00  0.00000000000E+00  0.27742989279E+04  0.27742989279E+04  0.25500000920E-02 0.  1.
       -2   -1    0    0    0  501  0.00000000000E+00  0.00000000000E+00 -0.14450411522E+04  0.14450411522E+04  0.25500000920E-02 0. -1.
    10030    2    1    2    0    0  0.00000000000E+00  0.00000000000E+00  0.13292577758E+04  0.42193400801E+04  0.40044855446E+04 0.  0.
        4    1    3    3  502    0  0.11096594084E+04  0.16528206458E+04  0.89015606300E+03  0.21807199544E+04  0.12699999809E+01 0. -1.
       -4    1    3    3    0  502 -0.11096594084E+04 -0.16528206458E+04  0.43910171275E+03  0.20386201257E+04  0.12699999809E+01 0.  1.
</event>
<event>
 5   0  0.2587493E-08  0.4005875E+04  0.7818609E-02  0.8003362E-01
       -2   -1    0    0    0  501  0.00000000000E+00  0.00000000000E+00  0.17146938329E+04  0.17146938329E+04  0.25500000920E-02 0.  1.
        2   -1    0    0  501    0  0.00000000000E+00  0.00000000000E+00 -0.23396360857E+04  0.23396360857E+04  0.25500000920E-02 0. -1.
    10030    2    1    2    0    0  0.00000000000E+00  0.00000000000E+00 -0.62494225279E+03  0.40543299186E+04  0.40058754685E+04 0.  0.
        5    1    3    3  502    0 -0.81275505151E+03 -0.18243876074E+04 -0.15972657601E+03  0.20036206190E+04  0.46999998093E+01 0.  1.
       -5    1    3    3    0  502  0.81275505151E+03  0.18243876074E+04 -0.46521567678E+03  0.20507092996E+04  0.46999998093E+01 0. -1.
</event>
<event>
 5   0  0.2746876E-08  0.4000003E+04  0.7818609E-02  0.8004546E-01
        2   -1    0    0  501    0  0.00000000000E+00  0.00000000000E+00  0.26070565351E+04  0.26070565351E+04  0.25500000920E-02 0.  1.
       -2   -1    0    0    0  501  0.00000000000E+00  0.00000000000E+00 -0.15342993294E+04  0.15342993294E+04  0.25500000920E-02 0. -1.
    10030    2    1    2    0    0  0.00000000000E+00  0.00000000000E+00  0.10727572057E+04  0.41413558645E+04  0.40000025468E+04 0.  0.
        1    1    3    3  502    0 -0.96967495640E+03 -0.93150584833E+03  0.20692501753E+04  0.24677457232E+04  0.50400001928E-02 0.  1.
       -1    1    3    3    0  502  0.96967495640E+03  0.93150584833E+03 -0.99649296964E+03  0.16736101413E+04  0.50400001928E-02 0. -1.
</event>
<event>
 5   0  0.8329875E-09  0.3978478E+04  0.7818609E-02  0.8008902E-01
        3   -1    0    0  501    0  0.00000000000E+00  0.00000000000E+00  0.17672121369E+04  0.17672121398E+04  0.10100000352E+00 0. -1.
       -3   -1    0    0    0  501  0.00000000000E+00  0.00000000000E+00 -0.22391606005E+04  0.22391606027E+04  0.10100000352E+00 0.  1.
    10030    2    1    2    0    0  0.00000000000E+00  0.00000000000E+00 -0.47194846355E+03  0.40063727425E+04  0.39784780004E+04 0.  0.
        5    1    3    3  502    0  0.17320044126E+04  0.34107215058E+03 -0.11593988702E+04  0.21119652761E+04  0.46999998093E+01 0.  1.
       -5    1    3    3    0  502 -0.17320044126E+04 -0.34107215058E+03  0.68745040666E+03  0.18944074664E+04  0.46999998093E+01 0. -1.
</event>
<event>
 5   0  0.2587493E-08  0.3995093E+04  0.7818609E-02  0.8005537E-01
       -2   -1    0    0    0  501  0.00000000000E+00  0.00000000000E+00  0.35295504511E+04  0.35295504511E+04  0.25500000920E-02 0.  1.
        2   -1    0    0  501    0  0.00000000000E+00  0.00000000000E+00 -0.11305101466E+04  0.11305101466E+04  0.25500000920E-02 0. -1.
    10030    2    1    2    0    0  0.00000000000E+00  0.00000000000E+00  0.23990403045E+04  0.46600605977E+04  0.39950932895E+04 0.  0.
        5    1    3    3  502    0  0.12496034471E+04  0.14650913545E+04  0.57990884909E+03  0.20110489341E+04  0.46999998093E+01 0.  1.
       -5    1    3    3    0  502 -0.12496034471E+04 -0.14650913545E+04  0.18191314554E+04  0.26490116636E+04  0.46999998093E+01 0. -1.
</event>
<event>
 5   0  0.8329875E-09  0.3999875E+04  0.7818609E-02  0.8004572E-01
       -1   -1    0    0    0  501  0.00000000000E+00  0.00000000000E+00  0.16247321220E+04  0.16247321220E+04  0.50400001928E-02 0. -1.
        1   -1    0    0  501    0  0.00000000000E+00  0.00000000000E+00 -0.24617898785E+04  0.24617898785E+04  0.50400001928E-02 0.  1.
    10030    2    1    2    0    0  0.00000000000E+00  0.00000000000E+00 -0.83705775650E+03  0.40865220006E+04  0.39998745447E+04 0.  0.
        2    1    3    3  502    0 -0.39920035997E+02 -0.19714675167E+04 -0.77423134109E+02  0.19733910207E+04  0.25500000920E-02 0. -1.
       -2    1    3    3    0  502  0.39920035997E+02  0.19714675167E+04 -0.75963462239E+03  0.21131309799E+04  0.25500000920E-02 0.  1.
</event>
<event>
 5   0  0.2587493E-08  0.3989953E+04  0.7818609E-02  0.8006576E-01
       -2   -1    0    0    0  501  0.00000000000E+00  0.00000000000E+00  0.17486789258E+04  0.17486789258E+04  0.25500000920E-02 0. -1.
        2   -1    0    0  501    0  0.00000000000E+00  0.00000000000E+00 -0.22759645966E+04  0.22759645966E+04  0.25500000920E-02 0.  1.
    10030    2    1    2    0    0  0.00000000000E+00  0.00000000000E+00 -0.52728567082E+03  0.40246435224E+04  0.39899530453E+04 0.  0.
        5    1    3    3  502    0  0.83205343117E+03 -0.16855204873E+03  0.15573751825E+04  0.17737424431E+04  0.46999998093E+01 0. -1.
       -5    1    3    3    0  502 -0.83205343117E+03  0.16855204873E+03 -0.20846608533E+04  0.22509010793E+04  0.46999998093E+01 0.  1.
</event>
<event>
 5   0  0.8329875E-09  0.4005920E+04  0.7818609E-02  0.8003353E-01
        1   -1    0    0  501    0  0.00000000000E+00  0.00000000000E+00  0.26018152153E+04  0.26018152153E+04  0.50400001928E-02 0.  1.
       -1   -1    0    0    0  501  0.00000000000E+00  0.00000000000E+00 -0.15419421664E+04  0.15419421664E+04  0.50400001928E-02 0. -1.
    10030    2    1    2    0    0  0.00000000000E+00  0.00000000000E+00  0.10598730489E+04  0.41437573817E+04  0.40059199141E+04 0.  0.
        3    1    3    3  502    0 -0.15990167356E+04 -0.54919493027E+03  0.16408444732E+04  0.23560221110E+04  0.10100000352E+00 0.  1.
       -3    1    3    3    0  502  0.15990167356E+04  0.54919493027E+03 -0.58097142429E+03  0.17877352707E+04  0.10100000352E+00 0. -1.
</event>
<event>
 5   0  0.8329875E-09  0.3990815E+04  0.7818609E-02  0.8006402E-01
        1   -1    0    0  501    0  0.00000000000E+00  0.00000000000E+00  0.18563257131E+04  0.18563257131E+04  0.50400001928E-02 0.  1.
       -1   -1    0    0    0  501  0.00000000000E+00  0.00000000000E+00 -0.21449093545E+04  0.21449093545E+04  0.50400001928E-02 0. -1.
    10030    2    1    2    0    0  0.00000000000E+00  0.00000000000E+00 -0.28858364143E+03  0.40012350676E+04  0.39908146471E+04 0.  0.
        4    1    3    3  502    0 -0.19032209493E+04 -0.29875028019E+03 -0.66540569177E+03  0.20382021635E+04  0.12699999809E+01 0. -1.
       -4    1    3    3    0  502  0.19032209493E+04  0.29875028019E+03  0.37682205034E+03  0.19630329040E+04  0.12699999809E+01 0.  1.
</event>
<event>
 5   0  0.8329875E-09  0.3999332E+04  0.7818609E-02  0.8004681E-01
       -1   -1    0    0    0  501  0.00000000000E+00  0.00000000000E+00  0.17681582380E+04  0.17681582380E+04  0.50400001928E-02 0.  1.
        1   -1    0    0  501    0  0.00000000000E+00  0.00000000000E+00 -0.22614857800E+04  0.22614857800E+04  0.50400001928E-02 0. -1.
    10030    2    1    2    0    0  0.00000000000E+00  0.00000000000E+00 -0.49332754197E+03  0.40296440180E+04  0.39993323002E+04 0.  0.
        5    1    3    3  502    0  0.27363797764E+03 -0.19793733369E+04 -0.32370288479E+03  0.20242534914E+04  0.46999998093E+01 0. -1.
       -5    1    3    3    0  502 -0.27363797764E+03  0.19793733369E+04 -0.16962465718E+03  0.20053905266E+04  0.46999998093E+01 0.  1.
</event>
<event>
 5   0  0.8329875E-09  0.3994232E+04  0.7818609E-02  0.8005711E-01
       -1   -1    0    0    0  501  0.00000000000E+00  0.00000000000E+00  0.18946881055E+04  0.18946881055E+04  0.50400001928E-02 0.  1.
        1   -1    0    0  501    0  0.00000000000E+00  0.00000000000E+00 -0.21050811377E+04  0.21050811377E+04  0.50400001928E-02 0. -1.
    10030    2    1    2    0    0  0.00000000000E+00  0.00000000000E+00 -0.21039303224E+03  0.39997692433E+04  0.39942319376E+04 0.  0.
        3    1    3    3  502    0  0.15520600415E+04 -0.54025091485E+03 -0.12415431211E+04  0.20596579219E+04  0.10100000352E+00 0. -1.
       -3    1    3    3    0  502 -0.15520600415E+04  0.54025091485E+03  0.10311500889E+04  0.19401113214E+04  0.10100000352E+00 0.  1.
</event>
<event>
 5   0  0.2599332E-08  0.3995837E+04  0.7818609E-02  0.8005387E-01
       -2   -1    0    0    0  501  0.00000000000E+00  0.00000000000E+00  0.16686734121E+04  0.16686734122E+04  0.25500000920E-02 0. -1.
        2   -1    0    0  501    0  0.00000000000E+00  0.00000000000E+00 -0.23921267608E+04  0.23921267608E+04  0.25500000920E-02 0.  1.
    10030    2    1    2    0    0  0.00000000000E+00  0.00000000000E+00 -0.72345334862E+03  0.40608001729E+04  0.39958369958E+04 0.  0.
        2    1    3    3  502    0 -0.17417175307E+04  0.90999905559E+02  0.62870361289E+03  0.18539496143E+04  0.25500000920E-02 0. -1.
       -2    1    3    3    0  502  0.17417175307E+04 -0.90999905559E+02 -0.13521569615E+04  0.22068505586E+04  0.25500000920E-02 0.  1.
</event>
<event>
 5   0  0.8329875E-09  0.3994037E+04  0.7818609E-02  0.8005751E-01
        1   -1    0    0  501    0  0.00000000000E+00  0.00000000000E+00  0.29969644771E+04  0.29969644771E+04  0.50400001928E-02 0. -1.
       -1   -1    0    0    0  501  0.00000000000E+00  0.00000000000E+00 -0.13307073333E+04  0.13307073334E+04  0.50400001928E-02 0.  1.
    10030    2    1    2    0    0  0.00000000000E+00  0.00000000000E+00  0.16662571438E+04  0.43276718105E+04  0.39940368589E+04 0.  0.
        5    1    3    3  502    0  0.14414970633E+03  0.11526965652E+03  0.29876968868E+04  0.29933962332E+04  0.46999998093E+01 0. -1.
       -5    1    3    3    0  502 -0.14414970633E+03 -0.11526965652E+03 -0.13214397430E+04  0.13342755773E+04  0.46999998093E+01 0.  1.
</event>
<event>
 5   0  0.8329875E-09  0.3923580E+04  0.7818609E-02  0.8020143E-01
       -1   -1    0    0    0  501  0.00000000000E+00  0.00000000000E+00  0.15033967431E+04  0.15033967431E+04  0.50400001928E-02 0. -1.
        1   -1    0    0  501    0  0.00000000000E+00  0.00000000000E+00 -0.25599502981E+04  0.25599502981E+04  0.50400001928E-02 0.  1.
    10030    2    1    2    0    0  0.00000000000E+00  0.00000000000E+00 -0.10565535550E+04  0.40633470413E+04  0.39235804775E+04 0.  0.
        2    1    3    3  502    0 -0.15061308763E+04  0.10887855077E+04 -0.11789383860E+04  0.22008588815E+04  0.25500000920E-02 0.  1.
       -2    1    3    3    0  502  0.15061308763E+04 -0.10887855077E+04  0.12238483095E+03  0.18624881598E+04  0.25500000920E-02 0. -1.
</event>
<event>
 5   0  0.8329875E-09  0.4007463E+04  0.7818609E-02  0.8003043E-01
        1   -1    0    0  501    0  0.00000000000E+00  0.00000000000E+00  0.13820967087E+04  0.13820967088E+04  0.50400001928E-02 0. -1.
       -1   -1    0    0    0  501  0.00000000000E+00  0.00000000000E+00 -0.29049634365E+04  0.29049634365E+04  0.50400001928E-02 0.  1.
    10030    2    1    2    0    0  0.00000000000E+00  0.00000000000E+00 -0.15228667278E+04  0.42870601453E+04  0.40074632398E+04 0.  0.
        3    1    3    3  502    0  0.17840824451E+04 -0.90666204773E+03 -0.86816476854E+03  0.21814436310E+04  0.10100000352E+00 0.  1.
       -3    1    3    3    0  502 -0.17840824451E+04  0.90666204773E+03 -0.65470195922E+03  0.21056165143E+04  0.10100000352E+00 0. -1.
</event>
<event>
 5   0  0.2746876E-08  0.4006867E+04  0.7818609E-02  0.8003163E-01
        2   -1    0    0  501    0  0.00000000000E+00  0.00000000000E+00  0.14113620035E+04  0.14113620035E+04  0.25500000920E-02 0. -1.
       -2   -1    0    0    0  501  0.00000000000E+00  0.00000000000E+00 -0.28438816012E+04  0.28438816012E+04  0.25500000920E-02 0.  1.
    10030    2    1    2    0    0  0.00000000000E+00  0.00000000000E+00 -0.14325195977E+04  0.42552436047E+04  0.40068673222E+04 0.  0.
        1    1    3    3  502    0  0.12163237009E+04 -0.87932332894E+03 -0.21255832595E+04  0.26020678422E+04  0.50400001928E-02 0.  1.
       -1    1    3    3    0  502 -0.12163237009E+04  0.87932332894E+03  0.69306366184E+03  0.16531757625E+04  0.50400001928E-02 0. -1.
</event>
<event>
 5   0  0.2599332E-08  0.4002166E+04  0.7818609E-02  0.8004110E-01
        2   -1    0    0  501    0  0.00000000000E+00  0.00000000000E+00  0.14328226147E+04  0.14328226147E+04  0.25500000920E-02 0.  1.
       -2   -1    0    0    0  501  0.00000000000E+00  0.00000000000E+00 -0.27947159707E+04  0.27947159707E+04  0.25500000920E-02 0. -1.
    10030    2    1    2    0    0  0.00000000000E+00  0.00000000000E+00 -0.13618933560E+04  0.42275385854E+04  0.40021655360E+04 0.  0.
        2    1    3    3  502    0  0.22824799348E+03  0.18578857812E+03  0.14098370038E+04  0.14402273847E+04  0.25500000920E-02 0.  1.
       -2    1    3    3    0  502 -0.22824799348E+03 -0.18578857812E+03 -0.27717303598E+04  0.27873112007E+04  0.25500000920E-02 0. -1.
</event>
<event>
 5   0  0.8329875E-09  0.4013383E+04  0.7818609E-02  0.8001852E-01
       -1   -1    0    0    0  501  0.00000000000E+00  0.00000000000E+00  0.35705341889E+04  0.35705341889E+04  0.50400001928E-02 0.  1.
        1   -1    0    0  501    0  0.00000000000E+00  0.00000000000E+00 -0.11277896721E+04  0.11277896721E+04  0.50400001928E-02 0. -1.
    10030    2    1    2    0    0  0.00000000000E+00  0.00000000000E+00  0.24427445168E+04  0.46983238610E+04  0.40133834017E+04 0.  0.
        3    1    3    3  502    0 -0.48730283689E+02  0.53050855600E+03  0.34862359742E+04  0.35267060051E+04  0.10100000352E+00 0.  1.
       -3    1    3    3    0  502  0.48730283689E+02 -0.53050855600E+03 -0.10434914574E+04  0.11716178559E+04  0.10100000352E+00 0. -1.
</event>
<event>
 5   0  0.2746876E-08  0.3998525E+04  0.7818609E-02  0.8004844E-01
       -2   -1    0    0    0  501  0.00000000000E+00  0.00000000000E+00  0.29369913623E+04  0.29369913623E+04  0.25500000920E-02 0.  1.
        2   -1    0    0  501    0  0.00000000000E+00  0.00000000000E+00 -0.13609335352E+04  0.13609335352E+04  0.25500000920E-02 0. -1.
    10030    2    1    2    0    0  0.00000000000E+00  0.00000000000E+00  0.15760578271E+04  0.42979248975E+04  0.39985247468E+04 0.  0.
        1    1    3    3  502    0 -0.12342335961E+04 -0.13617737835E+03 -0.89619605167E+03  0.15313537185E+04  0.50400001928E-02 0. -1.
       -1    1    3    3    0  502  0.12342335961E+04  0.13617737835E+03  0.24722538787E+04  0.27665711791E+04  0.50400001928E-02 0.  1.
</event>
<event>
 5   0  0.8329875E-09  0.4000022E+04  0.7818609E-02  0.8004542E-01
       -1   -1    0    0    0  501  0.00000000000E+00  0.00000000000E+00  0.21666577193E+04  0.21666577193E+04  0.50400001928E-02 0. -1.
        1   -1    0    0  501    0  0.00000000000E+00  0.00000000000E+00 -0.18461819943E+04  0.18461819943E+04  0.50400001928E-02 0.  1.
    10030    2    1    2    0    0  0.00000000000E+00  0.00000000000E+00  0.32047572500E+03  0.40128397136E+04  0.40000222346E+04 0.  0.
        1    1    3    3  502    0 -0.13002882121E+04  0.34911702262E+03 -0.13234916537E+04  0.18879253925E+04  0.50400001928E-02 0.  1.
       -1    1    3    3    0  502  0.13002882121E+04 -0.34911702262E+03  0.16439673787E+04  0.21249143212E+04  0.50400001928E-02 0. -1.
</event>
<event>
 5   0  0.8329875E-09  0.4000196E+04  0.7818609E-02  0.8004507E-01
       -1   -1    0    0    0  501  0.00000000000E+00  0.00000000000E+00  0.20935274102E+04  0.20935274102E+04  0.50400001928E-02 0. -1.
        1   -1    0    0  501    0  0.00000000000E+00  0.00000000000E+00 -0.19108379824E+04  0.19108379824E+04  0.50400001928E-02 0.  1.
    10030    2    1    2    0    0  0.00000000000E+00  0.00000000000E+00  0.18268942775E+03  0.40043653926E+04  0.40001958415E+04 0.  0.
        3    1    3    3  502    0 -0.15772754909E+04 -0.74690651742E+03  0.10694631567E+04  0.20468069703E+04  0.10100000352E+00 0. -1.
       -3    1    3    3    0  502  0.15772754909E+04  0.74690651742E+03 -0.88677372900E+03  0.19575584223E+04  0.10100000352E+00 0.  1.
</event>
<event>
 5   0  0.2612363E-08  0.4002216E+04  0.7818609E-02  0.8004100E-01
        2   -1    0    0  501    0  0.00000000000E+00  0.00000000000E+00  0.19802981300E+04  0.19802981300E+04  0.25500000920E-02 0. -1.
       -2   -1    0    0    0  501  0.00000000000E+00  0.00000000000E+00 -0.20221363967E+04  0.20221363967E+04  0.25500000920E-02 0.  1.
    10030    2    1    2    0    0  0.00000000000E+00  0.00000000000E+00 -0.41838266744E+02  0.40024345267E+04  0.40022158487E+04 0.  0.
        4    1    3    3  502    0 -0.83934913758E+03  0.76560253570E+03 -0.16683637182E+04  0.20184383385E+04  0.12699999809E+01 0.  1.
       -4    1    3    3    0  502  0.83934913758E+03 -0.76560253570E+03  0.16265254514E+04  0.19839961881E+04  0.12699999809E+01 0. -1.
</event>
<event>
 5   0  0.2587493E-08  0.3990913E+04  0.7818609E-02  0.8006382E-01
        2   -1    0    0  501    0  0.00000000000E+00  0.00000000000E+00  0.13510290939E+04  0.13510290939E+04  0.25500000920E-02 0. -1.
       -2   -1    0    0    0  501  0.00000000000E+00  0.00000000000E+00 -0.29472700416E+04  0.29472700416E+04  0.25500000920E-02 0.  1.
    10030    2    1    2    0    0  0.00000000000E+00  0.00000000000E+00 -0.15962409477E+04  0.42982991355E+04  0.39909134663E+04 0.  0.
        5    1    3    3  502    0 -0.96903331044E+03  0.15282717216E+04 -0.17038342852E+04  0.24855006282E+04  0.46999998093E+01 0. -1.
       -5    1    3    3    0  502  0.96903331044E+03 -0.15282717216E+04  0.10759333751E+03  0.18127985073E+04  0.46999998093E+01 0.  1.
</event>
<event>
 5   0  0.2746876E-08  0.3996336E+04  0.7818609E-02  0.8005286E-01
        2   -1    0    0  501    0  0.00000000000E+00  0.00000000000E+00  0.16335629245E+04  0.16335629245E+04  0.25500000920E-02 0.  1.
       -2   -1    0    0    0  501  0.00000000000E+00  0.00000000000E+00 -0.24441513043E+04  0.24441513043E+04  0.25500000920E-02 0. -1.
    10030    2    1    2    0    0  0.00000000000E+00  0.00000000000E+00 -0.81058837981E+03  0.40777142288E+04  0.39963357980E+04 0.  0.
        1    1    3    3  502    0  0.56670640452E+03 -0.19160798184E+04 -0.39251179996E+03  0.20363161672E+04  0.50400001928E-02 0. -1.
       -1    1    3    3    0  502 -0.56670640452E+03  0.19160798184E+04 -0.41807657985E+03  0.20413980617E+04  0.50400001928E-02 0.  1.
</event>
<event>
 5   0  0.2587493E-08  0.3997256E+04  0.7818609E-02  0.8005100E-01
       -2   -1    0    0    0  501  0.00000000000E+00  0.00000000000E+00  0.18246396827E+04  0.18246396827E+04  0.25500000920E-02 0. -1.
        2   -1    0    0  501    0  0.00000000000E+00  0.00000000000E+00 -0.21892064515E+04  0.21892064515E+04  0.25500000920E-02 0.  1.
    10030    2    1    2    0    0  0.00000000000E+00  0.00000000000E+00 -0.36456676883E+03  0.40138461342E+04  0.39972555410E+04 0.  0.
        5    1    3    3  502    0  0.12964980705E+02 -0.39875399372E+03  0.17842417364E+04  0.18283089187E+04  0.46999998093E+01 0. -1.
       -5    1    3    3    0  502 -0.12964980705E+02  0.39875399372E+03 -0.21488085052E+04  0.21855372155E+04  0.46999998093E+01 0.  1.
</event>
<event>
 5   0  0.2612363E-08  0.3992329E+04  0.7818609E-02  0.8006096E-01
       -2   -1    0    0    0  501  0.00000000000E+00  0.00000000000E+00  0.16330423871E+04  0.16330423871E+04  0.25500000920E-02 0. -1.
        2   -1    0    0  501    0  0.00000000000E+00  0.00000000000E+00 -0.24400296479E+04  0.24400296479E+04  0.25500000920E-02 0.  1.
    10030    2    1    2    0    0  0.00000000000E+00  0.00000000000E+00 -0.80698726082E+03  0.40730720350E+04  0.39923285641E+04 0.  0.
        4    1    3    3  502    0 -0.16842804828E+04 -0.30735624606E+03 -0.14506048334E+04  0.22439974604E+04  0.12699999809E+01 0.  1.
       -4    1    3    3    0  502  0.16842804828E+04  0.30735624606E+03  0.64361757259E+03  0.18290745746E+04  0.12699999809E+01 0. -1.
</event>
<event>
 5   0  0.8329875E-09  0.3944601E+04  0.7818609E-02  0.8015817E-01
       -1   -1    0    0    0  501  0.00000000000E+00  0.00000000000E+00  0.18146194852E+04  0.18146194852E+04  0.50400001928E-02 0.  1.
        1   -1    0    0  501    0  0.00000000000E+00  0.00000000000E+00 -0.21436827293E+04  0.21436827293E+04  0.50400001928E-02 0. -1.
    10030    2    1    2    0    0  0.00000000000E+00  0.00000000000E+00 -0.32906324413E+03  0.39583022145E+04  0.39446005885E+04 0.  0.
        3    1    3    3  502    0  0.92397847774E+03  0.15001358948E+04 -0.10540782125E+04  0.20531012685E+04  0.10100000352E+00 0. -1.
       -3    1    3    3    0  502 -0.92397847774E+03 -0.15001358948E+04  0.72501496841E+03  0.19052009461E+04  0.10100000352E+00 0.  1.
</event>
<event>
 5   0  0.8329875E-09  0.3999468E+04  0.7818609E-02  0.8004654E-01
       -1   -1    0    0    0  501  0.00000000000E+00  0.00000000000E+00  0.15632478344E+04  0.15632478344E+04  0.50400001928E-02 0.  1.
        1   -1    0    0  501    0  0.00000000000E+00  0.00000000000E+00 -0.25580952998E+04  0.25580952998E+04  0.50400001928E-02 0. -1.
    10030    2    1    2    0    0  0.00000000000E+00  0.00000000000E+00 -0.99484746544E+03  0.41213431342E+04  0.39994684334E+04 0.  0.
        3    1    3    3  502    0  0.12894719598E+04 -0.15236256579E+04 -0.62263293953E+03  0.20908957096E+04  0.10100000352E+00 0.  1.
       -3    1    3    3    0  502 -0.12894719598E+04  0.15236256579E+04 -0.37221452591E+03  0.20304474246E+04  0.10100000352E+00 0. -1.
</event>
<event>
 5   0  0.2650452E-08  0.3979551E+04  0.7818609E-02  0.8008684E-01
        2   -1    0    0  501    0  0.00000000000E+00  0.00000000000E+00  0.23830800346E+04  0.23830800346E+04  0.25500000920E-02 0.  1.
       -2   -1    0    0    0  501  0.00000000000E+00  0.00000000000E+00 -0.16613825027E+04  0.16613825028E+04  0.25500000920E-02 0. -1.
    10030    2    1    2    0    0  0.00000000000E+00  0.00000000000E+00  0.72169753181E+03  0.40444625373E+04  0.39795514682E+04 0.  0.
        3    1    3    3  502    0 -0.14498560557E+04  0.50555496980E+03 -0.92531259314E+03  0.17927274793E+04  0.10100000352E+00 0. -1.
       -3    1    3    3    0  502  0.14498560557E+04 -0.50555496980E+03  0.16470101249E+04  0.22517350580E+04  0.10100000352E+00 0.  1.
</event>
<event>
 5   0  0.2612363E-08  0.4000670E+04  0.7818609E-02  0.8004411E-01
        2   -1    0    0  501    0  0.00000000000E+00  0.00000000000E+00  0.22738997790E+04  0.22738997790E+04  0.25500000920E-02 0.  1.
       -2   -1    0    0    0  501  0.00000000000E+00  0.00000000000E+00 -0.17596820128E+04  0.17596820128E+04  0.25500000920E-02 0. -1.
    10030    2    1    2    0    0  0.00000000000E+00  0.00000000000E+00  0.51421776620E+03  0.40335817918E+04  0.40006702138E+04 0.  0.
        4    1    3    3  502    0 -0.13120880724E+03 -0.46572838834E+03 -0.16997910604E+04  0.17673171602E+04  0.12699999809E+01 0. -1.
       -4    1    3    3    0  502  0.13120880724E+03  0.46572838834E+03  0.22140088266E+04  0.22662646315E+04  0.12699999809E+01 0.  1.
</event>
<event>
 5   0  0.8329875E-09  0.3980936E+04  0.7818609E-02  0.8008404E-01
        1   -1    0    0  501    0  0.00000000000E+00  0.00000000000E+00  0.23672448580E+04  0.23672448580E+04  0.50400001928E-02 0. -1.
       -1   -1    0    0    0  501  0.00000000000E+00  0.00000000000E+00 -0.16736596029E+04  0.16736596029E+04  0.50400001928E-02 0.  1.
    10030    2    1    2    0    0  0.00000000000E+00  0.00000000000E+00  0.69358525511E+03  0.40409044609E+04  0.39809356132E+04 0.  0.
        2    1    3    3  502    0  0.98600321240E+03  0.11515124020E+04  0.16560988768E+04  0.22451829851E+04  0.25500000920E-02 0. -1.
       -2    1    3    3    0  502 -0.98600321240E+03 -0.11515124020E+04 -0.96251362171E+03  0.17957214758E+04  0.25500000920E-02 0.  1.
</event>
<event>
 5   0  0.8329875E-09  0.4017181E+04  0.7818609E-02  0.8001089E-01
       -1   -1    0    0    0  501  0.00000000000E+00  0.00000000000E+00  0.21145215035E+04  0.21145215035E+04  0.50400001928E-02 0.  1.
        1   -1    0    0  501    0  0.00000000000E+00  0.00000000000E+00 -0.19079665741E+04  0.19079665741E+04  0.50400001928E-02 0. -1.
    10030    2    1    2    0    0  0.00000000000E+00  0.00000000000E+00  0.20655492945E+03  0.40224880776E+04  0.40171812749E+04 0.  0.
        1    1    3    3  502    0  0.11090134224E+04 -0.16741377575E+04  0.14562217558E+03  0.20134184415E+04  0.50400001928E-02 0.  1.
       -1    1    3    3    0  502 -0.11090134224E+04  0.16741377575E+04  0.60932753865E+02  0.20090696361E+04  0.50400001928E-02 0. -1.
</event>
<event>
 5   0  0.8329875E-09  0.3872778E+04  0.7818609E-02  0.8030715E-01
        1   -1    0    0  501    0  0.00000000000E+00  0.00000000000E+00  0.28974256882E+04  0.28974256883E+04  0.50400001928E-02 0.  1.
       -1   -1    0    0    0  501  0.00000000000E+00  0.00000000000E+00 -0.12941149033E+04  0.12941149033E+04  0.50400001928E-02 0. -1.
    10030    2    1    2    0    0  0.00000000000E+00  0.00000000000E+00  0.16033107849E+04  0.41915405916E+04  0.38727776928E+04 0.  0.
        2    1    3    3  502    0  0.97312955511E+03 -0.97718952045E+03 -0.66953655061E+03  0.15330230535E+04  0.25500000920E-02 0. -1.
       -2    1    3    3    0  502 -0.97312955511E+03  0.97718952045E+03  0.22728473355E+04  0.26585175381E+04  0.25500000920E-02 0.  1.
</event>
<event>
 5   0  0.2612363E-08  0.3963786E+04  0.7818609E-02  0.8011892E-01
       -2   -1    0    0    0  501  0.00000000000E+00  0.00000000000E+00  0.11794234572E+04  0.11794234572E+04  0.25500000920E-02 0.  1.
        2   -1    0    0  501    0  0.00000000000E+00  0.00000000000E+00 -0.33303551093E+04  0.33303551093E+04  0.25500000920E-02 0. -1.
    10030    2    1    2    0    0  0.00000000000E+00  0.00000000000E+00 -0.21509316521E+04  0.45097785665E+04  0.39637855325E+04 0.  0.
        4    1    3    3  502    0  0.98824178436E+02 -0.32513358920E+02  0.11763141736E+04  0.11809064251E+04  0.12699999809E+01 0.  1.
       -4    1    3    3    0  502 -0.98824178436E+02  0.32513358920E+02 -0.33272458257E+04  0.33288721415E+04  0.12699999809E+01 0. -1.
</event>
<event>
 5   0  0.2612363E-08  0.4021283E+04  0.7818609E-02  0.8000267E-01
        2   -1    0    0  501    0  0.00000000000E+00  0.00000000000E+00  0.27609946209E+04  0.27609946209E+04  0.25500000920E-02 0. -1.
       -2   -1    0    0    0  501  0.00000000000E+00  0.00000000000E+00 -0.14642112370E+04  0.14642112370E+04  0.25500000920E-02 0.  1.
    10030    2    1    2    0    0  0.00000000000E+00  0.00000000000E+00  0.12967833839E+04  0.42252058580E+04  0.40212830536E+04 0.  0.
        4    1    3    3  502    0 -0.92877752948E+03  0.17864447501E+03  0.25126667336E+04  0.26847788130E+04  0.12699999809E+01 0. -1.
       -4    1    3    3    0  502  0.92877752948E+03 -0.17864447501E+03 -0.12158833497E+04  0.15404270449E+04  0.12699999809E+01 0.  1.
</event>
<event>
 5   0  0.2587493E-08  0.3999066E+04  0.7818609E-02  0.8004735E-01
       -2   -1    0    0    0  501  0.00000000000E+00  0.00000000000E+00  0.16501363707E+04  0.16501363707E+04  0.25500000920E-02 0. -1.
        2   -1    0    0  501    0  0.00000000000E+00  0.00000000000E+00 -0.24229097877E+04  0.24229097877E+04  0.25500000920E-02 0.  1.
    10030    2    1    2    0    0  0.00000000000E+00  0.00000000000E+00 -0.77277341706E+03  0.40730461584E+04  0.39990656726E+04 0.  0.
        5    1    3    3  502    0 -0.11871221008E+04 -0.15675845994E+04 -0.17008096754E+02  0.19664413858E+04  0.46999998093E+01 0. -1.
       -5    1    3    3    0  502  0.11871221008E+04  0.15675845994E+04 -0.75576532030E+03  0.21066047726E+04  0.46999998093E+01 0.  1.
</event>
<event>
 5   0  0.8329875E-09  0.4000122E+04  0.7818609E-02  0.8004522E-01
       -1   -1    0    0    0  501  0.00000000000E+00  0.00000000000E+00  0.17318727422E+04  0.17318727422E+04  0.50400001928E-02 0.  1.
        1   -1    0    0  501    0  0.00000000000E+00  0.00000000000E+00 -0.23097791813E+04  0.23097791813E+04  0.50400001928E-02 0. -1.
    10030    2    1    2    0    0  0.00000000000E+00  0.00000000000E+00 -0.57790643905E+03  0.40416519235E+04  0.40001218004E+04 0.  0.
        5    1    3    3  502    0 -0.11331802579E+04 -0.16030591195E+04  0.97543371257E+02  0.19655617102E+04  0.46999998093E+01 0.  1.
       -5    1    3    3    0  502  0.11331802579E+04  0.16030591195E+04 -0.67544981031E+03  0.20760902133E+04  0.46999998093E+01 0. -1.
</event>
<event>
 5   0  0.8329875E-09  0.4010385E+04  0.7818609E-02  0.8002455E-01
        1   -1    0    0  501    0  0.00000000000E+00  0.00000000000E+00  0.16020235457E+04  0.16020235457E+04  0.50400001928E-02 0.  1.
       -1   -1    0    0    0  501  0.00000000000E+00  0.00000000000E+00 -0.25098244100E+04  0.25098244100E+04  0.50400001928E-02 0. -1.
    10030    2    1    2    0    0  0.00000000000E+00  0.00000000000E+00 -0.90780086430E+03  0.41118479557E+04  0.40103854181E+04 0.  0.
        2    1    3    3  502    0  0.11365639021E+04 -0.14172253792E+04  0.41639293460E+03  0.18637833445E+04  0.25500000920E-02 0.  1.
       -2    1    3    3    0  502 -0.11365639021E+04  0.14172253792E+04 -0.13241937989E+04  0.22480646112E+04  0.25500000920E-02 0. -1.
</event>
<event>
 5   0  0.2746876E-08  0.3991994E+04  0.7818609E-02  0.8006164E-01
       -2   -1    0    0    0  501  0.00000000000E+00  0.00000000000E+00  0.12469010451E+04  0.12469010451E+04  0.25500000920E-02 0. -1.
        2   -1    0    0  501    0  0.00000000000E+00  0.00000000000E+00 -0.31951248894E+04  0.31951248894E+04  0.25500000920E-02 0.  1.
    10030    2    1    2    0    0  0.00000000000E+00  0.00000000000E+00 -0.19482238444E+04  0.44420259345E+04  0.39919942705E+04 0.  0.
        1    1    3    3  502    0  0.38609290251E+03 -0.86588381306E+02 -0.31510462899E+04  0.31757924992E+04  0.50400001928E-02 0.  1.
       -1    1    3    3    0  502 -0.38609290251E+03  0.86588381306E+02  0.12028224455E+04  0.12662334353E+04  0.50400001928E-02 0. -1.
</event>
<event>
 5   0  0.8329875E-09  0.4005767E+04  0.7818609E-02  0.8003384E-01
       -1   -1    0    0    0  501  0.00000000000E+00  0.00000000000E+00  0.20212895070E+04  0.20212895070E+04  0.50400001928E-02 0.  1.
        1   -1    0    0  501    0  0.00000000000E+00  0.00000000000E+00 -0.19846454194E+04  0.19846454194E+04  0.50400001928E-02 0. -1.
    10030    2    1    2    0    0  0.00000000000E+00  0.00000000000E+00  0.36644087538E+02  0.40059349264E+04  0.40057673229E+04 0.  0.
        4    1    3    3  502    0 -0.66136218823E+03 -0.23115290522E+03 -0.18581119044E+04  0.19858028784E+04  0.12699999809E+01 0. -1.
       -4    1    3    3    0  502  0.66136218823E+03  0.23115290522E+03  0.18947559919E+04  0.20201320480E+04  0.12699999809E+01 0.  1.
</event>
<event>
 5   0  0.2612363E-08  0.3997819E+04  0.7818609E-02  0.8004987E-01
       -2   -1    0    0    0  501  0.00000000000E+00  0.00000000000E+00  0.18702706440E+04  0.18702706440E+04  0.25500000920E-02 0.  1.
        2   -1    0    0  501    0  0.00000000000E+00  0.00000000000E+00 -0.21363961575E+04  0.21363961575E+04  0.25500000920E-02 0. -1.
    10030    2    1    2    0    0  0.00000000000E+00  0.00000000000E+00 -0.26612551356E+03  0.40066668015E+04  0.39978189140E+04 0.  0.
        4    1    3    3  502    0  0.30421021249E+03  0.59124298306E+03 -0.20223144246E+04  0.21288187718E+04  0.12699999809E+01 0. -1.
       -4    1    3    3    0  502 -0.30421021249E+03 -0.59124298306E+03  0.17561889110E+04  0.18778480297E+04  0.12699999809E+01 0.  1.
</event>
<event>
 5   0  0.2599332E-08  0.3996605E+04  0.7818609E-02  0.8005232E-01
        2   -1    0    0  501    0  0.00000000000E+00  0.00000000000E+00  0.14065646467E+04  0.14065646467E+04  0.25500000920E-02 0.  1.
       -2   -1    0    0    0  501  0.00000000000E+00  0.00000000000E+00 -0.28389829272E+04  0.28389829272E+04  0.25500000920E-02 0. -1.
    10030    2    1    2    0    0  0.00000000000E+00  0.00000000000E+00 -0.14324182805E+04  0.42455475738E+04  0.39966050682E+04 0.  0.
        2    1    3    3  502    0  0.11136942772E+04 -0.19765172069E+03  0.10337743292E+04  0.15323415120E+04  0.25500000920E-02 0.  1.
       -2    1    3    3    0  502 -0.11136942772E+04  0.19765172069E+03 -0.24661926097E+04  0.27132060618E+04  0.25500000920E-02 0. -1.
</event>
<event>
 5   0  0.8329875E-09  0.3999637E+04  0.7818609E-02  0.8004620E-01
       -1   -1    0    0    0  501  0.00000000000E+00  0.00000000000E+00  0.16161803964E+04  0.16161803964E+04  0.50400001928E-02 0.  1.
        1   -1    0    0  501    0  0.00000000000E+00  0.00000000000E+00 -0.24745222201E+04  0.24745222201E+04  0.50400001928E-02 0. -1.
    10030    2    1    2    0    0  0.00000000000E+00  0.00000000000E+00 -0.85834182375E+03  0.40907026165E+04  0.39996371348E+04 0.  0.
        4    1    3    3  502    0 -0.82149144820E+03 -0.18231650749E+04 -0.45189386471E+03  0.20501192082E+04  0.12699999809E+01 0.  1.
       -4    1    3    3    0  502  0.82149144820E+03  0.18231650749E+04 -0.40644795904E+03  0.20405834083E+04  0.12699999809E+01 0. -1.
</event>
<event>
 5   0  0.2612363E-08  0.3995820E+04  0.7818609E-02  0.8005390E-01
       -2   -1    0    0    0  501  0.00000000000E+00  0.00000000000E+00  0.26734480186E+04  0.26734480186E+04  0.25500000920E-02 0.  1.
        2   -1    0    0  501    0  0.00000000000E+00  0.00000000000E+00 -0.14930697657E+04  0.14930697657E+04  0.25500000920E-02 0. -1.
    10030    2    1    2    0    0  0.00000000000E+00  0.00000000000E+00  0.11803782529E+04  0.41665177842E+04  0.39958200193E+04 0.  0.
        4    1    3    3  502    0 -0.13540184105E+04 -0.25934167642E+03  0.20979979958E+04  0.25104225072E+04  0.12699999809E+01 0.  1.
       -4    1    3    3    0  502  0.13540184105E+04  0.25934167642E+03 -0.91761974291E+03  0.16560952770E+04  0.12699999809E+01 0. -1.
</event>
<event>
 5   0  0.8329875E-09  0.3999632E+04  0.7818609E-02  0.8004621E-01
        1   -1    0    0  501    0  0.00000000000E+00  0.00000000000E+00  0.25684976718E+04  0.25684976719E+04  0.50400001928E-02 0. -1.
       -1   -1    0    0    0  501  0.00000000000E+00  0.00000000000E+00 -0.15570443434E+04  0.15570443434E+04  0.50400001928E-02 0.  1.
    10030    2    1    2    0    0  0.00000000000E+00  0.00000000000E+00  0.10114533285E+04  0.41255420152E+04  0.39996323686E+04 0.  0.
        3    1    3    3  502    0 -0.71785823274E+03  0.16107835388E+04  0.14784518101E+04  0.23012526624E+04  0.10100000352E+00 0. -1.
       -3    1    3    3    0  502  0.71785823274E+03 -0.16107835388E+04 -0.46699848163E+03  0.18242893529E+04  0.10100000352E+00 0.  1.
</event>
<event>
 5   0  0.2587493E-08  0.4002214E+04  0.7818609E-02  0.8004100E-01
        2   -1    0    0  501    0  0.00000000000E+00  0.00000000000E+00  0.11939177077E+04  0.11939177077E+04  0.25500000920E-02 0. -1.
       -2   -1    0    0    0  501  0.00000000000E+00  0.00000000000E+00 -0.33540244312E+04  0.33540244312E+04  0.25500000920E-02 0.  1.
    10030    2    1    2    0    0  0.00000000000E+00  0.00000000000E+00 -0.21601067235E+04  0.45479421389E+04  0.40022139675E+04 0.  0.
        5    1    3    3  502    0  0.33234824697E+03 -0.10763495275E+04 -0.29594866162E+04  0.31666333517E+04  0.46999998093E+01 0.  1.
       -5    1    3    3    0  502 -0.33234824697E+03  0.10763495275E+04  0.79937989273E+03  0.13813087872E+04  0.46999998093E+01 0. -1.
</event>
<event>
 5   0  0.2587493E-08  0.4001392E+04  0.7818609E-02  0.8004266E-01
       -2   -1    0    0    0  501  0.00000000000E+00  0.00000000000E+00  0.15339477789E+04  0.15339477789E+04  0.25500000920E-02 0.  1.
        2   -1    0    0  501    0  0.00000000000E+00  0.00000000000E+00 -0.26094659863E+04  0.26094659863E+04  0.25500000920E-02 0. -1.
    10030    2    1    2    0    0  0.00000000000E+00  0.00000000000E+00 -0.10755182074E+04  0.41434137652E+04  0.40013920347E+04 0.  0.
        5    1    3    3  502    0 -0.62047160245E+02 -0.51065566583E+03  0.14642920982E+04  0.15520285106E+04  0.46999998093E+01 0.  1.
       -5    1    3    3    0  502  0.62047160245E+02  0.51065566583E+03 -0.25398103056E+04  0.25913852546E+04  0.46999998093E+01 0. -1.
</event>
<event>
 5   0  0.2746876E-08  0.4002388E+04  0.7818609E-02  0.8004065E-01
        2   -1    0    0  501    0  0.00000000000E+00  0.00000000000E+00  0.28672223289E+04  0.28672223289E+04  0.25500000920E-02 0.  1.
       -2   -1    0    0    0  501  0.00000000000E+00  0.00000000000E+00 -0.13967447374E+04  0.13967447374E+04  0.25500000920E-02 0. -1.
    10030    2    1    2    0    0  0.00000000000E+00  0.00000000000E+00  0.14704775915E+04  0.42639670664E+04  0.40023881366E+04 0.  0.
        1    1    3    3  502    0  0.16331205919E+04  0.52313738683E+03 -0.36369103973E+03  0.17530050672E+04  0.50400001928E-02 0. -1.
       -1    1    3    3    0  502 -0.16331205919E+04 -0.52313738683E+03  0.18341686312E+04  0.25109619991E+04  0.50400001928E-02 0.  1.
</event>
<event>
 5   0  0.8329875E-09  0.3989607E+04  0.7818609E-02  0.8006647E-01
       -1   -1    0    0    0  501  0.00000000000E+00  0.00000000000E+00  0.31311735282E+04  0.31311735282E+04  0.50400001928E-02 0.  1.
        1   -1    0    0  501    0  0.00000000000E+00  0.00000000000E+00 -0.12708462963E+04  0.12708462963E+04  0.50400001928E-02 0. -1.
    10030    2    1    2    0    0  0.00000000000E+00  0.00000000000E+00  0.18603272319E+04  0.44020198244E+04  0.39896066379E+04 0.  0.
        4    1    3    3  502    0 -0.32492301231E+03  0.68722919405E+03  0.29650936257E+04  0.30609868917E+04  0.12699999809E+01 0.  1.
       -4    1    3    3    0  502  0.32492301231E+03 -0.68722919405E+03 -0.11047663938E+04  0.13410329328E+04  0.12699999809E+01 0. -1.
</event>
<event>
 5   0  0.8329875E-09  0.4001409E+04  0.7818609E-02  0.8004262E-01
       -1   -1    0    0    0  501  0.00000000000E+00  0.00000000000E+00  0.17694289319E+04  0.17694289319E+04  0.50400001928E-02 0. -1.
        1   -1    0    0  501    0  0.00000000000E+00  0.00000000000E+00 -0.22622090550E+04  0.22622090550E+04  0.50400001928E-02 0.  1.
    10030    2    1    2    0    0  0.00000000000E+00  0.00000000000E+00 -0.49278012317E+03  0.40316379869E+04  0.40014088279E+04 0.  0.
        3    1    3    3  502    0 -0.58656093331E+03 -0.26629690135E+02  0.16806632712E+04  0.17802786047E+04  0.10100000352E+00 0. -1.
       -3    1    3    3    0  502  0.58656093331E+03  0.26629690135E+02 -0.21734433944E+04  0.22513593822E+04  0.10100000352E+00 0.  1.
</event>
<event>
 5   0  0.8329875E-09  0.4001252E+04  0.7818609E-02  0.8004294E-01
       -1   -1    0    0    0  501  0.00000000000E+00  0.00000000000E+00  0.34011836132E+04  0.34011836132E+04  0.50400001928E-02 0. -1.
        1   -1    0    0  501    0  0.00000000000E+00  0.00000000000E+00 -0.11767976426E+04  0.11767976426E+04  0.50400001928E-02 0.  1.
    10030    2    1    2    0    0  0.00000000000E+00  0.00000000000E+00  0.22243859706E+04  0.45779812558E+04  0.40012522330E+04 0.  0.
        3    1    3    3  502    0 -0.17914938751E+04  0.35591277445E+03  0.20461766197E+04  0.27428020302E+04  0.10100000352E+00 0.  1.
       -3    1    3    3    0  502  0.17914938751E+04 -0.35591277445E+03  0.17820935094E+03  0.18351792257E+04  0.10100000352E+00 0. -1.
</event>
<event>
 5   0  0.2612363E-08  0.4006345E+04  0.7818609E-02  0.8003268E-01
       -2   -1    0    0    0  501  0.00000000000E+00  0.00000000000E+00  0.24624638282E+04  0.24624638282E+04  0.25500000920E-02 0. -1.
        2   -1    0    0  501    0  0.00000000000E+00  0.00000000000E+00 -0.16295464366E+04  0.16295464366E+04  0.25500000920E-02 0.  1.
    10030    2    1    2    0    0  0.00000000000E+00  0.00000000000E+00  0.83291739154E+03  0.40920102648E+04  0.40063445466E+04 0.  0.
        4    1    3    3  502    0  0.62337674647E+03  0.14423623901E+04 -0.85256117727E+03  0.17876996409E+04  0.12699999809E+01 0.  1.
       -4    1    3    3    0  502 -0.62337674647E+03 -0.14423623901E+04  0.16854785688E+04  0.23043106238E+04  0.12699999809E+01 0. -1.
</event>
<event>
 5   0  0.8329875E-09  0.4004378E+04  0.7818609E-02  0.8003664E-01
        3   -1    0    0  501    0  0.00000000000E+00  0.00000000000E+00  0.16329483492E+04  0.16329483523E+04  0.10100000352E+00 0. -1.
       -3   -1    0    0    0  501  0.00000000000E+00  0.00000000000E+00 -0.24549222394E+04  0.24549222414E+04  0.10100000352E+00 0.  1.
    10030    2    1    2    0    0  0.00000000000E+00  0.00000000000E+00 -0.82197389016E+03  0.40878705938E+04  0.40043782183E+04 0.  0.
        4    1    3    3  502    0  0.13153836913E+04  0.11723036901E+04 -0.13817234576E+04  0.22391274022E+04  0.12699999809E+01 0.  1.
       -4    1    3    3    0  502 -0.13153836913E+04 -0.11723036901E+04  0.55974956747E+03  0.18487431916E+04  0.12699999809E+01 0. -1.
</event>
<event>
 5   0  0.8329875E-09  0.3996521E+04  0.7818609E-02  0.8005249E-01
        1   -1    0    0  501    0  0.00000000000E+00  0.00000000000E+00  0.28546665947E+04  0.28546665948E+04  0.50400001928E-02 0. -1.
       -1   -1    0    0    0  501  0.00000000000E+00  0.00000000000E+00 -0.13987778411E+04  0.13987778412E+04  0.50400001928E-02 0.  1.
    10030    2    1    2    0    0  0.00000000000E+00  0.00000000000E+00  0.14558887536E+04  0.42534444359E+04  0.39965206751E+04 0.  0.
        1    1    3    3  502    0  0.17188797396E+04  0.52238947349E+03  0.16591838568E+04  0.24454712004E+04  0.50400001928E-02 0. -1.
       -1    1    3    3    0  502 -0.17188797396E+04 -0.52238947349E+03 -0.20329510319E+03  0.18079732355E+04  0.50400001928E-02 0.  1.
</event>
<event>
 5   0  0.8329875E-09  0.4000598E+04  0.7818609E-02  0.8004426E-01
        1   -1    0    0  501    0  0.00000000000E+00  0.00000000000E+00  0.14197748160E+04  0.14197748160E+04  0.50400001928E-02 0. -1.
       -1   -1    0    0    0  501  0.00000000000E+00  0.00000000000E+00 -0.28181904313E+04  0.28181904314E+04  0.50400001928E-02 0.  1.
    10030    2    1    2    0    0  0.00000000000E+00  0.00000000000E+00 -0.13984156153E+04  0.42379652474E+04  0.40005978559E+04 0.  0.
        2    1    3    3  502    0  0.93714864730E+03  0.12212235839E+04  0.65390552684E+03  0.16724912756E+04  0.25500000920E-02 0. -1.
       -2    1    3    3    0  502 -0.93714864730E+03 -0.12212235839E+04 -0.20523211422E+04  0.25654739717E+04  0.25500000920E-02 0.  1.
</event>
<event>
 5   0  0.2650452E-08  0.4002385E+04  0.7818609E-02  0.8004066E-01
       -2   -1    0    0    0  501  0.00000000000E+00  0.00000000000E+00  0.16491463249E+04  0.16491463249E+04  0.25500000920E-02 0. -1.
        2   -1    0    0  501    0  0.00000000000E+00  0.00000000000E+00 -0.24283911552E+04  0.24283911552E+04  0.25500000920E-02 0.  1.
    10030    2    1    2    0    0  0.00000000000E+00  0.00000000000E+00 -0.77924483033E+03  0.40775374801E+04  0.40023854632E+04 0.  0.
        3    1    3    3  502    0 -0.60263293610E+03 -0.16065456329E+04 -0.14388225644E+04  0.22392779435E+04  0.10100000352E+00 0.  1.
       -3    1    3    3    0  502  0.60263293610E+03  0.16065456329E+04  0.65957773412E+03  0.18382595366E+04  0.10100000352E+00 0. -1.
</event>
<event>
 5   0  0.2612363E-08  0.4000210E+04  0.7818609E-02  0.8004504E-01
        2   -1    0    0  501    0  0.00000000000E+00  0.00000000000E+00  0.21550892518E+04  0.21550892518E+04  0.25500000920E-02 0. -1.
       -2   -1    0    0    0  501  0.00000000000E+00  0.00000000000E+00 -0.18562661501E+04  0.18562661501E+04  0.25500000920E-02 0.  1.
    10030    2    1    2    0    0  0.00000000000E+00  0.00000000000E+00  0.29882310168E+03  0.40113554019E+04  0.40002096088E+04 0.  0.
        4    1    3    3  502    0 -0.16917539693E+04  0.34428300463E+03 -0.86328114887E+03  0.19302378700E+04  0.12699999809E+01 0.  1.
       -4    1    3    3    0  502  0.16917539693E+04 -0.34428300463E+03  0.11621042506E+04  0.20811175320E+04  0.12699999809E+01 0. -1.
</event>
<event>
 5   0  0.2746876E-08  0.4010989E+04  0.7818609E-02  0.8002333E-01
       -2   -1    0    0    0  501  0.00000000000E+00  0.00000000000E+00  0.23297958324E+04  0.23297958324E+04  0.25500000920E-02 0. -1.
        2   -1    0    0  501    0  0.00000000000E+00  0.00000000000E+00 -0.17263349544E+04  0.17263349544E+04  0.25500000920E-02 0.  1.
    10030    2    1    2    0    0  0.00000000000E+00  0.00000000000E+00  0.60346087802E+03  0.40561307868E+04  0.40109888966E+04 0.  0.
        1    1    3    3  502    0  0.16980183922E+04  0.98004948836E+03 -0.12521127214E+03  0.19645460856E+04  0.50400001928E-02 0.  1.
       -1    1    3    3    0  502 -0.16980183922E+04 -0.98004948836E+03  0.72867215017E+03  0.20915847012E+04  0.50400001928E-02 0. -1.
</event>
<event>
 5   0  0.2650452E-08  0.3970625E+04  0.7818609E-02  0.8010499E-01
        2   -1    0    0  501    0  0.00000000000E+00  0.00000000000E+00  0.30847099374E+04  0.30847099374E+04  0.25500000920E-02 0.  1.
       -2   -1    0    0    0  501  0.00000000000E+00  0.00000000000E+00 -0.12777429854E+04  0.12777429854E+04  0.25500000920E-02 0. -1.
    10030    2    1    2    0    0  0.00000000000E+00  0.00000000000E+00  0.18069669521E+04  0.43624529228E+04  0.39706253837E+04 0.  0.
        3    1    3    3  502    0  0.18826803486E+04 -0.32802243385E+02  0.21218207470E+03  0.18948832485E+04  0.10100000352E+00 0. -1.
       -3    1    3    3    0  502 -0.18826803486E+04  0.32802243385E+02  0.15947848774E+04  0.24675696743E+04  0.10100000352E+00 0.  1.
</event>
<event>
 5   0  0.8329875E-09  0.3989643E+04  0.7818609E-02  0.8006639E-01
        1   -1    0    0  501    0  0.00000000000E+00  0.00000000000E+00  0.20623175336E+04  0.20623175336E+04  0.50400001928E-02 0. -1.
       -1   -1    0    0    0  501  0.00000000000E+00  0.00000000000E+00 -0.19295341749E+04  0.19295341749E+04  0.50400001928E-02 0.  1.
    10030    2    1    2    0    0  0.00000000000E+00  0.00000000000E+00  0.13278335873E+03  0.39918517084E+04  0.39896426710E+04 0.  0.
        5    1    3    3  502    0  0.13735780805E+04  0.13779677131E+04  0.50683799346E+03  0.20105766843E+04  0.46999998093E+01 0.  1.
       -5    1    3    3    0  502 -0.13735780805E+04 -0.13779677131E+04 -0.37405463473E+03  0.19812750242E+04  0.46999998093E+01 0. -1.
</event>
<event>
 5   0  0.8329875E-09  0.3994709E+04  0.7818609E-02  0.8005615E-01
        1   -1    0    0  501    0  0.00000000000E+00  0.00000000000E+00  0.13288299617E+04  0.13288299618E+04  0.50400001928E-02 0. -1.
       -1   -1    0    0    0  501  0.00000000000E+00  0.00000000000E+00 -0.30022085753E+04  0.30022085753E+04  0.50400001928E-02 0.  1.
    10030    2    1    2    0    0  0.00000000000E+00  0.00000000000E+00 -0.16733786136E+04  0.43310385371E+04  0.39947088536E+04 0.  0.
        4    1    3    3  502    0 -0.17794505330E+04  0.76753089148E+03 -0.31236616681E+03  0.19629371115E+04  0.12699999809E+01 0. -1.
       -4    1    3    3    0  502  0.17794505330E+04 -0.76753089148E+03 -0.13610124468E+04  0.23681014256E+04  0.12699999809E+01 0.  1.
</event>
<event>
 5   0  0.8329875E-09  0.3905177E+04  0.7818609E-02  0.8023953E-01
        1   -1    0    0  501    0  0.00000000000E+00  0.00000000000E+00  0.26083898679E+04  0.26083898679E+04  0.50400001928E-02 0. -1.
       -1   -1    0    0    0  501  0.00000000000E+00  0.00000000000E+00 -0.14616683370E+04  0.14616683370E+04  0.50400001928E-02 0.  1.
    10030    2    1    2    0    0  0.00000000000E+00  0.00000000000E+00  0.11467215309E+04  0.40700582049E+04  0.39051765033E+04 0.  0.
        5    1    3    3  502    0 -0.79505080699E+03  0.25335560682E+03  0.24131940154E+04  0.25533942694E+04  0.46999998093E+01 0. -1.
       -5    1    3    3    0  502  0.79505080699E+03 -0.25335560682E+03 -0.12664724845E+04  0.15166639355E+04  0.46999998093E+01 0.  1.
</event>
<event>
 5   0  0.8329875E-09  0.4001002E+04  0.7818609E-02  0.8004345E-01
        1   -1    0    0  501    0  0.00000000000E+00  0.00000000000E+00  0.22327684680E+04  0.22327684680E+04  0.50400001928E-02 0.  1.
       -1   -1    0    0    0  501  0.00000000000E+00  0.00000000000E+00 -0.17923952600E+04  0.17923952600E+04  0.50400001928E-02 0. -1.
    10030    2    1    2    0    0  0.00000000000E+00  0.00000000000E+00  0.44037320798E+03  0.40251637280E+04  0.40010016839E+04 0.  0.
        3    1    3    3  502    0 -0.16679608740E+04 -0.26289348705E+03  0.12994170890E+04  0.21306551209E+04  0.10100000352E+00 0.  1.
       -3    1    3    3    0  502  0.16679608740E+04  0.26289348705E+03 -0.85904388098E+03  0.18945086071E+04  0.10100000352E+00 0. -1.
</event>
<event>
 5   0  0.2612363E-08  0.4027338E+04  0.7818609E-02  0.7999054E-01
        2   -1    0    0  501    0  0.00000000000E+00  0.00000000000E+00  0.21564538057E+04  0.21564538057E+04  0.25500000920E-02 0.  1.
       -2   -1    0    0    0  501  0.00000000000E+00  0.00000000000E+00 -0.18803388403E+04  0.18803388403E+04  0.25500000920E-02 0. -1.
    10030    2    1    2    0    0  0.00000000000E+00  0.00000000000E+00  0.27611496540E+03  0.40367926461E+04  0.40273384999E+04 0.  0.
        4    1    3    3  502    0  0.52678152949E+03 -0.19432177487E+04  0.17375339166E+03  0.20208379086E+04  0.12699999809E+01 0. -1.
       -4    1    3    3    0  502 -0.52678152949E+03  0.19432177487E+04  0.10236157374E+03  0.20159547375E+04  0.12699999809E+01 0.  1.
</event>
<event>
 5   0  0.2746876E-08  0.4001517E+04  0.7818609E-02  0.8004241E-01
       -2   -1    0    0    0  501  0.00000000000E+00  0.00000000000E+00  0.14258160125E+04  0.14258160125E+04  0.25500000920E-02 0.  1.
        2   -1    0    0  501    0  0.00000000000E+00  0.00000000000E+00 -0.28075392837E+04  0.28075392837E+04  0.25500000920E-02 0. -1.
    10030    2    1    2    0    0  0.00000000000E+00  0.00000000000E+00 -0.13817232712E+04  0.42333552962E+04  0.40015169456E+04 0.  0.
        1    1    3    3  502    0 -0.70766562362E+03 -0.68589109563E+02 -0.26693858265E+04  0.27624474278E+04  0.50400001928E-02 0. -1.
       -1    1    3    3    0  502  0.70766562362E+03  0.68589109563E+02  0.12876625553E+04  0.14709078683E+04  0.50400001928E-02 0.  1.
</event>
<event>
 5   0  0.2599332E-08  0.4000366E+04  0.7818609E-02  0.8004473E-01
        2   -1    0    0  501    0  0.00000000000E+00  0.00000000000E+00  0.14308049302E+04  0.14308049302E+04  0.25500000920E-02 0.  1.
       -2   -1    0    0    0  501  0.00000000000E+00  0.00000000000E+00 -0.27961410997E+04  0.27961410997E+04  0.25500000920E-02 0. -1.
    10030    2    1    2    0    0  0.00000000000E+00  0.00000000000E+00 -0.13653361695E+04  0.42269460299E+04  0.40003662187E+04 0.  0.
        2    1    3    3  502    0 -0.19501667692E+04 -0.11069561060E+03 -0.11375493878E+04  0.22604031842E+04  0.25500000920E-02 0. -1.
       -2    1    3    3    0  502  0.19501667692E+04  0.11069561060E+03 -0.22778678179E+03  0.19665428456E+04  0.25500000920E-02 0.  1.
</event>
<event>
 5   0  0.8329875E-09  0.4001217E+04  0.7818609E-02  0.8004301E-01
        1   -1    0    0  501    0  0.00000000000E+00  0.00000000000E+00  0.26381297322E+04  0.26381297322E+04  0.50400001928E-02 0.  1.
       -1   -1    0    0    0  501  0.00000000000E+00  0.00000000000E+00 -0.15171483850E+04  0.15171483850E+04  0.50400001928E-02 0. -1.
    10030    2    1    2    0    0  0.00000000000E+00  0.00000000000E+00  0.11209813472E+04  0.41552781172E+04  0.40012169462E+04 0.  0.
        3    1    3    3  502    0  0.79329938149E+03 -0.13273995060E+04  0.18786626135E+04  0.24332460999E+04  0.10100000352E+00 0.  1.
       -3    1    3    3    0  502 -0.79329938149E+03  0.13273995060E+04 -0.75768126622E+03  0.17220320173E+04  0.10100000352E+00 0. -1.
</event>
<event>
 5   0  0.2650452E-08  0.3973041E+04  0.7818609E-02  0.8010007E-01
       -2   -1    0    0    0  501  0.00000000000E+00  0.00000000000E+00  0.17076100787E+04  0.17076100787E+04  0.25500000920E-02 0. -1.
        2   -1    0    0  501    0  0.00000000000E+00  0.00000000000E+00 -0.23109865369E+04  0.23109865369E+04  0.25500000920E-02 0.  1.
    10030    2    1    2    0    0  0.00000000000E+00  0.00000000000E+00 -0.60337645815E+03  0.40185966156E+04  0.39730411033E+04 0.  0.
        3    1    3    3  502    0  0.22904879841E+03 -0.90211366523E+03  0.14734252153E+04  0.17427720138E+04  0.10100000352E+00 0. -1.
       -3    1    3    3    0  502 -0.22904879841E+03  0.90211366523E+03 -0.20768016734E+04  0.22758246018E+04  0.10100000352E+00 0.  1.
</event>
<event>
 5   0  0.2587493E-08  0.3992910E+04  0.7818609E-02  0.8005978E-01
        2   -1    0    0  501    0  0.00000000000E+00  0.00000000000E+00  0.23966108301E+04  0.23966108301E+04  0.25500000920E-02 0.  1.
       -2   -1    0    0    0  501  0.00000000000E+00  0.00000000000E+00 -0.16631119322E+04  0.16631119322E+04  0.25500000920E-02 0. -1.
    10030    2    1    2    0    0  0.00000000000E+00  0.00000000000E+00  0.73349889785E+03  0.40597227623E+04  0.39929097503E+04 0.  0.
        5    1    3    3  502    0 -0.18695650918E+04 -0.17594240832E+01 -0.34535075158E+03  0.19012011886E+04  0.46999998093E+01 0.  1.
       -5    1    3    3    0  502  0.18695650918E+04  0.17594240832E+01  0.10788496494E+04  0.21585215737E+04  0.46999998093E+01 0. -1.
</event>
<event>
 5   0  0.2746876E-08  0.4000675E+04  0.7818609E-02  0.8004410E-01
       -2   -1    0    0    0  501  0.00000000000E+00  0.00000000000E+00  0.19430636288E+04  0.19430636288E+04  0.25500000920E-02 0. -1.
        2   -1    0    0  501    0  0.00000000000E+00  0.00000000000E+00 -0.20592996447E+04  0.20592996447E+04  0.25500000920E-02 0.  1.
    10030    2    1    2    0    0  0.00000000000E+00  0.00000000000E+00 -0.11623601591E+03  0.40023632735E+04  0.40006750633E+04 0.  0.
        1    1    3    3  502    0  0.88570039768E+03 -0.16383303437E+04  0.67209323152E+03  0.19799749547E+04  0.50400001928E-02 0. -1.
       -1    1    3    3    0  502 -0.88570039768E+03  0.16383303437E+04 -0.78832924744E+03  0.20223883188E+04  0.50400001928E-02 0.  1.
</event>
<event>
 5   0  0.8329875E-09  0.4002717E+04  0.7818609E-02  0.8003999E-01
       -1   -1    0    0    0  501  0.00000000000E+00  0.00000000000E+00  0.29018753305E+04  0.29018753305E+04  0.50400001928E-02 0. -1.
        1   -1    0    0  501    0  0.00000000000E+00  0.00000000000E+00 -0.13802921206E+04  0.13802921206E+04  0.50400001928E-02 0.  1.
    10030    2    1    2    0    0  0.00000000000E+00  0.00000000000E+00  0.15215832100E+04  0.42821674511E+04  0.40027169042E+04 0.  0.
        3    1    3    3  502    0 -0.60148590162E+03  0.15056470064E+04  0.20160261113E+04  0.25871063931E+04  0.10100000352E+00 0. -1.
       -3    1    3    3    0  502  0.60148590162E+03 -0.15056470064E+04 -0.49444290130E+03  0.16950610581E+04  0.10100000352E+00 0.  1.
</event>
<event>
 5   0  0.8329875E-09  0.3971205E+04  0.7818609E-02  0.8010381E-01
       -1   -1    0    0    0  501  0.00000000000E+00  0.00000000000E+00  0.19681421589E+04  0.19681421589E+04  0.50400001928E-02 0. -1.
        1   -1    0    0  501    0  0.00000000000E+00  0.00000000000E+00 -0.20032177739E+04  0.20032177739E+04  0.50400001928E-02 0.  1.
    10030    2    1    2    0    0  0.00000000000E+00  0.00000000000E+00 -0.35075615036E+02  0.39713599328E+04  0.39712050334E+04 0.  0.
        4    1    3    3  502    0  0.11192804393E+04  0.11346091195E+04  0.11667757479E+04  0.19752199408E+04  0.12699999809E+01 0. -1.
       -4    1    3    3    0  502 -0.11192804393E+04 -0.11346091195E+04 -0.12018513630E+04  0.19961399919E+04  0.12699999809E+01 0.  1.
</event>
<event>
 5   0  0.8329875E-09  0.4004534E+04  0.7818609E-02  0.8003633E-01
       -1   -1    0    0    0  501  0.00000000000E+00  0.00000000000E+00  0.19802139184E+04  0.19802139185E+04  0.50400001928E-02 0. -1.
        1   -1    0    0  501    0  0.00000000000E+00  0.00000000000E+00 -0.20245657841E+04  0.20245657841E+04  0.50400001928E-02 0.  1.
    10030    2    1    2    0    0  0.00000000000E+00  0.00000000000E+00 -0.44351865668E+02  0.40047797026E+04  0.40045341025E+04 0.  0.
        5    1    3    3  502    0 -0.18547138231E+04 -0.40057284443E+03  0.61710445150E+03  0.19953099918E+04  0.46999998093E+01 0. -1.
       -5    1    3    3    0  502  0.18547138231E+04  0.40057284443E+03 -0.66145631716E+03  0.20094697108E+04  0.46999998093E+01 0.  1.
</event>
<event>
 5   0  0.2612363E-08  0.4005880E+04  0.7818609E-02  0.8003361E-01
       -2   -1    0    0    0  501  0.00000000000E+00  0.00000000000E+00  0.28026896875E+04  0.28026896875E+04  0.25500000920E-02 0.  1.
        2   -1    0    0  501    0  0.00000000000E+00  0.00000000000E+00 -0.14313997693E+04  0.14313997693E+04  0.25500000920E-02 0. -1.
    10030    2    1    2    0    0  0.00000000000E+00  0.00000000000E+00  0.13712899182E+04  0.42340894568E+04  0.40058803637E+04 0.  0.
        4    1    3    3  502    0 -0.51600903929E+03 -0.12056678344E+04 -0.91449071609E+03  0.15988105386E+04  0.12699999809E+01 0. -1.
       -4    1    3    3    0  502  0.51600903929E+03  0.12056678344E+04  0.22857806343E+04  0.26352789182E+04  0.12699999809E+01 0.  1.
</event>
<event>
 5   0  0.2587493E-08  0.3999016E+04  0.7818609E-02  0.8004745E-01
       -2   -1    0    0    0  501  0.00000000000E+00  0.00000000000E+00  0.22558849898E+04  0.22558849898E+04  0.25500000920E-02 0. -1.
        2   -1    0    0  501    0  0.00000000000E+00  0.00000000000E+00 -0.17722676001E+04  0.17722676001E+04  0.25500000920E-02 0.  1.
    10030    2    1    2    0    0  0.00000000000E+00  0.00000000000E+00  0.48361738968E+03  0.40281525898E+04  0.39990158173E+04 0.  0.
        5    1    3    3  502    0 -0.28481645484E+03 -0.18140047202E+04 -0.55533343497E+03  0.19183719274E+04  0.46999998093E+01 0. -1.
       -5    1    3    3    0  502  0.28481645484E+03  0.18140047202E+04  0.10389508246E+04  0.21097806625E+04  0.46999998093E+01 0.  1.
</event>
<event>
 5   0  0.2599332E-08  0.3999424E+04  0.7818609E-02  0.8004663E-01
       -2   -1    0    0    0  501  0.00000000000E+00  0.00000000000E+00  0.19057213816E+04  0.19057213816E+04  0.25500000920E-02 0.  1.
        2   -1    0    0  501    0  0.00000000000E+00  0.00000000000E+00 -0.20983382589E+04  0.20983382589E+04  0.25500000920E-02 0. -1.
    10030    2    1    2    0    0  0.00000000000E+00  0.00000000000E+00 -0.19261687727E+03  0.40040596405E+04  0.39994240014E+04 0.  0.
        2    1    3    3  502    0 -0.15899288448E+04 -0.53058434188E+03 -0.11881937562E+04  0.20545553965E+04  0.25500000920E-02 0. -1.
       -2    1    3    3    0  502  0.15899288448E+04  0.53058434188E+03  0.99557687888E+03  0.19495042439E+04  0.25500000920E-02 0.  1.
</event>
<event>
 5   0  0.2650452E-08  0.4022524E+04  0.7818609E-02  0.8000018E-01
        2   -1    0    0  501    0  0.00000000000E+00  0.00000000000E+00  0.26466130783E+04  0.26466130783E+04  0.25500000920E-02 0.  1.
       -2   -1    0    0    0  501  0.00000000000E+00  0.00000000000E+00 -0.15284343185E+04  0.15284343185E+04  0.25500000920E-02 0. -1.
    10030    2    1    2    0    0  0.00000000000E+00  0.00000000000E+00  0.11181787599E+04  0.41750473968E+04  0.40225237136E+04 0.  0.
        3    1    3    3  502    0  0.14444986902E+03  0.19512063842E+03 -0.15131709985E+04  0.15325222051E+04  0.10100000352E+00 0. -1.
       -3    1    3    3    0  502 -0.14444986902E+03 -0.19512063842E+03  0.26313497583E+04  0.26425251918E+04  0.10100000352E+00 0.  1.
</event>
<event>
 5   0  0.2599332E-08  0.3980701E+04  0.7818609E-02  0.8008451E-01
       -2   -1    0    0    0  501  0.00000000000E+00  0.00000000000E+00  0.25472399091E+04  0.25472399091E+04  0.25500000920E-02 0. -1.
        2   -1    0    0  501    0  0.00000000000E+00  0.00000000000E+00 -0.15552110963E+04  0.15552110963E+04  0.25500000920E-02 0.  1.
    10030    2    1    2    0    0  0.00000000000E+00  0.00000000000E+00  0.99202881279E+03  0.41024510054E+04  0.39807013310E+04 0.  0.
        2    1    3    3  502    0 -0.91341590984E+03 -0.24761023107E+03 -0.13084973179E+04  0.16148698653E+04  0.25500000920E-02 0.  1.
       -2    1    3    3    0  502  0.91341590984E+03  0.24761023107E+03  0.23005261307E+04  0.24875811401E+04  0.25500000920E-02 0. -1.
</event>
<event>
 5   0  0.2650452E-08  0.3970203E+04  0.7818609E-02  0.8010585E-01
       -2   -1    0    0    0  501  0.00000000000E+00  0.00000000000E+00  0.20319029870E+04  0.20319029870E+04  0.25500000920E-02 0.  1.
        2   -1    0    0  501    0  0.00000000000E+00  0.00000000000E+00 -0.19393781604E+04  0.19393781604E+04  0.25500000920E-02 0. -1.
    10030    2    1    2    0    0  0.00000000000E+00  0.00000000000E+00  0.92524826595E+02  0.39712811474E+04  0.39702031570E+04 0.  0.
        3    1    3    3  502    0  0.97627941912E+03  0.63401003038E+03 -0.15621350147E+04  0.19481673535E+04  0.10100000352E+00 0. -1.
       -3    1    3    3    0  502 -0.97627941912E+03 -0.63401003038E+03  0.16546598413E+04  0.20231137940E+04  0.10100000352E+00 0.  1.
</event>
<event>
 5   0  0.2650452E-08  0.4000679E+04  0.7818609E-02  0.8004410E-01
        2   -1    0    0  501    0  0.00000000000E+00  0.00000000000E+00  0.23613156659E+04  0.23613156659E+04  0.25500000920E-02 0. -1.
       -2   -1    0    0    0  501  0.00000000000E+00  0.00000000000E+00 -0.16945462020E+04  0.16945462020E+04  0.25500000920E-02 0.  1.
    10030    2    1    2    0    0  0.00000000000E+00  0.00000000000E+00  0.66676946388E+03  0.40558618679E+04  0.40006791890E+04 0.  0.
        3    1    3    3  502    0 -0.33889575787E+03 -0.94191107342E+03  0.20891248301E+04  0.23165684473E+04  0.10100000352E+00 0. -1.
       -3    1    3    3    0  502  0.33889575787E+03  0.94191107342E+03 -0.14223553662E+04  0.17392934206E+04  0.10100000352E+00 0.  1.
</event>
<event>
 5   0  0.2612363E-08  0.3999224E+04  0.7818609E-02  0.8004703E-01
        2   -1    0    0  501    0  0.00000000000E+00  0.00000000000E+00  0.20113522602E+04  0.20113522602E+04  0.25500000920E-02 0.  1.
       -2   -1    0    0    0  501  0.00000000000E+00  0.00000000000E+00 -0.19879406073E+04  0.19879406073E+04  0.25500000920E-02 0. -1.
    10030    2    1    2    0    0  0.00000000000E+00  0.00000000000E+00  0.23411652969E+02  0.39992928675E+04  0.39992243416E+04 0.  0.
        4    1    3    3  502    0 -0.15836445560E+04 -0.10346367904E+04  0.65982483410E+03  0.20034404888E+04  0.12699999809E+01 0.  1.
       -4    1    3    3    0  502  0.15836445560E+04  0.10346367904E+04 -0.63641318113E+03  0.19958523787E+04  0.12699999809E+01 0. -1.
</event>
<event>
 5   0  0.8329875E-09  0.3997785E+04  0.7818609E-02  0.8004994E-01
        1   -1    0    0  501    0  0.00000000000E+00  0.00000000000E+00  0.25537022647E+04  0.25537022647E+04  0.50400001928E-02 0. -1.
       -1   -1    0    0    0  501  0.00000000000E+00  0.00000000000E+00 -0.15646190483E+04  0.15646190483E+04  0.50400001928E-02 0.  1.
    10030    2    1    2    0    0  0.00000000000E+00  0.00000000000E+00  0.98908321648E+03  0.41183213130E+04  0.39977849902E+04 0.  0.
        5    1    3    3  502    0  0.43446231516E+02  0.13100285145E+04  0.20491776495E+04  0.24325323046E+04  0.46999998093E+01 0. -1.
       -5    1    3    3    0  502 -0.43446231516E+02 -0.13100285145E+04 -0.10600944330E+04  0.16857890084E+04  0.46999998093E+01 0.  1.
</event>
<event>
 5   0  0.8329875E-09  0.3978299E+04  0.7818609E-02  0.8008939E-01
       -1   -1    0    0    0  501  0.00000000000E+00  0.00000000000E+00  0.15803474568E+04  0.15803474568E+04  0.50400001928E-02 0. -1.
        1   -1    0    0  501    0  0.00000000000E+00  0.00000000000E+00 -0.25037002190E+04  0.25037002190E+04  0.50400001928E-02 0.  1.
    10030    2    1    2    0    0  0.00000000000E+00  0.00000000000E+00 -0.92335276219E+03  0.40840476758E+04  0.39782992716E+04 0.  0.
        2    1    3    3  502    0  0.51078070693E+03 -0.67497607454E+03  0.13862346044E+04  0.16242339764E+04  0.25500000920E-02 0. -1.
       -2    1    3    3    0  502 -0.51078070693E+03  0.67497607454E+03 -0.23095873665E+04  0.24598136993E+04  0.25500000920E-02 0.  1.
</event>
<event>
 5   0  0.8329875E-09  0.3896715E+04  0.7818609E-02  0.8025713E-01
        1   -1    0    0  501    0  0.00000000000E+00  0.00000000000E+00  0.26342883703E+04  0.26342883703E+04  0.50400001928E-02 0.  1.
       -1   -1    0    0    0  501  0.00000000000E+00  0.00000000000E+00 -0.14410333653E+04  0.14410333653E+04  0.50400001928E-02 0. -1.
    10030    2    1    2    0    0  0.00000000000E+00  0.00000000000E+00  0.11932550050E+04  0.40753217356E+04  0.38967152503E+04 0.  0.
        2    1    3    3  502    0  0.33111114289E+02 -0.25272590175E+03 -0.14235217694E+04  0.14461607640E+04  0.25500000920E-02 0. -1.
       -2    1    3    3    0  502 -0.33111114289E+02  0.25272590175E+03  0.26167767744E+04  0.26291609716E+04  0.25500000920E-02 0.  1.
</event>
<event>
 5   0  0.8329875E-09  0.4013471E+04  0.7818609E-02  0.8001834E-01
       -1   -1    0    0    0  501  0.00000000000E+00  0.00000000000E+00  0.26384430578E+04  0.26384430578E+04  0.50400001928E-02 0.  1.
        1   -1    0    0  501    0  0.00000000000E+00  0.00000000000E+00 -0.15262742613E+04  0.15262742613E+04  0.50400001928E-02 0. -1.
    10030    2    1    2    0    0  0.00000000000E+00  0.00000000000E+00  0.11121687965E+04  0.41647173191E+04  0.40134711804E+04 0.  0.
        3    1    3    3  502    0 -0.17964263990E+04 -0.75533564620E+03  0.10529912192E+04  0.22150553635E+04  0.10100000352E+00 0.  1.
       -3    1    3    3    0  502  0.17964263990E+04  0.75533564620E+03  0.59177577294E+02  0.19496619556E+04  0.10100000352E+00 0. -1.
</event>
<event>
 5   0  0.2746876E-08  0.4001844E+04  0.7818609E-02  0.8004175E-01
        2   -1    0    0  501    0  0.00000000000E+00  0.00000000000E+00  0.22487762162E+04  0.22487762162E+04  0.25500000920E-02 0.  1.
       -2   -1    0    0    0  501  0.00000000000E+00  0.00000000000E+00 -0.17803859269E+04  0.17803859269E+04  0.25500000920E-02 0. -1.
    10030    2    1    2    0    0  0.00000000000E+00  0.00000000000E+00  0.46839028927E+03  0.40291621431E+04  0.40018443388E+04 0.  0.
        1    1    3    3  502    0 -0.64409221547E+03  0.13205048309E+04 -0.11334225525E+04  0.18555954497E+04  0.50400001928E-02 0. -1.
       -1    1    3    3    0  502  0.64409221547E+03 -0.13205048309E+04  0.16018128417E+04  0.21735666934E+04  0.50400001928E-02 0.  1.
</event>
<event>
 5   0  0.8329875E-09  0.4007585E+04  0.7818609E-02  0.8003018E-01
       -1   -1    0    0    0  501  0.00000000000E+00  0.00000000000E+00  0.12313501314E+04  0.12313501314E+04  0.50400001928E-02 0.  1.
        1   -1    0    0  501    0  0.00000000000E+00  0.00000000000E+00 -0.32607976674E+04  0.32607976674E+04  0.50400001928E-02 0. -1.
    10030    2    1    2    0    0  0.00000000000E+00  0.00000000000E+00 -0.20294475360E+04  0.44921477988E+04  0.40075846273E+04 0.  0.
        3    1    3    3  502    0  0.87127131629E+03 -0.13037458354E+04 -0.24130880612E+04  0.28778222515E+04  0.10100000352E+00 0. -1.
       -3    1    3    3    0  502 -0.87127131629E+03  0.13037458354E+04  0.38364052522E+03  0.16143255473E+04  0.10100000352E+00 0.  1.
</event>
<event>
 5   0  0.2650452E-08  0.3982335E+04  0.7818609E-02  0.8008120E-01
        2   -1    0    0  501    0  0.00000000000E+00  0.00000000000E+00  0.28582667280E+04  0.28582667280E+04  0.25500000920E-02 0. -1.
       -2   -1    0    0    0  501  0.00000000000E+00  0.00000000000E+00 -0.13871159140E+04  0.13871159140E+04  0.25500000920E-02 0.  1.
    10030    2    1    2    0    0  0.00000000000E+00  0.00000000000E+00  0.14711508139E+04  0.42453826420E+04  0.39823346242E+04 0.  0.
        3    1    3    3  502    0 -0.45086096474E+03  0.18946215669E+04  0.11775453414E+04  0.22758469924E+04  0.10100000352E+00 0.  1.
       -3    1    3    3    0  502  0.45086096474E+03 -0.18946215669E+04  0.29360547251E+03  0.19695356496E+04  0.10100000352E+00 0. -1.
</event>
<event>
 5   0  0.8329875E-09  0.4002036E+04  0.7818609E-02  0.8004136E-01
        1   -1    0    0  501    0  0.00000000000E+00  0.00000000000E+00  0.19696125104E+04  0.19696125104E+04  0.50400001928E-02 0. -1.
       -1   -1    0    0    0  501  0.00000000000E+00  0.00000000000E+00 -0.20329239644E+04  0.20329239644E+04  0.50400001928E-02 0.  1.
    10030    2    1    2    0    0  0.00000000000E+00  0.00000000000E+00 -0.63311454009E+02  0.40025364748E+04  0.40020357184E+04 0.  0.
        1    1    3    3  502    0  0.14794468234E+04  0.13084885421E+04  0.28958113891E+03  0.19961869662E+04  0.50400001928E-02 0. -1.
       -1    1    3    3    0  502 -0.14794468234E+04 -0.13084885421E+04 -0.35289259292E+03  0.20063495085E+04  0.50400001928E-02 0.  1.
</event>
<event>
 5   0  0.2612363E-08  0.3997747E+04  0.7818609E-02  0.8005001E-01
       -2   -1    0    0    0  501  0.00000000000E+00  0.00000000000E+00  0.20922298438E+04  0.20922298438E+04  0.25500000920E-02 0. -1.
        2   -1    0    0  501    0  0.00000000000E+00  0.00000000000E+00 -0.19096830985E+04  0.19096830985E+04  0.25500000920E-02 0.  1.
    10030    2    1    2    0    0  0.00000000000E+00  0.00000000000E+00  0.18254674537E+03  0.40019129423E+04  0.39977473512E+04 0.  0.
        4    1    3    3  502    0 -0.71347253635E+03  0.20043882589E+03  0.19496224381E+04  0.20857248253E+04  0.12699999809E+01 0. -1.
       -4    1    3    3    0  502  0.71347253635E+03 -0.20043882589E+03 -0.17670756927E+04  0.19161881170E+04  0.12699999809E+01 0.  1.
</event>
<event>
 5   0  0.2612363E-08  0.3995539E+04  0.7818609E-02  0.8005447E-01
       -2   -1    0    0    0  501  0.00000000000E+00  0.00000000000E+00  0.21931511502E+04  0.21931511502E+04  0.25500000920E-02 0. -1.
        2   -1    0    0  501    0  0.00000000000E+00  0.00000000000E+00 -0.18197940239E+04  0.18197940239E+04  0.25500000920E-02 0.  1.
    10030    2    1    2    0    0  0.00000000000E+00  0.00000000000E+00  0.37335712627E+03  0.40129451742E+04  0.39955391910E+04 0.  0.
        4    1    3    3  502    0  0.88556944419E+03 -0.17560256581E+04  0.53923824683E+03  0.20392740993E+04  0.12699999809E+01 0. -1.
       -4    1    3    3    0  502 -0.88556944419E+03  0.17560256581E+04 -0.16588112056E+03  0.19736710748E+04  0.12699999809E+01 0.  1.
</event>
<event>
 5   0  0.8329875E-09  0.4054605E+04  0.7818609E-02  0.7993621E-01
       -1   -1    0    0    0  501  0.00000000000E+00  0.00000000000E+00  0.15994984247E+04  0.15994984247E+04  0.50400001928E-02 0. -1.
        1   -1    0    0  501    0  0.00000000000E+00  0.00000000000E+00 -0.25695274301E+04  0.25695274301E+04  0.50400001928E-02 0.  1.
    10030    2    1    2    0    0  0.00000000000E+00  0.00000000000E+00 -0.97002900542E+03  0.41690258549E+04  0.40546048275E+04 0.  0.
        5    1    3    3  502    0 -0.78725736250E+03  0.74055582158E+03  0.12785359801E+04  0.16741784320E+04  0.46999998093E+01 0. -1.
       -5    1    3    3    0  502  0.78725736250E+03 -0.74055582158E+03 -0.22485649855E+04  0.24948474229E+04  0.46999998093E+01 0.  1.
</event>
<event>
 5   0  0.8329875E-09  0.4008124E+04  0.7818609E-02  0.8002910E-01
       -1   -1    0    0    0  501  0.00000000000E+00  0.00000000000E+00  0.19325026289E+04  0.19325026289E+04  0.50400001928E-02 0. -1.
        1   -1    0    0  501    0  0.00000000000E+00  0.00000000000E+00 -0.20782709755E+04  0.20782709755E+04  0.50400001928E-02 0.  1.
    10030    2    1    2    0    0  0.00000000000E+00  0.00000000000E+00 -0.14576834661E+03  0.40107736044E+04  0.40081238123E+04 0.  0.
        3    1    3    3  502    0  0.49704480225E+03  0.27357075576E+03 -0.19962291682E+04  0.20752892319E+04  0.10100000352E+00 0.  1.
       -3    1    3    3    0  502 -0.49704480225E+03 -0.27357075576E+03  0.18504608216E+04  0.19354843725E+04  0.10100000352E+00 0. -1.
</event>
<event>
 5   0  0.8329875E-09  0.3998177E+04  0.7818609E-02  0.8004914E-01
       -1   -1    0    0    0  501  0.00000000000E+00  0.00000000000E+00  0.29094939956E+04  0.29094939956E+04  0.50400001928E-02 0.  1.
        1   -1    0    0  501    0  0.00000000000E+00  0.00000000000E+00 -0.13735569712E+04  0.13735569712E+04  0.50400001928E-02 0. -1.
    10030    2    1    2    0    0  0.00000000000E+00  0.00000000000E+00  0.15359370244E+04  0.42830509668E+04  0.39981774650E+04 0.  0.
        2    1    3    3  502    0  0.16118762907E+04  0.68442893659E+02 -0.49661855910E+03  0.16880342412E+04  0.25500000920E-02 0. -1.
       -2    1    3    3    0  502 -0.16118762907E+04 -0.68442893659E+02  0.20325555835E+04  0.25950167256E+04  0.25500000920E-02 0.  1.
</event>
<event>
 5   0  0.2612363E-08  0.4003960E+04  0.7818609E-02  0.8003748E-01
       -2   -1    0    0    0  501  0.00000000000E+00  0.00000000000E+00  0.26240772225E+04  0.26240772225E+04  0.25500000920E-02 0. -1.
        2   -1    0    0  501    0  0.00000000000E+00  0.00000000000E+00 -0.15273652872E+04  0.15273652872E+04  0.25500000920E-02 0.  1.
    10030    2    1    2    0    0  0.00000000000E+00  0.00000000000E+00  0.10967119353E+04  0.41514425097E+04  0.40039602698E+04 0.  0.
        4    1    3    3  502    0  0.58705127879E+02 -0.17114702664E+04  0.16235414640E+04  0.23597595774E+04  0.12699999809E+01 0. -1.
       -4    1    3    3    0  502 -0.58705127879E+02  0.17114702664E+04 -0.52682952869E+03  0.17916829323E+04  0.12699999809E+01 0.  1.
</event>
<event>
 5   0  0.8329875E-09  0.4002794E+04  0.7818609E-02  0.8003983E-01
       -1   -1    0    0    0  501  0.00000000000E+00  0.00000000000E+00  0.19882621379E+04  0.19882621379E+04  0.50400001928E-02 0.  1.
        1   -1    0    0  501    0  0.00000000000E+00  0.00000000000E+00 -0.20146185330E+04  0.20146185330E+04  0.50400001928E-02 0. -1.
    10030    2    1    2    0    0  0.00000000000E+00  0.00000000000E+00 -0.26356395110E+02  0.40028806709E+04  0.40027939000E+04 0.  0.
        3    1    3    3  502    0 -0.16688376307E+02 -0.19542693671E+04  0.41827348025E+03  0.19985995036E+04  0.10100000352E+00 0.  1.
       -3    1    3    3    0  502  0.16688376307E+02  0.19542693671E+04 -0.44462987536E+03  0.20042811673E+04  0.10100000352E+00 0. -1.
</event>
<event>
 5   0  0.2599332E-08  0.4001458E+04  0.7818609E-02  0.8004252E-01
       -2   -1    0    0    0  501  0.00000000000E+00  0.00000000000E+00  0.12551063366E+04  0.12551063366E+04  0.25500000920E-02 0. -1.
        2   -1    0    0  501    0  0.00000000000E+00  0.00000000000E+00 -0.31893054394E+04  0.31893054394E+04  0.25500000920E-02 0.  1.
    10030    2    1    2    0    0  0.00000000000E+00  0.00000000000E+00 -0.19341991028E+04  0.44444117760E+04  0.40014584673E+04 0.  0.
        2    1    3    3  502    0  0.36073929553E+03 -0.14524388801E+04 -0.24419483357E+04  0.28640571248E+04  0.25500000920E-02 0.  1.
       -2    1    3    3    0  502 -0.36073929553E+03  0.14524388801E+04  0.50774923298E+03  0.15803546512E+04  0.25500000920E-02 0. -1.
</event>
<event>
 5   0  0.2612363E-08  0.4002084E+04  0.7818609E-02  0.8004126E-01
       -2   -1    0    0    0  501  0.00000000000E+00  0.00000000000E+00  0.23491766680E+04  0.23491766680E+04  0.25500000920E-02 0. -1.
        2   -1    0    0  501    0  0.00000000000E+00  0.00000000000E+00 -0.17044988021E+04  0.17044988021E+04  0.25500000920E-02 0.  1.
    10030    2    1    2    0    0  0.00000000000E+00  0.00000000000E+00  0.64467786590E+03  0.40536754702E+04  0.40020838655E+04 0.  0.
        4    1    3    3  502    0 -0.19584081998E+04 -0.45171376747E+02  0.73597084642E+03  0.20926198484E+04  0.12699999809E+01 0. -1.
       -4    1    3    3    0  502  0.19584081998E+04  0.45171376747E+02 -0.91292980522E+02  0.19610556217E+04  0.12699999809E+01 0.  1.
</event>
<event>
 5   0  0.8329875E-09  0.3999484E+04  0.7818609E-02  0.8004651E-01
        1   -1    0    0  501    0  0.00000000000E+00  0.00000000000E+00  0.27780183447E+04  0.27780183447E+04  0.50400001928E-02 0.  1.
       -1   -1    0    0    0  501  0.00000000000E+00  0.00000000000E+00 -0.14395041339E+04  0.14395041339E+04  0.50400001928E-02 0. -1.
    10030    2    1    2    0    0  0.00000000000E+00  0.00000000000E+00  0.13385142108E+04  0.42175224786E+04  0.39994844124E+04 0.  0.
        5    1    3    3  502    0  0.43777918204E+03 -0.18303616540E+04  0.13821854773E+04  0.23350231648E+04  0.46999998093E+01 0.  1.
       -5    1    3    3    0  502 -0.43777918204E+03  0.18303616540E+04 -0.43671266456E+02  0.18824993137E+04  0.46999998093E+01 0. -1.
</event>
<event>
 5   0  0.8329875E-09  0.3976267E+04  0.7818609E-02  0.8009351E-01
       -1   -1    0    0    0  501  0.00000000000E+00  0.00000000000E+00  0.22535001090E+04  0.22535001090E+04  0.50400001928E-02 0.  1.
        1   -1    0    0  501    0  0.00000000000E+00  0.00000000000E+00 -0.17540161397E+04  0.17540161397E+04  0.50400001928E-02 0. -1.
    10030    2    1    2    0    0  0.00000000000E+00  0.00000000000E+00  0.49948396927E+03  0.40075162487E+04  0.39762673763E+04 0.  0.
        2    1    3    3  502    0  0.72368330056E+03  0.97491671901E+03 -0.13369541854E+04  0.18059974038E+04  0.25500000920E-02 0. -1.
       -2    1    3    3    0  502 -0.72368330056E+03 -0.97491671901E+03  0.18364381547E+04  0.22015188449E+04  0.25500000920E-02 0.  1.
</event>
<event>
 5   0  0.2599332E-08  0.3993310E+04  0.7818609E-02  0.8005898E-01
       -2   -1    0    0    0  501  0.00000000000E+00  0.00000000000E+00  0.16283756738E+04  0.16283756738E+04  0.25500000920E-02 0. -1.
        2   -1    0    0  501    0  0.00000000000E+00  0.00000000000E+00 -0.24482255150E+04  0.24482255150E+04  0.25500000920E-02 0.  1.
    10030    2    1    2    0    0  0.00000000000E+00  0.00000000000E+00 -0.81984984115E+03  0.40766011888E+04  0.39933098415E+04 0.  0.
        2    1    3    3  502    0 -0.12495287983E+04  0.28499523879E+03 -0.19728998900E+04  0.23526322450E+04  0.25500000920E-02 0.  1.
       -2    1    3    3    0  502  0.12495287983E+04 -0.28499523879E+03  0.11530500489E+04  0.17239689438E+04  0.25500000920E-02 0. -1.
</event>
<event>
 5   0  0.2650452E-08  0.4001679E+04  0.7818609E-02  0.8004208E-01
        2   -1    0    0  501    0  0.00000000000E+00  0.00000000000E+00  0.17356899504E+04  0.17356899504E+04  0.25500000920E-02 0.  1.
       -2   -1    0    0    0  501  0.00000000000E+00  0.00000000000E+00 -0.23064938938E+04  0.23064938938E+04  0.25500000920E-02 0. -1.
    10030    2    1    2    0    0  0.00000000000E+00  0.00000000000E+00 -0.57080394341E+03  0.40421838443E+04  0.40016787838E+04 0.  0.
        3    1    3    3  502    0 -0.14624528215E+04  0.10950964360E+04 -0.11093506453E+04  0.21374431744E+04  0.10100000352E+00 0. -1.
       -3    1    3    3    0  502  0.14624528215E+04 -0.10950964360E+04  0.53854670191E+03  0.19047406699E+04  0.10100000352E+00 0.  1.
</event>
<event>
 5   0  0.2587493E-08  0.3997282E+04  0.7818609E-02  0.8005095E-01
       -2   -1    0    0    0  501  0.00000000000E+00  0.00000000000E+00  0.19118911524E+04  0.19118911524E+04  0.25500000920E-02 0.  1.
        2   -1    0    0  501    0  0.00000000000E+00  0.00000000000E+00 -0.20893271805E+04  0.20893271805E+04  0.25500000920E-02 0. -1.
    10030    2    1    2    0    0  0.00000000000E+00  0.00000000000E+00 -0.17743602804E+03  0.40012183329E+04  0.39972821521E+04 0.  0.
        5    1    3    3  502    0  0.84537055405E+03  0.12226993032E+04  0.12485987260E+04  0.19413051868E+04  0.46999998093E+01 0.  1.
       -5    1    3    3    0  502 -0.84537055405E+03 -0.12226993032E+04 -0.14260347540E+04  0.20599131461E+04  0.46999998093E+01 0. -1.
</event>
<event>
 5   0  0.8329875E-09  0.4008030E+04  0.7818609E-02  0.8002929E-01
       -1   -1    0    0    0  501  0.00000000000E+00  0.00000000000E+00  0.14092351841E+04  0.14092351841E+04  0.50400001928E-02 0. -1.
        1   -1    0    0  501    0  0.00000000000E+00  0.00000000000E+00 -0.28498265266E+04  0.28498265266E+04  0.50400001928E-02 0.  1.
    10030    2    1    2    0    0  0.00000000000E+00  0.00000000000E+00 -0.14405913425E+04  0.42590617107E+04  0.40080298451E+04 0.  0.
        2    1    3    3  502    0  0.19976009946E+04 -0.13432193431E+03 -0.81307809616E+03  0.21609137202E+04  0.25500000920E-02 0.  1.
       -2    1    3    3    0  502 -0.19976009946E+04  0.13432193431E+03 -0.62751324635E+03  0.20981479905E+04  0.25500000920E-02 0. -1.
</event>
<event>
 5   0  0.2599332E-08  0.3995670E+04  0.7818609E-02  0.8005421E-01
        2   -1    0    0  501    0  0.00000000000E+00  0.00000000000E+00  0.17733617568E+04  0.17733617568E+04  0.25500000920E-02 0. -1.
       -2   -1    0    0    0  501  0.00000000000E+00  0.00000000000E+00 -0.22507222917E+04  0.22507222917E+04  0.25500000920E-02 0.  1.
    10030    2    1    2    0    0  0.00000000000E+00  0.00000000000E+00 -0.47736053491E+03  0.40240840485E+04  0.39956700751E+04 0.  0.
        2    1    3    3  502    0  0.92258742029E+03  0.17719349551E+04 -0.21794736753E+03  0.20095825656E+04  0.25500000920E-02 0.  1.
       -2    1    3    3    0  502 -0.92258742029E+03 -0.17719349551E+04 -0.25941316738E+03  0.20145014829E+04  0.25500000920E-02 0. -1.
</event>
<event>
 5   0  0.8329875E-09  0.4000014E+04  0.7818609E-02  0.8004544E-01
        1   -1    0    0  501    0  0.00000000000E+00  0.00000000000E+00  0.15991578898E+04  0.15991578898E+04  0.50400001928E-02 0. -1.
       -1   -1    0    0    0  501  0.00000000000E+00  0.00000000000E+00 -0.25013342986E+04  0.25013342986E+04  0.50400001928E-02 0.  1.
    10030    2    1    2    0    0  0.00000000000E+00  0.00000000000E+00 -0.90217640880E+03  0.41004921885E+04  0.40000142393E+04 0.  0.
        2    1    3    3  502    0  0.40685046315E+03 -0.14067588546E+04 -0.18474839731E+04  0.23574763637E+04  0.25500000920E-02 0.  1.
       -2    1    3    3    0  502 -0.40685046315E+03  0.14067588546E+04  0.94530756431E+03  0.17430158248E+04  0.25500000920E-02 0. -1.
</event>
<event>
 5   0  0.2587493E-08  0.3995968E+04  0.7818609E-02  0.8005360E-01
       -2   -1    0    0    0  501  0.00000000000E+00  0.00000000000E+00  0.12391209897E+04  0.12391209897E+04  0.25500000920E-02 0.  1.
        2   -1    0    0  501    0  0.00000000000E+00  0.00000000000E+00 -0.32215905955E+04  0.32215905955E+04  0.25500000920E-02 0. -1.
    10030    2    1    2    0    0  0.00000000000E+00  0.00000000000E+00 -0.19824696058E+04  0.44607115852E+04  0.39959682317E+04 0.  0.
        5    1    3    3  502    0  0.15440859815E+04  0.28724282801E+03 -0.23698616207E+04  0.28430575358E+04  0.46999998093E+01 0. -1.
       -5    1    3    3    0  502 -0.15440859815E+04 -0.28724282801E+03  0.38739201485E+03  0.16176540494E+04  0.46999998093E+01 0.  1.
</event>
<event>
 5   0  0.8329875E-09  0.4013316E+04  0.7818609E-02  0.8001866E-01
        1   -1    0    0  501    0  0.00000000000E+00  0.00000000000E+00  0.28192988648E+04  0.28192988648E+04  0.50400001928E-02 0.  1.
       -1   -1    0    0    0  501  0.00000000000E+00  0.00000000000E+00 -0.14282547264E+04  0.14282547264E+04  0.50400001928E-02 0. -1.
    10030    2    1    2    0    0  0.00000000000E+00  0.00000000000E+00  0.13910441384E+04  0.42475535913E+04  0.40133162990E+04 0.  0.
        1    1    3    3  502    0 -0.85531863073E+03 -0.27725871640E+03  0.25941695013E+04  0.27455705705E+04  0.50400001928E-02 0.  1.
       -1    1    3    3    0  502  0.85531863073E+03  0.27725871640E+03 -0.12031253629E+04  0.15019830208E+04  0.50400001928E-02 0. -1.
</event>
<event>
 5   0  0.8329875E-09  0.3997435E+04  0.7818609E-02  0.8005064E-01
        1   -1    0    0  501    0  0.00000000000E+00  0.00000000000E+00  0.29699214038E+04  0.29699214038E+04  0.50400001928E-02 0.  1.
       -1   -1    0    0    0  501  0.00000000000E+00  0.00000000000E+00 -0.13451102822E+04  0.13451102822E+04  0.50400001928E-02 0. -1.
    10030    2    1    2    0    0  0.00000000000E+00  0.00000000000E+00  0.16248111216E+04  0.43150316861E+04  0.39974350865E+04 0.  0.
        2    1    3    3  502    0  0.77768432488E+03  0.33231299449E+03  0.27672676245E+04  0.28936127836E+04  0.25500000920E-02 0.  1.
       -2    1    3    3    0  502 -0.77768432488E+03 -0.33231299449E+03 -0.11424565029E+04  0.14214189025E+04  0.25500000920E-02 0. -1.
</event>
<event>
 5   0  0.8329875E-09  0.4051716E+04  0.7818609E-02  0.7994194E-01
        1   -1    0    0  501    0  0.00000000000E+00  0.00000000000E+00  0.21278933338E+04  0.21278933338E+04  0.50400001928E-02 0. -1.
       -1   -1    0    0    0  501  0.00000000000E+00  0.00000000000E+00 -0.19287152767E+04  0.19287152767E+04  0.50400001928E-02 0.  1.
    10030    2    1    2    0    0  0.00000000000E+00  0.00000000000E+00  0.19917805716E+03  0.40566086105E+04  0.40517158736E+04 0.  0.
        1    1    3    3  502    0  0.90251932196E+03  0.17461322006E+03 -0.17078802931E+04  0.19395581968E+04  0.50400001928E-02 0. -1.
       -1    1    3    3    0  502 -0.90251932196E+03 -0.17461322006E+03  0.19070583502E+04  0.21170504138E+04  0.50400001928E-02 0.  1.
</event>
<event>
 5   0  0.2587493E-08  0.4001719E+04  0.7818609E-02  0.8004200E-01
       -2   -1    0    0    0  501  0.00000000000E+00  0.00000000000E+00  0.15061108668E+04  0.15061108668E+04  0.25500000920E-02 0. -1.
        2   -1    0    0  501    0  0.00000000000E+00  0.00000000000E+00 -0.26581304831E+04  0.26581304831E+04  0.25500000920E-02 0.  1.
    10030    2    1    2    0    0  0.00000000000E+00  0.00000000000E+00 -0.11520196163E+04  0.41642413500E+04  0.40017192336E+04 0.  0.
        5    1    3    3  502    0  0.16745535101E+04 -0.63374800219E+03  0.35337542850E+03  0.18250102115E+04  0.46999998093E+01 0. -1.
       -5    1    3    3    0  502 -0.16745535101E+04  0.63374800219E+03 -0.15053950448E+04  0.23392311385E+04  0.46999998093E+01 0.  1.
</event>
<event>
 5   0  0.8329875E-09  0.3998574E+04  0.7818609E-02  0.8004834E-01
       -1   -1    0    0    0  501  0.00000000000E+00  0.00000000000E+00  0.21783929814E+04  0.21783929814E+04  0.50400001928E-02 0.  1.
        1   -1    0    0  501    0  0.00000000000E+00  0.00000000000E+00 -0.18349069538E+04  0.18349069538E+04  0.50400001928E-02 0. -1.
    10030    2    1    2    0    0  0.00000000000E+00  0.00000000000E+00  0.34348602766E+03  0.40132999352E+04  0.39985739607E+04 0.  0.
        5    1    3    3  502    0  0.52628367648E+03  0.79580033058E+03  0.19351579119E+04  0.21575752381E+04  0.46999998093E+01 0.  1.
       -5    1    3    3    0  502 -0.52628367648E+03 -0.79580033058E+03 -0.15916718842E+04  0.18557246971E+04  0.46999998093E+01 0. -1.
</event>
<event>
 5   0  0.8329875E-09  0.3998529E+04  0.7818609E-02  0.8004843E-01
        1   -1    0    0  501    0  0.00000000000E+00  0.00000000000E+00  0.32768627617E+04  0.32768627617E+04  0.50400001928E-02 0.  1.
       -1   -1    0    0    0  501  0.00000000000E+00  0.00000000000E+00 -0.12197823449E+04  0.12197823450E+04  0.50400001928E-02 0. -1.
    10030    2    1    2    0    0  0.00000000000E+00  0.00000000000E+00  0.20570804167E+04  0.44966451066E+04  0.39985294014E+04 0.  0.
        3    1    3    3  502    0  0.66043930471E+03 -0.17566456569E+04  0.18036612773E+04  0.26029172197E+04  0.10100000352E+00 0.  1.
       -3    1    3    3    0  502 -0.66043930471E+03  0.17566456569E+04  0.25341913937E+03  0.18937278869E+04  0.10100000352E+00 0. -1.
</event>
<event>
 5   0  0.2746876E-08  0.3999456E+04  0.7818609E-02  0.8004656E-01
        2   -1    0    0  501    0  0.00000000000E+00  0.00000000000E+00  0.20552514267E+04  0.20552514267E+04  0.25500000920E-02 0. -1.
       -2   -1    0    0    0  501  0.00000000000E+00  0.00000000000E+00 -0.19457045891E+04  0.19457045891E+04  0.25500000920E-02 0.  1.
    10030    2    1    2    0    0  0.00000000000E+00  0.00000000000E+00  0.10954683762E+03  0.40009560157E+04  0.39994560293E+04 0.  0.
        1    1    3    3  502    0  0.89119171605E+03  0.37342539342E+03  0.18062135658E+04  0.20484327289E+04  0.50400001928E-02 0. -1.
       -1    1    3    3    0  502 -0.89119171605E+03 -0.37342539342E+03 -0.16966667282E+04  0.19525232869E+04  0.50400001928E-02 0.  1.
</event>
<event>
 5   0  0.8329875E-09  0.4002264E+04  0.7818609E-02  0.8004090E-01
        1   -1    0    0  501    0  0.00000000000E+00  0.00000000000E+00  0.15385337668E+04  0.15385337668E+04  0.50400001928E-02 0. -1.
       -1   -1    0    0    0  501  0.00000000000E+00  0.00000000000E+00 -0.26028213915E+04  0.26028213915E+04  0.50400001928E-02 0.  1.
    10030    2    1    2    0    0  0.00000000000E+00  0.00000000000E+00 -0.10642876247E+04  0.41413551583E+04  0.40022636594E+04 0.  0.
        3    1    3    3  502    0  0.84511848790E+03 -0.18542505143E+03 -0.23992701397E+04  0.25505107178E+04  0.10100000352E+00 0.  1.
       -3    1    3    3    0  502 -0.84511848790E+03  0.18542505143E+03  0.13349825150E+04  0.15908444405E+04  0.10100000352E+00 0. -1.
</event>
<event>
 5   0  0.2650452E-08  0.4003599E+04  0.7818609E-02  0.8003821E-01
       -2   -1    0    0    0  501  0.00000000000E+00  0.00000000000E+00  0.22617940878E+04  0.22617940878E+04  0.25500000920E-02 0. -1.
        2   -1    0    0  501    0  0.00000000000E+00  0.00000000000E+00 -0.17716915807E+04  0.17716915807E+04  0.25500000920E-02 0.  1.
    10030    2    1    2    0    0  0.00000000000E+00  0.00000000000E+00  0.49010250706E+03  0.40334856685E+04  0.40035991521E+04 0.  0.
        3    1    3    3  502    0  0.16800819606E+04 -0.10880068797E+04  0.27295581013E+03  0.20201334731E+04  0.10100000352E+00 0. -1.
       -3    1    3    3    0  502 -0.16800819606E+04  0.10880068797E+04  0.21714669693E+03  0.20133521954E+04  0.10100000352E+00 0.  1.
</event>
<event>
 5   0  0.8329875E-09  0.3953344E+04  0.7818609E-02  0.8014025E-01
       -1   -1    0    0    0  501  0.00000000000E+00  0.00000000000E+00  0.15970427393E+04  0.15970427393E+04  0.50400001928E-02 0.  1.
        1   -1    0    0  501    0  0.00000000000E+00  0.00000000000E+00 -0.24465421587E+04  0.24465421587E+04  0.50400001928E-02 0. -1.
    10030    2    1    2    0    0  0.00000000000E+00  0.00000000000E+00 -0.84949941947E+03  0.40435848980E+04  0.39533440988E+04 0.  0.
        3    1    3    3  502    0 -0.15681031310E+04 -0.10096826063E+04 -0.10945456275E+04  0.21625070025E+04  0.10100000352E+00 0. -1.
       -3    1    3    3    0  502  0.15681031310E+04  0.10096826063E+04  0.24504620804E+03  0.18810778955E+04  0.10100000352E+00 0.  1.
</event>
<event>
 5   0  0.8329875E-09  0.4058685E+04  0.7818609E-02  0.7992811E-01
        1   -1    0    0  501    0  0.00000000000E+00  0.00000000000E+00  0.23977368258E+04  0.23977368258E+04  0.50400001928E-02 0.  1.
       -1   -1    0    0    0  501  0.00000000000E+00  0.00000000000E+00 -0.17175492708E+04  0.17175492708E+04  0.50400001928E-02 0. -1.
    10030    2    1    2    0    0  0.00000000000E+00  0.00000000000E+00  0.68018755499E+03  0.41152860966E+04  0.40586850761E+04 0.  0.
        1    1    3    3  502    0 -0.11759277961E+04  0.14450246045E+04  0.11558814889E+04  0.21924790319E+04  0.50400001928E-02 0.  1.
       -1    1    3    3    0  502  0.11759277961E+04 -0.14450246045E+04 -0.47569393386E+03  0.19228070647E+04  0.50400001928E-02 0. -1.
</event>
<event>
 5   0  0.2746876E-08  0.3994780E+04  0.7818609E-02  0.8005600E-01
        2   -1    0    0  501    0  0.00000000000E+00  0.00000000000E+00  0.24032925289E+04  0.24032925289E+04  0.25500000920E-02 0.  1.
       -2   -1    0    0    0  501  0.00000000000E+00  0.00000000000E+00 -0.16600423413E+04  0.16600423413E+04  0.25500000920E-02 0. -1.
    10030    2    1    2    0    0  0.00000000000E+00  0.00000000000E+00  0.74325018761E+03  0.40633348702E+04  0.39947802725E+04 0.  0.
        1    1    3    3  502    0 -0.94477131201E+02 -0.24907428315E+03 -0.16418922542E+04  0.16633622881E+04  0.50400001928E-02 0. -1.
       -1    1    3    3    0  502  0.94477131201E+02  0.24907428315E+03  0.23851424419E+04  0.23999725821E+04  0.50400001928E-02 0.  1.
</event>
<event>
 5   0  0.8329875E-09  0.3998596E+04  0.7818609E-02  0.8004830E-01
        1   -1    0    0  501    0  0.00000000000E+00  0.00000000000E+00  0.17781515556E+04  0.17781515556E+04  0.50400001928E-02 0.  1.
       -1   -1    0    0    0  501  0.00000000000E+00  0.00000000000E+00 -0.22479485130E+04  0.22479485130E+04  0.50400001928E-02 0. -1.
    10030    2    1    2    0    0  0.00000000000E+00  0.00000000000E+00 -0.46979695747E+03  0.40261000686E+04  0.39985963264E+04 0.  0.
        3    1    3    3  502    0 -0.30743151867E+03 -0.18601661822E+04 -0.90465104807E+03  0.20912020211E+04  0.10100000352E+00 0.  1.
       -3    1    3    3    0  502  0.30743151867E+03  0.18601661822E+04  0.43485409060E+03  0.19348980475E+04  0.10100000352E+00 0. -1.
</event>
<event>
 5   0  0.8329875E-09  0.3996908E+04  0.7818609E-02  0.8005171E-01
        1   -1    0    0  501    0  0.00000000000E+00  0.00000000000E+00  0.31748833444E+04  0.31748833444E+04  0.50400001928E-02 0. -1.
       -1   -1    0    0    0  501  0.00000000000E+00  0.00000000000E+00 -0.12579418954E+04  0.12579418954E+04  0.50400001928E-02 0.  1.
    10030    2    1    2    0    0  0.00000000000E+00  0.00000000000E+00  0.19169414490E+04  0.44328252398E+04  0.39969081911E+04 0.  0.
        3    1    3    3  502    0 -0.13081015799E+04  0.81643512481E+03 -0.45144645791E+03  0.16067046932E+04  0.10100000352E+00 0.  1.
       -3    1    3    3    0  502  0.13081015799E+04 -0.81643512481E+03  0.23683879069E+04  0.28261205467E+04  0.10100000352E+00 0. -1.
</event>
<event>
 5   0  0.2650452E-08  0.3996031E+04  0.7818609E-02  0.8005348E-01
        2   -1    0    0  501    0  0.00000000000E+00  0.00000000000E+00  0.23434229716E+04  0.23434229716E+04  0.25500000920E-02 0.  1.
       -2   -1    0    0    0  501  0.00000000000E+00  0.00000000000E+00 -0.17035190979E+04  0.17035190980E+04  0.25500000920E-02 0. -1.
    10030    2    1    2    0    0  0.00000000000E+00  0.00000000000E+00  0.63990387366E+03  0.40469420696E+04  0.39960309242E+04 0.  0.
        3    1    3    3  502    0  0.11992458763E+04  0.99999263711E+02 -0.12953215045E+04  0.17680634420E+04  0.10100000352E+00 0. -1.
       -3    1    3    3    0  502 -0.11992458763E+04 -0.99999263711E+02  0.19352253782E+04  0.22788786276E+04  0.10100000352E+00 0.  1.
</event>
<event>
 5   0  0.2587493E-08  0.4007913E+04  0.7818609E-02  0.8002952E-01
        2   -1    0    0  501    0  0.00000000000E+00  0.00000000000E+00  0.25885854699E+04  0.25885854699E+04  0.25500000920E-02 0.  1.
       -2   -1    0    0    0  501  0.00000000000E+00  0.00000000000E+00 -0.15513651140E+04  0.15513651140E+04  0.25500000920E-02 0. -1.
    10030    2    1    2    0    0  0.00000000000E+00  0.00000000000E+00  0.10372203558E+04  0.41399505839E+04  0.40079127698E+04 0.  0.
        5    1    3    3  502    0 -0.87093326210E+03  0.50688286518E+03  0.23078307291E+04  0.25182453713E+04  0.46999998093E+01 0.  1.
       -5    1    3    3    0  502  0.87093326210E+03 -0.50688286518E+03 -0.12706103732E+04  0.16217052126E+04  0.46999998093E+01 0. -1.
</event>
<event>
 5   0  0.2599332E-08  0.4001944E+04  0.7818609E-02  0.8004155E-01
        2   -1    0    0  501    0  0.00000000000E+00  0.00000000000E+00  0.16266973116E+04  0.16266973116E+04  0.25500000920E-02 0. -1.
       -2   -1    0    0    0  501  0.00000000000E+00  0.00000000000E+00 -0.24613601778E+04  0.24613601778E+04  0.25500000920E-02 0.  1.
    10030    2    1    2    0    0  0.00000000000E+00  0.00000000000E+00 -0.83466286619E+03  0.40880574893E+04  0.40019435198E+04 0.  0.
        2    1    3    3  502    0  0.40989133044E+03 -0.12017062966E+04  0.11624847888E+04  0.17214760557E+04  0.25500000920E-02 0. -1.
       -2    1    3    3    0  502 -0.40989133044E+03  0.12017062966E+04 -0.19971476550E+04  0.23665814336E+04  0.25500000920E-02 0.  1.
</event>
<event>
 5   0  0.2599332E-08  0.4002539E+04  0.7818609E-02  0.8004035E-01
       -2   -1    0    0    0  501  0.00000000000E+00  0.00000000000E+00  0.16688051279E+04  0.16688051279E+04  0.25500000920E-02 0.  1.
        2   -1    0    0  501    0  0.00000000000E+00  0.00000000000E+00 -0.23999680164E+04  0.23999680164E+04  0.25500000920E-02 0. -1.
    10030    2    1    2    0    0  0.00000000000E+00  0.00000000000E+00 -0.73116288846E+03  0.40687731443E+04  0.40025386607E+04 0.  0.
        2    1    3    3  502    0 -0.63711579776E+03  0.17444354878E+04 -0.11236477754E+04  0.21706119031E+04  0.25500000920E-02 0.  1.
       -2    1    3    3    0  502  0.63711579776E+03 -0.17444354878E+04  0.39248488692E+03  0.18981612411E+04  0.25500000920E-02 0. -1.
</event>
<event>
 5   0  0.2650452E-08  0.4015977E+04  0.7818609E-02  0.8001331E-01
        2   -1    0    0  501    0  0.00000000000E+00  0.00000000000E+00  0.20289087919E+04  0.20289087919E+04  0.25500000920E-02 0.  1.
       -2   -1    0    0    0  501  0.00000000000E+00  0.00000000000E+00 -0.19872840584E+04  0.19872840584E+04  0.25500000920E-02 0. -1.
    10030    2    1    2    0    0  0.00000000000E+00  0.00000000000E+00  0.41624733458E+02  0.40161928503E+04  0.40159771404E+04 0.  0.
        3    1    3    3  502    0 -0.31906267668E+03 -0.45706737177E+03  0.19499848031E+04  0.20280908057E+04  0.10100000352E+00 0.  1.
       -3    1    3    3    0  502  0.31906267668E+03  0.45706737177E+03 -0.19083600696E+04  0.19881020445E+04  0.10100000352E+00 0. -1.
</event>
<event>
 5   0  0.8329875E-09  0.3998337E+04  0.7818609E-02  0.8004882E-01
       -1   -1    0    0    0  501  0.00000000000E+00  0.00000000000E+00  0.18294722232E+04  0.18294722232E+04  0.50400001928E-02 0.  1.
        1   -1    0    0  501    0  0.00000000000E+00  0.00000000000E+00 -0.21846049122E+04  0.21846049122E+04  0.50400001928E-02 0. -1.
    10030    2    1    2    0    0  0.00000000000E+00  0.00000000000E+00 -0.35513268898E+03  0.40140771354E+04  0.39983366570E+04 0.  0.
        2    1    3    3  502    0 -0.76034441974E+02 -0.19641233928E+04  0.18871522713E+03  0.19746329723E+04  0.25500000920E-02 0. -1.
       -2    1    3    3    0  502  0.76034441974E+02  0.19641233928E+04 -0.54384791611E+03  0.20394441631E+04  0.25500000920E-02 0.  1.
</event>
<event>
 5   0  0.2746876E-08  0.3967237E+04  0.7818609E-02  0.8011189E-01
       -2   -1    0    0    0  501  0.00000000000E+00  0.00000000000E+00  0.16374981911E+04  0.16374981911E+04  0.25500000920E-02 0. -1.
        2   -1    0    0  501    0  0.00000000000E+00  0.00000000000E+00 -0.24028988493E+04  0.24028988493E+04  0.25500000920E-02 0.  1.
    10030    2    1    2    0    0  0.00000000000E+00  0.00000000000E+00 -0.76540065816E+03  0.40403970404E+04  0.39672370835E+04 0.  0.
        1    1    3    3  502    0 -0.18826221165E+04 -0.62487649431E+03 -0.38516410639E+03  0.20206652508E+04  0.50400001928E-02 0. -1.
       -1    1    3    3    0  502  0.18826221165E+04  0.62487649431E+03 -0.38023655178E+03  0.20197317896E+04  0.50400001928E-02 0.  1.
</event>
<event>
 5   0  0.8329875E-09  0.4000698E+04  0.7818609E-02  0.8004406E-01
        1   -1    0    0  501    0  0.00000000000E+00  0.00000000000E+00  0.27623057179E+04  0.27623057179E+04  0.50400001928E-02 0. -1.
       -1   -1    0    0    0  501  0.00000000000E+00  0.00000000000E+00 -0.14485708648E+04  0.14485708648E+04  0.50400001928E-02 0.  1.
    10030    2    1    2    0    0  0.00000000000E+00  0.00000000000E+00  0.13137348531E+04  0.42108765826E+04  0.40006977304E+04 0.  0.
        3    1    3    3  502    0 -0.45187006686E+03  0.45814225691E+03 -0.13366567675E+04  0.14834865046E+04  0.10100000352E+00 0.  1.
       -3    1    3    3    0  502  0.45187006686E+03 -0.45814225691E+03  0.26503916206E+04  0.27273900781E+04  0.10100000352E+00 0. -1.
</event>
<event>
 5   0  0.8329875E-09  0.3996105E+04  0.7818609E-02  0.8005333E-01
       -1   -1    0    0    0  501  0.00000000000E+00  0.00000000000E+00  0.22594813918E+04  0.22594813918E+04  0.50400001928E-02 0. -1.
        1   -1    0    0  501    0  0.00000000000E+00  0.00000000000E+00 -0.17668719237E+04  0.17668719237E+04  0.50400001928E-02 0.  1.
    10030    2    1    2    0    0  0.00000000000E+00  0.00000000000E+00  0.49260946810E+03  0.40263533156E+04  0.39961052206E+04 0.  0.
        3    1    3    3  502    0  0.17294815263E+03 -0.13818002169E+04  0.16899556048E+04  0.21898020138E+04  0.10100000352E+00 0. -1.
       -3    1    3    3    0  502 -0.17294815263E+03  0.13818002169E+04 -0.11973461367E+04  0.18365513018E+04  0.10100000352E+00 0.  1.
</event>
<event>
 5   0  0.8329875E-09  0.3995235E+04  0.7818609E-02  0.8005508E-01
        1   -1    0    0  501    0  0.00000000000E+00  0.00000000000E+00  0.20390236196E+04  0.20390236196E+04  0.50400001928E-02 0.  1.
       -1   -1    0    0    0  501  0.00000000000E+00  0.00000000000E+00 -0.19570523522E+04  0.19570523522E+04  0.50400001928E-02 0. -1.
    10030    2    1    2    0    0  0.00000000000E+00  0.00000000000E+00  0.81971267382E+02  0.39960759719E+04  0.39952351475E+04 0.  0.
        4    1    3    3  502    0 -0.54447475484E+02 -0.19555320020E+04  0.44530383266E+03  0.20063317410E+04  0.12699999809E+01 0.  1.
       -4    1    3    3    0  502  0.54447475484E+02  0.19555320020E+04 -0.36333256527E+03  0.19897442309E+04  0.12699999809E+01 0. -1.
</event>
<event>
 5   0  0.2612363E-08  0.4014001E+04  0.7818609E-02  0.8001728E-01
        2   -1    0    0  501    0  0.00000000000E+00  0.00000000000E+00  0.30534271028E+04  0.30534271028E+04  0.25500000920E-02 0.  1.
       -2   -1    0    0    0  501  0.00000000000E+00  0.00000000000E+00 -0.13191898996E+04  0.13191898996E+04  0.25500000920E-02 0. -1.
    10030    2    1    2    0    0  0.00000000000E+00  0.00000000000E+00  0.17342372032E+04  0.43726170024E+04  0.40140005945E+04 0.  0.
        4    1    3    3  502    0  0.91283489304E+03 -0.17047797355E+04  0.14522349777E+04  0.24183733235E+04  0.12699999809E+01 0.  1.
       -4    1    3    3    0  502 -0.91283489304E+03  0.17047797355E+04  0.28200222551E+03  0.19542436789E+04  0.12699999809E+01 0. -1.
</event>
<event>
 5   0  0.8329875E-09  0.4000296E+04  0.7818609E-02  0.8004487E-01
        1   -1    0    0  501    0  0.00000000000E+00  0.00000000000E+00  0.22578312576E+04  0.22578312577E+04  0.50400001928E-02 0.  1.
       -1   -1    0    0    0  501  0.00000000000E+00  0.00000000000E+00 -0.17718738368E+04  0.17718738368E+04  0.50400001928E-02 0. -1.
    10030    2    1    2    0    0  0.00000000000E+00  0.00000000000E+00  0.48595742088E+03  0.40297050944E+04  0.40002960557E+04 0.  0.
        3    1    3    3  502    0  0.15206078722E+04  0.10032219836E+04 -0.58885807843E+03  0.19145381939E+04  0.10100000352E+00 0. -1.
       -3    1    3    3    0  502 -0.15206078722E+04 -0.10032219836E+04  0.10748154993E+04  0.21151669005E+04  0.10100000352E+00 0.  1.
</event>
<event>
 5   0  0.2587493E-08  0.3997182E+04  0.7818609E-02  0.8005115E-01
       -2   -1    0    0    0  501  0.00000000000E+00  0.00000000000E+00  0.19461909451E+04  0.19461909451E+04  0.25500000920E-02 0.  1.
        2   -1    0    0  501    0  0.00000000000E+00  0.00000000000E+00 -0.20524016176E+04  0.20524016176E+04  0.25500000920E-02 0. -1.
    10030    2    1    2    0    0  0.00000000000E+00  0.00000000000E+00 -0.10621067251E+03  0.39985925628E+04  0.39971817292E+04 0.  0.
        5    1    3    3  502    0  0.17664583980E+04 -0.46197378214E+03  0.75992275647E+03  0.19777006176E+04  0.46999998093E+01 0. -1.
       -5    1    3    3    0  502 -0.17664583980E+04  0.46197378214E+03 -0.86613342898E+03  0.20208919452E+04  0.46999998093E+01 0.  1.
</event>
<event>
 5   0  0.8329875E-09  0.4000331E+04  0.7818609E-02  0.8004480E-01
       -1   -1    0    0    0  501  0.00000000000E+00  0.00000000000E+00  0.18869486684E+04  0.18869486684E+04  0.50400001928E-02 0.  1.
        1   -1    0    0  501    0  0.00000000000E+00  0.00000000000E+00 -0.21201755424E+04  0.21201755424E+04  0.50400001928E-02 0. -1.
    10030    2    1    2    0    0  0.00000000000E+00  0.00000000000E+00 -0.23322687401E+03  0.40071242107E+04  0.40003311945E+04 0.  0.
        3    1    3    3  502    0  0.57000472590E+03  0.17181690699E+03 -0.20293679764E+04  0.21148902645E+04  0.10100000352E+00 0. -1.
       -3    1    3    3    0  502 -0.57000472590E+03 -0.17181690699E+03  0.17961411024E+04  0.18922339462E+04  0.10100000352E+00 0.  1.
</event>
<event>
 5   0  0.2746876E-08  0.4001008E+04  0.7818609E-02  0.8004343E-01
        2   -1    0    0  501    0  0.00000000000E+00  0.00000000000E+00  0.16935450806E+04  0.16935450806E+04  0.25500000920E-02 0. -1.
       -2   -1    0    0    0  501  0.00000000000E+00  0.00000000000E+00 -0.23630995042E+04  0.23630995042E+04  0.25500000920E-02 0.  1.
    10030    2    1    2    0    0  0.00000000000E+00  0.00000000000E+00 -0.66955442356E+03  0.40566445848E+04  0.40010076433E+04 0.  0.
        1    1    3    3  502    0  0.45048992988E+03 -0.10486808227E+04  0.13310371673E+04  0.17533774795E+04  0.50400001928E-02 0. -1.
       -1    1    3    3    0  502 -0.45048992988E+03  0.10486808227E+04 -0.20005915909E+04  0.23032671053E+04  0.50400001928E-02 0.  1.
</event>
<event>
 5   0  0.8329875E-09  0.3998670E+04  0.7818609E-02  0.8004815E-01
        1   -1    0    0  501    0  0.00000000000E+00  0.00000000000E+00  0.20601212639E+04  0.20601212639E+04  0.50400001928E-02 0. -1.
       -1   -1    0    0    0  501  0.00000000000E+00  0.00000000000E+00 -0.19403418645E+04  0.19403418645E+04  0.50400001928E-02 0.  1.
    10030    2    1    2    0    0  0.00000000000E+00  0.00000000000E+00  0.11977939943E+03  0.40004631284E+04  0.39986695459E+04 0.  0.
        3    1    3    3  502    0  0.19811321745E+03 -0.67432292704E+03 -0.18126814785E+04  0.19441641930E+04  0.10100000352E+00 0.  1.
       -3    1    3    3    0  502 -0.19811321745E+03  0.67432292704E+03  0.19324608779E+04  0.20562989354E+04  0.10100000352E+00 0. -1.
</event>
<event>
 5   0  0.2587493E-08  0.3998903E+04  0.7818609E-02  0.8004768E-01
       -2   -1    0    0    0  501  0.00000000000E+00  0.00000000000E+00  0.19466052692E+04  0.19466052692E+04  0.25500000920E-02 0. -1.
        2   -1    0    0  501    0  0.00000000000E+00  0.00000000000E+00 -0.20537319148E+04  0.20537319148E+04  0.25500000920E-02 0.  1.
    10030    2    1    2    0    0  0.00000000000E+00  0.00000000000E+00 -0.10712664558E+03  0.40003371840E+04  0.39989025329E+04 0.  0.
        5    1    3    3  502    0 -0.10617901009E+04 -0.15108406931E+04 -0.82048395400E+03  0.20207062694E+04  0.46999998093E+01 0.  1.
       -5    1    3    3    0  502  0.10617901009E+04  0.15108406931E+04  0.71335730841E+03  0.19796309146E+04  0.46999998093E+01 0. -1.
</event>
<event>
 5   0  0.2650452E-08  0.3998942E+04  0.7818609E-02  0.8004760E-01
        2   -1    0    0  501    0  0.00000000000E+00  0.00000000000E+00  0.14168577936E+04  0.14168577936E+04  0.25500000920E-02 0. -1.
       -2   -1    0    0    0  501  0.00000000000E+00  0.00000000000E+00 -0.28216550698E+04  0.28216550699E+04  0.25500000920E-02 0.  1.
    10030    2    1    2    0    0  0.00000000000E+00  0.00000000000E+00 -0.14047972763E+04  0.42385128634E+04  0.39989418483E+04 0.  0.
        3    1    3    3  502    0 -0.14282726491E+03  0.33808007600E+03  0.13808506271E+04  0.14287918778E+04  0.10100000352E+00 0. -1.
       -3    1    3    3    0  502  0.14282726491E+03 -0.33808007600E+03 -0.27856479034E+04  0.28097209857E+04  0.10100000352E+00 0.  1.
</event>
<event>
 5   0  0.2650452E-08  0.3992190E+04  0.7818609E-02  0.8006124E-01
        2   -1    0    0  501    0  0.00000000000E+00  0.00000000000E+00  0.13169652429E+04  0.13169652429E+04  0.25500000920E-02 0.  1.
       -2   -1    0    0    0  501  0.00000000000E+00  0.00000000000E+00 -0.30254370888E+04  0.30254370888E+04  0.25500000920E-02 0. -1.
    10030    2    1    2    0    0  0.00000000000E+00  0.00000000000E+00 -0.17084718459E+04  0.43424023317E+04  0.39921901210E+04 0.  0.
        3    1    3    3  502    0  0.15539119027E+04  0.64576594068E+03  0.31360705925E+03  0.17117258102E+04  0.10100000352E+00 0.  1.
       -3    1    3    3    0  502 -0.15539119027E+04 -0.64576594068E+03 -0.20220789052E+04  0.26306765215E+04  0.10100000352E+00 0. -1.
</event>
<event>
 5   0  0.8329875E-09  0.4000725E+04  0.7818609E-02  0.8004400E-01
       -1   -1    0    0    0  501  0.00000000000E+00  0.00000000000E+00  0.17129441821E+04  0.17129441821E+04  0.50400001928E-02 0. -1.
        1   -1    0    0  501    0  0.00000000000E+00  0.00000000000E+00 -0.23360072373E+04  0.23360072373E+04  0.50400001928E-02 0.  1.
    10030    2    1    2    0    0  0.00000000000E+00  0.00000000000E+00 -0.62306305517E+03  0.40489514194E+04  0.40007249375E+04 0.  0.
        1    1    3    3  502    0  0.17241162059E+04 -0.69583170760E+03 -0.10584603041E+04  0.21394150303E+04  0.50400001928E-02 0.  1.
       -1    1    3    3    0  502 -0.17241162059E+04  0.69583170760E+03  0.43539724890E+03  0.19095363890E+04  0.50400001928E-02 0. -1.
</event>
<event>
 5   0  0.8329875E-09  0.3998332E+04  0.7818609E-02  0.8004883E-01
       -1   -1    0    0    0  501  0.00000000000E+00  0.00000000000E+00  0.32810625697E+04  0.32810625697E+04  0.50400001928E-02 0.  1.
        1   -1    0    0  501    0  0.00000000000E+00  0.00000000000E+00 -0.12181006314E+04  0.12181006314E+04  0.50400001928E-02 0. -1.
    10030    2    1    2    0    0  0.00000000000E+00  0.00000000000E+00  0.20629619383E+04  0.44991632012E+04  0.39983318461E+04 0.  0.
        4    1    3    3  502    0 -0.64879146263E+03  0.18701692232E+04  0.13461506290E+04  0.23938643266E+04  0.12699999809E+01 0.  1.
       -4    1    3    3    0  502  0.64879146263E+03 -0.18701692232E+04  0.71681130927E+03  0.21052988746E+04  0.12699999809E+01 0. -1.
</event>
<event>
 5   0  0.8329875E-09  0.3926933E+04  0.7818609E-02  0.8019451E-01
        1   -1    0    0  501    0  0.00000000000E+00  0.00000000000E+00  0.21670250053E+04  0.21670250053E+04  0.50400001928E-02 0.  1.
       -1   -1    0    0    0  501  0.00000000000E+00  0.00000000000E+00 -0.17790289373E+04  0.17790289373E+04  0.50400001928E-02 0. -1.
    10030    2    1    2    0    0  0.00000000000E+00  0.00000000000E+00  0.38799606799E+03  0.39460539426E+04  0.39269327432E+04 0.  0.
        1    1    3    3  502    0  0.15355924018E+04 -0.68464370667E+03  0.12130460196E+04  0.20732249456E+04  0.50400001928E-02 0.  1.
       -1    1    3    3    0  502 -0.15355924018E+04  0.68464370667E+03 -0.82504995161E+03  0.18728289970E+04  0.50400001928E-02 0. -1.
</event>
<event>
 5   0  0.8329875E-09  0.4022194E+04  0.7818609E-02  0.8000084E-01
        1   -1    0    0  501    0  0.00000000000E+00  0.00000000000E+00  0.14454953077E+04  0.14454953077E+04  0.50400001928E-02 0.  1.
       -1   -1    0    0    0  501  0.00000000000E+00  0.00000000000E+00 -0.27980101326E+04  0.27980101326E+04  0.50400001928E-02 0. -1.
    10030    2    1    2    0    0  0.00000000000E+00  0.00000000000E+00 -0.13525148249E+04  0.42435054403E+04  0.40221936888E+04 0.  0.
        5    1    3    3  502    0  0.58844195234E+03  0.30330957886E+03  0.13272380414E+04  0.14831869540E+04  0.46999998093E+01 0.  1.
       -5    1    3    3    0  502 -0.58844195234E+03 -0.30330957886E+03 -0.26797528663E+04  0.27603184864E+04  0.46999998093E+01 0. -1.
</event>
<event>
 5   0  0.8329875E-09  0.3997653E+04  0.7818609E-02  0.8005020E-01
       -1   -1    0    0    0  501  0.00000000000E+00  0.00000000000E+00  0.14383564570E+04  0.14383564570E+04  0.50400001928E-02 0. -1.
        1   -1    0    0  501    0  0.00000000000E+00  0.00000000000E+00 -0.27776898527E+04  0.27776898527E+04  0.50400001928E-02 0.  1.
    10030    2    1    2    0    0  0.00000000000E+00  0.00000000000E+00 -0.13393333957E+04  0.42160463097E+04  0.39976533793E+04 0.  0.
        4    1    3    3  502    0  0.12249437397E+04  0.51038018817E+03  0.90676091555E+03  0.16072311821E+04  0.12699999809E+01 0. -1.
       -4    1    3    3    0  502 -0.12249437397E+04 -0.51038018817E+03 -0.22460943112E+04  0.26088151276E+04  0.12699999809E+01 0.  1.
</event>
<event>
 5   0  0.8329875E-09  0.3993987E+04  0.7818609E-02  0.8005761E-01
        1   -1    0    0  501    0  0.00000000000E+00  0.00000000000E+00  0.20952854600E+04  0.20952854600E+04  0.50400001928E-02 0.  1.
       -1   -1    0    0    0  501  0.00000000000E+00  0.00000000000E+00 -0.19033128556E+04  0.19033128556E+04  0.50400001928E-02 0. -1.
    10030    2    1    2    0    0  0.00000000000E+00  0.00000000000E+00  0.19197260440E+03  0.39985983157E+04  0.39939873572E+04 0.  0.
        2    1    3    3  502    0  0.10151669365E+03  0.98480805555E+03  0.18322985286E+04  0.20826594641E+04  0.25500000920E-02 0.  1.
       -2    1    3    3    0  502 -0.10151669365E+03 -0.98480805555E+03 -0.16403259242E+04  0.19159388516E+04  0.25500000920E-02 0. -1.
</event>
<event>
 5   0  0.2599332E-08  0.3905579E+04  0.7818609E-02  0.8023870E-01
        2   -1    0    0  501    0  0.00000000000E+00  0.00000000000E+00  0.13103797987E+04  0.13103797987E+04  0.25500000920E-02 0. -1.
       -2   -1    0    0    0  501  0.00000000000E+00  0.00000000000E+00 -0.29101393197E+04  0.29101393197E+04  0.25500000920E-02 0.  1.
    10030    2    1    2    0    0  0.00000000000E+00  0.00000000000E+00 -0.15997595210E+04  0.42205191184E+04  0.39055794837E+04 0.  0.
        2    1    3    3  502    0  0.10394635274E+04 -0.12888854180E+03 -0.25808987341E+04  0.27853428796E+04  0.25500000920E-02 0.  1.
       -2    1    3    3    0  502 -0.10394635274E+04  0.12888854180E+03  0.98113921312E+03  0.14351762388E+04  0.25500000920E-02 0. -1.
</event>
<event>
 5   0  0.8329875E-09  0.3996072E+04  0.7818609E-02  0.8005339E-01
        1   -1    0    0  501    0  0.00000000000E+00  0.00000000000E+00  0.28532532467E+04  0.28532532467E+04  0.50400001928E-02 0.  1.
       -1   -1    0    0    0  501  0.00000000000E+00  0.00000000000E+00 -0.13991565032E+04  0.13991565032E+04  0.50400001928E-02 0. -1.
    10030    2    1    2    0    0  0.00000000000E+00  0.00000000000E+00  0.14540967435E+04  0.42524097499E+04  0.39960719891E+04 0.  0.
        5    1    3    3  502    0 -0.83288452298E+03  0.12275145303E+04 -0.69733480876E+03  0.16391419939E+04  0.46999998093E+01 0. -1.
       -5    1    3    3    0  502  0.83288452298E+03 -0.12275145303E+04  0.21514315523E+04  0.26132677560E+04  0.46999998093E+01 0.  1.
</event>
<event>
 5   0  0.8329875E-09  0.3998704E+04  0.7818609E-02  0.8004808E-01
       -1   -1    0    0    0  501  0.00000000000E+00  0.00000000000E+00  0.13905017618E+04  0.13905017618E+04  0.50400001928E-02 0.  1.
        1   -1    0    0  501    0  0.00000000000E+00  0.00000000000E+00 -0.28747958587E+04  0.28747958587E+04  0.50400001928E-02 0. -1.
    10030    2    1    2    0    0  0.00000000000E+00  0.00000000000E+00 -0.14842940969E+04  0.42652976205E+04  0.39987041433E+04 0.  0.
        3    1    3    3  502    0 -0.12418058766E+04  0.13750167170E+04 -0.15436811397E+04  0.24115771351E+04  0.10100000352E+00 0. -1.
       -3    1    3    3    0  502  0.12418058766E+04 -0.13750167170E+04  0.59387042785E+02  0.18537204854E+04  0.10100000352E+00 0.  1.
</event>
<event>
 5   0  0.2599332E-08  0.3974348E+04  0.7818609E-02  0.8009742E-01
       -2   -1    0    0    0  501  0.00000000000E+00  0.00000000000E+00  0.21535991866E+04  0.21535991866E+04  0.25500000920E-02 0.  1.
        2   -1    0    0  501    0  0.00000000000E+00  0.00000000000E+00 -0.18336093451E+04  0.18336093451E+04  0.25500000920E-02 0. -1.
    10030    2    1    2    0    0  0.00000000000E+00  0.00000000000E+00  0.31998984155E+03  0.39872085317E+04  0.39743475409E+04 0.  0.
        2    1    3    3  502    0  0.14419762649E+03  0.80288520323E+03 -0.16578958384E+04  0.18477110748E+04  0.25500000920E-02 0. -1.
       -2    1    3    3    0  502 -0.14419762649E+03 -0.80288520323E+03  0.19778856799E+04  0.21394974569E+04  0.25500000920E-02 0.  1.
</event>
<event>
 5   0  0.8329875E-09  0.3996070E+04  0.7818609E-02  0.8005340E-01
       -1   -1    0    0    0  501  0.00000000000E+00  0.00000000000E+00  0.30043398974E+04  0.30043398974E+04  0.50400001928E-02 0.  1.
        1   -1    0    0  501    0  0.00000000000E+00  0.00000000000E+00 -0.13287925530E+04  0.13287925530E+04  0.50400001928E-02 0. -1.
    10030    2    1    2    0    0  0.00000000000E+00  0.00000000000E+00  0.16755473444E+04  0.43331324504E+04  0.39960703109E+04 0.  0.
        2    1    3    3  502    0 -0.53361735283E+03 -0.18542492226E+04  0.14003371587E+04  0.23840997917E+04  0.25500000920E-02 0.  1.
       -2    1    3    3    0  502  0.53361735283E+03  0.18542492226E+04  0.27521018575E+03  0.19490326588E+04  0.25500000920E-02 0. -1.
</event>
<event>
 5   0  0.8329875E-09  0.3992323E+04  0.7818609E-02  0.8006097E-01
       -1   -1    0    0    0  501  0.00000000000E+00  0.00000000000E+00  0.21729863036E+04  0.21729863036E+04  0.50400001928E-02 0.  1.
        1   -1    0    0  501    0  0.00000000000E+00  0.00000000000E+00 -0.18337257183E+04  0.18337257183E+04  0.50400001928E-02 0. -1.
    10030    2    1    2    0    0  0.00000000000E+00  0.00000000000E+00  0.33926058534E+03  0.40067120219E+04  0.39923230683E+04 0.  0.
        5    1    3    3  502    0 -0.16045932453E+04  0.57530439096E+03 -0.87283579121E+03  0.19150872130E+04  0.46999998093E+01 0. -1.
       -5    1    3    3    0  502  0.16045932453E+04 -0.57530439096E+03  0.12120963766E+04  0.20916248089E+04  0.46999998093E+01 0.  1.
</event>
<event>
 5   0  0.2746876E-08  0.4024318E+04  0.7818609E-02  0.7999659E-01
        2   -1    0    0  501    0  0.00000000000E+00  0.00000000000E+00  0.26882637536E+04  0.26882637536E+04  0.25500000920E-02 0.  1.
       -2   -1    0    0    0  501  0.00000000000E+00  0.00000000000E+00 -0.15060963339E+04  0.15060963339E+04  0.25500000920E-02 0. -1.
    10030    2    1    2    0    0  0.00000000000E+00  0.00000000000E+00  0.11821674197E+04  0.41943600874E+04  0.40243181702E+04 0.  0.
        1    1    3    3  502    0  0.14042194153E+04 -0.14070921499E+04  0.91576485857E+03  0.21886904214E+04  0.50400001928E-02 0.  1.
       -1    1    3    3    0  502 -0.14042194153E+04  0.14070921499E+04  0.26640256115E+03  0.20056696660E+04  0.50400001928E-02 0. -1.
</event>
<event>
 5   0  0.2599332E-08  0.4000755E+04  0.7818609E-02  0.8004394E-01
       -2   -1    0    0    0  501  0.00000000000E+00  0.00000000000E+00  0.13051944445E+04  0.13051944445E+04  0.25500000920E-02 0.  1.
        2   -1    0    0  501    0  0.00000000000E+00  0.00000000000E+00 -0.30658340476E+04  0.30658340476E+04  0.25500000920E-02 0. -1.
    10030    2    1    2    0    0  0.00000000000E+00  0.00000000000E+00 -0.17606396031E+04  0.43710284922E+04  0.40007547122E+04 0.  0.
        2    1    3    3  502    0 -0.63914390674E+03 -0.18014040979E+04 -0.15247840465E+04  0.24451028703E+04  0.25500000920E-02 0.  1.
       -2    1    3    3    0  502  0.63914390674E+03  0.18014040979E+04 -0.23585555656E+03  0.19259256219E+04  0.25500000920E-02 0. -1.
</event>
<event>
 5   0  0.2612363E-08  0.3992179E+04  0.7818609E-02  0.8006126E-01
        2   -1    0    0  501    0  0.00000000000E+00  0.00000000000E+00  0.15809337851E+04  0.15809337851E+04  0.25500000920E-02 0. -1.
       -2   -1    0    0    0  501  0.00000000000E+00  0.00000000000E+00 -0.25202651755E+04  0.25202651755E+04  0.25500000920E-02 0.  1.
    10030    2    1    2    0    0  0.00000000000E+00  0.00000000000E+00 -0.93933139046E+03  0.41011989606E+04  0.39921785348E+04 0.  0.
        4    1    3    3  502    0  0.78938629845E+03 -0.62327669440E+03 -0.22409213899E+04  0.24562847666E+04  0.12699999809E+01 0.  1.
       -4    1    3    3    0  502 -0.78938629845E+03  0.62327669440E+03  0.13015899995E+04  0.16449141940E+04  0.12699999809E+01 0. -1.
</event>
<event>
 5   0  0.2587493E-08  0.4014544E+04  0.7818609E-02  0.8001619E-01
       -2   -1    0    0    0  501  0.00000000000E+00  0.00000000000E+00  0.19662126100E+04  0.19662126100E+04  0.25500000920E-02 0. -1.
        2   -1    0    0  501    0  0.00000000000E+00  0.00000000000E+00 -0.20491892517E+04  0.20491892517E+04  0.25500000920E-02 0.  1.
    10030    2    1    2    0    0  0.00000000000E+00  0.00000000000E+00 -0.82976641628E+02  0.40154018617E+04  0.40145444309E+04 0.  0.
        5    1    3    3  502    0 -0.23917219696E+03  0.76436027395E+03 -0.18824437596E+04  0.20457435241E+04  0.46999998093E+01 0.  1.
       -5    1    3    3    0  502  0.23917219696E+03 -0.76436027395E+03  0.17994671180E+04  0.19696583376E+04  0.46999998093E+01 0. -1.
</event>
<event>
 5   0  0.2612363E-08  0.3997318E+04  0.7818609E-02  0.8005088E-01
        2   -1    0    0  501    0  0.00000000000E+00  0.00000000000E+00  0.22116517122E+04  0.22116517122E+04  0.25500000920E-02 0.  1.
       -2   -1    0    0    0  501  0.00000000000E+00  0.00000000000E+00 -0.18061782165E+04  0.18061782165E+04  0.25500000920E-02 0. -1.
    10030    2    1    2    0    0  0.00000000000E+00  0.00000000000E+00  0.40547349575E+03  0.40178299287E+04  0.39973176732E+04 0.  0.
        4    1    3    3  502    0 -0.15731425112E+04  0.83861818005E+03 -0.70554722062E+03  0.19172522802E+04  0.12699999809E+01 0. -1.
       -4    1    3    3    0  502  0.15731425112E+04 -0.83861818005E+03  0.11110207164E+04  0.21005776485E+04  0.12699999809E+01 0.  1.
</event>
<event>
 5   0  0.2746876E-08  0.3980025E+04  0.7818609E-02  0.8008588E-01
        2   -1    0    0  501    0  0.00000000000E+00  0.00000000000E+00  0.12840245473E+04  0.12840245473E+04  0.25500000920E-02 0. -1.
       -2   -1    0    0    0  501  0.00000000000E+00  0.00000000000E+00 -0.30841701916E+04  0.30841701916E+04  0.25500000920E-02 0.  1.
    10030    2    1    2    0    0  0.00000000000E+00  0.00000000000E+00 -0.18001456443E+04  0.43681947390E+04  0.39800252432E+04 0.  0.
        1    1    3    3  502    0 -0.16714345408E+04 -0.10561107280E+04 -0.11481410307E+04  0.22863269933E+04  0.50400001928E-02 0.  1.
       -1    1    3    3    0  502  0.16714345408E+04  0.10561107280E+04 -0.65200461363E+03  0.20818677456E+04  0.50400001928E-02 0. -1.
</event>
<event>
 5   0  0.8329875E-09  0.4005432E+04  0.7818609E-02  0.8003452E-01
       -1   -1    0    0    0  501  0.00000000000E+00  0.00000000000E+00  0.15548577671E+04  0.15548577671E+04  0.50400001928E-02 0.  1.
        1   -1    0    0  501    0  0.00000000000E+00  0.00000000000E+00 -0.25795740760E+04  0.25795740760E+04  0.50400001928E-02 0. -1.
    10030    2    1    2    0    0  0.00000000000E+00  0.00000000000E+00 -0.10247163088E+04  0.41344318431E+04  0.40054317060E+04 0.  0.
        4    1    3    3  502    0 -0.13384674454E+04  0.14294499911E+04 -0.94545055932E+03  0.21745575993E+04  0.12699999809E+01 0. -1.
       -4    1    3    3    0  502  0.13384674454E+04 -0.14294499911E+04 -0.79265749504E+02  0.19598742438E+04  0.12699999809E+01 0.  1.
</event>
<event>
 5   0  0.2599332E-08  0.3991468E+04  0.7818609E-02  0.8006270E-01
        2   -1    0    0  501    0  0.00000000000E+00  0.00000000000E+00  0.24079503368E+04  0.24079503368E+04  0.25500000920E-02 0.  1.
       -2   -1    0    0    0  501  0.00000000000E+00  0.00000000000E+00 -0.16540845073E+04  0.16540845073E+04  0.25500000920E-02 0. -1.
    10030    2    1    2    0    0  0.00000000000E+00  0.00000000000E+00  0.75386582952E+03  0.40620348442E+04  0.39914675730E+04 0.  0.
        2    1    3    3  502    0 -0.13691129083E+04 -0.13548494134E+04 -0.15466829025E+03  0.19323584990E+04  0.25500000920E-02 0. -1.
       -2    1    3    3    0  502  0.13691129083E+04  0.13548494134E+04  0.90853411977E+03  0.21296763452E+04  0.25500000920E-02 0.  1.
</event>
<event>
 5   0  0.2650452E-08  0.3997844E+04  0.7818609E-02  0.8004982E-01
        2   -1    0    0  501    0  0.00000000000E+00  0.00000000000E+00  0.19851020995E+04  0.19851020995E+04  0.25500000920E-02 0. -1.
       -2   -1    0    0    0  501  0.00000000000E+00  0.00000000000E+00 -0.20128379288E+04  0.20128379288E+04  0.25500000920E-02 0.  1.
    10030    2    1    2    0    0  0.00000000000E+00  0.00000000000E+00 -0.27735829273E+02  0.39979400283E+04  0.39978438181E+04 0.  0.
        3    1    3    3  502    0  0.17671244758E+03  0.15806539951E+04  0.11969437997E+04  0.19905699714E+04  0.10100000352E+00 0.  1.
       -3    1    3    3    0  502 -0.17671244758E+03 -0.15806539951E+04 -0.12246796290E+04  0.20073700569E+04  0.10100000352E+00 0. -1.
</event>
<event>
 5   0  0.2587493E-08  0.3970086E+04  0.7818609E-02  0.8010608E-01
       -2   -1    0    0    0  501  0.00000000000E+00  0.00000000000E+00  0.27847126196E+04  0.27847126196E+04  0.25500000920E-02 0.  1.
        2   -1    0    0  501    0  0.00000000000E+00  0.00000000000E+00 -0.14150099043E+04  0.14150099043E+04  0.25500000920E-02 0. -1.
    10030    2    1    2    0    0  0.00000000000E+00  0.00000000000E+00  0.13697027153E+04  0.41997225240E+04  0.39700861137E+04 0.  0.
        5    1    3    3  502    0 -0.58134427677E+02  0.28294214613E+03 -0.13926532615E+04  0.14223013276E+04  0.46999998093E+01 0. -1.
       -5    1    3    3    0  502  0.58134427677E+02 -0.28294214613E+03  0.27623559768E+04  0.27774211964E+04  0.46999998093E+01 0.  1.
</event>
<event>
 5   0  0.2746876E-08  0.3972087E+04  0.7818609E-02  0.8010201E-01
       -2   -1    0    0    0  501  0.00000000000E+00  0.00000000000E+00  0.14336062033E+04  0.14336062033E+04  0.25500000920E-02 0. -1.
        2   -1    0    0  501    0  0.00000000000E+00  0.00000000000E+00 -0.27513613781E+04  0.27513613781E+04  0.25500000920E-02 0.  1.
    10030    2    1    2    0    0  0.00000000000E+00  0.00000000000E+00 -0.13177551748E+04  0.41849675814E+04  0.39720869775E+04 0.  0.
        1    1    3    3  502    0 -0.19064347349E+04  0.19898268894E+01 -0.72382900078E+02  0.19078093830E+04  0.50400001928E-02 0.  1.
       -1    1    3    3    0  502  0.19064347349E+04 -0.19898268894E+01 -0.12453722747E+04  0.22771581984E+04  0.50400001928E-02 0. -1.
</event>
<event>
 5   0  0.8329875E-09  0.4015973E+04  0.7818609E-02  0.8001332E-01
       -1   -1    0    0    0  501  0.00000000000E+00  0.00000000000E+00  0.18770663504E+04  0.18770663504E+04  0.50400001928E-02 0. -1.
        1   -1    0    0  501    0  0.00000000000E+00  0.00000000000E+00 -0.21480383351E+04  0.21480383352E+04  0.50400001928E-02 0.  1.
    10030    2    1    2    0    0  0.00000000000E+00  0.00000000000E+00 -0.27097198477E+03  0.40251046855E+04  0.40159733457E+04 0.  0.
        1    1    3    3  502    0  0.75576151172E+03  0.13105758649E+04  0.11878288862E+04  0.19234661482E+04  0.50400001928E-02 0. -1.
       -1    1    3    3    0  502 -0.75576151172E+03 -0.13105758649E+04 -0.14588008710E+04  0.21016385373E+04  0.50400001928E-02 0.  1.
</event>
<event>
 5   0  0.2599332E-08  0.3999134E+04  0.7818609E-02  0.8004721E-01
        2   -1    0    0  501    0  0.00000000000E+00  0.00000000000E+00  0.28047662444E+04  0.28047662444E+04  0.25500000920E-02 0. -1.
       -2   -1    0    0    0  501  0.00000000000E+00  0.00000000000E+00 -0.14255262733E+04  0.14255262733E+04  0.25500000920E-02 0.  1.
    10030    2    1    2    0    0  0.00000000000E+00  0.00000000000E+00  0.13792399711E+04  0.42302925176E+04  0.39991338921E+04 0.  0.
        2    1    3    3  502    0 -0.66934733314E+03  0.14996455165E+04  0.18963054403E+04  0.25085726720E+04  0.25500000920E-02 0. -1.
       -2    1    3    3    0  502  0.66934733314E+03 -0.14996455165E+04 -0.51706546914E+03  0.17217198457E+04  0.25500000920E-02 0.  1.
</event>
<event>
 5   0  0.8329875E-09  0.3998499E+04  0.7818609E-02  0.8004849E-01
        1   -1    0    0  501    0  0.00000000000E+00  0.00000000000E+00  0.19649345938E+04  0.19649345938E+04  0.50400001928E-02 0. -1.
       -1   -1    0    0    0  501  0.00000000000E+00  0.00000000000E+00 -0.20341634626E+04  0.20341634626E+04  0.50400001928E-02 0.  1.
    10030    2    1    2    0    0  0.00000000000E+00  0.00000000000E+00 -0.69228868790E+02  0.39990980564E+04  0.39984987969E+04 0.  0.
        5    1    3    3  502    0  0.11984916799E+04  0.57206902017E+03  0.14600428073E+04  0.19736748364E+04  0.46999998093E+01 0. -1.
       -5    1    3    3    0  502 -0.11984916799E+04 -0.57206902017E+03 -0.15292716761E+04  0.20254232200E+04  0.46999998093E+01 0.  1.
</event>
<event>
 5   0  0.2587493E-08  0.4000556E+04  0.7818609E-02  0.8004434E-01
        2   -1    0    0  501    0  0.00000000000E+00  0.00000000000E+00  0.18962769896E+04  0.18962769896E+04  0.25500000920E-02 0.  1.
       -2   -1    0    0    0  501  0.00000000000E+00  0.00000000000E+00 -0.21099827770E+04  0.21099827770E+04  0.25500000920E-02 0. -1.
    10030    2    1    2    0    0  0.00000000000E+00  0.00000000000E+00 -0.21370578745E+03  0.40062597666E+04  0.40005558557E+04 0.  0.
        5    1    3    3  502    0 -0.14383037691E+04 -0.99956186741E+02  0.12816233998E+04  0.19290644365E+04  0.46999998093E+01 0.  1.
       -5    1    3    3    0  502  0.14383037691E+04  0.99956186741E+02 -0.14953291872E+04  0.20771953301E+04  0.46999998093E+01 0. -1.
</event>
<event>
 5   0  0.8329875E-09  0.4004480E+04  0.7818609E-02  0.8003643E-01
        1   -1    0    0  501    0  0.00000000000E+00  0.00000000000E+00  0.21082616654E+04  0.21082616654E+04  0.50400001928E-02 0. -1.
       -1   -1    0    0    0  501  0.00000000000E+00  0.00000000000E+00 -0.19015502349E+04  0.19015502349E+04  0.50400001928E-02 0.  1.
    10030    2    1    2    0    0  0.00000000000E+00  0.00000000000E+00  0.20671143051E+03  0.40098119004E+04  0.40044802236E+04 0.  0.
        4    1    3    3  502    0 -0.19288373490E+04 -0.52387786840E+03  0.22226698343E+03  0.20110359929E+04  0.12699999809E+01 0. -1.
       -4    1    3    3    0  502  0.19288373490E+04  0.52387786840E+03 -0.15555552927E+02  0.19987759074E+04  0.12699999809E+01 0.  1.
</event>
<event>
 5   0  0.2612363E-08  0.3997698E+04  0.7818609E-02  0.8005011E-01
       -2   -1    0    0    0  501  0.00000000000E+00  0.00000000000E+00  0.19541853396E+04  0.19541853396E+04  0.25500000920E-02 0.  1.
        2   -1    0    0  501    0  0.00000000000E+00  0.00000000000E+00 -0.20445333880E+04  0.20445333880E+04  0.25500000920E-02 0. -1.
    10030    2    1    2    0    0  0.00000000000E+00  0.00000000000E+00 -0.90348048419E+02  0.39987187276E+04  0.39976979241E+04 0.  0.
        4    1    3    3  502    0  0.10302973650E+04 -0.12832780599E+04  0.10896112907E+04  0.19737197413E+04  0.12699999809E+01 0.  1.
       -4    1    3    3    0  502 -0.10302973650E+04  0.12832780599E+04 -0.11799593391E+04  0.20249989863E+04  0.12699999809E+01 0. -1.
</event>
<event>
 5   0  0.8329875E-09  0.3998536E+04  0.7818609E-02  0.8004842E-01
       -1   -1    0    0    0  501  0.00000000000E+00  0.00000000000E+00  0.15189899916E+04  0.15189899916E+04  0.50400001928E-02 0. -1.
        1   -1    0    0  501    0  0.00000000000E+00  0.00000000000E+00 -0.26314015253E+04  0.26314015253E+04  0.50400001928E-02 0.  1.
    10030    2    1    2    0    0  0.00000000000E+00  0.00000000000E+00 -0.11124115338E+04  0.41503915169E+04  0.39985360225E+04 0.  0.
        1    1    3    3  502    0  0.29595881637E+03 -0.90115265109E+03 -0.23829891038E+04  0.25648206156E+04  0.50400001928E-02 0.  1.
       -1    1    3    3    0  502 -0.29595881637E+03  0.90115265109E+03  0.12705775700E+04  0.15855709013E+04  0.50400001928E-02 0. -1.
</event>
<event>
 5   0  0.2746876E-08  0.4021625E+04  0.7818609E-02  0.8000198E-01
       -2   -1    0    0    0  501  0.00000000000E+00  0.00000000000E+00  0.21337377535E+04  0.21337377535E+04  0.25500000920E-02 0.  1.
        2   -1    0    0  501    0  0.00000000000E+00  0.00000000000E+00 -0.18949689324E+04  0.18949689324E+04  0.25500000920E-02 0. -1.
    10030    2    1    2    0    0  0.00000000000E+00  0.00000000000E+00  0.23876882114E+03  0.40287066859E+04  0.40216249217E+04 0.  0.
        1    1    3    3  502    0 -0.17217344036E+01  0.19252185195E+04 -0.46206634811E+03  0.19798925785E+04  0.50400001928E-02 0. -1.
       -1    1    3    3    0  502  0.17217344036E+01 -0.19252185195E+04  0.70083516925E+03  0.20488141074E+04  0.50400001928E-02 0.  1.
</event>
<event>
 5   0  0.8329875E-09  0.4002101E+04  0.7818609E-02  0.8004123E-01
        1   -1    0    0  501    0  0.00000000000E+00  0.00000000000E+00  0.19455347578E+04  0.19455347578E+04  0.50400001928E-02 0.  1.
       -1   -1    0    0    0  501  0.00000000000E+00  0.00000000000E+00 -0.20581505920E+04  0.20581505920E+04  0.50400001928E-02 0. -1.
    10030    2    1    2    0    0  0.00000000000E+00  0.00000000000E+00 -0.11261583415E+03  0.40036853498E+04  0.40021012049E+04 0.  0.
        4    1    3    3  502    0  0.67331010656E+03  0.12526482663E+04 -0.14646036532E+04  0.20414552781E+04  0.12699999809E+01 0. -1.
       -4    1    3    3    0  502 -0.67331010656E+03 -0.12526482663E+04  0.13519878190E+04  0.19622300717E+04  0.12699999809E+01 0.  1.
</event>
<event>
 5   0  0.2650452E-08  0.4001802E+04  0.7818609E-02  0.8004183E-01
       -2   -1    0    0    0  501  0.00000000000E+00  0.00000000000E+00  0.14757882271E+04  0.14757882271E+04  0.25500000920E-02 0.  1.
        2   -1    0    0  501    0  0.00000000000E+00  0.00000000000E+00 -0.27128584700E+04  0.27128584700E+04  0.25500000920E-02 0. -1.
    10030    2    1    2    0    0  0.00000000000E+00  0.00000000000E+00 -0.12370702429E+04  0.41886466972E+04  0.40018018901E+04 0.  0.
        3    1    3    3  502    0  0.10337992130E+04  0.16641415338E+04 -0.10443421701E+04  0.22200807273E+04  0.10100000352E+00 0. -1.
       -3    1    3    3    0  502 -0.10337992130E+04 -0.16641415338E+04 -0.19272807282E+03  0.19685659699E+04  0.10100000352E+00 0.  1.
</event>
<event>
 5   0  0.8329875E-09  0.3988014E+04  0.7818609E-02  0.8006969E-01
       -1   -1    0    0    0  501  0.00000000000E+00  0.00000000000E+00  0.25225514859E+04  0.25225514859E+04  0.50400001928E-02 0. -1.
        1   -1    0    0  501    0  0.00000000000E+00  0.00000000000E+00 -0.15762072018E+04  0.15762072018E+04  0.50400001928E-02 0.  1.
    10030    2    1    2    0    0  0.00000000000E+00  0.00000000000E+00  0.94634428404E+03  0.40987586877E+04  0.39880139513E+04 0.  0.
        3    1    3    3  502    0 -0.16516469203E+04 -0.10847897437E+03 -0.66962173106E+03  0.17855247156E+04  0.10100000352E+00 0.  1.
       -3    1    3    3    0  502  0.16516469203E+04  0.10847897437E+03  0.16159660151E+04  0.23132339720E+04  0.10100000352E+00 0. -1.
</event>
<event>
 5   0  0.2746876E-08  0.3995924E+04  0.7818609E-02  0.8005369E-01
        2   -1    0    0  501    0  0.00000000000E+00  0.00000000000E+00  0.20280749140E+04  0.20280749140E+04  0.25500000920E-02 0.  1.
       -2   -1    0    0    0  501  0.00000000000E+00  0.00000000000E+00 -0.19682960509E+04  0.19682960509E+04  0.25500000920E-02 0. -1.
    10030    2    1    2    0    0  0.00000000000E+00  0.00000000000E+00  0.59778863062E+02  0.39963709649E+04  0.39959238452E+04 0.  0.
        1    1    3    3  502    0  0.65416672304E+03 -0.41788486662E+03  0.18710978677E+04  0.20257268063E+04  0.50400001928E-02 0.  1.
       -1    1    3    3    0  502 -0.65416672304E+03  0.41788486662E+03 -0.18113190046E+04  0.19706441586E+04  0.50400001928E-02 0. -1.
</event>
<event>
 5   0  0.8329875E-09  0.4001634E+04  0.7818609E-02  0.8004217E-01
       -1   -1    0    0    0  501  0.00000000000E+00  0.00000000000E+00  0.14300246133E+04  0.14300246133E+04  0.50400001928E-02 0.  1.
        1   -1    0    0  501    0  0.00000000000E+00  0.00000000000E+00 -0.27994403720E+04  0.27994403721E+04  0.50400001928E-02 0. -1.
    10030    2    1    2    0    0  0.00000000000E+00  0.00000000000E+00 -0.13694157588E+04  0.42294649853E+04  0.40016339840E+04 0.  0.
        4    1    3    3  502    0  0.13088015700E+03  0.12451595153E+04 -0.23342420761E+04  0.26488185133E+04  0.12699999809E+01 0. -1.
       -4    1    3    3    0  502 -0.13088015700E+03 -0.12451595153E+04  0.96482631728E+03  0.15806464720E+04  0.12699999809E+01 0.  1.
</event>
<event>
 5   0  0.2650452E-08  0.3998946E+04  0.7818609E-02  0.8004759E-01
        2   -1    0    0  501    0  0.00000000000E+00  0.00000000000E+00  0.25671270428E+04  0.25671270428E+04  0.25500000920E-02 0.  1.
       -2   -1    0    0    0  501  0.00000000000E+00  0.00000000000E+00 -0.15573413335E+04  0.15573413335E+04  0.25500000920E-02 0. -1.
    10030    2    1    2    0    0  0.00000000000E+00  0.00000000000E+00  0.10097857093E+04  0.41244683762E+04  0.39989463872E+04 0.  0.
        3    1    3    3  502    0  0.10439434317E+03 -0.34685084441E+03  0.25330053358E+04  0.25587730905E+04  0.10100000352E+00 0.  1.
       -3    1    3    3    0  502 -0.10439434317E+03  0.34685084441E+03 -0.15232196265E+04  0.15656952858E+04  0.10100000352E+00 0. -1.
</event>
<event>
 5   0  0.8329875E-09  0.4013669E+04  0.7818609E-02  0.8001795E-01
       -1   -1    0    0    0  501  0.00000000000E+00  0.00000000000E+00  0.19098777312E+04  0.19098777312E+04  0.50400001928E-02 0. -1.
        1   -1    0    0  501    0  0.00000000000E+00  0.00000000000E+00 -0.21087129052E+04  0.21087129052E+04  0.50400001928E-02 0.  1.
    10030    2    1    2    0    0  0.00000000000E+00  0.00000000000E+00 -0.19883517408E+03  0.40185906364E+04  0.40136685559E+04 0.  0.
        4    1    3    3  502    0 -0.13222102613E+04 -0.60130752106E+03  0.12870446481E+04  0.19406947851E+04  0.12699999809E+01 0. -1.
       -4    1    3    3    0  502  0.13222102613E+04  0.60130752106E+03 -0.14858798222E+04  0.20778958513E+04  0.12699999809E+01 0.  1.
</event>
<event>
 5   0  0.8329875E-09  0.4009075E+04  0.7818609E-02  0.8002718E-01
       -1   -1    0    0    0  501  0.00000000000E+00  0.00000000000E+00  0.27192409027E+04  0.27192409027E+04  0.50400001928E-02 0. -1.
        1   -1    0    0  501    0  0.00000000000E+00  0.00000000000E+00 -0.14776810361E+04  0.14776810361E+04  0.50400001928E-02 0.  1.
    10030    2    1    2    0    0  0.00000000000E+00  0.00000000000E+00  0.12415598666E+04  0.41969219388E+04  0.40090750626E+04 0.  0.
        4    1    3    3  502    0  0.16009713871E+04  0.25507105836E+03  0.18550035878E+04  0.24635767800E+04  0.12699999809E+01 0. -1.
       -4    1    3    3    0  502 -0.16009713871E+04 -0.25507105836E+03 -0.61344372125E+03  0.17333451587E+04  0.12699999809E+01 0.  1.
</event>
<event>
 5   0  0.8329875E-09  0.3999626E+04  0.7818609E-02  0.8004622E-01
        1   -1    0    0  501    0  0.00000000000E+00  0.00000000000E+00  0.24568030051E+04  0.24568030051E+04  0.50400001928E-02 0.  1.
       -1   -1    0    0    0  501  0.00000000000E+00  0.00000000000E+00 -0.16278276674E+04  0.16278276674E+04  0.50400001928E-02 0. -1.
    10030    2    1    2    0    0  0.00000000000E+00  0.00000000000E+00  0.82897533774E+03  0.40846306725E+04  0.39996259350E+04 0.  0.
        5    1    3    3  502    0  0.91739926113E+03 -0.17467750240E+04  0.74758755755E+03  0.21099179214E+04  0.46999998093E+01 0. -1.
       -5    1    3    3    0  502 -0.91739926113E+03  0.17467750240E+04  0.81387780189E+02  0.19747127511E+04  0.46999998093E+01 0.  1.
</event>
<event>
 5   0  0.2599332E-08  0.3933600E+04  0.7818609E-02  0.8018077E-01
        2   -1    0    0  501    0  0.00000000000E+00  0.00000000000E+00  0.20007211493E+04  0.20007211494E+04  0.25500000920E-02 0.  1.
       -2   -1    0    0    0  501  0.00000000000E+00  0.00000000000E+00 -0.19334535902E+04  0.19334535902E+04  0.25500000920E-02 0. -1.
    10030    2    1    2    0    0  0.00000000000E+00  0.00000000000E+00  0.67267559163E+02  0.39341747395E+04  0.39335996183E+04 0.  0.
        2    1    3    3  502    0  0.63430111324E+03 -0.21902124608E+03 -0.18154180924E+04  0.19354717923E+04  0.25500000920E-02 0. -1.
       -2    1    3    3    0  502 -0.63430111324E+03  0.21902124608E+03  0.18826856516E+04  0.19987029472E+04  0.25500000920E-02 0.  1.
</event>
<event>
 5   0  0.2612363E-08  0.4000291E+04  0.7818609E-02  0.8004488E-01
        2   -1    0    0  501    0  0.00000000000E+00  0.00000000000E+00  0.22785632825E+04  0.22785632825E+04  0.25500000920E-02 0. -1.
       -2   -1    0    0    0  501  0.00000000000E+00  0.00000000000E+00 -0.17557474572E+04  0.17557474572E+04  0.25500000920E-02 0.  1.
    10030    2    1    2    0    0  0.00000000000E+00  0.00000000000E+00  0.52281582526E+03  0.40343107396E+04  0.40002908340E+04 0.  0.
        4    1    3    3  502    0  0.70097542769E+03  0.16244627096E+04 -0.67944311095E+03  0.18952282710E+04  0.12699999809E+01 0.  1.
       -4    1    3    3    0  502 -0.70097542769E+03 -0.16244627096E+04  0.12022589362E+04  0.21390824687E+04  0.12699999809E+01 0. -1.
</event>
<event>
 5   0  0.2587493E-08  0.3994074E+04  0.7818609E-02  0.8005743E-01
        2   -1    0    0  501    0  0.00000000000E+00  0.00000000000E+00  0.18219044242E+04  0.18219044242E+04  0.25500000920E-02 0. -1.
       -2   -1    0    0    0  501  0.00000000000E+00  0.00000000000E+00 -0.21890038777E+04  0.21890038777E+04  0.25500000920E-02 0.  1.
    10030    2    1    2    0    0  0.00000000000E+00  0.00000000000E+00 -0.36709945350E+03  0.40109083018E+04  0.39940735342E+04 0.  0.
        5    1    3    3  502    0  0.17672009035E+04  0.31843974539E+03 -0.10611501923E+04  0.20857767679E+04  0.46999998093E+01 0. -1.
       -5    1    3    3    0  502 -0.17672009035E+04 -0.31843974539E+03  0.69405073879E+03  0.19251315339E+04  0.46999998093E+01 0.  1.
</event>
<event>
 5   0  0.2587493E-08  0.4022553E+04  0.7818609E-02  0.8000012E-01
        2   -1    0    0  501    0  0.00000000000E+00  0.00000000000E+00  0.20889095818E+04  0.20889095818E+04  0.25500000920E-02 0.  1.
       -2   -1    0    0    0  501  0.00000000000E+00  0.00000000000E+00 -0.19365286695E+04  0.19365286695E+04  0.25500000920E-02 0. -1.
    10030    2    1    2    0    0  0.00000000000E+00  0.00000000000E+00  0.15238091232E+03  0.40254382514E+04  0.40225530665E+04 0.  0.
        5    1    3    3  502    0 -0.17805920848E+03  0.14148669373E+04 -0.13431560265E+04  0.19589904883E+04  0.46999998093E+01 0. -1.
       -5    1    3    3    0  502  0.17805920848E+03 -0.14148669373E+04  0.14955369388E+04  0.20664477630E+04  0.46999998093E+01 0.  1.
</event>
<event>
 5   0  0.8329875E-09  0.4000585E+04  0.7818609E-02  0.8004428E-01
        1   -1    0    0  501    0  0.00000000000E+00  0.00000000000E+00  0.18915336294E+04  0.18915336294E+04  0.50400001928E-02 0.  1.
       -1   -1    0    0    0  501  0.00000000000E+00  0.00000000000E+00 -0.21153052063E+04  0.21153052063E+04  0.50400001928E-02 0. -1.
    10030    2    1    2    0    0  0.00000000000E+00  0.00000000000E+00 -0.22377157697E+03  0.40068388357E+04  0.40005854242E+04 0.  0.
        4    1    3    3  502    0  0.89042394519E+03 -0.12376163624E+04  0.11849819327E+04  0.19309927127E+04  0.12699999809E+01 0.  1.
       -4    1    3    3    0  502 -0.89042394519E+03  0.12376163624E+04 -0.14087535097E+04  0.20758461230E+04  0.12699999809E+01 0. -1.
</event>
<event>
 5   0  0.8329875E-09  0.4009521E+04  0.7818609E-02  0.8002629E-01
        1   -1    0    0  501    0  0.00000000000E+00  0.00000000000E+00  0.25814336839E+04  0.25814336839E+04  0.50400001928E-02 0.  1.
       -1   -1    0    0    0  501  0.00000000000E+00  0.00000000000E+00 -0.15569121414E+04  0.15569121414E+04  0.50400001928E-02 0. -1.
    10030    2    1    2    0    0  0.00000000000E+00  0.00000000000E+00  0.10245215425E+04  0.41383458253E+04  0.40095213902E+04 0.  0.
        1    1    3    3  502    0 -0.71648661792E+03 -0.14128393757E+04 -0.75587220566E+03  0.17552239078E+04  0.50400001928E-02 0. -1.
       -1    1    3    3    0  502  0.71648661792E+03  0.14128393757E+04  0.17803937482E+04  0.23831219175E+04  0.50400001928E-02 0.  1.
</event>
<event>
 5   0  0.2650452E-08  0.4005466E+04  0.7818609E-02  0.8003445E-01
        2   -1    0    0  501    0  0.00000000000E+00  0.00000000000E+00  0.27057182549E+04  0.27057182549E+04  0.25500000920E-02 0. -1.
       -2   -1    0    0    0  501  0.00000000000E+00  0.00000000000E+00 -0.14823936925E+04  0.14823936925E+04  0.25500000920E-02 0.  1.
    10030    2    1    2    0    0  0.00000000000E+00  0.00000000000E+00  0.12233245624E+04  0.41881119474E+04  0.40054661026E+04 0.  0.
        3    1    3    3  502    0  0.33980505545E+03  0.53766387300E+03  0.25973070271E+04  0.26740519290E+04  0.10100000352E+00 0. -1.
       -3    1    3    3    0  502 -0.33980505545E+03 -0.53766387300E+03 -0.13739824646E+04  0.15140600184E+04  0.10100000352E+00 0.  1.
</event>
<event>
 5   0  0.2746876E-08  0.4003812E+04  0.7818609E-02  0.8003778E-01
       -2   -1    0    0    0  501  0.00000000000E+00  0.00000000000E+00  0.22101289357E+04  0.22101289357E+04  0.25500000920E-02 0.  1.
        2   -1    0    0  501    0  0.00000000000E+00  0.00000000000E+00 -0.18133006474E+04  0.18133006474E+04  0.25500000920E-02 0. -1.
    10030    2    1    2    0    0  0.00000000000E+00  0.00000000000E+00  0.39682828824E+03  0.40234295831E+04  0.40038122983E+04 0.  0.
        1    1    3    3  502    0  0.35552108099E+03  0.11863186670E+04  0.17789781923E+04  0.21676048134E+04  0.50400001928E-02 0.  1.
       -1    1    3    3    0  502 -0.35552108099E+03 -0.11863186670E+04 -0.13821499040E+04  0.18558247697E+04  0.50400001928E-02 0. -1.
</event>
<event>
 5   0  0.2587493E-08  0.4004689E+04  0.7818609E-02  0.8003601E-01
        2   -1    0    0  501    0  0.00000000000E+00  0.00000000000E+00  0.25527502305E+04  0.25527502305E+04  0.25500000920E-02 0.  1.
       -2   -1    0    0    0  501  0.00000000000E+00  0.00000000000E+00 -0.15706132606E+04  0.15706132606E+04  0.25500000920E-02 0. -1.
    10030    2    1    2    0    0  0.00000000000E+00  0.00000000000E+00  0.98213696990E+03  0.41233634911E+04  0.40046889333E+04 0.  0.
        5    1    3    3  502    0 -0.83226424901E+03  0.11036672088E+03  0.23627709307E+04  0.25074993827E+04  0.46999998093E+01 0.  1.
       -5    1    3    3    0  502  0.83226424901E+03 -0.11036672088E+03 -0.13806339608E+04  0.16158641084E+04  0.46999998093E+01 0. -1.
</event>
<event>
 5   0  0.8329875E-09  0.4001021E+04  0.7818609E-02  0.8004341E-01
        1   -1    0    0  501    0  0.00000000000E+00  0.00000000000E+00  0.30022207314E+04  0.30022207314E+04  0.50400001928E-02 0. -1.
       -1   -1    0    0    0  501  0.00000000000E+00  0.00000000000E+00 -0.13330274081E+04  0.13330274081E+04  0.50400001928E-02 0.  1.
    10030    2    1    2    0    0  0.00000000000E+00  0.00000000000E+00  0.16691933233E+04  0.43352481395E+04  0.40010211297E+04 0.  0.
        5    1    3    3  502    0 -0.33773447892E+03 -0.19462806202E+04  0.11771508637E+04  0.22995171399E+04  0.46999998093E+01 0.  1.
       -5    1    3    3    0  502  0.33773447892E+03  0.19462806202E+04  0.49204245959E+03  0.20357309996E+04  0.46999998093E+01 0. -1.
</event>
<event>
 5   0  0.2599332E-08  0.3997617E+04  0.7818609E-02  0.8005027E-01
        2   -1    0    0  501    0  0.00000000000E+00  0.00000000000E+00  0.22618870849E+04  0.22618870849E+04  0.25500000920E-02 0.  1.
       -2   -1    0    0    0  501  0.00000000000E+00  0.00000000000E+00 -0.17663283797E+04  0.17663283797E+04  0.25500000920E-02 0. -1.
    10030    2    1    2    0    0  0.00000000000E+00  0.00000000000E+00  0.49555870517E+03  0.40282154646E+04  0.39976169650E+04 0.  0.
        2    1    3    3  502    0  0.12651691290E+04 -0.28289695476E+03  0.17807892526E+04  0.22027015172E+04  0.25500000920E-02 0.  1.
       -2    1    3    3    0  502 -0.12651691290E+04  0.28289695476E+03 -0.12852305474E+04  0.18255139473E+04  0.25500000920E-02 0. -1.
</event>
<event>
 5   0  0.8329875E-09  0.4000858E+04  0.7818609E-02  0.8004374E-01
        1   -1    0    0  501    0  0.00000000000E+00  0.00000000000E+00  0.22344220534E+04  0.22344220534E+04  0.50400001928E-02 0. -1.
       -1   -1    0    0    0  501  0.00000000000E+00  0.00000000000E+00 -0.17909400050E+04  0.17909400050E+04  0.50400001928E-02 0.  1.
    10030    2    1    2    0    0  0.00000000000E+00  0.00000000000E+00  0.44348204844E+03  0.40253620584E+04  0.40008578297E+04 0.  0.
        1    1    3    3  502    0  0.36129238972E+03  0.90773843214E+03  0.19780540575E+04  0.22061774875E+04  0.50400001928E-02 0. -1.
       -1    1    3    3    0  502 -0.36129238972E+03 -0.90773843214E+03 -0.15345720090E+04  0.18191845709E+04  0.50400001928E-02 0.  1.
</event>
<event>
 5   0  0.2650452E-08  0.4005278E+04  0.7818609E-02  0.8003483E-01
       -2   -1    0    0    0  501  0.00000000000E+00  0.00000000000E+00  0.25394046712E+04  0.25394046712E+04  0.25500000920E-02 0.  1.
        2   -1    0    0  501    0  0.00000000000E+00  0.00000000000E+00 -0.15793317943E+04  0.15793317943E+04  0.25500000920E-02 0. -1.
    10030    2    1    2    0    0  0.00000000000E+00  0.00000000000E+00  0.96007287684E+03  0.41187364655E+04  0.40052777861E+04 0.  0.
        3    1    3    3  502    0 -0.19914344058E+04 -0.12278785119E+03  0.30289328917E+03  0.20180763622E+04  0.10100000352E+00 0. -1.
       -3    1    3    3    0  502  0.19914344058E+04  0.12278785119E+03  0.65717958767E+03  0.21006601033E+04  0.10100000352E+00 0.  1.
</event>
<event>
 5   0  0.2599332E-08  0.4006002E+04  0.7818609E-02  0.8003337E-01
        2   -1    0    0  501    0  0.00000000000E+00  0.00000000000E+00  0.15519121937E+04  0.15519121937E+04  0.25500000920E-02 0. -1.
       -2   -1    0    0    0  501  0.00000000000E+00  0.00000000000E+00 -0.25852064568E+04  0.25852064568E+04  0.25500000920E-02 0.  1.
    10030    2    1    2    0    0  0.00000000000E+00  0.00000000000E+00 -0.10332942631E+04  0.41371186505E+04  0.40060022085E+04 0.  0.
        2    1    3    3  502    0 -0.56030474211E+03  0.18889035959E+04 -0.88916820883E+03  0.21616008657E+04  0.25500000920E-02 0.  1.
       -2    1    3    3    0  502  0.56030474211E+03 -0.18889035959E+04 -0.14412605425E+03  0.19755177849E+04  0.25500000920E-02 0. -1.
</event>
<event>
 5   0  0.8329875E-09  0.3980437E+04  0.7818609E-02  0.8008505E-01
        1   -1    0    0  501    0  0.00000000000E+00  0.00000000000E+00  0.16724267860E+04  0.16724267861E+04  0.50400001928E-02 0. -1.
       -1   -1    0    0    0  501  0.00000000000E+00  0.00000000000E+00 -0.23683966850E+04  0.23683966850E+04  0.50400001928E-02 0.  1.
    10030    2    1    2    0    0  0.00000000000E+00  0.00000000000E+00 -0.69596989893E+03  0.40408234710E+04  0.39804371900E+04 0.  0.
        3    1    3    3  502    0 -0.88464752275E+03  0.14048485824E+04  0.76628660278E+03  0.18284955419E+04  0.10100000352E+00 0. -1.
       -3    1    3    3    0  502  0.88464752275E+03 -0.14048485824E+04 -0.14622565017E+04  0.22123279291E+04  0.10100000352E+00 0.  1.
</event>
<event>
 5   0  0.2587493E-08  0.3980750E+04  0.7818609E-02  0.8008441E-01
       -2   -1    0    0    0  501  0.00000000000E+00  0.00000000000E+00  0.31798849029E+04  0.31798849029E+04  0.25500000920E-02 0.  1.
        2   -1    0    0  501    0  0.00000000000E+00  0.00000000000E+00 -0.12458291947E+04  0.12458291947E+04  0.25500000920E-02 0. -1.
    10030    2    1    2    0    0  0.00000000000E+00  0.00000000000E+00  0.19340557082E+04  0.44257140976E+04  0.39807504055E+04 0.  0.
        5    1    3    3  502    0 -0.70017921260E+03 -0.11286333385E+04 -0.68107215498E+03  0.14926304006E+04  0.46999998093E+01 0. -1.
       -5    1    3    3    0  502  0.70017921260E+03  0.11286333385E+04  0.26151278632E+04  0.29330836970E+04  0.46999998093E+01 0.  1.
</event>
<event>
 5   0  0.2599332E-08  0.4001616E+04  0.7818609E-02  0.8004221E-01
       -2   -1    0    0    0  501  0.00000000000E+00  0.00000000000E+00  0.18644457972E+04  0.18644457972E+04  0.25500000920E-02 0.  1.
        2   -1    0    0  501    0  0.00000000000E+00  0.00000000000E+00 -0.21471438179E+04  0.21471438179E+04  0.25500000920E-02 0. -1.
    10030    2    1    2    0    0  0.00000000000E+00  0.00000000000E+00 -0.28269802069E+03  0.40115896151E+04  0.40016163071E+04 0.  0.
        2    1    3    3  502    0  0.12358405013E+04 -0.12759857685E+04 -0.10643999539E+04  0.20708425068E+04  0.25500000920E-02 0.  1.
       -2    1    3    3    0  502 -0.12358405013E+04  0.12759857685E+04  0.78170193322E+03  0.19407471083E+04  0.25500000920E-02 0. -1.
</event>
<event>
 5   0  0.2587493E-08  0.3996903E+04  0.7818609E-02  0.8005172E-01
        2   -1    0    0  501    0  0.00000000000E+00  0.00000000000E+00  0.23502157004E+04  0.23502157004E+04  0.25500000920E-02 0.  1.
       -2   -1    0    0    0  501  0.00000000000E+00  0.00000000000E+00 -0.16993369043E+04  0.16993369043E+04  0.25500000920E-02 0. -1.
    10030    2    1    2    0    0  0.00000000000E+00  0.00000000000E+00  0.65087879614E+03  0.40495526046E+04  0.39969029373E+04 0.  0.
        5    1    3    3  502    0 -0.10596462905E+04  0.16939360769E+04  0.36489449233E+03  0.20311178632E+04  0.46999998093E+01 0. -1.
       -5    1    3    3    0  502  0.10596462905E+04 -0.16939360769E+04  0.28598430380E+03  0.20184347415E+04  0.46999998093E+01 0.  1.
</event>
<event>
 5   0  0.8329875E-09  0.4010202E+04  0.7818609E-02  0.8002492E-01
        1   -1    0    0  501    0  0.00000000000E+00  0.00000000000E+00  0.23230314386E+04  0.23230314386E+04  0.50400001928E-02 0.  1.
       -1   -1    0    0    0  501  0.00000000000E+00  0.00000000000E+00 -0.17306826478E+04  0.17306826478E+04  0.50400001928E-02 0. -1.
    10030    2    1    2    0    0  0.00000000000E+00  0.00000000000E+00  0.59234879088E+03  0.40537140864E+04  0.40102020902E+04 0.  0.
        1    1    3    3  502    0  0.16086166521E+04  0.21612942441E+03  0.14862637018E+04  0.22007587903E+04  0.50400001928E-02 0.  1.
       -1    1    3    3    0  502 -0.16086166521E+04 -0.21612942441E+03 -0.89391491093E+03  0.18529552962E+04  0.50400001928E-02 0. -1.
</event>
<event>
 5   0  0.2612363E-08  0.3994492E+04  0.7818609E-02  0.8005659E-01
        2   -1    0    0  501    0  0.00000000000E+00  0.00000000000E+00  0.20885090744E+04  0.20885090744E+04  0.25500000920E-02 0.  1.
       -2   -1    0    0    0  501  0.00000000000E+00  0.00000000000E+00 -0.19099710106E+04  0.19099710106E+04  0.25500000920E-02 0. -1.
    10030    2    1    2    0    0  0.00000000000E+00  0.00000000000E+00  0.17853806383E+03  0.39984800850E+04  0.39944921016E+04 0.  0.
        4    1    3    3  502    0 -0.50715548544E+03  0.13759596223E+04  0.14465425800E+04  0.20598443187E+04  0.12699999809E+01 0.  1.
       -4    1    3    3    0  502  0.50715548544E+03 -0.13759596223E+04 -0.12680045161E+04  0.19386357663E+04  0.12699999809E+01 0. -1.
</event>
<event>
 5   0  0.2650452E-08  0.3998763E+04  0.7818609E-02  0.8004796E-01
       -2   -1    0    0    0  501  0.00000000000E+00  0.00000000000E+00  0.29974454186E+04  0.29974454186E+04  0.25500000920E-02 0. -1.
        2   -1    0    0  501    0  0.00000000000E+00  0.00000000000E+00 -0.13336445271E+04  0.13336445271E+04  0.25500000920E-02 0.  1.
    10030    2    1    2    0    0  0.00000000000E+00  0.00000000000E+00  0.16638008915E+04  0.43310899457E+04  0.39987631476E+04 0.  0.
        3    1    3    3  502    0 -0.17647350713E+04 -0.76979029109E+03  0.14158346767E+04  0.23898650184E+04  0.10100000352E+00 0.  1.
       -3    1    3    3    0  502  0.17647350713E+04  0.76979029109E+03  0.24796621483E+03  0.19412249273E+04  0.10100000352E+00 0. -1.
</event>
<event>
 5   0  0.2587493E-08  0.3979551E+04  0.7818609E-02  0.8008685E-01
       -2   -1    0    0    0  501  0.00000000000E+00  0.00000000000E+00  0.16099511963E+04  0.16099511963E+04  0.25500000920E-02 0.  1.
        2   -1    0    0  501    0  0.00000000000E+00  0.00000000000E+00 -0.24592085629E+04  0.24592085629E+04  0.25500000920E-02 0. -1.
    10030    2    1    2    0    0  0.00000000000E+00  0.00000000000E+00 -0.84925736661E+03  0.40691597593E+04  0.39795506118E+04 0.  0.
        5    1    3    3  502    0 -0.73319904310E+03 -0.13451517705E+04  0.87367433402E+03  0.17636164703E+04  0.46999998093E+01 0.  1.
       -5    1    3    3    0  502  0.73319904310E+03  0.13451517705E+04 -0.17229317006E+04  0.23055432890E+04  0.46999998093E+01 0. -1.
</event>
<event>
 5   0  0.2650452E-08  0.4037988E+04  0.7818609E-02  0.7996927E-01
        2   -1    0    0  501    0  0.00000000000E+00  0.00000000000E+00  0.22805003036E+04  0.22805003036E+04  0.25500000920E-02 0.  1.
       -2   -1    0    0    0  501  0.00000000000E+00  0.00000000000E+00 -0.17874749426E+04  0.17874749426E+04  0.25500000920E-02 0. -1.
    10030    2    1    2    0    0  0.00000000000E+00  0.00000000000E+00  0.49302536100E+03  0.40679752462E+04  0.40379881868E+04 0.  0.
        3    1    3    3  502    0  0.16661823830E+04  0.90274398387E+03 -0.45524246374E+03  0.19489371834E+04  0.10100000352E+00 0. -1.
       -3    1    3    3    0  502 -0.16661823830E+04 -0.90274398387E+03  0.94826782474E+03  0.21190380628E+04  0.10100000352E+00 0.  1.
</event>
<event>
 5   0  0.8329875E-09  0.4004940E+04  0.7818609E-02  0.8003551E-01
       -1   -1    0    0    0  501  0.00000000000E+00  0.00000000000E+00  0.15680811815E+04  0.15680811815E+04  0.50400001928E-02 0.  1.
        1   -1    0    0  501    0  0.00000000000E+00  0.00000000000E+00 -0.25571931302E+04  0.25571931302E+04  0.50400001928E-02 0. -1.
    10030    2    1    2    0    0  0.00000000000E+00  0.00000000000E+00 -0.98911194869E+03  0.41252743117E+04  0.40049401618E+04 0.  0.
        3    1    3    3  502    0 -0.17986246232E+04  0.81317921075E+03 -0.14742046957E+03  0.19794049027E+04  0.10100000352E+00 0. -1.
       -3    1    3    3    0  502  0.17986246232E+04 -0.81317921075E+03 -0.84169147912E+03  0.21458694089E+04  0.10100000352E+00 0.  1.
</event>
<event>
 5   0  0.8329875E-09  0.3992501E+04  0.7818609E-02  0.8006061E-01
       -1   -1    0    0    0  501  0.00000000000E+00  0.00000000000E+00  0.23784295016E+04  0.23784295016E+04  0.50400001928E-02 0. -1.
        1   -1    0    0  501    0  0.00000000000E+00  0.00000000000E+00 -0.16754823775E+04  0.16754823775E+04  0.50400001928E-02 0.  1.
    10030    2    1    2    0    0  0.00000000000E+00  0.00000000000E+00  0.70294712412E+03  0.40539118791E+04  0.39925013293E+04 0.  0.
        5    1    3    3  502    0 -0.16278339029E+04  0.29908928244E+03  0.14847489213E+04  0.22234655526E+04  0.46999998093E+01 0. -1.
       -5    1    3    3    0  502  0.16278339029E+04 -0.29908928244E+03 -0.78180179714E+03  0.18304463265E+04  0.46999998093E+01 0.  1.
</event>
<event>
 5   0  0.2612363E-08  0.4000374E+04  0.7818609E-02  0.8004471E-01
        2   -1    0    0  501    0  0.00000000000E+00  0.00000000000E+00  0.15908895666E+04  0.15908895666E+04  0.25500000920E-02 0.  1.
       -2   -1    0    0    0  501  0.00000000000E+00  0.00000000000E+00 -0.25147863172E+04  0.25147863172E+04  0.25500000920E-02 0. -1.
    10030    2    1    2    0    0  0.00000000000E+00  0.00000000000E+00 -0.92389675061E+03  0.41056758837E+04  0.40003736396E+04 0.  0.
        4    1    3    3  502    0 -0.16606989630E+04 -0.17129713603E+03  0.66863023488E+03  0.17984247992E+04  0.12699999809E+01 0.  1.
       -4    1    3    3    0  502  0.16606989630E+04  0.17129713603E+03 -0.15925269855E+04  0.23072510845E+04  0.12699999809E+01 0. -1.
</event>
<event>
 5   0  0.8329875E-09  0.3999455E+04  0.7818609E-02  0.8004656E-01
        1   -1    0    0  501    0  0.00000000000E+00  0.00000000000E+00  0.21790854169E+04  0.21790854169E+04  0.50400001928E-02 0. -1.
       -1   -1    0    0    0  501  0.00000000000E+00  0.00000000000E+00 -0.18351325872E+04  0.18351325872E+04  0.50400001928E-02 0.  1.
    10030    2    1    2    0    0  0.00000000000E+00  0.00000000000E+00  0.34395282971E+03  0.40142180041E+04  0.39994552923E+04 0.  0.
        5    1    3    3  502    0  0.15981722069E+04 -0.38935140295E+03 -0.96938404244E+03  0.19093130780E+04  0.46999998093E+01 0.  1.
       -5    1    3    3    0  502 -0.15981722069E+04  0.38935140295E+03  0.13133368721E+04  0.21049049261E+04  0.46999998093E+01 0. -1.
</event>
<event>
 5   0  0.8329875E-09  0.4003340E+04  0.7818609E-02  0.8003873E-01
       -1   -1    0    0    0  501  0.00000000000E+00  0.00000000000E+00  0.27993618964E+04  0.27993618964E+04  0.50400001928E-02 0.  1.
        1   -1    0    0  501    0  0.00000000000E+00  0.00000000000E+00 -0.14312846530E+04  0.14312846530E+04  0.50400001928E-02 0. -1.
    10030    2    1    2    0    0  0.00000000000E+00  0.00000000000E+00  0.13680772434E+04  0.42306465494E+04  0.40033404654E+04 0.  0.
        5    1    3    3  502    0 -0.13245027965E+04 -0.68614612336E+03  0.20945744939E+04  0.25714526169E+04  0.46999998093E+01 0.  1.
       -5    1    3    3    0  502  0.13245027965E+04  0.68614612336E+03 -0.72649725054E+03  0.16591939325E+04  0.46999998093E+01 0. -1.
</event>
<event>
 5   0  0.8329875E-09  0.4007672E+04  0.7818609E-02  0.8003001E-01
       -1   -1    0    0    0  501  0.00000000000E+00  0.00000000000E+00  0.14842468220E+04  0.14842468220E+04  0.50400001928E-02 0. -1.
        1   -1    0    0  501    0  0.00000000000E+00  0.00000000000E+00 -0.27053167925E+04  0.27053167925E+04  0.50400001928E-02 0.  1.
    10030    2    1    2    0    0  0.00000000000E+00  0.00000000000E+00 -0.12210699705E+04  0.41895636145E+04  0.40076715693E+04 0.  0.
        3    1    3    3  502    0 -0.12636512034E+04  0.22190774413E+03 -0.22196486843E+04  0.25637663120E+04  0.10100000352E+00 0.  1.
       -3    1    3    3    0  502  0.12636512034E+04 -0.22190774413E+03  0.99857871383E+03  0.16257973025E+04  0.10100000352E+00 0. -1.
</event>
<event>
 5   0  0.2746876E-08  0.4001885E+04  0.7818609E-02  0.8004166E-01
        2   -1    0    0  501    0  0.00000000000E+00  0.00000000000E+00  0.23330631269E+04  0.23330631269E+04  0.25500000920E-02 0.  1.
       -2   -1    0    0    0  501  0.00000000000E+00  0.00000000000E+00 -0.17161007891E+04  0.17161007891E+04  0.25500000920E-02 0. -1.
    10030    2    1    2    0    0  0.00000000000E+00  0.00000000000E+00  0.61696233780E+03  0.40491639160E+04  0.40018852922E+04 0.  0.
        1    1    3    3  502    0  0.10964802378E+04 -0.15283686993E+04  0.99888521426E+03  0.21297773274E+04  0.50400001928E-02 0.  1.
       -1    1    3    3    0  502 -0.10964802378E+04  0.15283686993E+04 -0.38192287646E+03  0.19193865886E+04  0.50400001928E-02 0. -1.
</event>
<event>
 5   0  0.8329875E-09  0.4022088E+04  0.7818609E-02  0.8000105E-01
       -1   -1    0    0    0  501  0.00000000000E+00  0.00000000000E+00  0.17818071309E+04  0.17818071309E+04  0.50400001928E-02 0. -1.
        1   -1    0    0  501    0  0.00000000000E+00  0.00000000000E+00 -0.22697734768E+04  0.22697734768E+04  0.50400001928E-02 0.  1.
    10030    2    1    2    0    0  0.00000000000E+00  0.00000000000E+00 -0.48796634589E+03  0.40515806077E+04  0.40220882967E+04 0.  0.
        2    1    3    3  502    0 -0.12618450927E+03  0.18590134570E+04  0.51816562272E+03  0.19339982358E+04  0.25500000920E-02 0. -1.
       -2    1    3    3    0  502  0.12618450927E+03 -0.18590134570E+04 -0.10061319686E+04  0.21175823719E+04  0.25500000920E-02 0.  1.
</event>
<event>
 5   0  0.8329875E-09  0.3996494E+04  0.7818609E-02  0.8005254E-01
        1   -1    0    0  501    0  0.00000000000E+00  0.00000000000E+00  0.16665333124E+04  0.16665333124E+04  0.50400001928E-02 0. -1.
       -1   -1    0    0    0  501  0.00000000000E+00  0.00000000000E+00 -0.23959862634E+04  0.23959862635E+04  0.50400001928E-02 0.  1.
    10030    2    1    2    0    0  0.00000000000E+00  0.00000000000E+00 -0.72945295108E+03  0.40625195758E+04  0.39964939254E+04 0.  0.
        3    1    3    3  502    0  0.81674685415E+03 -0.69593336257E+03 -0.20782780839E+04  0.23389396044E+04  0.10100000352E+00 0.  1.
       -3    1    3    3    0  502 -0.81674685415E+03  0.69593336257E+03  0.13488251328E+04  0.17235799714E+04  0.10100000352E+00 0. -1.
</event>
<event>
 5   0  0.8329875E-09  0.3959438E+04  0.7818609E-02  0.8012779E-01
        1   -1    0    0  501    0  0.00000000000E+00  0.00000000000E+00  0.18467299733E+04  0.18467299733E+04  0.50400001928E-02 0. -1.
       -1   -1    0    0    0  501  0.00000000000E+00  0.00000000000E+00 -0.21222852091E+04  0.21222852091E+04  0.50400001928E-02 0.  1.
    10030    2    1    2    0    0  0.00000000000E+00  0.00000000000E+00 -0.27555523571E+03  0.39690151824E+04  0.39594381963E+04 0.  0.
        2    1    3    3  502    0  0.19523887486E+04  0.21130907848E+03 -0.38901175224E+03  0.20019499234E+04  0.25500000920E-02 0.  1.
       -2    1    3    3    0  502 -0.19523887486E+04 -0.21130907848E+03  0.11345651653E+03  0.19670652591E+04  0.25500000920E-02 0. -1.
</event>
<event>
 5   0  0.8329875E-09  0.3990273E+04  0.7818609E-02  0.8006512E-01
        1   -1    0    0  501    0  0.00000000000E+00  0.00000000000E+00  0.23969568819E+04  0.23969568819E+04  0.50400001928E-02 0.  1.
       -1   -1    0    0    0  501  0.00000000000E+00  0.00000000000E+00 -0.16606763515E+04  0.16606763515E+04  0.50400001928E-02 0. -1.
    10030    2    1    2    0    0  0.00000000000E+00  0.00000000000E+00  0.73628053042E+03  0.40576332334E+04  0.39902729778E+04 0.  0.
        3    1    3    3  502    0 -0.90384850647E+03 -0.53190866642E+03  0.20940546437E+04  0.23419935553E+04  0.10100000352E+00 0.  1.
       -3    1    3    3    0  502  0.90384850647E+03  0.53190866642E+03 -0.13577741133E+04  0.17156396781E+04  0.10100000352E+00 0. -1.
</event>
<event>
 5   0  0.2587493E-08  0.3997551E+04  0.7818609E-02  0.8005041E-01
        2   -1    0    0  501    0  0.00000000000E+00  0.00000000000E+00  0.17381431100E+04  0.17381431100E+04  0.25500000920E-02 0. -1.
       -2   -1    0    0    0  501  0.00000000000E+00  0.00000000000E+00 -0.22984893297E+04  0.22984893297E+04  0.25500000920E-02 0.  1.
    10030    2    1    2    0    0  0.00000000000E+00  0.00000000000E+00 -0.56034621973E+03  0.40366324397E+04  0.39975509461E+04 0.  0.
        5    1    3    3  502    0 -0.11183220076E+04  0.18792034498E+03 -0.19422058365E+04  0.22490317406E+04  0.46999998093E+01 0.  1.
       -5    1    3    3    0  502  0.11183220076E+04 -0.18792034498E+03  0.13818596168E+04  0.17876006991E+04  0.46999998093E+01 0. -1.
</event>
<event>
 5   0  0.2746876E-08  0.3998064E+04  0.7818609E-02  0.8004937E-01
        2   -1    0    0  501    0  0.00000000000E+00  0.00000000000E+00  0.24441434087E+04  0.24441434087E+04  0.25500000920E-02 0.  1.
       -2   -1    0    0    0  501  0.00000000000E+00  0.00000000000E+00 -0.16349814739E+04  0.16349814739E+04  0.25500000920E-02 0. -1.
    10030    2    1    2    0    0  0.00000000000E+00  0.00000000000E+00  0.80916193483E+03  0.40791248826E+04  0.39980641279E+04 0.  0.
        1    1    3    3  502    0 -0.11557133237E+04  0.10117063172E+03 -0.12563754722E+04  0.17100842407E+04  0.50400001928E-02 0. -1.
       -1    1    3    3    0  502  0.11557133237E+04 -0.10117063172E+03  0.20655374070E+04  0.23690406419E+04  0.50400001928E-02 0.  1.
</event>
<event>
 5   0  0.8329875E-09  0.4015969E+04  0.7818609E-02  0.8001333E-01
        1   -1    0    0  501    0  0.00000000000E+00  0.00000000000E+00  0.16377766796E+04  0.16377766796E+04  0.50400001928E-02 0. -1.
       -1   -1    0    0    0  501  0.00000000000E+00  0.00000000000E+00 -0.24618753641E+04  0.24618753641E+04  0.50400001928E-02 0.  1.
    10030    2    1    2    0    0  0.00000000000E+00  0.00000000000E+00 -0.82409868444E+03  0.40996520437E+04  0.40159691530E+04 0.  0.
        1    1    3    3  502    0 -0.16835206781E+04 -0.10656147954E+04 -0.15740143783E+03  0.19986375305E+04  0.50400001928E-02 0.  1.
       -1    1    3    3    0  502  0.16835206781E+04  0.10656147954E+04 -0.66669724661E+03  0.21010145132E+04  0.50400001928E-02 0. -1.
</event>
<event>
 5   0  0.2599332E-08  0.3994973E+04  0.7818609E-02  0.8005561E-01
       -2   -1    0    0    0  501  0.00000000000E+00  0.00000000000E+00  0.31281755032E+04  0.31281755032E+04  0.25500000920E-02 0. -1.
        2   -1    0    0  501    0  0.00000000000E+00  0.00000000000E+00 -0.12754885101E+04  0.12754885101E+04  0.25500000920E-02 0.  1.
    10030    2    1    2    0    0  0.00000000000E+00  0.00000000000E+00  0.18526869930E+04  0.44036640133E+04  0.39949727969E+04 0.  0.
        2    1    3    3  502    0  0.11340351478E+03 -0.60825580253E+03 -0.11671924889E+04  0.13210502581E+04  0.25500000920E-02 0.  1.
       -2    1    3    3    0  502 -0.11340351478E+03  0.60825580253E+03  0.30198794819E+04  0.30826137552E+04  0.25500000920E-02 0. -1.
</event>
<event>
 5   0  0.2587493E-08  0.3999292E+04  0.7818609E-02  0.8004689E-01
       -2   -1    0    0    0  501  0.00000000000E+00  0.00000000000E+00  0.21728611205E+04  0.21728611205E+04  0.25500000920E-02 0.  1.
        2   -1    0    0  501    0  0.00000000000E+00  0.00000000000E+00 -0.18402391149E+04  0.18402391149E+04  0.25500000920E-02 0. -1.
    10030    2    1    2    0    0  0.00000000000E+00  0.00000000000E+00  0.33262200563E+03  0.40131002354E+04  0.39992919499E+04 0.  0.
        5    1    3    3  502    0  0.90699079784E+03  0.52104703564E+03  0.18764368620E+04  0.21482922771E+04  0.46999998093E+01 0.  1.
       -5    1    3    3    0  502 -0.90699079784E+03 -0.52104703564E+03 -0.15438148564E+04  0.18648079583E+04  0.46999998093E+01 0. -1.
</event>
<event>
 5   0  0.8329875E-09  0.4002149E+04  0.7818609E-02  0.8004113E-01
       -1   -1    0    0    0  501  0.00000000000E+00  0.00000000000E+00  0.23837109007E+04  0.23837109008E+04  0.50400001928E-02 0. -1.
        1   -1    0    0  501    0  0.00000000000E+00  0.00000000000E+00 -0.16798595081E+04  0.16798595081E+04  0.50400001928E-02 0.  1.
    10030    2    1    2    0    0  0.00000000000E+00  0.00000000000E+00  0.70385139264E+03  0.40635704089E+04  0.40021491333E+04 0.  0.
        2    1    3    3  502    0  0.28108940711E+03 -0.13357118276E+04  0.18376536444E+04  0.22891282747E+04  0.25500000920E-02 0. -1.
       -2    1    3    3    0  502 -0.28108940711E+03  0.13357118276E+04 -0.11338022518E+04  0.17744421341E+04  0.25500000920E-02 0.  1.
</event>
<event>
 5   0  0.2599332E-08  0.4005467E+04  0.7818609E-02  0.8003445E-01
        2   -1    0    0  501    0  0.00000000000E+00  0.00000000000E+00  0.20199918973E+04  0.20199918973E+04  0.25500000920E-02 0. -1.
       -2   -1    0    0    0  501  0.00000000000E+00  0.00000000000E+00 -0.19856227254E+04  0.19856227254E+04  0.25500000920E-02 0.  1.
    10030    2    1    2    0    0  0.00000000000E+00  0.00000000000E+00  0.34369171913E+02  0.40056146228E+04  0.40054671720E+04 0.  0.
        2    1    3    3  502    0 -0.15375769437E+04 -0.98307571739E+03 -0.80768581893E+03  0.19957297177E+04  0.25500000920E-02 0.  1.
       -2    1    3    3    0  502  0.15375769437E+04  0.98307571739E+03  0.84205499085E+03  0.20098849051E+04  0.25500000920E-02 0. -1.
</event>
<event>
 5   0  0.2650452E-08  0.4002677E+04  0.7818609E-02  0.8004007E-01
        2   -1    0    0  501    0  0.00000000000E+00  0.00000000000E+00  0.20938460922E+04  0.20938460922E+04  0.25500000920E-02 0.  1.
       -2   -1    0    0    0  501  0.00000000000E+00  0.00000000000E+00 -0.19129183885E+04  0.19129183886E+04  0.25500000920E-02 0. -1.
    10030    2    1    2    0    0  0.00000000000E+00  0.00000000000E+00  0.18092770362E+03  0.40067644807E+04  0.40026774502E+04 0.  0.
        3    1    3    3  502    0 -0.44198217749E+03  0.16822968308E+04 -0.90043871859E+03  0.19586374775E+04  0.10100000352E+00 0. -1.
       -3    1    3    3    0  502  0.44198217749E+03 -0.16822968308E+04  0.10813664222E+04  0.20481270032E+04  0.10100000352E+00 0.  1.
</event>
<event>
 5   0  0.8329875E-09  0.4005293E+04  0.7818609E-02  0.8003480E-01
       -1   -1    0    0    0  501  0.00000000000E+00  0.00000000000E+00  0.14496434798E+04  0.14496434798E+04  0.50400001928E-02 0. -1.
        1   -1    0    0  501    0  0.00000000000E+00  0.00000000000E+00 -0.27666062250E+04  0.27666062250E+04  0.50400001928E-02 0.  1.
    10030    2    1    2    0    0  0.00000000000E+00  0.00000000000E+00 -0.13169627452E+04  0.42162497048E+04  0.40052928359E+04 0.  0.
        5    1    3    3  502    0 -0.94979486069E+03 -0.94832449810E+03 -0.22230829488E+04  0.25968345189E+04  0.46999998093E+01 0.  1.
       -5    1    3    3    0  502  0.94979486069E+03  0.94832449810E+03  0.90612020362E+03  0.16194151860E+04  0.46999998093E+01 0. -1.
</event>
<event>
 5   0  0.2746876E-08  0.3999498E+04  0.7818609E-02  0.8004648E-01
        2   -1    0    0  501    0  0.00000000000E+00  0.00000000000E+00  0.19728942455E+04  0.19728942455E+04  0.25500000920E-02 0. -1.
       -2   -1    0    0    0  501  0.00000000000E+00  0.00000000000E+00 -0.20269693602E+04  0.20269693602E+04  0.25500000920E-02 0.  1.
    10030    2    1    2    0    0  0.00000000000E+00  0.00000000000E+00 -0.54075114701E+02  0.39998636057E+04  0.39994980618E+04 0.  0.
        1    1    3    3  502    0 -0.13861606918E+04  0.14409862669E+04  0.63316656249E+01  0.19994806763E+04  0.50400001928E-02 0. -1.
       -1    1    3    3    0  502  0.13861606918E+04 -0.14409862669E+04 -0.60406780326E+02  0.20003829294E+04  0.50400001928E-02 0.  1.
</event>
<event>
 5   0  0.8329875E-09  0.4007113E+04  0.7818609E-02  0.8003113E-01
       -1   -1    0    0    0  501  0.00000000000E+00  0.00000000000E+00  0.14931931842E+04  0.14931931843E+04  0.50400001928E-02 0.  1.
        1   -1    0    0  501    0  0.00000000000E+00  0.00000000000E+00 -0.26883587956E+04  0.26883587956E+04  0.50400001928E-02 0. -1.
    10030    2    1    2    0    0  0.00000000000E+00  0.00000000000E+00 -0.11951656114E+04  0.41815519799E+04  0.40071131905E+04 0.  0.
        4    1    3    3  502    0 -0.58150703193E+03 -0.71733490119E+03 -0.24530517653E+04  0.26211036540E+04  0.12699999809E+01 0. -1.
       -4    1    3    3    0  502  0.58150703193E+03  0.71733490119E+03  0.12578861539E+04  0.15604483259E+04  0.12699999809E+01 0.  1.
</event>
<event>
 5   0  0.8329875E-09  0.3994833E+04  0.7818609E-02  0.8005590E-01
       -1   -1    0    0    0  501  0.00000000000E+00  0.00000000000E+00  0.30223688883E+04  0.30223688883E+04  0.50400001928E-02 0. -1.
        1   -1    0    0  501    0  0.00000000000E+00  0.00000000000E+00 -0.13200480281E+04  0.13200480281E+04  0.50400001928E-02 0.  1.
    10030    2    1    2    0    0  0.00000000000E+00  0.00000000000E+00  0.17023208601E+04  0.43424169164E+04  0.39948327080E+04 0.  0.
        2    1    3    3  502    0 -0.48434091355E+03 -0.91881706457E+03  0.27057322967E+04  0.28982405318E+04  0.25500000920E-02 0. -1.
       -2    1    3    3    0  502  0.48434091355E+03  0.91881706457E+03 -0.10034114366E+04  0.14441763846E+04  0.25500000920E-02 0.  1.
</event>
<event>
 5   0  0.2612363E-08  0.3938773E+04  0.7818609E-02  0.8017013E-01
       -2   -1    0    0    0  501  0.00000000000E+00  0.00000000000E+00  0.14734738488E+04  0.14734738488E+04  0.25500000920E-02 0. -1.
        2   -1    0    0  501    0  0.00000000000E+00  0.00000000000E+00 -0.26322041619E+04  0.26322041619E+04  0.25500000920E-02 0.  1.
    10030    2    1    2    0    0  0.00000000000E+00  0.00000000000E+00 -0.11587303131E+04  0.41056780107E+04  0.39387734117E+04 0.  0.
        4    1    3    3  502    0  0.79880404803E+02 -0.92981108956E+03  0.12283521773E+04  0.15426536311E+04  0.12699999809E+01 0. -1.
       -4    1    3    3    0  502 -0.79880404803E+02  0.92981108956E+03 -0.23870824904E+04  0.25630243795E+04  0.12699999809E+01 0.  1.
</event>
<event>
 5   0  0.2599332E-08  0.4002253E+04  0.7818609E-02  0.8004092E-01
       -2   -1    0    0    0  501  0.00000000000E+00  0.00000000000E+00  0.17333622660E+04  0.17333622660E+04  0.25500000920E-02 0.  1.
        2   -1    0    0  501    0  0.00000000000E+00  0.00000000000E+00 -0.23102546345E+04  0.23102546345E+04  0.25500000920E-02 0. -1.
    10030    2    1    2    0    0  0.00000000000E+00  0.00000000000E+00 -0.57689236847E+03  0.40436169005E+04  0.40022534693E+04 0.  0.
        2    1    3    3  502    0  0.18946841316E+04 -0.51258508915E+03 -0.68226536712E+03  0.20779936148E+04  0.25500000920E-02 0. -1.
       -2    1    3    3    0  502 -0.18946841316E+04  0.51258508915E+03  0.10537299865E+03  0.19656232856E+04  0.25500000920E-02 0.  1.
</event>
<event>
 5   0  0.2650452E-08  0.3946680E+04  0.7818609E-02  0.8015390E-01
        2   -1    0    0  501    0  0.00000000000E+00  0.00000000000E+00  0.25650451120E+04  0.25650451120E+04  0.25500000920E-02 0. -1.
       -2   -1    0    0    0  501  0.00000000000E+00  0.00000000000E+00 -0.15181296696E+04  0.15181296696E+04  0.25500000920E-02 0.  1.
    10030    2    1    2    0    0  0.00000000000E+00  0.00000000000E+00  0.10469154423E+04  0.40831747816E+04  0.39466801687E+04 0.  0.
        3    1    3    3  502    0  0.14521860310E+04  0.12234890947E+03  0.18999832340E+04  0.23945249684E+04  0.10100000352E+00 0. -1.
       -3    1    3    3    0  502 -0.14521860310E+04 -0.12234890947E+03 -0.85306779169E+03  0.16886498132E+04  0.10100000352E+00 0.  1.
</event>
<event>
 5   0  0.8329875E-09  0.4002875E+04  0.7818609E-02  0.8003967E-01
       -1   -1    0    0    0  501  0.00000000000E+00  0.00000000000E+00  0.19786577041E+04  0.19786577041E+04  0.50400001928E-02 0.  1.
        1   -1    0    0  501    0  0.00000000000E+00  0.00000000000E+00 -0.20244796377E+04  0.20244796377E+04  0.50400001928E-02 0. -1.
    10030    2    1    2    0    0  0.00000000000E+00  0.00000000000E+00 -0.45821933533E+02  0.40031373418E+04  0.40028750827E+04 0.  0.
        2    1    3    3  502    0  0.17761609277E+04 -0.79139493797E+03  0.45114397446E+03  0.19961423984E+04  0.25500000920E-02 0. -1.
       -2    1    3    3    0  502 -0.17761609277E+04  0.79139493797E+03 -0.49696590799E+03  0.20069949434E+04  0.25500000920E-02 0.  1.
</event>
<event>
 5   0  0.2612363E-08  0.4002439E+04  0.7818609E-02  0.8004055E-01
        2   -1    0    0  501    0  0.00000000000E+00  0.00000000000E+00  0.21552509704E+04  0.21552509704E+04  0.25500000920E-02 0.  1.
       -2   -1    0    0    0  501  0.00000000000E+00  0.00000000000E+00 -0.18581964125E+04  0.18581964125E+04  0.25500000920E-02 0. -1.
    10030    2    1    2    0    0  0.00000000000E+00  0.00000000000E+00  0.29705455792E+03  0.40134473829E+04  0.40024390669E+04 0.  0.
        4    1    3    3  502    0 -0.72682339824E+03 -0.15678515342E+04 -0.86342988710E+03  0.19318238709E+04  0.12699999809E+01 0. -1.
       -4    1    3    3    0  502  0.72682339824E+03  0.15678515342E+04  0.11604844450E+04  0.20816235119E+04  0.12699999809E+01 0.  1.
</event>
<event>
 5   0  0.2650452E-08  0.4001493E+04  0.7818609E-02  0.8004245E-01
       -2   -1    0    0    0  501  0.00000000000E+00  0.00000000000E+00  0.33004097622E+04  0.33004097622E+04  0.25500000920E-02 0.  1.
        2   -1    0    0  501    0  0.00000000000E+00  0.00000000000E+00 -0.12128754820E+04  0.12128754820E+04  0.25500000920E-02 0. -1.
    10030    2    1    2    0    0  0.00000000000E+00  0.00000000000E+00  0.20875342802E+04  0.45132852442E+04  0.40014927620E+04 0.  0.
        3    1    3    3  502    0 -0.27104070050E+03 -0.18024535098E+03  0.32703449610E+04  0.32865038600E+04  0.10100000352E+00 0.  1.
       -3    1    3    3    0  502  0.27104070050E+03  0.18024535098E+03 -0.11828106808E+04  0.12267813842E+04  0.10100000352E+00 0. -1.
</event>
<event>
 5   0  0.8329875E-09  0.3998172E+04  0.7818609E-02  0.8004915E-01
       -1   -1    0    0    0  501  0.00000000000E+00  0.00000000000E+00  0.19283178905E+04  0.19283178905E+04  0.50400001928E-02 0.  1.
        1   -1    0    0  501    0  0.00000000000E+00  0.00000000000E+00 -0.20724509710E+04  0.20724509710E+04  0.50400001928E-02 0. -1.
    10030    2    1    2    0    0  0.00000000000E+00  0.00000000000E+00 -0.14413308047E+03  0.40007688615E+04  0.39981717244E+04 0.  0.
        5    1    3    3  502    0 -0.27325155763E+03 -0.63690379002E+03  0.18042539797E+04  0.19327874598E+04  0.46999998093E+01 0.  1.
       -5    1    3    3    0  502  0.27325155763E+03  0.63690379002E+03 -0.19483870602E+04  0.20679814017E+04  0.46999998093E+01 0. -1.
</event>
<event>
 5   0  0.2650452E-08  0.3987444E+04  0.7818609E-02  0.8007084E-01
       -2   -1    0    0    0  501  0.00000000000E+00  0.00000000000E+00  0.20399774033E+04  0.20399774033E+04  0.25500000920E-02 0.  1.
        2   -1    0    0  501    0  0.00000000000E+00  0.00000000000E+00 -0.19485157916E+04  0.19485157916E+04  0.25500000920E-02 0. -1.
    10030    2    1    2    0    0  0.00000000000E+00  0.00000000000E+00  0.91461611754E+02  0.39884931949E+04  0.39874443870E+04 0.  0.
        3    1    3    3  502    0 -0.38663305948E+03  0.11924603644E+04 -0.15049934963E+04  0.19586863653E+04  0.10100000352E+00 0. -1.
       -3    1    3    3    0  502  0.38663305948E+03 -0.11924603644E+04  0.15964551081E+04  0.20298068296E+04  0.10100000352E+00 0.  1.
</event>
<event>
 5   0  0.8329875E-09  0.4023538E+04  0.7818609E-02  0.7999815E-01
        1   -1    0    0  501    0  0.00000000000E+00  0.00000000000E+00  0.23145727665E+04  0.23145727665E+04  0.50400001928E-02 0.  1.
       -1   -1    0    0    0  501  0.00000000000E+00  0.00000000000E+00 -0.17485794100E+04  0.17485794100E+04  0.50400001928E-02 0. -1.
    10030    2    1    2    0    0  0.00000000000E+00  0.00000000000E+00  0.56599335645E+03  0.40631521765E+04  0.40235378872E+04 0.  0.
        2    1    3    3  502    0 -0.80816255380E+03  0.18409378533E+04  0.21133754854E+03  0.20215940375E+04  0.25500000920E-02 0. -1.
       -2    1    3    3    0  502  0.80816255380E+03 -0.18409378533E+04  0.35465580791E+03  0.20415581390E+04  0.25500000920E-02 0.  1.
</event>
<event>
 5   0  0.8329875E-09  0.4004134E+04  0.7818609E-02  0.8003713E-01
       -1   -1    0    0    0  501  0.00000000000E+00  0.00000000000E+00  0.18276759318E+04  0.18276759318E+04  0.50400001928E-02 0.  1.
        1   -1    0    0  501    0  0.00000000000E+00  0.00000000000E+00 -0.21930981904E+04  0.21930981904E+04  0.50400001928E-02 0. -1.
    10030    2    1    2    0    0  0.00000000000E+00  0.00000000000E+00 -0.36542225859E+03  0.40207741223E+04  0.40041342529E+04 0.  0.
        1    1    3    3  502    0  0.17844977860E+04 -0.43743758122E+03  0.61588548230E+03  0.19378077596E+04  0.50400001928E-02 0.  1.
       -1    1    3    3    0  502 -0.17844977860E+04  0.43743758122E+03 -0.98130774089E+03  0.20829663627E+04  0.50400001928E-02 0. -1.
</event>
<event>
 5   0  0.2612363E-08  0.3987145E+04  0.7818609E-02  0.8007145E-01
       -2   -1    0    0    0  501  0.00000000000E+00  0.00000000000E+00  0.20341159228E+04  0.20341159228E+04  0.25500000920E-02 0.  1.
        2   -1    0    0  501    0  0.00000000000E+00  0.00000000000E+00 -0.19538374665E+04  0.19538374665E+04  0.25500000920E-02 0. -1.
    10030    2    1    2    0    0  0.00000000000E+00  0.00000000000E+00  0.80278456352E+02  0.39879533893E+04  0.39871452951E+04 0.  0.
        4    1    3    3  502    0  0.15640707146E+04  0.56256719257E+03 -0.10607796541E+04  0.19718149340E+04  0.12699999809E+01 0.  1.
       -4    1    3    3    0  502 -0.15640707146E+04 -0.56256719257E+03  0.11410581105E+04  0.20161384553E+04  0.12699999809E+01 0. -1.
</event>
<event>
 5   0  0.2612363E-08  0.4004911E+04  0.7818609E-02  0.8003557E-01
       -2   -1    0    0    0  501  0.00000000000E+00  0.00000000000E+00  0.27505466494E+04  0.27505466494E+04  0.25500000920E-02 0. -1.
        2   -1    0    0  501    0  0.00000000000E+00  0.00000000000E+00 -0.14578292181E+04  0.14578292181E+04  0.25500000920E-02 0.  1.
    10030    2    1    2    0    0  0.00000000000E+00  0.00000000000E+00  0.12927174314E+04  0.42083758675E+04  0.40049106214E+04 0.  0.
        4    1    3    3  502    0 -0.55088219868E+03 -0.13155129590E+04  0.21233944366E+04  0.25578997417E+04  0.12699999809E+01 0. -1.
       -4    1    3    3    0  502  0.55088219868E+03  0.13155129590E+04 -0.83067700522E+03  0.16504761259E+04  0.12699999809E+01 0.  1.
</event>
<event>
 5   0  0.2612363E-08  0.3980101E+04  0.7818609E-02  0.8008573E-01
       -2   -1    0    0    0  501  0.00000000000E+00  0.00000000000E+00  0.16150894386E+04  0.16150894386E+04  0.25500000920E-02 0.  1.
        2   -1    0    0  501    0  0.00000000000E+00  0.00000000000E+00 -0.24520624237E+04  0.24520624237E+04  0.25500000920E-02 0. -1.
    10030    2    1    2    0    0  0.00000000000E+00  0.00000000000E+00 -0.83697298506E+03  0.40671518623E+04  0.39801005633E+04 0.  0.
        4    1    3    3  502    0 -0.11285564195E+04 -0.13258906718E+04  0.56626742388E+03  0.18309249231E+04  0.12699999809E+01 0.  1.
       -4    1    3    3    0  502  0.11285564195E+04  0.13258906718E+04 -0.14032404089E+04  0.22362269393E+04  0.12699999809E+01 0. -1.
</event>
<event>
 5   0  0.8329875E-09  0.3980733E+04  0.7818609E-02  0.8008445E-01
        1   -1    0    0  501    0  0.00000000000E+00  0.00000000000E+00  0.15933854466E+04  0.15933854467E+04  0.50400001928E-02 0. -1.
       -1   -1    0    0    0  501  0.00000000000E+00  0.00000000000E+00 -0.24862523893E+04  0.24862523893E+04  0.50400001928E-02 0.  1.
    10030    2    1    2    0    0  0.00000000000E+00  0.00000000000E+00 -0.89286694262E+03  0.40796378359E+04  0.39807327837E+04 0.  0.
        3    1    3    3  502    0 -0.13559338041E+04 -0.76702002886E+03  0.82316914127E+03  0.17619544975E+04  0.10100000352E+00 0. -1.
       -3    1    3    3    0  502  0.13559338041E+04  0.76702002886E+03 -0.17160360839E+04  0.23176833384E+04  0.10100000352E+00 0.  1.
</event>
<event>
 5   0  0.2650452E-08  0.4028624E+04  0.7818609E-02  0.7998797E-01
       -2   -1    0    0    0  501  0.00000000000E+00  0.00000000000E+00  0.16588379670E+04  0.16588379670E+04  0.25500000920E-02 0.  1.
        2   -1    0    0  501    0  0.00000000000E+00  0.00000000000E+00 -0.24459608146E+04  0.24459608146E+04  0.25500000920E-02 0. -1.
    10030    2    1    2    0    0  0.00000000000E+00  0.00000000000E+00 -0.78712284764E+03  0.41047987816E+04  0.40286239164E+04 0.  0.
        3    1    3    3  502    0  0.17663388975E+04  0.72572173386E+02  0.59021711360E+03  0.18637532220E+04  0.10100000352E+00 0.  1.
       -3    1    3    3    0  502 -0.17663388975E+04 -0.72572173386E+02 -0.13773399612E+04  0.22410455596E+04  0.10100000352E+00 0. -1.
</event>
<event>
 5   0  0.2746876E-08  0.4011456E+04  0.7818609E-02  0.8002240E-01
       -2   -1    0    0    0  501  0.00000000000E+00  0.00000000000E+00  0.12726675451E+04  0.12726675451E+04  0.25500000920E-02 0.  1.
        2   -1    0    0  501    0  0.00000000000E+00  0.00000000000E+00 -0.31610330560E+04  0.31610330560E+04  0.25500000920E-02 0. -1.
    10030    2    1    2    0    0  0.00000000000E+00  0.00000000000E+00 -0.18883655109E+04  0.44337006011E+04  0.40114556856E+04 0.  0.
        1    1    3    3  502    0  0.10353160259E+04 -0.32631211973E+03  0.91993715440E+03  0.14228995893E+04  0.50400001928E-02 0.  1.
       -1    1    3    3    0  502 -0.10353160259E+04  0.32631211973E+03 -0.28083026653E+04  0.30108010118E+04  0.50400001928E-02 0. -1.
</event>
<event>
 5   0  0.8329875E-09  0.4014017E+04  0.7818609E-02  0.8001725E-01
       -1   -1    0    0    0  501  0.00000000000E+00  0.00000000000E+00  0.15061308218E+04  0.15061308218E+04  0.50400001928E-02 0.  1.
        1   -1    0    0  501    0  0.00000000000E+00  0.00000000000E+00 -0.26744571044E+04  0.26744571044E+04  0.50400001928E-02 0. -1.
    10030    2    1    2    0    0  0.00000000000E+00  0.00000000000E+00 -0.11683262826E+04  0.41805879261E+04  0.40140165801E+04 0.  0.
        2    1    3    3  502    0 -0.52058468111E+03 -0.88377685915E+03 -0.23808631213E+04  0.25924079828E+04  0.25500000920E-02 0. -1.
       -2    1    3    3    0  502  0.52058468111E+03  0.88377685915E+03  0.12125368387E+04  0.15881799433E+04  0.25500000920E-02 0.  1.
</event>
<event>
 5   0  0.8329875E-09  0.4054701E+04  0.7818609E-02  0.7993602E-01
        1   -1    0    0  501    0  0.00000000000E+00  0.00000000000E+00  0.18385458263E+04  0.18385458263E+04  0.50400001928E-02 0. -1.
       -1   -1    0    0    0  501  0.00000000000E+00  0.00000000000E+00 -0.22355444958E+04  0.22355444958E+04  0.50400001928E-02 0.  1.
    10030    2    1    2    0    0  0.00000000000E+00  0.00000000000E+00 -0.39699866949E+03  0.40740903221E+04  0.40547014698E+04 0.  0.
        1    1    3    3  502    0 -0.96333017464E+03 -0.60742301139E+03 -0.18837743448E+04  0.22012663451E+04  0.50400001928E-02 0.  1.
       -1    1    3    3    0  502  0.96333017464E+03  0.60742301139E+03  0.14867756753E+04  0.18728239770E+04  0.50400001928E-02 0. -1.
</event>
<event>
 5   0  0.8329875E-09  0.4000327E+04  0.7818609E-02  0.8004481E-01
       -1   -1    0    0    0  501  0.00000000000E+00  0.00000000000E+00  0.23059926053E+04  0.23059926053E+04  0.50400001928E-02 0.  1.
        1   -1    0    0  501    0  0.00000000000E+00  0.00000000000E+00 -0.17348945874E+04  0.17348945874E+04  0.50400001928E-02 0. -1.
    10030    2    1    2    0    0  0.00000000000E+00  0.00000000000E+00  0.57109801786E+03  0.40408871927E+04  0.40003270314E+04 0.  0.
        2    1    3    3  502    0  0.64362558284E+03  0.23594364977E+02  0.21983813049E+04  0.22907839154E+04  0.25500000920E-02 0.  1.
       -2    1    3    3    0  502 -0.64362558284E+03 -0.23594364977E+02 -0.16272832871E+04  0.17501032774E+04  0.25500000920E-02 0. -1.
</event>
<event>
 5   0  0.2650452E-08  0.3996415E+04  0.7818609E-02  0.8005270E-01
        2   -1    0    0  501    0  0.00000000000E+00  0.00000000000E+00  0.20144149314E+04  0.20144149314E+04  0.25500000920E-02 0.  1.
       -2   -1    0    0    0  501  0.00000000000E+00  0.00000000000E+00 -0.19821305188E+04  0.19821305188E+04  0.25500000920E-02 0. -1.
    10030    2    1    2    0    0  0.00000000000E+00  0.00000000000E+00  0.32284412598E+02  0.39965454503E+04  0.39964150501E+04 0.  0.
        3    1    3    3  502    0 -0.16111438691E+04 -0.57039811540E+03 -0.10191184683E+04  0.19899098069E+04  0.10100000352E+00 0. -1.
       -3    1    3    3    0  502  0.16111438691E+04  0.57039811540E+03  0.10514028809E+04  0.20066356434E+04  0.10100000352E+00 0.  1.
</event>
<event>
 5   0  0.8329875E-09  0.4000974E+04  0.7818609E-02  0.8004350E-01
       -1   -1    0    0    0  501  0.00000000000E+00  0.00000000000E+00  0.23358889120E+04  0.23358889120E+04  0.50400001928E-02 0. -1.
        1   -1    0    0  501    0  0.00000000000E+00  0.00000000000E+00 -0.17132440908E+04  0.17132440908E+04  0.50400001928E-02 0.  1.
    10030    2    1    2    0    0  0.00000000000E+00  0.00000000000E+00  0.62264482122E+03  0.40491330028E+04  0.40009738191E+04 0.  0.
        2    1    3    3  502    0  0.59156356069E+03  0.33381123660E+02 -0.16224059940E+04  0.17272124812E+04  0.25500000920E-02 0.  1.
       -2    1    3    3    0  502 -0.59156356069E+03 -0.33381123660E+02  0.22450508152E+04  0.23219205216E+04  0.25500000920E-02 0. -1.
</event>
<event>
 5   0  0.2599332E-08  0.3994739E+04  0.7818609E-02  0.8005609E-01
        2   -1    0    0  501    0  0.00000000000E+00  0.00000000000E+00  0.30882808948E+04  0.30882808948E+04  0.25500000920E-02 0.  1.
       -2   -1    0    0    0  501  0.00000000000E+00  0.00000000000E+00 -0.12918139774E+04  0.12918139774E+04  0.25500000920E-02 0. -1.
    10030    2    1    2    0    0  0.00000000000E+00  0.00000000000E+00  0.17964669174E+04  0.43800948722E+04  0.39947387530E+04 0.  0.
        2    1    3    3  502    0 -0.62435726917E+03 -0.18425772721E+04  0.40230661371E+03  0.19866463235E+04  0.25500000920E-02 0.  1.
       -2    1    3    3    0  502  0.62435726917E+03  0.18425772721E+04  0.13941603037E+04  0.23934485488E+04  0.25500000920E-02 0. -1.
</event>
<event>
 5   0  0.8329875E-09  0.4001379E+04  0.7818609E-02  0.8004268E-01
       -1   -1    0    0    0  501  0.00000000000E+00  0.00000000000E+00  0.17495573631E+04  0.17495573631E+04  0.50400001928E-02 0. -1.
        1   -1    0    0  501    0  0.00000000000E+00  0.00000000000E+00 -0.22878690845E+04  0.22878690845E+04  0.50400001928E-02 0.  1.
    10030    2    1    2    0    0  0.00000000000E+00  0.00000000000E+00 -0.53831172138E+03  0.40374264476E+04  0.40013788636E+04 0.  0.
        3    1    3    3  502    0  0.12084414722E+04 -0.96528193505E+03  0.10113944386E+04  0.18479769281E+04  0.10100000352E+00 0. -1.
       -3    1    3    3    0  502 -0.12084414722E+04  0.96528193505E+03 -0.15497061600E+04  0.21894495195E+04  0.10100000352E+00 0.  1.
</event>
<event>
 5   0  0.8329875E-09  0.4081511E+04  0.7818609E-02  0.7988302E-01
        1   -1    0    0  501    0  0.00000000000E+00  0.00000000000E+00  0.18152895603E+04  0.18152895603E+04  0.50400001928E-02 0.  1.
       -1   -1    0    0    0  501  0.00000000000E+00  0.00000000000E+00 -0.22942254637E+04  0.22942254637E+04  0.50400001928E-02 0. -1.
    10030    2    1    2    0    0  0.00000000000E+00  0.00000000000E+00 -0.47893590344E+03  0.41095150240E+04  0.40815112561E+04 0.  0.
        1    1    3    3  502    0  0.57585416817E+03  0.17527333964E+04  0.63887117816E+03  0.19523930865E+04  0.50400001928E-02 0.  1.
       -1    1    3    3    0  502 -0.57585416817E+03 -0.17527333964E+04 -0.11178070816E+04  0.21571219376E+04  0.50400001928E-02 0. -1.
</event>
<event>
 5   0  0.2612363E-08  0.4001637E+04  0.7818609E-02  0.8004216E-01
        2   -1    0    0  501    0  0.00000000000E+00  0.00000000000E+00  0.22990086713E+04  0.22990086713E+04  0.25500000920E-02 0. -1.
       -2   -1    0    0    0  501  0.00000000000E+00  0.00000000000E+00 -0.17413044145E+04  0.17413044145E+04  0.25500000920E-02 0.  1.
    10030    2    1    2    0    0  0.00000000000E+00  0.00000000000E+00  0.55770425678E+03  0.40403130858E+04  0.40016366393E+04 0.  0.
        4    1    3    3  502    0  0.10687242203E+04 -0.57680117247E+03  0.18843153842E+04  0.22417665203E+04  0.12699999809E+01 0. -1.
       -4    1    3    3    0  502 -0.10687242203E+04  0.57680117247E+03 -0.13266111274E+04  0.17985465654E+04  0.12699999809E+01 0.  1.
</event>
<event>
 5   0  0.2587493E-08  0.4000998E+04  0.7818609E-02  0.8004345E-01
       -2   -1    0    0    0  501  0.00000000000E+00  0.00000000000E+00  0.15377273391E+04  0.15377273391E+04  0.25500000920E-02 0.  1.
        2   -1    0    0  501    0  0.00000000000E+00  0.00000000000E+00 -0.26025396878E+04  0.26025396878E+04  0.25500000920E-02 0. -1.
    10030    2    1    2    0    0  0.00000000000E+00  0.00000000000E+00 -0.10648123487E+04  0.41402670269E+04  0.40009980900E+04 0.  0.
        5    1    3    3  502    0 -0.30499866627E+03 -0.96765529036E+02  0.15110686505E+04  0.15445835396E+04  0.46999998093E+01 0.  1.
       -5    1    3    3    0  502  0.30499866627E+03  0.96765529036E+02 -0.25758809993E+04  0.25956834873E+04  0.46999998093E+01 0. -1.
</event>
<event>
 5   0  0.8329875E-09  0.4004302E+04  0.7818609E-02  0.8003679E-01
       -1   -1    0    0    0  501  0.00000000000E+00  0.00000000000E+00  0.19295134946E+04  0.19295134946E+04  0.50400001928E-02 0.  1.
        1   -1    0    0  501    0  0.00000000000E+00  0.00000000000E+00 -0.20775229320E+04  0.20775229320E+04  0.50400001928E-02 0. -1.
    10030    2    1    2    0    0  0.00000000000E+00  0.00000000000E+00 -0.14800943741E+03  0.40070364266E+04  0.40043019529E+04 0.  0.
        2    1    3    3  502    0 -0.18462563760E+04 -0.55143428862E+03 -0.61831196133E+03  0.20236234981E+04  0.25500000920E-02 0. -1.
       -2    1    3    3    0  502  0.18462563760E+04  0.55143428862E+03  0.47030252391E+03  0.19834129284E+04  0.25500000920E-02 0.  1.
</event>
<event>
 5   0  0.8329875E-09  0.3967044E+04  0.7818609E-02  0.8011228E-01
        1   -1    0    0  501    0  0.00000000000E+00  0.00000000000E+00  0.13811862446E+04  0.13811862446E+04  0.50400001928E-02 0. -1.
       -1   -1    0    0    0  501  0.00000000000E+00  0.00000000000E+00 -0.28485363373E+04  0.28485363374E+04  0.50400001928E-02 0.  1.
    10030    2    1    2    0    0  0.00000000000E+00  0.00000000000E+00 -0.14673500928E+04  0.42297225819E+04  0.39670438396E+04 0.  0.
        2    1    3    3  502    0  0.45286858287E+03  0.66481835621E+01  0.13253146850E+04  0.14005688723E+04  0.25500000920E-02 0. -1.
       -2    1    3    3    0  502 -0.45286858287E+03 -0.66481835621E+01 -0.27926647778E+04  0.28291537096E+04  0.25500000920E-02 0.  1.
</event>
<event>
 5   0  0.8329875E-09  0.3960090E+04  0.7818609E-02  0.8012646E-01
        1   -1    0    0  501    0  0.00000000000E+00  0.00000000000E+00  0.27070629433E+04  0.27070629433E+04  0.50400001928E-02 0. -1.
       -1   -1    0    0    0  501  0.00000000000E+00  0.00000000000E+00 -0.14482772017E+04  0.14482772017E+04  0.50400001928E-02 0.  1.
    10030    2    1    2    0    0  0.00000000000E+00  0.00000000000E+00  0.12587857417E+04  0.41553401451E+04  0.39600896679E+04 0.  0.
        1    1    3    3  502    0 -0.38568063031E+02 -0.14416254340E+04  0.20530505963E+04  0.25089416371E+04  0.50400001928E-02 0. -1.
       -1    1    3    3    0  502  0.38568063031E+02  0.14416254340E+04 -0.79426485468E+03  0.16463985079E+04  0.50400001928E-02 0.  1.
</event>
<event>
 5   0  0.8329875E-09  0.4005713E+04  0.7818609E-02  0.8003395E-01
       -1   -1    0    0    0  501  0.00000000000E+00  0.00000000000E+00  0.24375682562E+04  0.24375682562E+04  0.50400001928E-02 0.  1.
        1   -1    0    0  501    0  0.00000000000E+00  0.00000000000E+00 -0.16456702136E+04  0.16456702137E+04  0.50400001928E-02 0. -1.
    10030    2    1    2    0    0  0.00000000000E+00  0.00000000000E+00  0.79189804252E+03  0.40832384698E+04  0.40057126572E+04 0.  0.
        5    1    3    3  502    0 -0.83287213202E+02 -0.42665225764E+03 -0.15969965170E+04  0.16551099281E+04  0.46999998093E+01 0. -1.
       -5    1    3    3    0  502  0.83287213202E+02  0.42665225764E+03  0.23888945595E+04  0.24281285417E+04  0.46999998093E+01 0.  1.
</event>
<event>
 5   0  0.8329875E-09  0.4038917E+04  0.7818609E-02  0.7996742E-01
       -1   -1    0    0    0  501  0.00000000000E+00  0.00000000000E+00  0.25952963296E+04  0.25952963296E+04  0.50400001928E-02 0. -1.
        1   -1    0    0  501    0  0.00000000000E+00  0.00000000000E+00 -0.15713859490E+04  0.15713859490E+04  0.50400001928E-02 0.  1.
    10030    2    1    2    0    0  0.00000000000E+00  0.00000000000E+00  0.10239103806E+04  0.41666822787E+04  0.40389167785E+04 0.  0.
        3    1    3    3  502    0  0.15778499149E+04 -0.67778704398E+03  0.16082116720E+04  0.23527325439E+04  0.10100000352E+00 0. -1.
       -3    1    3    3    0  502 -0.15778499149E+04  0.67778704398E+03 -0.58430129138E+03  0.18139497348E+04  0.10100000352E+00 0.  1.
</event>
<event>
 5   0  0.2746876E-08  0.4031788E+04  0.7818609E-02  0.7998164E-01
       -2   -1    0    0    0  501  0.00000000000E+00  0.00000000000E+00  0.21556147567E+04  0.21556147567E+04  0.25500000920E-02 0.  1.
        2   -1    0    0  501    0  0.00000000000E+00  0.00000000000E+00 -0.18852294393E+04  0.18852294393E+04  0.25500000920E-02 0. -1.
    10030    2    1    2    0    0  0.00000000000E+00  0.00000000000E+00  0.27038531742E+03  0.40408441960E+04  0.40317878908E+04 0.  0.
        1    1    3    3  502    0  0.14137259977E+04 -0.12929245449E+04  0.76394008698E+03  0.20624935229E+04  0.50400001928E-02 0.  1.
       -1    1    3    3    0  502 -0.14137259977E+04  0.12929245449E+04 -0.49355476956E+03  0.19783506731E+04  0.50400001928E-02 0. -1.
</event>
<event>
 5   0  0.8329875E-09  0.4000224E+04  0.7818609E-02  0.8004501E-01
        1   -1    0    0  501    0  0.00000000000E+00  0.00000000000E+00  0.16396168138E+04  0.16396168138E+04  0.50400001928E-02 0. -1.
       -1   -1    0    0    0  501  0.00000000000E+00  0.00000000000E+00 -0.24398673861E+04  0.24398673861E+04  0.50400001928E-02 0.  1.
    10030    2    1    2    0    0  0.00000000000E+00  0.00000000000E+00 -0.80025057227E+03  0.40794841999E+04  0.40002237886E+04 0.  0.
        5    1    3    3  502    0 -0.16712963008E+04  0.71281472632E+03 -0.12528077027E+04  0.22070082440E+04  0.46999998093E+01 0. -1.
       -5    1    3    3    0  502  0.16712963008E+04 -0.71281472632E+03  0.45255713048E+03  0.18724759559E+04  0.46999998093E+01 0.  1.
</event>
<event>
 5   0  0.8329875E-09  0.3999698E+04  0.7818609E-02  0.8004607E-01
        1   -1    0    0  501    0  0.00000000000E+00  0.00000000000E+00  0.22168673715E+04  0.22168673715E+04  0.50400001928E-02 0. -1.
       -1   -1    0    0    0  501  0.00000000000E+00  0.00000000000E+00 -0.18040756798E+04  0.18040756798E+04  0.50400001928E-02 0.  1.
    10030    2    1    2    0    0  0.00000000000E+00  0.00000000000E+00  0.41279169166E+03  0.40209430513E+04  0.39996982438E+04 0.  0.
        1    1    3    3  502    0  0.14583874559E+04  0.30842460207E+03  0.15466601434E+04  0.21480636178E+04  0.50400001928E-02 0. -1.
       -1    1    3    3    0  502 -0.14583874559E+04 -0.30842460207E+03 -0.11338684518E+04  0.18728794335E+04  0.50400001928E-02 0.  1.
</event>
<event>
 5   0  0.8329875E-09  0.4000945E+04  0.7818609E-02  0.8004356E-01
        1   -1    0    0  501    0  0.00000000000E+00  0.00000000000E+00  0.24026646236E+04  0.24026646236E+04  0.50400001928E-02 0. -1.
       -1   -1    0    0    0  501  0.00000000000E+00  0.00000000000E+00 -0.16656052884E+04  0.16656052884E+04  0.50400001928E-02 0.  1.
    10030    2    1    2    0    0  0.00000000000E+00  0.00000000000E+00  0.73705933519E+03  0.40682699120E+04  0.40009453400E+04 0.  0.
        3    1    3    3  502    0  0.43461978529E+02  0.65193346008E+03 -0.15540495132E+04  0.16858161464E+04  0.10100000352E+00 0.  1.
       -3    1    3    3    0  502 -0.43461978529E+02 -0.65193346008E+03  0.22911088484E+04  0.23824537656E+04  0.10100000352E+00 0. -1.
</event>
<event>
 5   0  0.8329875E-09  0.4007700E+04  0.7818609E-02  0.8002995E-01
        1   -1    0    0  501    0  0.00000000000E+00  0.00000000000E+00  0.12391196027E+04  0.12391196027E+04  0.50400001928E-02 0. -1.
       -1   -1    0    0    0  501  0.00000000000E+00  0.00000000000E+00 -0.32405381179E+04  0.32405381179E+04  0.50400001928E-02 0.  1.
    10030    2    1    2    0    0  0.00000000000E+00  0.00000000000E+00 -0.20014185152E+04  0.44796577206E+04  0.40076997418E+04 0.  0.
        4    1    3    3  502    0  0.69013043137E+03  0.49129514734E+03 -0.30305375150E+04  0.31467141873E+04  0.12699999809E+01 0.  1.
       -4    1    3    3    0  502 -0.69013043137E+03 -0.49129514734E+03  0.10291189998E+04  0.13329435333E+04  0.12699999809E+01 0. -1.
</event>
<event>
 5   0  0.8329875E-09  0.4009097E+04  0.7818609E-02  0.8002714E-01
        1   -1    0    0  501    0  0.00000000000E+00  0.00000000000E+00  0.17228817214E+04  0.17228817214E+04  0.50400001928E-02 0. -1.
       -1   -1    0    0    0  501  0.00000000000E+00  0.00000000000E+00 -0.23322634135E+04  0.23322634135E+04  0.50400001928E-02 0.  1.
    10030    2    1    2    0    0  0.00000000000E+00  0.00000000000E+00 -0.60938169219E+03  0.40551451349E+04  0.40090966586E+04 0.  0.
        3    1    3    3  502    0  0.12279533771E+04 -0.15623949858E+04 -0.38482784204E+02  0.19875684951E+04  0.10100000352E+00 0.  1.
       -3    1    3    3    0  502 -0.12279533771E+04  0.15623949858E+04 -0.57089890799E+03  0.20675766398E+04  0.10100000352E+00 0. -1.
</event>
<event>
 5   0  0.2746876E-08  0.4004595E+04  0.7818609E-02  0.8003620E-01
        2   -1    0    0  501    0  0.00000000000E+00  0.00000000000E+00  0.26365881137E+04  0.26365881137E+04  0.25500000920E-02 0.  1.
       -2   -1    0    0    0  501  0.00000000000E+00  0.00000000000E+00 -0.15205997424E+04  0.15205997424E+04  0.25500000920E-02 0. -1.
    10030    2    1    2    0    0  0.00000000000E+00  0.00000000000E+00  0.11159883713E+04  0.41571878561E+04  0.40045949640E+04 0.  0.
        1    1    3    3  502    0  0.14386027200E+04  0.89027822608E+03  0.16697948931E+04  0.23770544989E+04  0.50400001928E-02 0. -1.
       -1    1    3    3    0  502 -0.14386027200E+04 -0.89027822608E+03 -0.55380652181E+03  0.17801333572E+04  0.50400001928E-02 0.  1.
</event>
<event>
 5   0  0.2650452E-08  0.4000386E+04  0.7818609E-02  0.8004469E-01
        2   -1    0    0  501    0  0.00000000000E+00  0.00000000000E+00  0.23377129793E+04  0.23377129793E+04  0.25500000920E-02 0.  1.
       -2   -1    0    0    0  501  0.00000000000E+00  0.00000000000E+00 -0.17114042678E+04  0.17114042678E+04  0.25500000920E-02 0. -1.
    10030    2    1    2    0    0  0.00000000000E+00  0.00000000000E+00  0.62630871147E+03  0.40491172471E+04  0.40003859662E+04 0.  0.
        3    1    3    3  502    0  0.10160601618E+04 -0.16938158498E+04 -0.59343208292E+01  0.19752026762E+04  0.10100000352E+00 0. -1.
       -3    1    3    3    0  502 -0.10160601618E+04  0.16938158498E+04  0.63224303229E+03  0.20739145710E+04  0.10100000352E+00 0.  1.
</event>
<event>
 5   0  0.8329875E-09  0.4010028E+04  0.7818609E-02  0.8002527E-01
       -1   -1    0    0    0  501  0.00000000000E+00  0.00000000000E+00  0.16070346971E+04  0.16070346971E+04  0.50400001928E-02 0.  1.
        1   -1    0    0  501    0  0.00000000000E+00  0.00000000000E+00 -0.25015518709E+04  0.25015518709E+04  0.50400001928E-02 0. -1.
    10030    2    1    2    0    0  0.00000000000E+00  0.00000000000E+00 -0.89451717381E+03  0.41085865679E+04  0.40100277570E+04 0.  0.
        3    1    3    3  502    0  0.19975208817E+04  0.44231542142E+01 -0.26988105023E+03  0.20156748321E+04  0.10100000352E+00 0.  1.
       -3    1    3    3    0  502 -0.19975208817E+04 -0.44231542142E+01 -0.62463612357E+03  0.20929117359E+04  0.10100000352E+00 0. -1.
</event>
<event>
 5   0  0.2587493E-08  0.4006686E+04  0.7818609E-02  0.8003199E-01
       -2   -1    0    0    0  501  0.00000000000E+00  0.00000000000E+00  0.19255846896E+04  0.19255846896E+04  0.25500000920E-02 0.  1.
        2   -1    0    0  501    0  0.00000000000E+00  0.00000000000E+00 -0.20842417705E+04  0.20842417705E+04  0.25500000920E-02 0. -1.
    10030    2    1    2    0    0  0.00000000000E+00  0.00000000000E+00 -0.15865708089E+03  0.40098264601E+04  0.40066864328E+04 0.  0.
        5    1    3    3  502    0 -0.14549694138E+04  0.13171933044E+04 -0.48142414634E+03  0.20208229747E+04  0.46999998093E+01 0. -1.
       -5    1    3    3    0  502  0.14549694138E+04 -0.13171933044E+04  0.32276706544E+03  0.19890034854E+04  0.46999998093E+01 0.  1.
</event>
<event>
 5   0  0.8329875E-09  0.4001793E+04  0.7818609E-02  0.8004185E-01
       -1   -1    0    0    0  501  0.00000000000E+00  0.00000000000E+00  0.12726145562E+04  0.12726145562E+04  0.50400001928E-02 0.  1.
        1   -1    0    0  501    0  0.00000000000E+00  0.00000000000E+00 -0.31459543812E+04  0.31459543812E+04  0.50400001928E-02 0. -1.
    10030    2    1    2    0    0  0.00000000000E+00  0.00000000000E+00 -0.18733398251E+04  0.44185689374E+04  0.40017932674E+04 0.  0.
        4    1    3    3  502    0 -0.11406787306E+04 -0.89408383337E+03 -0.24598536611E+04  0.28550683905E+04  0.12699999809E+01 0. -1.
       -4    1    3    3    0  502  0.11406787306E+04  0.89408383337E+03  0.58651383606E+03  0.15635005469E+04  0.12699999809E+01 0.  1.
</event>
<event>
 5   0  0.8329875E-09  0.4010735E+04  0.7818609E-02  0.8002384E-01
       -1   -1    0    0    0  501  0.00000000000E+00  0.00000000000E+00  0.25515939401E+04  0.25515939401E+04  0.50400001928E-02 0.  1.
        1   -1    0    0  501    0  0.00000000000E+00  0.00000000000E+00 -0.15760733326E+04  0.15760733326E+04  0.50400001928E-02 0. -1.
    10030    2    1    2    0    0  0.00000000000E+00  0.00000000000E+00  0.97552060753E+03  0.41276672727E+04  0.40107351767E+04 0.  0.
        2    1    3    3  502    0 -0.15790025459E+03  0.72794901964E+03 -0.14284189127E+04  0.16109695390E+04  0.25500000920E-02 0. -1.
       -2    1    3    3    0  502  0.15790025459E+03 -0.72794901964E+03  0.24039395202E+04  0.25166977336E+04  0.25500000920E-02 0.  1.
</event>
<event>
 5   0  0.8329875E-09  0.4003982E+04  0.7818609E-02  0.8003744E-01
       -1   -1    0    0    0  501  0.00000000000E+00  0.00000000000E+00  0.14207706490E+04  0.14207706490E+04  0.50400001928E-02 0. -1.
        1   -1    0    0  501    0  0.00000000000E+00  0.00000000000E+00 -0.28209815315E+04  0.28209815315E+04  0.50400001928E-02 0.  1.
    10030    2    1    2    0    0  0.00000000000E+00  0.00000000000E+00 -0.14002108825E+04  0.42417521806E+04  0.40039818988E+04 0.  0.
        1    1    3    3  502    0 -0.11673939297E+03 -0.18436246767E+04 -0.15175402465E+04  0.23907129552E+04  0.50400001928E-02 0. -1.
       -1    1    3    3    0  502  0.11673939297E+03  0.18436246767E+04  0.11732936401E+03  0.18510392254E+04  0.50400001928E-02 0.  1.
</event>
<event>
 5   0  0.8329875E-09  0.4005572E+04  0.7818609E-02  0.8003423E-01
        1   -1    0    0  501    0  0.00000000000E+00  0.00000000000E+00  0.20584359165E+04  0.20584359165E+04  0.50400001928E-02 0. -1.
       -1   -1    0    0    0  501  0.00000000000E+00  0.00000000000E+00 -0.19486407653E+04  0.19486407653E+04  0.50400001928E-02 0.  1.
    10030    2    1    2    0    0  0.00000000000E+00  0.00000000000E+00  0.10979515123E+03  0.40070766818E+04  0.40055721887E+04 0.  0.
        5    1    3    3  502    0  0.75341044844E+03 -0.13095590940E+04 -0.12603425021E+04  0.19675003525E+04  0.46999998093E+01 0.  1.
       -5    1    3    3    0  502 -0.75341044844E+03  0.13095590940E+04  0.13701376533E+04  0.20395763294E+04  0.46999998093E+01 0. -1.
</event>
<event>
 5   0  0.2587493E-08  0.4012752E+04  0.7818609E-02  0.8001979E-01
        2   -1    0    0  501    0  0.00000000000E+00  0.00000000000E+00  0.29970337975E+04  0.29970337975E+04  0.25500000920E-02 0. -1.
       -2   -1    0    0    0  501  0.00000000000E+00  0.00000000000E+00 -0.13431760642E+04  0.13431760642E+04  0.25500000920E-02 0.  1.
    10030    2    1    2    0    0  0.00000000000E+00  0.00000000000E+00  0.16538577333E+04  0.43402098618E+04  0.40127517045E+04 0.  0.
        5    1    3    3  502    0 -0.19971315698E+03  0.65505233576E+03  0.28667048654E+04  0.29473713344E+04  0.46999998093E+01 0. -1.
       -5    1    3    3    0  502  0.19971315698E+03 -0.65505233576E+03 -0.12128471320E+04  0.13928385274E+04  0.46999998093E+01 0.  1.
</event>
<event>
 5   0  0.2612363E-08  0.3999961E+04  0.7818609E-02  0.8004554E-01
        2   -1    0    0  501    0  0.00000000000E+00  0.00000000000E+00  0.16117417779E+04  0.16117417779E+04  0.25500000920E-02 0. -1.
       -2   -1    0    0    0  501  0.00000000000E+00  0.00000000000E+00 -0.24817390307E+04  0.24817390307E+04  0.25500000920E-02 0.  1.
    10030    2    1    2    0    0  0.00000000000E+00  0.00000000000E+00 -0.86999725276E+03  0.40934808086E+04  0.39999612386E+04 0.  0.
        4    1    3    3  502    0 -0.28409496041E+02  0.17152880652E+04 -0.14870914344E+04  0.22703442015E+04  0.12699999809E+01 0.  1.
       -4    1    3    3    0  502  0.28409496041E+02 -0.17152880652E+04  0.61709418161E+03  0.18231366071E+04  0.12699999809E+01 0. -1.
</event>
<event>
 5   0  0.8329875E-09  0.4004142E+04  0.7818609E-02  0.8003711E-01
        1   -1    0    0  501    0  0.00000000000E+00  0.00000000000E+00  0.28987554511E+04  0.28987554511E+04  0.50400001928E-02 0.  1.
       -1   -1    0    0    0  501  0.00000000000E+00  0.00000000000E+00 -0.13827618811E+04  0.13827618811E+04  0.50400001928E-02 0. -1.
    10030    2    1    2    0    0  0.00000000000E+00  0.00000000000E+00  0.15159935700E+04  0.42815173322E+04  0.40041421256E+04 0.  0.
        5    1    3    3  502    0 -0.10078533259E+04 -0.17249266409E+04  0.89792935782E+03  0.21903057925E+04  0.46999998093E+01 0. -1.
       -5    1    3    3    0  502  0.10078533259E+04  0.17249266409E+04  0.61806421216E+03  0.20912115396E+04  0.46999998093E+01 0.  1.
</event>
<event>
 5   0  0.2746876E-08  0.3997879E+04  0.7818609E-02  0.8004974E-01
       -2   -1    0    0    0  501  0.00000000000E+00  0.00000000000E+00  0.14542692897E+04  0.14542692897E+04  0.25500000920E-02 0.  1.
        2   -1    0    0  501    0  0.00000000000E+00  0.00000000000E+00 -0.27476067125E+04  0.27476067125E+04  0.25500000920E-02 0. -1.
    10030    2    1    2    0    0  0.00000000000E+00  0.00000000000E+00 -0.12933374228E+04  0.42018760023E+04  0.39978794691E+04 0.  0.
        1    1    3    3  502    0  0.18725875164E+04 -0.30592509835E+03  0.14380713747E+02  0.18974669898E+04  0.50400001928E-02 0.  1.
       -1    1    3    3    0  502 -0.18725875164E+04  0.30592509835E+03 -0.13077181366E+04  0.23044090125E+04  0.50400001928E-02 0. -1.
</event>
<event>
 5   0  0.2612363E-08  0.4013983E+04  0.7818609E-02  0.8001732E-01
       -2   -1    0    0    0  501  0.00000000000E+00  0.00000000000E+00  0.21931985754E+04  0.21931985754E+04  0.25500000920E-02 0. -1.
        2   -1    0    0  501    0  0.00000000000E+00  0.00000000000E+00 -0.18365940080E+04  0.18365940080E+04  0.25500000920E-02 0.  1.
    10030    2    1    2    0    0  0.00000000000E+00  0.00000000000E+00  0.35660456742E+03  0.40297925833E+04  0.40139832395E+04 0.  0.
        4    1    3    3  502    0 -0.19975866439E+04 -0.44670293679E+01 -0.16475756415E+02  0.19976599855E+04  0.12699999809E+01 0.  1.
       -4    1    3    3    0  502  0.19975866439E+04  0.44670293679E+01  0.37308032383E+03  0.20321325978E+04  0.12699999809E+01 0. -1.
</event>
<event>
 5   0  0.2612363E-08  0.3977724E+04  0.7818609E-02  0.8009055E-01
        2   -1    0    0  501    0  0.00000000000E+00  0.00000000000E+00  0.22493474847E+04  0.22493474847E+04  0.25500000920E-02 0.  1.
       -2   -1    0    0    0  501  0.00000000000E+00  0.00000000000E+00 -0.17585419098E+04  0.17585419098E+04  0.25500000920E-02 0. -1.
    10030    2    1    2    0    0  0.00000000000E+00  0.00000000000E+00  0.49080557490E+03  0.40078893945E+04  0.39777238826E+04 0.  0.
        4    1    3    3  502    0 -0.11047681780E+04 -0.96430974039E+03 -0.11083502737E+04  0.18381642867E+04  0.12699999809E+01 0. -1.
       -4    1    3    3    0  502  0.11047681780E+04  0.96430974039E+03  0.15991558486E+04  0.21697251078E+04  0.12699999809E+01 0.  1.
</event>
<event>
 5   0  0.8329875E-09  0.4018569E+04  0.7818609E-02  0.8000811E-01
        1   -1    0    0  501    0  0.00000000000E+00  0.00000000000E+00  0.12081121902E+04  0.12081121902E+04  0.50400001928E-02 0.  1.
       -1   -1    0    0    0  501  0.00000000000E+00  0.00000000000E+00 -0.33417623845E+04  0.33417623845E+04  0.50400001928E-02 0. -1.
    10030    2    1    2    0    0  0.00000000000E+00  0.00000000000E+00 -0.21336501943E+04  0.45498745747E+04  0.40185688365E+04 0.  0.
        1    1    3    3  502    0  0.17735318587E+04 -0.84304498373E+03 -0.58502400257E+03  0.20489980923E+04  0.50400001928E-02 0.  1.
       -1    1    3    3    0  502 -0.17735318587E+04  0.84304498373E+03 -0.15486261918E+04  0.25008764824E+04  0.50400001928E-02 0. -1.
</event>
<event>
 5   0  0.8329875E-09  0.4006689E+04  0.7818609E-02  0.8003199E-01
       -1   -1    0    0    0  501  0.00000000000E+00  0.00000000000E+00  0.13739639103E+04  0.13739639103E+04  0.50400001928E-02 0.  1.
        1   -1    0    0  501    0  0.00000000000E+00  0.00000000000E+00 -0.29210291823E+04  0.29210291823E+04  0.50400001928E-02 0. -1.
    10030    2    1    2    0    0  0.00000000000E+00  0.00000000000E+00 -0.15470652720E+04  0.42949930926E+04  0.40066887463E+04 0.  0.
        5    1    3    3  502    0 -0.64781661114E+03 -0.63243295186E+03 -0.26892254932E+04  0.28375330207E+04  0.46999998093E+01 0. -1.
       -5    1    3    3    0  502  0.64781661114E+03  0.63243295186E+03  0.11421602212E+04  0.14574600719E+04  0.46999998093E+01 0.  1.
</event>
<event>
 5   0  0.8329875E-09  0.3997692E+04  0.7818609E-02  0.8005012E-01
       -1   -1    0    0    0  501  0.00000000000E+00  0.00000000000E+00  0.23224229152E+04  0.23224229152E+04  0.50400001928E-02 0.  1.
        1   -1    0    0  501    0  0.00000000000E+00  0.00000000000E+00 -0.17203518760E+04  0.17203518760E+04  0.50400001928E-02 0. -1.
    10030    2    1    2    0    0  0.00000000000E+00  0.00000000000E+00  0.60207103921E+03  0.40427747913E+04  0.39976916435E+04 0.  0.
        3    1    3    3  502    0 -0.12855717474E+04  0.11903138929E+04 -0.67202279159E+03  0.18764744933E+04  0.10100000352E+00 0. -1.
       -3    1    3    3    0  502  0.12855717474E+04 -0.11903138929E+04  0.12740938308E+04  0.21663002980E+04  0.10100000352E+00 0.  1.
</event>
<event>
 5   0  0.2612363E-08  0.4001165E+04  0.7818609E-02  0.8004312E-01
        2   -1    0    0  501    0  0.00000000000E+00  0.00000000000E+00  0.25965463797E+04  0.25965463797E+04  0.25500000920E-02 0.  1.
       -2   -1    0    0    0  501  0.00000000000E+00  0.00000000000E+00 -0.15414052359E+04  0.15414052359E+04  0.25500000920E-02 0. -1.
    10030    2    1    2    0    0  0.00000000000E+00  0.00000000000E+00  0.10551411438E+04  0.41379516155E+04  0.40011649228E+04 0.  0.
        4    1    3    3  502    0 -0.17709226108E+04 -0.36138069381E+03  0.14145421060E+04  0.22951457213E+04  0.12699999809E+01 0.  1.
       -4    1    3    3    0  502  0.17709226108E+04  0.36138069381E+03 -0.35940096213E+03  0.18428058943E+04  0.12699999809E+01 0. -1.
</event>
<event>
 5   0  0.8329875E-09  0.3995133E+04  0.7818609E-02  0.8005529E-01
       -1   -1    0    0    0  501  0.00000000000E+00  0.00000000000E+00  0.34808957920E+04  0.34808957920E+04  0.50400001928E-02 0. -1.
        1   -1    0    0  501    0  0.00000000000E+00  0.00000000000E+00 -0.11463347446E+04  0.11463347446E+04  0.50400001928E-02 0.  1.
    10030    2    1    2    0    0  0.00000000000E+00  0.00000000000E+00  0.23345610473E+04  0.46272305366E+04  0.39951329334E+04 0.  0.
        4    1    3    3  502    0  0.64235180389E+02  0.90102974883E+03 -0.89626076464E+03  0.12725037280E+04  0.12699999809E+01 0.  1.
       -4    1    3    3    0  502 -0.64235180389E+02 -0.90102974883E+03  0.32308218120E+04  0.33547268086E+04  0.12699999809E+01 0. -1.
</event>
<event>
 5   0  0.2746876E-08  0.4002318E+04  0.7818609E-02  0.8004079E-01
        2   -1    0    0  501    0  0.00000000000E+00  0.00000000000E+00  0.28719721381E+04  0.28719721381E+04  0.25500000920E-02 0. -1.
       -2   -1    0    0    0  501  0.00000000000E+00  0.00000000000E+00 -0.13943856502E+04  0.13943856502E+04  0.25500000920E-02 0.  1.
    10030    2    1    2    0    0  0.00000000000E+00  0.00000000000E+00  0.14775864878E+04  0.42663577883E+04  0.40023176971E+04 0.  0.
        1    1    3    3  502    0  0.11734056902E+04  0.76897063693E+03 -0.78238996221E+03  0.16063408129E+04  0.50400001928E-02 0.  1.
       -1    1    3    3    0  502 -0.11734056902E+04 -0.76897063693E+03  0.22599764501E+04  0.26600169753E+04  0.50400001928E-02 0. -1.
</event>
<event>
 5   0  0.8329875E-09  0.4011592E+04  0.7818609E-02  0.8002212E-01
        1   -1    0    0  501    0  0.00000000000E+00  0.00000000000E+00  0.28717315327E+04  0.28717315327E+04  0.50400001928E-02 0.  1.
       -1   -1    0    0    0  501  0.00000000000E+00  0.00000000000E+00 -0.14009728453E+04  0.14009728453E+04  0.50400001928E-02 0. -1.
    10030    2    1    2    0    0  0.00000000000E+00  0.00000000000E+00  0.14707586874E+04  0.42727043781E+04  0.40115921510E+04 0.  0.
        5    1    3    3  502    0 -0.70122648853E+03  0.14083967050E+04  0.20605046664E+04  0.25924894285E+04  0.46999998093E+01 0.  1.
       -5    1    3    3    0  502  0.70122648853E+03 -0.14083967050E+04 -0.58974597904E+03  0.16802149495E+04  0.46999998093E+01 0. -1.
</event>
<event>
 5   0  0.2650452E-08  0.4018900E+04  0.7818609E-02  0.8000745E-01
        2   -1    0    0  501    0  0.00000000000E+00  0.00000000000E+00  0.18548059632E+04  0.18548059632E+04  0.25500000920E-02 0. -1.
       -2   -1    0    0    0  501  0.00000000000E+00  0.00000000000E+00 -0.21769876020E+04  0.21769876020E+04  0.25500000920E-02 0.  1.
    10030    2    1    2    0    0  0.00000000000E+00  0.00000000000E+00 -0.32218163879E+03  0.40317935651E+04  0.40189001410E+04 0.  0.
        3    1    3    3  502    0  0.13558923037E+04 -0.87795499638E+03  0.10380013735E+04  0.19200770236E+04  0.10100000352E+00 0. -1.
       -3    1    3    3    0  502 -0.13558923037E+04  0.87795499638E+03 -0.13601830123E+04  0.21117165416E+04  0.10100000352E+00 0.  1.
</event>
<event>
 5   0  0.2746876E-08  0.3999173E+04  0.7818609E-02  0.8004713E-01
        2   -1    0    0  501    0  0.00000000000E+00  0.00000000000E+00  0.20115126253E+04  0.20115126253E+04  0.25500000920E-02 0.  1.
       -2   -1    0    0    0  501  0.00000000000E+00  0.00000000000E+00 -0.19877307134E+04  0.19877307134E+04  0.25500000920E-02 0. -1.
    10030    2    1    2    0    0  0.00000000000E+00  0.00000000000E+00  0.23781911942E+02  0.39992433387E+04  0.39991726272E+04 0.  0.
        1    1    3    3  502    0 -0.48893727865E+03  0.17724429959E+04 -0.77408196635E+03  0.19949478005E+04  0.50400001928E-02 0.  1.
       -1    1    3    3    0  502  0.48893727865E+03 -0.17724429959E+04  0.79786387829E+03  0.20042955382E+04  0.50400001928E-02 0. -1.
</event>
<event>
 5   0  0.8329875E-09  0.4044414E+04  0.7818609E-02  0.7995646E-01
       -1   -1    0    0    0  501  0.00000000000E+00  0.00000000000E+00  0.29172206875E+04  0.29172206875E+04  0.50400001928E-02 0.  1.
        1   -1    0    0  501    0  0.00000000000E+00  0.00000000000E+00 -0.14017870007E+04  0.14017870007E+04  0.50400001928E-02 0. -1.
    10030    2    1    2    0    0  0.00000000000E+00  0.00000000000E+00  0.15154336868E+04  0.43190076883E+04  0.40444144387E+04 0.  0.
        5    1    3    3  502    0 -0.19088235673E+04  0.66693563593E+03  0.72586933149E+03  0.21483293346E+04  0.46999998093E+01 0.  1.
       -5    1    3    3    0  502  0.19088235673E+04 -0.66693563593E+03  0.78956435532E+03  0.21706783536E+04  0.46999998093E+01 0. -1.
</event>
<event>
 5   0  0.8329875E-09  0.3998347E+04  0.7818609E-02  0.8004880E-01
       -1   -1    0    0    0  501  0.00000000000E+00  0.00000000000E+00  0.20165957873E+04  0.20165957873E+04  0.50400001928E-02 0. -1.
        1   -1    0    0  501    0  0.00000000000E+00  0.00000000000E+00 -0.19819014928E+04  0.19819014928E+04  0.50400001928E-02 0.  1.
    10030    2    1    2    0    0  0.00000000000E+00  0.00000000000E+00  0.34694294500E+02  0.39984972801E+04  0.39983467590E+04 0.  0.
        2    1    3    3  502    0 -0.18916319716E+04  0.45832253729E+03  0.47383244334E+03  0.20032094869E+04  0.25500000920E-02 0. -1.
       -2    1    3    3    0  502  0.18916319716E+04 -0.45832253729E+03 -0.43913814884E+03  0.19952877932E+04  0.25500000920E-02 0.  1.
</event>
<event>
 5   0  0.2599332E-08  0.3997356E+04  0.7818609E-02  0.8005080E-01
        2   -1    0    0  501    0  0.00000000000E+00  0.00000000000E+00  0.22244558053E+04  0.22244558053E+04  0.25500000920E-02 0. -1.
       -2   -1    0    0    0  501  0.00000000000E+00  0.00000000000E+00 -0.17958160362E+04  0.17958160362E+04  0.25500000920E-02 0.  1.
    10030    2    1    2    0    0  0.00000000000E+00  0.00000000000E+00  0.42863976916E+03  0.40202718415E+04  0.39973558295E+04 0.  0.
        2    1    3    3  502    0 -0.93805841202E+03 -0.17377314773E+04 -0.95747935380E+02  0.19770766143E+04  0.25500000920E-02 0.  1.
       -2    1    3    3    0  502  0.93805841202E+03  0.17377314773E+04  0.52438770454E+03  0.20431952272E+04  0.25500000920E-02 0. -1.
</event>
<event>
 5   0  0.2599332E-08  0.4011133E+04  0.7818609E-02  0.8002304E-01
       -2   -1    0    0    0  501  0.00000000000E+00  0.00000000000E+00  0.18177609028E+04  0.18177609028E+04  0.25500000920E-02 0. -1.
        2   -1    0    0  501    0  0.00000000000E+00  0.00000000000E+00 -0.22127757428E+04  0.22127757428E+04  0.25500000920E-02 0.  1.
    10030    2    1    2    0    0  0.00000000000E+00  0.00000000000E+00 -0.39501484000E+03  0.40305366455E+04  0.40111331226E+04 0.  0.
        2    1    3    3  502    0  0.14050081120E+04  0.12026634344E+04  0.58203538437E+03  0.19388688248E+04  0.25500000920E-02 0. -1.
       -2    1    3    3    0  502 -0.14050081120E+04 -0.12026634344E+04 -0.97705022437E+03  0.20916678207E+04  0.25500000920E-02 0.  1.
</event>
<event>
 5   0  0.8329875E-09  0.3999497E+04  0.7818609E-02  0.8004648E-01
       -1   -1    0    0    0  501  0.00000000000E+00  0.00000000000E+00  0.17257415301E+04  0.17257415301E+04  0.50400001928E-02 0. -1.
        1   -1    0    0  501    0  0.00000000000E+00  0.00000000000E+00 -0.23172608898E+04  0.23172608898E+04  0.50400001928E-02 0.  1.
    10030    2    1    2    0    0  0.00000000000E+00  0.00000000000E+00 -0.59151935972E+03  0.40430024200E+04  0.39994966452E+04 0.  0.
        3    1    3    3  502    0 -0.10337034336E+04  0.39740329460E+03 -0.19789611447E+04  0.22677652854E+04  0.10100000352E+00 0.  1.
       -3    1    3    3    0  502  0.10337034336E+04 -0.39740329460E+03  0.13874417850E+04  0.17752371346E+04  0.10100000352E+00 0. -1.
</event>
<event>
 5   0  0.8329875E-09  0.3996561E+04  0.7818609E-02  0.8005241E-01
        1   -1    0    0  501    0  0.00000000000E+00  0.00000000000E+00  0.21187214542E+04  0.21187214542E+04  0.50400001928E-02 0.  1.
       -1   -1    0    0    0  501  0.00000000000E+00  0.00000000000E+00 -0.18846859292E+04  0.18846859292E+04  0.50400001928E-02 0. -1.
    10030    2    1    2    0    0  0.00000000000E+00  0.00000000000E+00  0.23403552495E+03  0.40034073834E+04  0.39965607778E+04 0.  0.
        2    1    3    3  502    0 -0.12916981425E+04  0.92508429655E+03 -0.10970236101E+04  0.19307319462E+04  0.25500000920E-02 0. -1.
       -2    1    3    3    0  502  0.12916981425E+04 -0.92508429655E+03  0.13310591351E+04  0.20726754372E+04  0.25500000920E-02 0.  1.
</event>
<event>
 5   0  0.2746876E-08  0.3998212E+04  0.7818609E-02  0.8004907E-01
        2   -1    0    0  501    0  0.00000000000E+00  0.00000000000E+00  0.25089687959E+04  0.25089687959E+04  0.25500000920E-02 0.  1.
       -2   -1    0    0    0  501  0.00000000000E+00  0.00000000000E+00 -0.15928551580E+04  0.15928551580E+04  0.25500000920E-02 0. -1.
    10030    2    1    2    0    0  0.00000000000E+00  0.00000000000E+00  0.91611363786E+03  0.41018239540E+04  0.39982115442E+04 0.  0.
        1    1    3    3  502    0  0.18046973332E+03 -0.18697113692E+04 -0.24380227400E+03  0.18941566666E+04  0.50400001928E-02 0. -1.
       -1    1    3    3    0  502 -0.18046973332E+03  0.18697113692E+04  0.11599159119E+04  0.22076672873E+04  0.50400001928E-02 0.  1.
</event>
<event>
 5   0  0.8329875E-09  0.4041664E+04  0.7818609E-02  0.7996194E-01
        1   -1    0    0  501    0  0.00000000000E+00  0.00000000000E+00  0.19487109689E+04  0.19487109689E+04  0.50400001928E-02 0. -1.
       -1   -1    0    0    0  501  0.00000000000E+00  0.00000000000E+00 -0.20956220614E+04  0.20956220614E+04  0.50400001928E-02 0.  1.
    10030    2    1    2    0    0  0.00000000000E+00  0.00000000000E+00 -0.14691109250E+03  0.40443330303E+04  0.40416638642E+04 0.  0.
        4    1    3    3  502    0 -0.14290355743E+03 -0.13812519809E+04 -0.15425809930E+04  0.20755327495E+04  0.12699999809E+01 0.  1.
       -4    1    3    3    0  502  0.14290355743E+03  0.13812519809E+04  0.13956699005E+04  0.19688002808E+04  0.12699999809E+01 0. -1.
</event>
<event>
 5   0  0.2746876E-08  0.3980665E+04  0.7818609E-02  0.8008458E-01
       -2   -1    0    0    0  501  0.00000000000E+00  0.00000000000E+00  0.18949566562E+04  0.18949566562E+04  0.25500000920E-02 0. -1.
        2   -1    0    0  501    0  0.00000000000E+00  0.00000000000E+00 -0.20905086433E+04  0.20905086433E+04  0.25500000920E-02 0.  1.
    10030    2    1    2    0    0  0.00000000000E+00  0.00000000000E+00 -0.19555198707E+03  0.39854652994E+04  0.39806649034E+04 0.  0.
        1    1    3    3  502    0 -0.19814087549E+04  0.18516207740E+02 -0.28535123495E+03  0.20019362705E+04  0.50400001928E-02 0.  1.
       -1    1    3    3    0  502  0.19814087549E+04 -0.18516207740E+02  0.89799247884E+02  0.19835290290E+04  0.50400001928E-02 0. -1.
</event>
<event>
 5   0  0.8329875E-09  0.3992383E+04  0.7818609E-02  0.8006085E-01
        1   -1    0    0  501    0  0.00000000000E+00  0.00000000000E+00  0.20323708385E+04  0.20323708386E+04  0.50400001928E-02 0.  1.
       -1   -1    0    0    0  501  0.00000000000E+00  0.00000000000E+00 -0.19606557885E+04  0.19606557885E+04  0.50400001928E-02 0. -1.
    10030    2    1    2    0    0  0.00000000000E+00  0.00000000000E+00  0.71715050043E+02  0.39930266271E+04  0.39923825713E+04 0.  0.
        1    1    3    3  502    0  0.67388976048E+03 -0.12820369820E+04 -0.13380574295E+04  0.19718377005E+04  0.50400001928E-02 0. -1.
       -1    1    3    3    0  502 -0.67388976048E+03  0.12820369820E+04  0.14097724796E+04  0.20211889265E+04  0.50400001928E-02 0.  1.
</event>
<event>
 5   0  0.2612363E-08  0.3998411E+04  0.7818609E-02  0.8004867E-01
       -2   -1    0    0    0  501  0.00000000000E+00  0.00000000000E+00  0.18428326066E+04  0.18428326066E+04  0.25500000920E-02 0. -1.
        2   -1    0    0  501    0  0.00000000000E+00  0.00000000000E+00 -0.21688478561E+04  0.21688478561E+04  0.25500000920E-02 0.  1.
    10030    2    1    2    0    0  0.00000000000E+00  0.00000000000E+00 -0.32601524958E+03  0.40116804627E+04  0.39984114586E+04 0.  0.
        4    1    3    3  502    0 -0.10155688212E+04  0.13311706142E+04 -0.12590736726E+04  0.20949136881E+04  0.12699999809E+01 0.  1.
       -4    1    3    3    0  502  0.10155688212E+04 -0.13311706142E+04  0.93305842299E+03  0.19167667746E+04  0.12699999809E+01 0. -1.
</event>
<event>
 5   0  0.2650452E-08  0.4025789E+04  0.7818609E-02  0.7999364E-01
       -2   -1    0    0    0  501  0.00000000000E+00  0.00000000000E+00  0.23570714789E+04  0.23570714789E+04  0.25500000920E-02 0. -1.
        2   -1    0    0  501    0  0.00000000000E+00  0.00000000000E+00 -0.17189737593E+04  0.17189737593E+04  0.25500000920E-02 0.  1.
    10030    2    1    2    0    0  0.00000000000E+00  0.00000000000E+00  0.63809771962E+03  0.40760452382E+04  0.40257888772E+04 0.  0.
        3    1    3    3  502    0  0.14935368389E+04 -0.89034359103E+03 -0.70770138044E+03  0.18772866732E+04  0.10100000352E+00 0.  1.
       -3    1    3    3    0  502 -0.14935368389E+04  0.89034359103E+03  0.13457991001E+04  0.21987585650E+04  0.10100000352E+00 0. -1.
</event>
<event>
 5   0  0.2599332E-08  0.3999834E+04  0.7818609E-02  0.8004580E-01
        2   -1    0    0  501    0  0.00000000000E+00  0.00000000000E+00  0.23536668449E+04  0.23536668449E+04  0.25500000920E-02 0.  1.
       -2   -1    0    0    0  501  0.00000000000E+00  0.00000000000E+00 -0.16993350496E+04  0.16993350496E+04  0.25500000920E-02 0. -1.
    10030    2    1    2    0    0  0.00000000000E+00  0.00000000000E+00  0.65433179533E+03  0.40530018945E+04  0.39998342789E+04 0.  0.
        2    1    3    3  502    0  0.26174672358E+03  0.11301184958E+04  0.19779276618E+04  0.22930061049E+04  0.25500000920E-02 0.  1.
       -2    1    3    3    0  502 -0.26174672358E+03 -0.11301184958E+04 -0.13235958664E+04  0.17599957896E+04  0.25500000920E-02 0. -1.
</event>
<event>
 5   0  0.2746876E-08  0.3981027E+04  0.7818609E-02  0.8008385E-01
       -2   -1    0    0    0  501  0.00000000000E+00  0.00000000000E+00  0.16942091866E+04  0.16942091866E+04  0.25500000920E-02 0. -1.
        2   -1    0    0  501    0  0.00000000000E+00  0.00000000000E+00 -0.23386389074E+04  0.23386389074E+04  0.25500000920E-02 0.  1.
    10030    2    1    2    0    0  0.00000000000E+00  0.00000000000E+00 -0.64442972080E+03  0.40328480940E+04  0.39810267626E+04 0.  0.
        1    1    3    3  502    0  0.70176081676E+03  0.84013826062E+03  0.13619067536E+04  0.17473095165E+04  0.50400001928E-02 0. -1.
       -1    1    3    3    0  502 -0.70176081676E+03 -0.84013826062E+03 -0.20063364744E+04  0.22855385775E+04  0.50400001928E-02 0.  1.
</event>
<event>
 5   0  0.8329875E-09  0.3995205E+04  0.7818609E-02  0.8005515E-01
       -1   -1    0    0    0  501  0.00000000000E+00  0.00000000000E+00  0.18358636857E+04  0.18358636857E+04  0.50400001928E-02 0. -1.
        1   -1    0    0  501    0  0.00000000000E+00  0.00000000000E+00 -0.21735902113E+04  0.21735902113E+04  0.50400001928E-02 0.  1.
    10030    2    1    2    0    0  0.00000000000E+00  0.00000000000E+00 -0.33772652560E+03  0.40094538970E+04  0.39952047940E+04 0.  0.
        4    1    3    3  502    0 -0.14234255609E+04 -0.51765414974E+02  0.12367010152E+04  0.18863326853E+04  0.12699999809E+01 0. -1.
       -4    1    3    3    0  502  0.14234255609E+04  0.51765414974E+02 -0.15744275408E+04  0.21231212117E+04  0.12699999809E+01 0.  1.
</event>
<event>
 5   0  0.2599332E-08  0.3999064E+04  0.7818609E-02  0.8004735E-01
       -2   -1    0    0    0  501  0.00000000000E+00  0.00000000000E+00  0.12117725072E+04  0.12117725072E+04  0.25500000920E-02 0.  1.
        2   -1    0    0  501    0  0.00000000000E+00  0.00000000000E+00 -0.32994049956E+04  0.32994049956E+04  0.25500000920E-02 0. -1.
    10030    2    1    2    0    0  0.00000000000E+00  0.00000000000E+00 -0.20876324884E+04  0.45111775028E+04  0.39990640224E+04 0.  0.
        2    1    3    3  502    0 -0.56088246367E+03  0.19948001975E+03 -0.31971217804E+04  0.32520715083E+04  0.25500000920E-02 0. -1.
       -2    1    3    3    0  502  0.56088246367E+03 -0.19948001975E+03  0.11094892920E+04  0.12591059945E+04  0.25500000920E-02 0.  1.
</event>
<event>
 5   0  0.8329875E-09  0.3984770E+04  0.7818609E-02  0.8007626E-01
        1   -1    0    0  501    0  0.00000000000E+00  0.00000000000E+00  0.12891571742E+04  0.12891571742E+04  0.50400001928E-02 0. -1.
       -1   -1    0    0    0  501  0.00000000000E+00  0.00000000000E+00 -0.30792188232E+04  0.30792188232E+04  0.50400001928E-02 0.  1.
    10030    2    1    2    0    0  0.00000000000E+00  0.00000000000E+00 -0.17900616490E+04  0.43683759974E+04  0.39847695225E+04 0.  0.
        5    1    3    3  502    0 -0.10899894282E+04  0.68210725777E+03  0.77339701914E+03  0.15005040166E+04  0.46999998093E+01 0. -1.
       -5    1    3    3    0  502  0.10899894282E+04 -0.68210725777E+03 -0.25634586681E+04  0.28678719807E+04  0.46999998093E+01 0.  1.
</event>
<event>
 5   0  0.8329875E-09  0.3964879E+04  0.7818609E-02  0.8011669E-01
        1   -1    0    0  501    0  0.00000000000E+00  0.00000000000E+00  0.14797628946E+04  0.14797628947E+04  0.50400001928E-02 0.  1.
       -1   -1    0    0    0  501  0.00000000000E+00  0.00000000000E+00 -0.26558756632E+04  0.26558756632E+04  0.50400001928E-02 0. -1.
    10030    2    1    2    0    0  0.00000000000E+00  0.00000000000E+00 -0.11761127686E+04  0.41356385579E+04  0.39648789436E+04 0.  0.
        4    1    3    3  502    0 -0.78639220281E+03 -0.17024743312E+04 -0.12585740048E+04  0.22585043023E+04  0.12699999809E+01 0. -1.
       -4    1    3    3    0  502  0.78639220281E+03  0.17024743312E+04  0.82461236245E+02  0.18771342556E+04  0.12699999809E+01 0.  1.
</event>
<event>
 5   0  0.8329875E-09  0.3997714E+04  0.7818609E-02  0.8005008E-01
        1   -1    0    0  501    0  0.00000000000E+00  0.00000000000E+00  0.23652699289E+04  0.23652699289E+04  0.50400001928E-02 0.  1.
       -1   -1    0    0    0  501  0.00000000000E+00  0.00000000000E+00 -0.16892061315E+04  0.16892061315E+04  0.50400001928E-02 0. -1.
    10030    2    1    2    0    0  0.00000000000E+00  0.00000000000E+00  0.67606379746E+03  0.40544760604E+04  0.39977135798E+04 0.  0.
        2    1    3    3  502    0 -0.30726327744E+03 -0.14487838122E+04  0.16994943412E+04  0.22542551479E+04  0.25500000920E-02 0.  1.
       -2    1    3    3    0  502  0.30726327744E+03  0.14487838122E+04 -0.10234305437E+04  0.18002209125E+04  0.25500000920E-02 0. -1.
</event>
<event>
 5   0  0.8329875E-09  0.4004452E+04  0.7818609E-02  0.8003649E-01
        1   -1    0    0  501    0  0.00000000000E+00  0.00000000000E+00  0.15194610105E+04  0.15194610105E+04  0.50400001928E-02 0.  1.
       -1   -1    0    0    0  501  0.00000000000E+00  0.00000000000E+00 -0.26383760824E+04  0.26383760824E+04  0.50400001928E-02 0. -1.
    10030    2    1    2    0    0  0.00000000000E+00  0.00000000000E+00 -0.11189150719E+04  0.41578370929E+04  0.40044523163E+04 0.  0.
        5    1    3    3  502    0  0.15376843737E+02  0.20013640768E+04 -0.50078756611E+03  0.20631298775E+04  0.46999998093E+01 0.  1.
       -5    1    3    3    0  502 -0.15376843737E+02 -0.20013640768E+04 -0.61812750575E+03  0.20947072154E+04  0.46999998093E+01 0. -1.
</event>
<event>
 5   0  0.2746876E-08  0.3994302E+04  0.7818609E-02  0.8005697E-01
        2   -1    0    0  501    0  0.00000000000E+00  0.00000000000E+00  0.25424143917E+04  0.25424143917E+04  0.25500000920E-02 0.  1.
       -2   -1    0    0    0  501  0.00000000000E+00  0.00000000000E+00 -0.15688285109E+04  0.15688285109E+04  0.25500000920E-02 0. -1.
    10030    2    1    2    0    0  0.00000000000E+00  0.00000000000E+00  0.97358588077E+03  0.41112429026E+04  0.39943020338E+04 0.  0.
        1    1    3    3  502    0 -0.15577074853E+04 -0.74100584873E+03 -0.54918842276E+03  0.18102900876E+04  0.50400001928E-02 0. -1.
       -1    1    3    3    0  502  0.15577074853E+04  0.74100584873E+03  0.15227743035E+04  0.23009528150E+04  0.50400001928E-02 0.  1.
</event>
<event>
 5   0  0.2612363E-08  0.3990071E+04  0.7818609E-02  0.8006553E-01
       -2   -1    0    0    0  501  0.00000000000E+00  0.00000000000E+00  0.18351143150E+04  0.18351143150E+04  0.25500000920E-02 0. -1.
        2   -1    0    0  501    0  0.00000000000E+00  0.00000000000E+00 -0.21688927269E+04  0.21688927269E+04  0.25500000920E-02 0.  1.
    10030    2    1    2    0    0  0.00000000000E+00  0.00000000000E+00 -0.33377841188E+03  0.40040070419E+04  0.39900707216E+04 0.  0.
        4    1    3    3  502    0 -0.73531835084E+03 -0.39300150670E+01  0.16941653971E+04  0.18468639711E+04  0.12699999809E+01 0. -1.
       -4    1    3    3    0  502  0.73531835084E+03  0.39300150670E+01 -0.20279438090E+04  0.21571430707E+04  0.12699999809E+01 0.  1.
</event>
<event>
 5   0  0.2650452E-08  0.3970473E+04  0.7818609E-02  0.8010530E-01
       -2   -1    0    0    0  501  0.00000000000E+00  0.00000000000E+00  0.20401883719E+04  0.20401883719E+04  0.25500000920E-02 0. -1.
        2   -1    0    0  501    0  0.00000000000E+00  0.00000000000E+00 -0.19317647288E+04  0.19317647288E+04  0.25500000920E-02 0.  1.
    10030    2    1    2    0    0  0.00000000000E+00  0.00000000000E+00  0.10842364310E+03  0.39719531008E+04  0.39704729880E+04 0.  0.
        3    1    3    3  502    0 -0.12316469263E+04 -0.13650659223E+04  0.80336000127E+03  0.20064262820E+04  0.10100000352E+00 0. -1.
       -3    1    3    3    0  502  0.12316469263E+04  0.13650659223E+04 -0.69493635818E+03  0.19655268188E+04  0.10100000352E+00 0.  1.
</event>
<event>
 5   0  0.8329875E-09  0.4008130E+04  0.7818609E-02  0.8002908E-01
       -1   -1    0    0    0  501  0.00000000000E+00  0.00000000000E+00  0.13472508256E+04  0.13472508257E+04  0.50400001928E-02 0. -1.
        1   -1    0    0  501    0  0.00000000000E+00  0.00000000000E+00 -0.29810904006E+04  0.29810904006E+04  0.50400001928E-02 0.  1.
    10030    2    1    2    0    0  0.00000000000E+00  0.00000000000E+00 -0.16338395749E+04  0.43283412262E+04  0.40081299897E+04 0.  0.
        2    1    3    3  502    0  0.15421551516E+04 -0.83625860112E+03 -0.18631912615E+04  0.25591116889E+04  0.25500000920E-02 0.  1.
       -2    1    3    3    0  502 -0.15421551516E+04  0.83625860112E+03  0.22935168656E+03  0.17692295373E+04  0.25500000920E-02 0. -1.
</event>
<event>
 5   0  0.8329875E-09  0.3995904E+04  0.7818609E-02  0.8005373E-01
       -1   -1    0    0    0  501  0.00000000000E+00  0.00000000000E+00  0.19693599837E+04  0.19693599837E+04  0.50400001928E-02 0.  1.
        1   -1    0    0  501    0  0.00000000000E+00  0.00000000000E+00 -0.20269586875E+04  0.20269586875E+04  0.50400001928E-02 0. -1.
    10030    2    1    2    0    0  0.00000000000E+00  0.00000000000E+00 -0.57598703767E+02  0.39963186712E+04  0.39959035663E+04 0.  0.
        2    1    3    3  502    0  0.56156818607E+03 -0.10200739415E+04 -0.16525140224E+04  0.20215618388E+04  0.25500000920E-02 0. -1.
       -2    1    3    3    0  502 -0.56156818607E+03  0.10200739415E+04  0.15949153186E+04  0.19747568324E+04  0.25500000920E-02 0.  1.
</event>
<event>
 5   0  0.8329875E-09  0.3969591E+04  0.7818609E-02  0.8010709E-01
        1   -1    0    0  501    0  0.00000000000E+00  0.00000000000E+00  0.26809825765E+04  0.26809825765E+04  0.50400001928E-02 0.  1.
       -1   -1    0    0    0  501  0.00000000000E+00  0.00000000000E+00 -0.14693913890E+04  0.14693913890E+04  0.50400001928E-02 0. -1.
    10030    2    1    2    0    0  0.00000000000E+00  0.00000000000E+00  0.12115911875E+04  0.41503739655E+04  0.39695907658E+04 0.  0.
        4    1    3    3  502    0 -0.15871634097E+04  0.11865966292E+04  0.72180765606E+03  0.21090536159E+04  0.12699999809E+01 0. -1.
       -4    1    3    3    0  502  0.15871634097E+04 -0.11865966292E+04  0.48978353141E+03  0.20413203497E+04  0.12699999809E+01 0.  1.
</event>
<event>
 5   0  0.8329875E-09  0.4002082E+04  0.7818609E-02  0.8004127E-01
       -1   -1    0    0    0  501  0.00000000000E+00  0.00000000000E+00  0.17496062969E+04  0.17496062969E+04  0.50400001928E-02 0. -1.
        1   -1    0    0  501    0  0.00000000000E+00  0.00000000000E+00 -0.22886096057E+04  0.22886096057E+04  0.50400001928E-02 0.  1.
    10030    2    1    2    0    0  0.00000000000E+00  0.00000000000E+00 -0.53900330881E+03  0.40382159027E+04  0.40020823467E+04 0.  0.
        3    1    3    3  502    0 -0.19933190301E+04 -0.15446648447E+02 -0.44602808022E+03  0.20426699227E+04  0.10100000352E+00 0.  1.
       -3    1    3    3    0  502  0.19933190301E+04  0.15446648447E+02 -0.92975228593E+02  0.19955459799E+04  0.10100000352E+00 0. -1.
</event>
<event>
 5   0  0.2612363E-08  0.3996311E+04  0.7818609E-02  0.8005291E-01
       -2   -1    0    0    0  501  0.00000000000E+00  0.00000000000E+00  0.21595584579E+04  0.21595584579E+04  0.25500000920E-02 0.  1.
        2   -1    0    0  501    0  0.00000000000E+00  0.00000000000E+00 -0.18488156852E+04  0.18488156852E+04  0.25500000920E-02 0. -1.
    10030    2    1    2    0    0  0.00000000000E+00  0.00000000000E+00  0.31074277262E+03  0.40083741431E+04  0.39963110740E+04 0.  0.
        4    1    3    3  502    0 -0.19364739039E+04 -0.15842767566E+03  0.62324855480E+03  0.20404584982E+04  0.12699999809E+01 0.  1.
       -4    1    3    3    0  502  0.19364739039E+04  0.15842767566E+03 -0.31250578218E+03  0.19679156449E+04  0.12699999809E+01 0. -1.
</event>
<event>
 5   0  0.2587493E-08  0.3983629E+04  0.7818609E-02  0.8007857E-01
        2   -1    0    0  501    0  0.00000000000E+00  0.00000000000E+00  0.24389470791E+04  0.24389470791E+04  0.25500000920E-02 0.  1.
       -2   -1    0    0    0  501  0.00000000000E+00  0.00000000000E+00 -0.16266548430E+04  0.16266548430E+04  0.25500000920E-02 0. -1.
    10030    2    1    2    0    0  0.00000000000E+00  0.00000000000E+00  0.81229223603E+03  0.40656019221E+04  0.39836290380E+04 0.  0.
        5    1    3    3  502    0  0.31541346573E+03 -0.11038318184E+04  0.20673291561E+04  0.23646991917E+04  0.46999998093E+01 0.  1.
       -5    1    3    3    0  502 -0.31541346573E+03  0.11038318184E+04 -0.12550369200E+04  0.17009027304E+04  0.46999998093E+01 0. -1.
</event>
<event>
 5   0  0.8329875E-09  0.3995665E+04  0.7818609E-02  0.8005422E-01
       -1   -1    0    0    0  501  0.00000000000E+00  0.00000000000E+00  0.28532697244E+04  0.28532697244E+04  0.50400001928E-02 0.  1.
        1   -1    0    0  501    0  0.00000000000E+00  0.00000000000E+00 -0.13988634793E+04  0.13988634793E+04  0.50400001928E-02 0. -1.
    10030    2    1    2    0    0  0.00000000000E+00  0.00000000000E+00  0.14544062451E+04  0.42521332037E+04  0.39956650581E+04 0.  0.
        5    1    3    3  502    0  0.15220511080E+04 -0.63681851695E+03  0.19260721802E+04  0.25361296363E+04  0.46999998093E+01 0.  1.
       -5    1    3    3    0  502 -0.15220511080E+04  0.63681851695E+03 -0.47166593512E+03  0.17160035674E+04  0.46999998093E+01 0. -1.
</event>
<event>
 5   0  0.2746876E-08  0.4011050E+04  0.7818609E-02  0.8002321E-01
       -2   -1    0    0    0  501  0.00000000000E+00  0.00000000000E+00  0.28385377890E+04  0.28385377890E+04  0.25500000920E-02 0.  1.
        2   -1    0    0  501    0  0.00000000000E+00  0.00000000000E+00 -0.14169725201E+04  0.14169725201E+04  0.25500000920E-02 0. -1.
    10030    2    1    2    0    0  0.00000000000E+00  0.00000000000E+00  0.14215652689E+04  0.42555103091E+04  0.40110497600E+04 0.  0.
        1    1    3    3  502    0  0.12898282983E+03  0.90230944613E+03 -0.11845242144E+04  0.14946225348E+04  0.50400001928E-02 0. -1.
       -1    1    3    3    0  502 -0.12898282983E+03 -0.90230944613E+03  0.26060894834E+04  0.27608877743E+04  0.50400001928E-02 0.  1.
</event>
<event>
 5   0  0.2599332E-08  0.3987701E+04  0.7818609E-02  0.8007032E-01
        2   -1    0    0  501    0  0.00000000000E+00  0.00000000000E+00  0.26674765546E+04  0.26674765546E+04  0.25500000920E-02 0.  1.
       -2   -1    0    0    0  501  0.00000000000E+00  0.00000000000E+00 -0.14903373107E+04  0.14903373107E+04  0.25500000920E-02 0. -1.
    10030    2    1    2    0    0  0.00000000000E+00  0.00000000000E+00  0.11771392438E+04  0.41578138653E+04  0.39877010092E+04 0.  0.
        2    1    3    3  502    0  0.19956683730E+02  0.35555104412E+03  0.26340497017E+04  0.26580129130E+04  0.25500000920E-02 0.  1.
       -2    1    3    3    0  502 -0.19956683730E+02 -0.35555104412E+03 -0.14569104579E+04  0.14998009523E+04  0.25500000920E-02 0. -1.
</event>
<event>
 5   0  0.2599332E-08  0.3998095E+04  0.7818609E-02  0.8004931E-01
        2   -1    0    0  501    0  0.00000000000E+00  0.00000000000E+00  0.22312875299E+04  0.22312875299E+04  0.25500000920E-02 0. -1.
       -2   -1    0    0    0  501  0.00000000000E+00  0.00000000000E+00 -0.17909800063E+04  0.17909800063E+04  0.25500000920E-02 0.  1.
    10030    2    1    2    0    0  0.00000000000E+00  0.00000000000E+00  0.44030752359E+03  0.40222675361E+04  0.39980952236E+04 0.  0.
        2    1    3    3  502    0  0.65328990406E+03 -0.13555643626E+04  0.15441075330E+04  0.21560636617E+04  0.25500000920E-02 0. -1.
       -2    1    3    3    0  502 -0.65328990406E+03  0.13555643626E+04 -0.11038000094E+04  0.18662038744E+04  0.25500000920E-02 0.  1.
</event>
<event>
 5   0  0.8329875E-09  0.4000047E+04  0.7818609E-02  0.8004537E-01
       -1   -1    0    0    0  501  0.00000000000E+00  0.00000000000E+00  0.15566680259E+04  0.15566680259E+04  0.50400001928E-02 0.  1.
        1   -1    0    0  501    0  0.00000000000E+00  0.00000000000E+00 -0.25696509207E+04  0.25696509207E+04  0.50400001928E-02 0. -1.
    10030    2    1    2    0    0  0.00000000000E+00  0.00000000000E+00 -0.10129828948E+04  0.41263189466E+04  0.40000467127E+04 0.  0.
        4    1    3    3  502    0 -0.55744343506E+03 -0.15786875542E+04  0.62216534820E+03  0.17860819999E+04  0.12699999809E+01 0.  1.
       -4    1    3    3    0  502  0.55744343506E+03  0.15786875542E+04 -0.16351482430E+04  0.23402369467E+04  0.12699999809E+01 0. -1.
</event>
<event>
 5   0  0.8329875E-09  0.3993462E+04  0.7818609E-02  0.8005867E-01
       -1   -1    0    0    0  501  0.00000000000E+00  0.00000000000E+00  0.30321462915E+04  0.30321462915E+04  0.50400001928E-02 0.  1.
        1   -1    0    0  501    0  0.00000000000E+00  0.00000000000E+00 -0.13148886578E+04  0.13148886578E+04  0.50400001928E-02 0. -1.
    10030    2    1    2    0    0  0.00000000000E+00  0.00000000000E+00  0.17172576337E+04  0.43470349494E+04  0.39934620407E+04 0.  0.
        1    1    3    3  502    0 -0.43623337868E+03 -0.12572882114E+04  0.24790013878E+04  0.28136312992E+04  0.50400001928E-02 0.  1.
       -1    1    3    3    0  502  0.43623337868E+03  0.12572882114E+04 -0.76174375412E+03  0.15334036501E+04  0.50400001928E-02 0. -1.
</event>
<event>
 5   0  0.2587493E-08  0.3955259E+04  0.7818609E-02  0.8013634E-01
       -2   -1    0    0    0  501  0.00000000000E+00  0.00000000000E+00  0.18993385127E+04  0.18993385127E+04  0.25500000920E-02 0.  1.
        2   -1    0    0  501    0  0.00000000000E+00  0.00000000000E+00 -0.20591474686E+04  0.20591474686E+04  0.25500000920E-02 0. -1.
    10030    2    1    2    0    0  0.00000000000E+00  0.00000000000E+00 -0.15980895586E+03  0.39584859813E+04  0.39552588236E+04 0.  0.
        5    1    3    3  502    0 -0.99154068886E+02 -0.10721132235E+04  0.15802852434E+04  0.19122190863E+04  0.46999998093E+01 0.  1.
       -5    1    3    3    0  502  0.99154068886E+02  0.10721132235E+04 -0.17400941992E+04  0.20462668950E+04  0.46999998093E+01 0. -1.
</event>
<event>
 5   0  0.8329875E-09  0.3989200E+04  0.7818609E-02  0.8006729E-01
        1   -1    0    0  501    0  0.00000000000E+00  0.00000000000E+00  0.28498220454E+04  0.28498220454E+04  0.50400001928E-02 0. -1.
       -1   -1    0    0    0  501  0.00000000000E+00  0.00000000000E+00 -0.13960275716E+04  0.13960275716E+04  0.50400001928E-02 0.  1.
    10030    2    1    2    0    0  0.00000000000E+00  0.00000000000E+00  0.14537944738E+04  0.42458496170E+04  0.39892004961E+04 0.  0.
        5    1    3    3  502    0  0.11695218583E+03 -0.14961063669E+04  0.21253537056E+04  0.26017614300E+04  0.46999998093E+01 0.  1.
       -5    1    3    3    0  502 -0.11695218583E+03  0.14961063669E+04 -0.67155923172E+03  0.16440881870E+04  0.46999998093E+01 0. -1.
</event>
<event>
 5   0  0.2599332E-08  0.3947861E+04  0.7818609E-02  0.8015148E-01
       -2   -1    0    0    0  501  0.00000000000E+00  0.00000000000E+00  0.18899179860E+04  0.18899179860E+04  0.25500000920E-02 0. -1.
        2   -1    0    0  501    0  0.00000000000E+00  0.00000000000E+00 -0.20616780164E+04  0.20616780164E+04  0.25500000920E-02 0.  1.
    10030    2    1    2    0    0  0.00000000000E+00  0.00000000000E+00 -0.17176003045E+03  0.39515960024E+04  0.39478613778E+04 0.  0.
        2    1    3    3  502    0 -0.15288096361E+04 -0.22933212730E+03  0.11426971854E+04  0.19223966775E+04  0.25500000920E-02 0. -1.
       -2    1    3    3    0  502  0.15288096361E+04  0.22933212730E+03 -0.13144572158E+04  0.20291993250E+04  0.25500000920E-02 0.  1.
</event>
<event>
 5   0  0.2612363E-08  0.4003369E+04  0.7818609E-02  0.8003867E-01
        2   -1    0    0  501    0  0.00000000000E+00  0.00000000000E+00  0.25266164529E+04  0.25266164529E+04  0.25500000920E-02 0. -1.
       -2   -1    0    0    0  501  0.00000000000E+00  0.00000000000E+00 -0.15858126532E+04  0.15858126533E+04  0.25500000920E-02 0.  1.
    10030    2    1    2    0    0  0.00000000000E+00  0.00000000000E+00  0.94080379961E+03  0.41124291061E+04  0.40033687519E+04 0.  0.
        4    1    3    3  502    0  0.78799597552E+03  0.14220826964E+04  0.16698943364E+04  0.23306234274E+04  0.12699999809E+01 0. -1.
       -4    1    3    3    0  502 -0.78799597552E+03 -0.14220826964E+04 -0.72909053679E+03  0.17818056787E+04  0.12699999809E+01 0.  1.
</event>
<event>
 5   0  0.8329875E-09  0.3994118E+04  0.7818609E-02  0.8005734E-01
       -1   -1    0    0    0  501  0.00000000000E+00  0.00000000000E+00  0.20783263821E+04  0.20783263821E+04  0.50400001928E-02 0.  1.
        1   -1    0    0  501    0  0.00000000000E+00  0.00000000000E+00 -0.19189695827E+04  0.19189695827E+04  0.50400001928E-02 0. -1.
    10030    2    1    2    0    0  0.00000000000E+00  0.00000000000E+00  0.15935679942E+03  0.39972959648E+04  0.39941182307E+04 0.  0.
        4    1    3    3  502    0 -0.13478860749E+04 -0.12158952996E+03 -0.13900479946E+04  0.19400556499E+04  0.12699999809E+01 0. -1.
       -4    1    3    3    0  502  0.13478860749E+04  0.12158952996E+03  0.15494047940E+04  0.20572403149E+04  0.12699999809E+01 0.  1.
</event>
<event>
 5   0  0.2587493E-08  0.3996525E+04  0.7818609E-02  0.8005248E-01
        2   -1    0    0  501    0  0.00000000000E+00  0.00000000000E+00  0.20925618796E+04  0.20925618796E+04  0.25500000920E-02 0.  1.
       -2   -1    0    0    0  501  0.00000000000E+00  0.00000000000E+00 -0.19082125979E+04  0.19082125979E+04  0.25500000920E-02 0. -1.
    10030    2    1    2    0    0  0.00000000000E+00  0.00000000000E+00  0.18434928172E+03  0.40007744776E+04  0.39965249609E+04 0.  0.
        5    1    3    3  502    0 -0.85235869719E+03  0.16644551255E+04 -0.61292125132E+03  0.19678975491E+04  0.46999998093E+01 0. -1.
       -5    1    3    3    0  502  0.85235869719E+03 -0.16644551255E+04  0.79727053304E+03  0.20328769285E+04  0.46999998093E+01 0.  1.
</event>
<event>
 5   0  0.2650452E-08  0.4001901E+04  0.7818609E-02  0.8004163E-01
        2   -1    0    0  501    0  0.00000000000E+00  0.00000000000E+00  0.19770369227E+04  0.19770369227E+04  0.25500000920E-02 0.  1.
       -2   -1    0    0    0  501  0.00000000000E+00  0.00000000000E+00 -0.20251529425E+04  0.20251529425E+04  0.25500000920E-02 0. -1.
    10030    2    1    2    0    0  0.00000000000E+00  0.00000000000E+00 -0.48116019779E+02  0.40021898651E+04  0.40019006191E+04 0.  0.
        3    1    3    3  502    0 -0.12541173974E+04  0.22602008044E+03 -0.15668641047E+04  0.20196432002E+04  0.10100000352E+00 0. -1.
       -3    1    3    3    0  502  0.12541173974E+04 -0.22602008044E+03  0.15187480849E+04  0.19825466650E+04  0.10100000352E+00 0.  1.
</event>
<event>
 5   0  0.2612363E-08  0.3993595E+04  0.7818609E-02  0.8005840E-01
       -2   -1    0    0    0  501  0.00000000000E+00  0.00000000000E+00  0.12656174599E+04  0.12656174599E+04  0.25500000920E-02 0.  1.
        2   -1    0    0  501    0  0.00000000000E+00  0.00000000000E+00 -0.31503986777E+04  0.31503986777E+04  0.25500000920E-02 0. -1.
    10030    2    1    2    0    0  0.00000000000E+00  0.00000000000E+00 -0.18847812178E+04  0.44160161376E+04  0.39935946575E+04 0.  0.
        4    1    3    3  502    0  0.17669303533E+04  0.26015556107E+03 -0.19298630450E+04  0.26294670134E+04  0.12699999809E+01 0. -1.
       -4    1    3    3    0  502 -0.17669303533E+04 -0.26015556107E+03  0.45081827221E+02  0.17865491242E+04  0.12699999809E+01 0.  1.
</event>
<event>
 5   0  0.8329875E-09  0.3992890E+04  0.7818609E-02  0.8005982E-01
       -1   -1    0    0    0  501  0.00000000000E+00  0.00000000000E+00  0.13281369011E+04  0.13281369011E+04  0.50400001928E-02 0. -1.
        1   -1    0    0  501    0  0.00000000000E+00  0.00000000000E+00 -0.30010410400E+04  0.30010410400E+04  0.50400001928E-02 0.  1.
    10030    2    1    2    0    0  0.00000000000E+00  0.00000000000E+00 -0.16729041389E+04  0.43291779412E+04  0.39928903552E+04 0.  0.
        2    1    3    3  502    0 -0.12025220401E+04  0.60915185458E+03  0.76021584728E+03  0.15475959981E+04  0.25500000920E-02 0. -1.
       -2    1    3    3    0  502  0.12025220401E+04 -0.60915185458E+03 -0.24331199862E+04  0.27815819431E+04  0.25500000920E-02 0.  1.
</event>
<event>
 5   0  0.2650452E-08  0.3996864E+04  0.7818609E-02  0.8005180E-01
        2   -1    0    0  501    0  0.00000000000E+00  0.00000000000E+00  0.24476872634E+04  0.24476872634E+04  0.25500000920E-02 0. -1.
       -2   -1    0    0    0  501  0.00000000000E+00  0.00000000000E+00 -0.16316339030E+04  0.16316339030E+04  0.25500000920E-02 0.  1.
    10030    2    1    2    0    0  0.00000000000E+00  0.00000000000E+00  0.81605336043E+03  0.40793211665E+04  0.39968635318E+04 0.  0.
        3    1    3    3  502    0  0.26165743714E+03 -0.75099451782E+03 -0.14631742135E+04  0.16653336511E+04  0.10100000352E+00 0.  1.
       -3    1    3    3    0  502 -0.26165743714E+03  0.75099451782E+03  0.22792275739E+04  0.24139875153E+04  0.10100000352E+00 0. -1.
</event>
<event>
 5   0  0.8329875E-09  0.3980032E+04  0.7818609E-02  0.8008587E-01
       -1   -1    0    0    0  501  0.00000000000E+00  0.00000000000E+00  0.28316168125E+04  0.28316168125E+04  0.50400001928E-02 0.  1.
        1   -1    0    0  501    0  0.00000000000E+00  0.00000000000E+00 -0.13985523972E+04  0.13985523972E+04  0.50400001928E-02 0. -1.
    10030    2    1    2    0    0  0.00000000000E+00  0.00000000000E+00  0.14330644153E+04  0.42301692097E+04  0.39800324025E+04 0.  0.
        5    1    3    3  502    0  0.84393146888E+03  0.17302732211E+04  0.12522715090E+04  0.22965782735E+04  0.46999998093E+01 0. -1.
       -5    1    3    3    0  502 -0.84393146888E+03 -0.17302732211E+04  0.18079290629E+03  0.19335909363E+04  0.46999998093E+01 0.  1.
</event>
<event>
 5   0  0.2612363E-08  0.4000868E+04  0.7818609E-02  0.8004371E-01
        2   -1    0    0  501    0  0.00000000000E+00  0.00000000000E+00  0.11013241660E+04  0.11013241660E+04  0.25500000920E-02 0. -1.
       -2   -1    0    0    0  501  0.00000000000E+00  0.00000000000E+00 -0.36335686993E+04  0.36335686993E+04  0.25500000920E-02 0.  1.
    10030    2    1    2    0    0  0.00000000000E+00  0.00000000000E+00 -0.25322445334E+04  0.47348928653E+04  0.40008684144E+04 0.  0.
        4    1    3    3  502    0 -0.14179323839E+04  0.10311585611E+04 -0.12610867602E+03  0.17577614271E+04  0.12699999809E+01 0. -1.
       -4    1    3    3    0  502  0.14179323839E+04 -0.10311585611E+04 -0.24061358573E+04  0.29771314382E+04  0.12699999809E+01 0.  1.
</event>
<event>
 5   0  0.8329875E-09  0.3939935E+04  0.7818609E-02  0.8016774E-01
        1   -1    0    0  501    0  0.00000000000E+00  0.00000000000E+00  0.14564234081E+04  0.14564234081E+04  0.50400001928E-02 0.  1.
       -1   -1    0    0    0  501  0.00000000000E+00  0.00000000000E+00 -0.26645910220E+04  0.26645910220E+04  0.50400001928E-02 0. -1.
    10030    2    1    2    0    0  0.00000000000E+00  0.00000000000E+00 -0.12081676139E+04  0.41210144301E+04  0.39399353992E+04 0.  0.
        1    1    3    3  502    0  0.13249307617E+04  0.77864880741E+03 -0.18932213191E+04  0.24384467293E+04  0.50400001928E-02 0. -1.
       -1    1    3    3    0  502 -0.13249307617E+04 -0.77864880741E+03  0.68505370524E+03  0.16825677007E+04  0.50400001928E-02 0.  1.
</event>
<event>
 5   0  0.2587493E-08  0.3992830E+04  0.7818609E-02  0.8005994E-01
       -2   -1    0    0    0  501  0.00000000000E+00  0.00000000000E+00  0.17259980558E+04  0.17259980558E+04  0.25500000920E-02 0.  1.
        2   -1    0    0  501    0  0.00000000000E+00  0.00000000000E+00 -0.23091992376E+04  0.23091992376E+04  0.25500000920E-02 0. -1.
    10030    2    1    2    0    0  0.00000000000E+00  0.00000000000E+00 -0.58320118178E+03  0.40351972934E+04  0.39928302717E+04 0.  0.
        5    1    3    3  502    0  0.61847930005E+03  0.70348594580E+02  0.16254152997E+04  0.17405351349E+04  0.46999998093E+01 0.  1.
       -5    1    3    3    0  502 -0.61847930005E+03 -0.70348594580E+02 -0.22086164815E+04  0.22946621585E+04  0.46999998093E+01 0. -1.
</event>
<event>
 5   0  0.8329875E-09  0.3996302E+04  0.7818609E-02  0.8005293E-01
        1   -1    0    0  501    0  0.00000000000E+00  0.00000000000E+00  0.27330374435E+04  0.27330374435E+04  0.50400001928E-02 0.  1.
       -1   -1    0    0    0  501  0.00000000000E+00  0.00000000000E+00 -0.14608682230E+04  0.14608682230E+04  0.50400001928E-02 0. -1.
    10030    2    1    2    0    0  0.00000000000E+00  0.00000000000E+00  0.12721692205E+04  0.41939056665E+04  0.39963020674E+04 0.  0.
        5    1    3    3  502    0  0.16422652964E+04  0.48630927457E+03 -0.44390428371E+03  0.17693516094E+04  0.46999998093E+01 0. -1.
       -5    1    3    3    0  502 -0.16422652964E+04 -0.48630927457E+03  0.17160735042E+04  0.24245540572E+04  0.46999998093E+01 0.  1.
</event>
<event>
 5   0  0.8329875E-09  0.4013592E+04  0.7818609E-02  0.8001810E-01
        1   -1    0    0  501    0  0.00000000000E+00  0.00000000000E+00  0.16521855138E+04  0.16521855138E+04  0.50400001928E-02 0.  1.
       -1   -1    0    0    0  501  0.00000000000E+00  0.00000000000E+00 -0.24375171088E+04  0.24375171089E+04  0.50400001928E-02 0. -1.
    10030    2    1    2    0    0  0.00000000000E+00  0.00000000000E+00 -0.78533159504E+03  0.40897026227E+04  0.40135921352E+04 0.  0.
        5    1    3    3  502    0 -0.10245738426E+04 -0.94798846506E+03 -0.18618024777E+04  0.23269645990E+04  0.46999998093E+01 0. -1.
       -5    1    3    3    0  502  0.10245738426E+04  0.94798846506E+03  0.10764708827E+04  0.17627380237E+04  0.46999998093E+01 0.  1.
</event>
<event>
 5   0  0.2587493E-08  0.3999279E+04  0.7818609E-02  0.8004692E-01
        2   -1    0    0  501    0  0.00000000000E+00  0.00000000000E+00  0.23206286452E+04  0.23206286452E+04  0.25500000920E-02 0. -1.
       -2   -1    0    0    0  501  0.00000000000E+00  0.00000000000E+00 -0.17230499578E+04  0.17230499578E+04  0.25500000920E-02 0.  1.
    10030    2    1    2    0    0  0.00000000000E+00  0.00000000000E+00  0.59757868737E+03  0.40436786031E+04  0.39992794798E+04 0.  0.
        5    1    3    3  502    0  0.52437538983E+03 -0.19178295180E+04  0.51445853839E+03  0.20537111012E+04  0.46999998093E+01 0. -1.
       -5    1    3    3    0  502 -0.52437538983E+03  0.19178295180E+04  0.83120148981E+02  0.19899675019E+04  0.46999998093E+01 0.  1.
</event>
<event>
 5   0  0.8329875E-09  0.4004038E+04  0.7818609E-02  0.8003732E-01
        1   -1    0    0  501    0  0.00000000000E+00  0.00000000000E+00  0.21704104643E+04  0.21704104643E+04  0.50400001928E-02 0.  1.
       -1   -1    0    0    0  501  0.00000000000E+00  0.00000000000E+00 -0.18466926023E+04  0.18466926023E+04  0.50400001928E-02 0. -1.
    10030    2    1    2    0    0  0.00000000000E+00  0.00000000000E+00  0.32371786200E+03  0.40171030666E+04  0.40040384356E+04 0.  0.
        1    1    3    3  502    0 -0.17122741987E+03  0.16569847652E+04 -0.95224340931E+03  0.19187717040E+04  0.50400001928E-02 0. -1.
       -1    1    3    3    0  502  0.17122741987E+03 -0.16569847652E+04  0.12759612713E+04  0.20983313626E+04  0.50400001928E-02 0.  1.
</event>
<event>
 5   0  0.8329875E-09  0.3994925E+04  0.7818609E-02  0.8005571E-01
       -1   -1    0    0    0  501  0.00000000000E+00  0.00000000000E+00  0.13987675126E+04  0.13987675126E+04  0.50400001928E-02 0. -1.
        1   -1    0    0  501    0  0.00000000000E+00  0.00000000000E+00 -0.28524085629E+04  0.28524085629E+04  0.50400001928E-02 0.  1.
    10030    2    1    2    0    0  0.00000000000E+00  0.00000000000E+00 -0.14536410503E+04  0.42511760756E+04  0.39949249958E+04 0.  0.
        4    1    3    3  502    0 -0.12873828229E+03 -0.19284186067E+04 -0.18999914018E+03  0.19420281033E+04  0.12699999809E+01 0.  1.
       -4    1    3    3    0  502  0.12873828229E+03  0.19284186067E+04 -0.12636419101E+04  0.23091479723E+04  0.12699999809E+01 0. -1.
</event>
<event>
 5   0  0.8329875E-09  0.4005070E+04  0.7818609E-02  0.8003525E-01
        1   -1    0    0  501    0  0.00000000000E+00  0.00000000000E+00  0.18997833589E+04  0.18997833589E+04  0.50400001928E-02 0. -1.
       -1   -1    0    0    0  501  0.00000000000E+00  0.00000000000E+00 -0.21108441522E+04  0.21108441522E+04  0.50400001928E-02 0.  1.
    10030    2    1    2    0    0  0.00000000000E+00  0.00000000000E+00 -0.21106079331E+03  0.40106275112E+04  0.40050700836E+04 0.  0.
        5    1    3    3  502    0 -0.83481738421E+03 -0.64192676177E+03  0.16001047561E+04  0.19155540590E+04  0.46999998093E+01 0. -1.
       -5    1    3    3    0  502  0.83481738421E+03  0.64192676177E+03 -0.18111655494E+04  0.20950734522E+04  0.46999998093E+01 0.  1.
</event>
<event>
 5   0  0.8329875E-09  0.3989993E+04  0.7818609E-02  0.8006568E-01
        1   -1    0    0  501    0  0.00000000000E+00  0.00000000000E+00  0.17209033354E+04  0.17209033354E+04  0.50400001928E-02 0. -1.
       -1   -1    0    0    0  501  0.00000000000E+00  0.00000000000E+00 -0.23127455940E+04  0.23127455940E+04  0.50400001928E-02 0.  1.
    10030    2    1    2    0    0  0.00000000000E+00  0.00000000000E+00 -0.59184225856E+03  0.40336489295E+04  0.39899932866E+04 0.  0.
        4    1    3    3  502    0  0.15387749830E+04 -0.60815916692E+03 -0.14227121162E+04  0.21821543024E+04  0.12699999809E+01 0.  1.
       -4    1    3    3    0  502 -0.15387749830E+04  0.60815916692E+03  0.83086985769E+03  0.18514946271E+04  0.12699999809E+01 0. -1.
</event>
<event>
 5   0  0.8329875E-09  0.4000801E+04  0.7818609E-02  0.8004385E-01
        1   -1    0    0  501    0  0.00000000000E+00  0.00000000000E+00  0.16066259582E+04  0.16066259582E+04  0.50400001928E-02 0. -1.
       -1   -1    0    0    0  501  0.00000000000E+00  0.00000000000E+00 -0.24906864331E+04  0.24906864332E+04  0.50400001928E-02 0.  1.
    10030    2    1    2    0    0  0.00000000000E+00  0.00000000000E+00 -0.88406047496E+03  0.40973123913E+04  0.40008006585E+04 0.  0.
        4    1    3    3  502    0 -0.74127117047E+03 -0.18252768927E+04 -0.86553019918E+02  0.19719563183E+04  0.12699999809E+01 0. -1.
       -4    1    3    3    0  502  0.74127117047E+03  0.18252768927E+04 -0.79750745504E+03  0.21253560730E+04  0.12699999809E+01 0.  1.
</event>
<event>
 5   0  0.8329875E-09  0.4002151E+04  0.7818609E-02  0.8004113E-01
       -1   -1    0    0    0  501  0.00000000000E+00  0.00000000000E+00  0.16064425848E+04  0.16064425848E+04  0.50400001928E-02 0.  1.
        1   -1    0    0  501    0  0.00000000000E+00  0.00000000000E+00 -0.24926526559E+04  0.24926526559E+04  0.50400001928E-02 0. -1.
    10030    2    1    2    0    0  0.00000000000E+00  0.00000000000E+00 -0.88621007110E+03  0.40990952407E+04  0.40021511094E+04 0.  0.
        4    1    3    3  502    0  0.46744586309E+03  0.10048714222E+04 -0.21496061230E+04  0.24184871939E+04  0.12699999809E+01 0. -1.
       -4    1    3    3    0  502 -0.46744586309E+03 -0.10048714222E+04  0.12633960519E+04  0.16806080468E+04  0.12699999809E+01 0.  1.
</event>
<event>
 5   0  0.8329875E-09  0.4001672E+04  0.7818609E-02  0.8004209E-01
       -1   -1    0    0    0  501  0.00000000000E+00  0.00000000000E+00  0.14267558999E+04  0.14267558999E+04  0.50400001928E-02 0. -1.
        1   -1    0    0  501    0  0.00000000000E+00  0.00000000000E+00 -0.28059071987E+04  0.28059071987E+04  0.50400001928E-02 0.  1.
    10030    2    1    2    0    0  0.00000000000E+00  0.00000000000E+00 -0.13791512988E+04  0.42326630986E+04  0.40016719758E+04 0.  0.
        3    1    3    3  502    0 -0.57052591676E+03 -0.17336741124E+04 -0.15567922294E+04  0.23989013747E+04  0.10100000352E+00 0. -1.
       -3    1    3    3    0  502  0.57052591676E+03  0.17336741124E+04  0.17764093066E+03  0.18337617239E+04  0.10100000352E+00 0.  1.
</event>
<event>
 5   0  0.2599332E-08  0.3993290E+04  0.7818609E-02  0.8005902E-01
       -2   -1    0    0    0  501  0.00000000000E+00  0.00000000000E+00  0.21378270742E+04  0.21378270742E+04  0.25500000920E-02 0.  1.
        2   -1    0    0  501    0  0.00000000000E+00  0.00000000000E+00 -0.18647864140E+04  0.18647864140E+04  0.25500000920E-02 0. -1.
    10030    2    1    2    0    0  0.00000000000E+00  0.00000000000E+00  0.27304066016E+03  0.40026134882E+04  0.39932898134E+04 0.  0.
        2    1    3    3  502    0  0.12126929582E+03 -0.47955734240E+03 -0.18023977397E+04  0.18690422946E+04  0.25500000920E-02 0. -1.
       -2    1    3    3    0  502 -0.12126929582E+03  0.47955734240E+03  0.20754383999E+04  0.21335711937E+04  0.25500000920E-02 0.  1.
</event>
<event>
 5   0  0.8329875E-09  0.4009502E+04  0.7818609E-02  0.8002632E-01
       -1   -1    0    0    0  501  0.00000000000E+00  0.00000000000E+00  0.30489861776E+04  0.30489861776E+04  0.50400001928E-02 0.  1.
        1   -1    0    0  501    0  0.00000000000E+00  0.00000000000E+00 -0.13181520350E+04  0.13181520350E+04  0.50400001928E-02 0. -1.
    10030    2    1    2    0    0  0.00000000000E+00  0.00000000000E+00  0.17308341426E+04  0.43671382126E+04  0.40095023805E+04 0.  0.
        3    1    3    3  502    0  0.73814383873E+03 -0.17956311690E+04  0.32094958346E+03  0.19677795271E+04  0.10100000352E+00 0. -1.
       -3    1    3    3    0  502 -0.73814383873E+03  0.17956311690E+04  0.14098845591E+04  0.23993586856E+04  0.10100000352E+00 0.  1.
</event>
<event>
 5   0  0.8329875E-09  0.3992885E+04  0.7818609E-02  0.8005983E-01
        1   -1    0    0  501    0  0.00000000000E+00  0.00000000000E+00  0.16225254143E+04  0.16225254143E+04  0.50400001928E-02 0. -1.
       -1   -1    0    0    0  501  0.00000000000E+00  0.00000000000E+00 -0.24565301461E+04  0.24565301461E+04  0.50400001928E-02 0.  1.
    10030    2    1    2    0    0  0.00000000000E+00  0.00000000000E+00 -0.83400473180E+03  0.40790555604E+04  0.39928849686E+04 0.  0.
        1    1    3    3  502    0  0.62291144447E+03 -0.61142282853E+03 -0.22512812131E+04  0.24145648973E+04  0.50400001928E-02 0.  1.
       -1    1    3    3    0  502 -0.62291144447E+03  0.61142282853E+03  0.14172764813E+04  0.16644906631E+04  0.50400001928E-02 0. -1.
</event>
<event>
 5   0  0.2587493E-08  0.3989405E+04  0.7818609E-02  0.8006687E-01
       -2   -1    0    0    0  501  0.00000000000E+00  0.00000000000E+00  0.15934986149E+04  0.15934986149E+04  0.25500000920E-02 0. -1.
        2   -1    0    0  501    0  0.00000000000E+00  0.00000000000E+00 -0.24969200706E+04  0.24969200706E+04  0.25500000920E-02 0.  1.
    10030    2    1    2    0    0  0.00000000000E+00  0.00000000000E+00 -0.90342145576E+03  0.40904186855E+04  0.39894053061E+04 0.  0.
        5    1    3    3  502    0  0.13574796316E+04  0.22955593994E+03 -0.19316461834E+04  0.23720720789E+04  0.46999998093E+01 0.  1.
       -5    1    3    3    0  502 -0.13574796316E+04 -0.22955593994E+03  0.10282247277E+04  0.17183466066E+04  0.46999998093E+01 0. -1.
</event>
<event>
 5   0  0.2587493E-08  0.3902944E+04  0.7818609E-02  0.8024417E-01
       -2   -1    0    0    0  501  0.00000000000E+00  0.00000000000E+00  0.15850519989E+04  0.15850519989E+04  0.25500000920E-02 0.  1.
        2   -1    0    0  501    0  0.00000000000E+00  0.00000000000E+00 -0.24025986635E+04  0.24025986635E+04  0.25500000920E-02 0. -1.
    10030    2    1    2    0    0  0.00000000000E+00  0.00000000000E+00 -0.81754666462E+03  0.39876506625E+04  0.39029444343E+04 0.  0.
        5    1    3    3  502    0  0.14737521333E+04  0.62257570090E+03 -0.15504670108E+04  0.22278949471E+04  0.46999998093E+01 0. -1.
       -5    1    3    3    0  502 -0.14737521333E+04 -0.62257570090E+03  0.73292034617E+03  0.17597557154E+04  0.46999998093E+01 0.  1.
</event>
<event>
 5   0  0.8329875E-09  0.3942918E+04  0.7818609E-02  0.8016162E-01
       -1   -1    0    0    0  501  0.00000000000E+00  0.00000000000E+00  0.24373424840E+04  0.24373424840E+04  0.50400001928E-02 0.  1.
        1   -1    0    0  501    0  0.00000000000E+00  0.00000000000E+00 -0.15946262941E+04  0.15946262941E+04  0.50400001928E-02 0. -1.
    10030    2    1    2    0    0  0.00000000000E+00  0.00000000000E+00  0.84271618987E+03  0.40319687781E+04  0.39429179107E+04 0.  0.
        5    1    3    3  502    0 -0.13269299501E+04  0.13063217572E+04  0.10836022608E+04  0.21543991216E+04  0.46999998093E+01 0.  1.
       -5    1    3    3    0  502  0.13269299501E+04 -0.13063217572E+04 -0.24088607097E+03  0.18775696564E+04  0.46999998093E+01 0. -1.
</event>
<event>
 5   0  0.8329875E-09  0.3996233E+04  0.7818609E-02  0.8005307E-01
        1   -1    0    0  501    0  0.00000000000E+00  0.00000000000E+00  0.28332586116E+04  0.28332586116E+04  0.50400001928E-02 0. -1.
       -1   -1    0    0    0  501  0.00000000000E+00  0.00000000000E+00 -0.14091441091E+04  0.14091441092E+04  0.50400001928E-02 0.  1.
    10030    2    1    2    0    0  0.00000000000E+00  0.00000000000E+00  0.14241145024E+04  0.42424027207E+04  0.39962330674E+04 0.  0.
        4    1    3    3  502    0  0.80783272608E+03 -0.88078256835E+03  0.24119763761E+04  0.26918401323E+04  0.12699999809E+01 0. -1.
       -4    1    3    3    0  502 -0.80783272608E+03  0.88078256835E+03 -0.98786187373E+03  0.15505625884E+04  0.12699999809E+01 0.  1.
</event>
<event>
 5   0  0.8329875E-09  0.3906636E+04  0.7818609E-02  0.8023650E-01
       -1   -1    0    0    0  501  0.00000000000E+00  0.00000000000E+00  0.13592996086E+04  0.13592996086E+04  0.50400001928E-02 0.  1.
        1   -1    0    0  501    0  0.00000000000E+00  0.00000000000E+00 -0.28069250888E+04  0.28069250888E+04  0.50400001928E-02 0. -1.
    10030    2    1    2    0    0  0.00000000000E+00  0.00000000000E+00 -0.14476254802E+04  0.41662246974E+04  0.39066364943E+04 0.  0.
        4    1    3    3  502    0 -0.11580812600E+04  0.52873650124E+03 -0.23037172430E+04  0.26320769824E+04  0.12699999809E+01 0. -1.
       -4    1    3    3    0  502  0.11580812600E+04 -0.52873650124E+03  0.85609176280E+03  0.15341477151E+04  0.12699999809E+01 0.  1.
</event>
<event>
 5   0  0.2612363E-08  0.4005509E+04  0.7818609E-02  0.8003436E-01
       -2   -1    0    0    0  501  0.00000000000E+00  0.00000000000E+00  0.20566133357E+04  0.20566133357E+04  0.25500000920E-02 0. -1.
        2   -1    0    0  501    0  0.00000000000E+00  0.00000000000E+00 -0.19503059755E+04  0.19503059755E+04  0.25500000920E-02 0.  1.
    10030    2    1    2    0    0  0.00000000000E+00  0.00000000000E+00  0.10630736021E+03  0.40069193113E+04  0.40055088456E+04 0.  0.
        4    1    3    3  502    0 -0.54305706859E+03  0.16624890707E+04 -0.92301921577E+03  0.19775608652E+04  0.12699999809E+01 0.  1.
       -4    1    3    3    0  502  0.54305706859E+03 -0.16624890707E+04  0.10293265760E+04  0.20293584461E+04  0.12699999809E+01 0. -1.
</event>
<event>
 5   0  0.8329875E-09  0.3993377E+04  0.7818609E-02  0.8005884E-01
        1   -1    0    0  501    0  0.00000000000E+00  0.00000000000E+00  0.20889761579E+04  0.20889761579E+04  0.50400001928E-02 0.  1.
       -1   -1    0    0    0  501  0.00000000000E+00  0.00000000000E+00 -0.19084784312E+04  0.19084784312E+04  0.50400001928E-02 0. -1.
    10030    2    1    2    0    0  0.00000000000E+00  0.00000000000E+00  0.18049772675E+03  0.39974545891E+04  0.39933774881E+04 0.  0.
        3    1    3    3  502    0  0.50274164152E+03  0.13609647523E+04  0.14634335436E+04  0.20607309290E+04  0.10100000352E+00 0.  1.
       -3    1    3    3    0  502 -0.50274164152E+03 -0.13609647523E+04 -0.12829358168E+04  0.19367236601E+04  0.10100000352E+00 0. -1.
</event>
<event>
 5   0  0.2599332E-08  0.4007405E+04  0.7818609E-02  0.8003054E-01
       -2   -1    0    0    0  501  0.00000000000E+00  0.00000000000E+00  0.14652867331E+04  0.14652867331E+04  0.25500000920E-02 0. -1.
        2   -1    0    0  501    0  0.00000000000E+00  0.00000000000E+00 -0.27399576401E+04  0.27399576401E+04  0.25500000920E-02 0.  1.
    10030    2    1    2    0    0  0.00000000000E+00  0.00000000000E+00 -0.12746709070E+04  0.42052443732E+04  0.40074049356E+04 0.  0.
        2    1    3    3  502    0 -0.11124292935E+04 -0.41997517294E+03 -0.23296988975E+04  0.26156022312E+04  0.25500000920E-02 0.  1.
       -2    1    3    3    0  502  0.11124292935E+04  0.41997517294E+03  0.10550279905E+04  0.15896421420E+04  0.25500000920E-02 0. -1.
</event>
<event>
 5   0  0.2587493E-08  0.4000632E+04  0.7818609E-02  0.8004419E-01
       -2   -1    0    0    0  501  0.00000000000E+00  0.00000000000E+00  0.17636653904E+04  0.17636653904E+04  0.25500000920E-02 0.  1.
        2   -1    0    0  501    0  0.00000000000E+00  0.00000000000E+00 -0.22687206108E+04  0.22687206108E+04  0.25500000920E-02 0. -1.
    10030    2    1    2    0    0  0.00000000000E+00  0.00000000000E+00 -0.50505522049E+03  0.40323860012E+04  0.40006319609E+04 0.  0.
        5    1    3    3  502    0  0.18360985105E+04 -0.50060611159E+03  0.36829768675E+03  0.19384348055E+04  0.46999998093E+01 0. -1.
       -5    1    3    3    0  502 -0.18360985105E+04  0.50060611159E+03 -0.87335290724E+03  0.20939511957E+04  0.46999998093E+01 0.  1.
</event>
<event>
 5   0  0.2650452E-08  0.3995879E+04  0.7818609E-02  0.8005379E-01
       -2   -1    0    0    0  501  0.00000000000E+00  0.00000000000E+00  0.17462224290E+04  0.17462224290E+04  0.25500000920E-02 0.  1.
        2   -1    0    0  501    0  0.00000000000E+00  0.00000000000E+00 -0.22859409070E+04  0.22859409070E+04  0.25500000920E-02 0. -1.
    10030    2    1    2    0    0  0.00000000000E+00  0.00000000000E+00 -0.53971847795E+03  0.40321633360E+04  0.39958785183E+04 0.  0.
        3    1    3    3  502    0 -0.94659627349E+03 -0.15419301478E+04 -0.11250025865E+04  0.21305454502E+04  0.10100000352E+00 0. -1.
       -3    1    3    3    0  502  0.94659627349E+03  0.15419301478E+04  0.58528410856E+03  0.19016178858E+04  0.10100000352E+00 0.  1.
</event>
<event>
 5   0  0.8329875E-09  0.3987901E+04  0.7818609E-02  0.8006992E-01
        1   -1    0    0  501    0  0.00000000000E+00  0.00000000000E+00  0.24048298426E+04  0.24048298427E+04  0.50400001928E-02 0.  1.
       -1   -1    0    0    0  501  0.00000000000E+00  0.00000000000E+00 -0.16532720424E+04  0.16532720424E+04  0.50400001928E-02 0. -1.
    10030    2    1    2    0    0  0.00000000000E+00  0.00000000000E+00  0.75155780029E+03  0.40581018850E+04  0.39879006735E+04 0.  0.
        2    1    3    3  502    0 -0.10274745658E+04  0.12366168390E+04  0.15759096368E+04  0.22513143657E+04  0.25500000920E-02 0.  1.
       -2    1    3    3    0  502  0.10274745658E+04 -0.12366168390E+04 -0.82435183649E+03  0.18067875194E+04  0.25500000920E-02 0. -1.
</event>
<event>
 5   0  0.2650452E-08  0.3990645E+04  0.7818609E-02  0.8006436E-01
        2   -1    0    0  501    0  0.00000000000E+00  0.00000000000E+00  0.19274074149E+04  0.19274074149E+04  0.25500000920E-02 0.  1.
       -2   -1    0    0    0  501  0.00000000000E+00  0.00000000000E+00 -0.20656304017E+04  0.20656304017E+04  0.25500000920E-02 0. -1.
    10030    2    1    2    0    0  0.00000000000E+00  0.00000000000E+00 -0.13822298677E+03  0.39930378166E+04  0.39906447362E+04 0.  0.
        3    1    3    3  502    0 -0.80902623941E+03  0.16212880133E+04  0.76698103375E+03  0.19675767315E+04  0.10100000352E+00 0. -1.
       -3    1    3    3    0  502  0.80902623941E+03 -0.16212880133E+04 -0.90520402052E+03  0.20254610851E+04  0.10100000352E+00 0.  1.
</event>
<event>
 5   0  0.8329875E-09  0.4008223E+04  0.7818609E-02  0.8002890E-01
       -1   -1    0    0    0  501  0.00000000000E+00  0.00000000000E+00  0.14252938027E+04  0.14252938027E+04  0.50400001928E-02 0. -1.
        1   -1    0    0  501    0  0.00000000000E+00  0.00000000000E+00 -0.28179899613E+04  0.28179899613E+04  0.50400001928E-02 0.  1.
    10030    2    1    2    0    0  0.00000000000E+00  0.00000000000E+00 -0.13926961586E+04  0.42432837640E+04  0.40082233610E+04 0.  0.
        5    1    3    3  502    0  0.85845661284E+03  0.14133891387E+04 -0.18949211525E+04  0.25150278085E+04  0.46999998093E+01 0.  1.
       -5    1    3    3    0  502 -0.85845661284E+03 -0.14133891387E+04  0.50222499383E+03  0.17282559555E+04  0.46999998093E+01 0. -1.
</event>
<event>
 5   0  0.8329875E-09  0.4000678E+04  0.7818609E-02  0.8004410E-01
       -1   -1    0    0    0  501  0.00000000000E+00  0.00000000000E+00  0.24136565454E+04  0.24136565454E+04  0.50400001928E-02 0.  1.
        1   -1    0    0  501    0  0.00000000000E+00  0.00000000000E+00 -0.16577985607E+04  0.16577985607E+04  0.50400001928E-02 0. -1.
    10030    2    1    2    0    0  0.00000000000E+00  0.00000000000E+00  0.75585798471E+03  0.40714551060E+04  0.40006781160E+04 0.  0.
        3    1    3    3  502    0 -0.51678279328E+03  0.10434869349E+04  0.20331802339E+04  0.23430218336E+04  0.10100000352E+00 0.  1.
       -3    1    3    3    0  502  0.51678279328E+03 -0.10434869349E+04 -0.12773222492E+04  0.17284332725E+04  0.10100000352E+00 0. -1.
</event>
<event>
 5   0  0.8329875E-09  0.4013876E+04  0.7818609E-02  0.8001753E-01
       -1   -1    0    0    0  501  0.00000000000E+00  0.00000000000E+00  0.15554607992E+04  0.15554607992E+04  0.50400001928E-02 0.  1.
        1   -1    0    0  501    0  0.00000000000E+00  0.00000000000E+00 -0.25894576808E+04  0.25894576808E+04  0.50400001928E-02 0. -1.
    10030    2    1    2    0    0  0.00000000000E+00  0.00000000000E+00 -0.10339968816E+04  0.41449184801E+04  0.40138758894E+04 0.  0.
        1    1    3    3  502    0 -0.15334433351E+04  0.63752689684E+03  0.64669525198E+03  0.17821626624E+04  0.50400001928E-02 0.  1.
       -1    1    3    3    0  502  0.15334433351E+04 -0.63752689684E+03 -0.16806921336E+04  0.23627558177E+04  0.50400001928E-02 0. -1.
</event>
<event>
 5   0  0.2612363E-08  0.4004880E+04  0.7818609E-02  0.8003563E-01
       -2   -1    0    0    0  501  0.00000000000E+00  0.00000000000E+00  0.19230754868E+04  0.19230754868E+04  0.25500000920E-02 0.  1.
        2   -1    0    0  501    0  0.00000000000E+00  0.00000000000E+00 -0.20850794977E+04  0.20850794977E+04  0.25500000920E-02 0. -1.
    10030    2    1    2    0    0  0.00000000000E+00  0.00000000000E+00 -0.16200401091E+03  0.40081549845E+04  0.40048796587E+04 0.  0.
        4    1    3    3  502    0  0.83670964201E+03 -0.66378031458E+03 -0.17762220797E+04  0.20725959134E+04  0.12699999809E+01 0. -1.
       -4    1    3    3    0  502 -0.83670964201E+03  0.66378031458E+03  0.16142180688E+04  0.19355590711E+04  0.12699999809E+01 0.  1.
</event>
<event>
 5   0  0.8329875E-09  0.3976419E+04  0.7818609E-02  0.8009321E-01
       -1   -1    0    0    0  501  0.00000000000E+00  0.00000000000E+00  0.14657503458E+04  0.14657503458E+04  0.50400001928E-02 0. -1.
        1   -1    0    0  501    0  0.00000000000E+00  0.00000000000E+00 -0.26968965902E+04  0.26968965902E+04  0.50400001928E-02 0.  1.
    10030    2    1    2    0    0  0.00000000000E+00  0.00000000000E+00 -0.12311462444E+04  0.41626469360E+04  0.39764190472E+04 0.  0.
        4    1    3    3  502    0 -0.12989767824E+04  0.17712335723E+03 -0.21803214417E+04  0.25441141026E+04  0.12699999809E+01 0.  1.
       -4    1    3    3    0  502  0.12989767824E+04 -0.17712335723E+03  0.94917519725E+03  0.16185328334E+04  0.12699999809E+01 0. -1.
</event>
<event>
 5   0  0.2587493E-08  0.3968021E+04  0.7818609E-02  0.8011029E-01
        2   -1    0    0  501    0  0.00000000000E+00  0.00000000000E+00  0.20363796338E+04  0.20363796338E+04  0.25500000920E-02 0. -1.
       -2   -1    0    0    0  501  0.00000000000E+00  0.00000000000E+00 -0.19329880265E+04  0.19329880265E+04  0.25500000920E-02 0.  1.
    10030    2    1    2    0    0  0.00000000000E+00  0.00000000000E+00  0.10339160728E+03  0.39693676604E+04  0.39680208919E+04 0.  0.
        5    1    3    3  502    0  0.10731338672E+04 -0.14575427075E+02  0.17209282781E+04  0.20281629541E+04  0.46999998093E+01 0. -1.
       -5    1    3    3    0  502 -0.10731338672E+04  0.14575427075E+02 -0.16175366708E+04  0.19412047062E+04  0.46999998093E+01 0.  1.
</event>
<event>
 5   0  0.8329875E-09  0.4003298E+04  0.7818609E-02  0.8003881E-01
        1   -1    0    0  501    0  0.00000000000E+00  0.00000000000E+00  0.18387428767E+04  0.18387428767E+04  0.50400001928E-02 0. -1.
       -1   -1    0    0    0  501  0.00000000000E+00  0.00000000000E+00 -0.21789885627E+04  0.21789885627E+04  0.50400001928E-02 0.  1.
    10030    2    1    2    0    0  0.00000000000E+00  0.00000000000E+00 -0.34024568607E+03  0.40177314394E+04  0.40032984890E+04 0.  0.
        5    1    3    3  502    0  0.80234036819E+03 -0.10025423141E+04 -0.17111509490E+04  0.21393692571E+04  0.46999998093E+01 0.  1.
       -5    1    3    3    0  502 -0.80234036819E+03  0.10025423141E+04  0.13709052629E+04  0.18783621823E+04  0.46999998093E+01 0. -1.
</event>
<event>
 5   0  0.2599332E-08  0.4007805E+04  0.7818609E-02  0.8002974E-01
        2   -1    0    0  501    0  0.00000000000E+00  0.00000000000E+00  0.14414324595E+04  0.14414324595E+04  0.25500000920E-02 0. -1.
       -2   -1    0    0    0  501  0.00000000000E+00  0.00000000000E+00 -0.27858574071E+04  0.27858574071E+04  0.25500000920E-02 0.  1.
    10030    2    1    2    0    0  0.00000000000E+00  0.00000000000E+00 -0.13444249476E+04  0.42272898666E+04  0.40078050323E+04 0.  0.
        2    1    3    3  502    0  0.17144445050E+03 -0.53164378661E+03  0.13576504756E+04  0.14680780393E+04  0.25500000920E-02 0. -1.
       -2    1    3    3    0  502 -0.17144445050E+03  0.53164378661E+03 -0.27020754232E+04  0.27592118273E+04  0.25500000920E-02 0.  1.
</event>
<event>
 5   0  0.2612363E-08  0.3996496E+04  0.7818609E-02  0.8005254E-01
       -2   -1    0    0    0  501  0.00000000000E+00  0.00000000000E+00  0.21511384503E+04  0.21511384503E+04  0.25500000920E-02 0.  1.
        2   -1    0    0  501    0  0.00000000000E+00  0.00000000000E+00 -0.18562242772E+04  0.18562242772E+04  0.25500000920E-02 0. -1.
    10030    2    1    2    0    0  0.00000000000E+00  0.00000000000E+00  0.29491417308E+03  0.40073627275E+04  0.39964961730E+04 0.  0.
        4    1    3    3  502    0  0.10042554474E+04 -0.17272085641E+04  0.11250007196E+03  0.20011087693E+04  0.12699999809E+01 0. -1.
       -4    1    3    3    0  502 -0.10042554474E+04  0.17272085641E+04  0.18241410112E+03  0.20062539582E+04  0.12699999809E+01 0.  1.
</event>
<event>
 5   0  0.2599332E-08  0.3997358E+04  0.7818609E-02  0.8005080E-01
       -2   -1    0    0    0  501  0.00000000000E+00  0.00000000000E+00  0.15140027555E+04  0.15140027555E+04  0.25500000920E-02 0. -1.
        2   -1    0    0  501    0  0.00000000000E+00  0.00000000000E+00 -0.26385148007E+04  0.26385148007E+04  0.25500000920E-02 0.  1.
    10030    2    1    2    0    0  0.00000000000E+00  0.00000000000E+00 -0.11245120452E+04  0.41525175562E+04  0.39973584671E+04 0.  0.
        2    1    3    3  502    0  0.17109130779E+04 -0.10139656951E+04 -0.35613900446E+03  0.20204417788E+04  0.25500000920E-02 0. -1.
       -2    1    3    3    0  502 -0.17109130779E+04  0.10139656951E+04 -0.76837304070E+03  0.21320757774E+04  0.25500000920E-02 0.  1.
</event>
<event>
 5   0  0.8329875E-09  0.4002772E+04  0.7818609E-02  0.8003988E-01
        1   -1    0    0  501    0  0.00000000000E+00  0.00000000000E+00  0.25331035293E+04  0.25331035293E+04  0.50400001928E-02 0. -1.
       -1   -1    0    0    0  501  0.00000000000E+00  0.00000000000E+00 -0.15812802986E+04  0.15812802986E+04  0.50400001928E-02 0.  1.
    10030    2    1    2    0    0  0.00000000000E+00  0.00000000000E+00  0.95182323070E+03  0.41143838280E+04  0.40027723919E+04 0.  0.
        4    1    3    3  502    0  0.12625281838E+04 -0.22246843347E+03 -0.11038472226E+04  0.16917298609E+04  0.12699999809E+01 0.  1.
       -4    1    3    3    0  502 -0.12625281838E+04  0.22246843347E+03  0.20556704533E+04  0.24226539670E+04  0.12699999809E+01 0. -1.
</event>
<event>
 5   0  0.2587493E-08  0.4009629E+04  0.7818609E-02  0.8002607E-01
       -2   -1    0    0    0  501  0.00000000000E+00  0.00000000000E+00  0.17627990904E+04  0.17627990904E+04  0.25500000920E-02 0. -1.
        2   -1    0    0  501    0  0.00000000000E+00  0.00000000000E+00 -0.22800566203E+04  0.22800566203E+04  0.25500000920E-02 0.  1.
    10030    2    1    2    0    0  0.00000000000E+00  0.00000000000E+00 -0.51725752986E+03  0.40428557107E+04  0.40096292778E+04 0.  0.
        5    1    3    3  502    0 -0.14432006496E+03 -0.69699617396E+03  0.16311026463E+04  0.17796488081E+04  0.46999998093E+01 0. -1.
       -5    1    3    3    0  502  0.14432006496E+03  0.69699617396E+03 -0.21483601761E+04  0.22632069026E+04  0.46999998093E+01 0.  1.
</event>
<event>
 5   0  0.8329875E-09  0.3997439E+04  0.7818609E-02  0.8005063E-01
       -1   -1    0    0    0  501  0.00000000000E+00  0.00000000000E+00  0.15197326007E+04  0.15197326007E+04  0.50400001928E-02 0.  1.
        1   -1    0    0  501    0  0.00000000000E+00  0.00000000000E+00 -0.26286730703E+04  0.26286730703E+04  0.50400001928E-02 0. -1.
    10030    2    1    2    0    0  0.00000000000E+00  0.00000000000E+00 -0.11089404695E+04  0.41484056710E+04  0.39974392611E+04 0.  0.
        2    1    3    3  502    0 -0.13755110988E+04 -0.15342053174E+03 -0.20509096042E+04  0.24742269191E+04  0.25500000920E-02 0. -1.
       -2    1    3    3    0  502  0.13755110988E+04  0.15342053174E+03  0.94196913472E+03  0.16741787519E+04  0.25500000920E-02 0.  1.
</event>
<event>
 5   0  0.8329875E-09  0.4004747E+04  0.7818609E-02  0.8003590E-01
        1   -1    0    0  501    0  0.00000000000E+00  0.00000000000E+00  0.24454337469E+04  0.24454337469E+04  0.50400001928E-02 0. -1.
       -1   -1    0    0    0  501  0.00000000000E+00  0.00000000000E+00 -0.16395862609E+04  0.16395862609E+04  0.50400001928E-02 0.  1.
    10030    2    1    2    0    0  0.00000000000E+00  0.00000000000E+00  0.80584748597E+03  0.40850200078E+04  0.40047469699E+04 0.  0.
        1    1    3    3  502    0 -0.17519329893E+04 -0.41279738089E+03 -0.49206207720E+03  0.18659571175E+04  0.50400001928E-02 0.  1.
       -1    1    3    3    0  502  0.17519329893E+04  0.41279738089E+03  0.12979095632E+04  0.22190628902E+04  0.50400001928E-02 0. -1.
</event>
<event>
 5   0  0.8329875E-09  0.3999718E+04  0.7818609E-02  0.8004603E-01
       -1   -1    0    0    0  501  0.00000000000E+00  0.00000000000E+00  0.31433961214E+04  0.31433961214E+04  0.50400001928E-02 0. -1.
        1   -1    0    0  501    0  0.00000000000E+00  0.00000000000E+00 -0.12723297570E+04  0.12723297570E+04  0.50400001928E-02 0.  1.
    10030    2    1    2    0    0  0.00000000000E+00  0.00000000000E+00  0.18710663643E+04  0.44157258784E+04  0.39997182018E+04 0.  0.
        5    1    3    3  502    0 -0.87898697271E+03 -0.17941402043E+04  0.83767309977E+03  0.21663968895E+04  0.46999998093E+01 0. -1.
       -5    1    3    3    0  502  0.87898697271E+03  0.17941402043E+04  0.10333932646E+04  0.22493289889E+04  0.46999998093E+01 0.  1.
</event>
<event>
 5   0  0.8329875E-09  0.4014168E+04  0.7818609E-02  0.8001695E-01
       -1   -1    0    0    0  501  0.00000000000E+00  0.00000000000E+00  0.26142821474E+04  0.26142821474E+04  0.50400001928E-02 0.  1.
        1   -1    0    0  501    0  0.00000000000E+00  0.00000000000E+00 -0.15409148386E+04  0.15409148386E+04  0.50400001928E-02 0. -1.
    10030    2    1    2    0    0  0.00000000000E+00  0.00000000000E+00  0.10733673088E+04  0.41551969860E+04  0.40141679851E+04 0.  0.
        4    1    3    3  502    0  0.62300372907E+03 -0.11756885097E+04  0.20921433305E+04  0.24794036474E+04  0.12699999809E+01 0.  1.
       -4    1    3    3    0  502 -0.62300372907E+03  0.11756885097E+04 -0.10187760218E+04  0.16757933386E+04  0.12699999809E+01 0. -1.
</event>
<event>
 5   0  0.2746876E-08  0.3995042E+04  0.7818609E-02  0.8005548E-01
       -2   -1    0    0    0  501  0.00000000000E+00  0.00000000000E+00  0.20943276058E+04  0.20943276058E+04  0.25500000920E-02 0.  1.
        2   -1    0    0  501    0  0.00000000000E+00  0.00000000000E+00 -0.19051888065E+04  0.19051888065E+04  0.25500000920E-02 0. -1.
    10030    2    1    2    0    0  0.00000000000E+00  0.00000000000E+00  0.18913879928E+03  0.39995164122E+04  0.39950416827E+04 0.  0.
        1    1    3    3  502    0 -0.73809829806E+03 -0.15271329489E+04 -0.96167887364E+03  0.19498077847E+04  0.50400001928E-02 0. -1.
       -1    1    3    3    0  502  0.73809829806E+03  0.15271329489E+04  0.11508176729E+04  0.20497086275E+04  0.50400001928E-02 0.  1.
</event>
<event>
 5   0  0.8329875E-09  0.3999423E+04  0.7818609E-02  0.8004663E-01
       -1   -1    0    0    0  501  0.00000000000E+00  0.00000000000E+00  0.17764993158E+04  0.17764993158E+04  0.50400001928E-02 0. -1.
        1   -1    0    0  501    0  0.00000000000E+00  0.00000000000E+00 -0.22509695827E+04  0.22509695827E+04  0.50400001928E-02 0.  1.
    10030    2    1    2    0    0  0.00000000000E+00  0.00000000000E+00 -0.47447026693E+03  0.40274688986E+04  0.39994229202E+04 0.  0.
        1    1    3    3  502    0  0.40614364814E+03 -0.29925392123E+03 -0.21858343485E+04  0.22432960953E+04  0.50400001928E-02 0.  1.
       -1    1    3    3    0  502 -0.40614364814E+03  0.29925392123E+03  0.17113640815E+04  0.17841728033E+04  0.50400001928E-02 0. -1.
</event>
<event>
 5   0  0.2650452E-08  0.3989266E+04  0.7818609E-02  0.8006716E-01
        2   -1    0    0  501    0  0.00000000000E+00  0.00000000000E+00  0.13337816835E+04  0.13337816835E+04  0.25500000920E-02 0. -1.
       -2   -1    0    0    0  501  0.00000000000E+00  0.00000000000E+00 -0.29829168737E+04  0.29829168737E+04  0.25500000920E-02 0.  1.
    10030    2    1    2    0    0  0.00000000000E+00  0.00000000000E+00 -0.16491351903E+04  0.43166985572E+04  0.39892655411E+04 0.  0.
        3    1    3    3  502    0  0.14373993936E+04 -0.21445030859E+03  0.65374886863E+03  0.15935788480E+04  0.10100000352E+00 0. -1.
       -3    1    3    3    0  502 -0.14373993936E+04  0.21445030859E+03 -0.23028840589E+04  0.27231197091E+04  0.10100000352E+00 0.  1.
</event>
<event>
 5   0  0.2746876E-08  0.4002257E+04  0.7818609E-02  0.8004091E-01
        2   -1    0    0  501    0  0.00000000000E+00  0.00000000000E+00  0.15874065791E+04  0.15874065791E+04  0.25500000920E-02 0. -1.
       -2   -1    0    0    0  501  0.00000000000E+00  0.00000000000E+00 -0.25226775572E+04  0.25226775572E+04  0.25500000920E-02 0.  1.
    10030    2    1    2    0    0  0.00000000000E+00  0.00000000000E+00 -0.93527097807E+03  0.41100841364E+04  0.40022568390E+04 0.  0.
        1    1    3    3  502    0 -0.10857836877E+04  0.16805985338E+04 -0.43239922288E+03  0.20470238729E+04  0.50400001928E-02 0. -1.
       -1    1    3    3    0  502  0.10857836877E+04 -0.16805985338E+04 -0.50287175520E+03  0.20630602634E+04  0.50400001928E-02 0.  1.
</event>
<event>
 5   0  0.2746876E-08  0.3993891E+04  0.7818609E-02  0.8005780E-01
        2   -1    0    0  501    0  0.00000000000E+00  0.00000000000E+00  0.12356292313E+04  0.12356292313E+04  0.25500000920E-02 0.  1.
       -2   -1    0    0    0  501  0.00000000000E+00  0.00000000000E+00 -0.32273363102E+04  0.32273363102E+04  0.25500000920E-02 0. -1.
    10030    2    1    2    0    0  0.00000000000E+00  0.00000000000E+00 -0.19917070789E+04  0.44629655416E+04  0.39938908769E+04 0.  0.
        1    1    3    3  502    0  0.43861202102E+03  0.93111359155E+03  0.91639950140E+03  0.13780932739E+04  0.50400001928E-02 0.  1.
       -1    1    3    3    0  502 -0.43861202102E+03 -0.93111359155E+03 -0.29081065803E+04  0.30848722677E+04  0.50400001928E-02 0. -1.
</event>
<event>
 5   0  0.2587493E-08  0.3999125E+04  0.7818609E-02  0.8004723E-01
        2   -1    0    0  501    0  0.00000000000E+00  0.00000000000E+00  0.29010375878E+04  0.29010375878E+04  0.25500000920E-02 0. -1.
       -2   -1    0    0    0  501  0.00000000000E+00  0.00000000000E+00 -0.13782141732E+04  0.13782141732E+04  0.25500000920E-02 0.  1.
    10030    2    1    2    0    0  0.00000000000E+00  0.00000000000E+00  0.15228234146E+04  0.42792517610E+04  0.39991254646E+04 0.  0.
        5    1    3    3  502    0  0.68344271083E+02 -0.18779900577E+04  0.30395460666E+02  0.18794849215E+04  0.46999998093E+01 0.  1.
       -5    1    3    3    0  502 -0.68344271083E+02  0.18779900577E+04  0.14924279540E+04  0.23997668395E+04  0.46999998093E+01 0. -1.
</event>
<event>
 5   0  0.8329875E-09  0.3991193E+04  0.7818609E-02  0.8006326E-01
       -1   -1    0    0    0  501  0.00000000000E+00  0.00000000000E+00  0.12131041787E+04  0.12131041787E+04  0.50400001928E-02 0.  1.
        1   -1    0    0  501    0  0.00000000000E+00  0.00000000000E+00 -0.32828219296E+04  0.32828219296E+04  0.50400001928E-02 0. -1.
    10030    2    1    2    0    0  0.00000000000E+00  0.00000000000E+00 -0.20697177509E+04  0.44959261084E+04  0.39911928046E+04 0.  0.
        5    1    3    3  502    0  0.14301758648E+03  0.19893836229E+04 -0.11085684059E+04  0.22818955344E+04  0.46999998093E+01 0. -1.
       -5    1    3    3    0  502 -0.14301758648E+03 -0.19893836229E+04 -0.96114934499E+03  0.22140305740E+04  0.46999998093E+01 0.  1.
</event>
<event>
 5   0  0.2650452E-08  0.4015810E+04  0.7818609E-02  0.8001365E-01
        2   -1    0    0  501    0  0.00000000000E+00  0.00000000000E+00  0.21048359862E+04  0.21048359862E+04  0.25500000920E-02 0.  1.
       -2   -1    0    0    0  501  0.00000000000E+00  0.00000000000E+00 -0.19154374574E+04  0.19154374574E+04  0.25500000920E-02 0. -1.
    10030    2    1    2    0    0  0.00000000000E+00  0.00000000000E+00  0.18939852880E+03  0.40202734437E+04  0.40158096020E+04 0.  0.
        3    1    3    3  502    0  0.96398547409E+03  0.17475067409E+04  0.31547529487E+03  0.20205376699E+04  0.10100000352E+00 0.  1.
       -3    1    3    3    0  502 -0.96398547409E+03 -0.17475067409E+04 -0.12607676608E+03  0.19997357738E+04  0.10100000352E+00 0. -1.
</event>
<event>
 5   0  0.8329875E-09  0.4024338E+04  0.7818609E-02  0.7999655E-01
       -1   -1    0    0    0  501  0.00000000000E+00  0.00000000000E+00  0.19450175941E+04  0.19450175941E+04  0.50400001928E-02 0. -1.
        1   -1    0    0  501    0  0.00000000000E+00  0.00000000000E+00 -0.20816392879E+04  0.20816392879E+04  0.50400001928E-02 0.  1.
    10030    2    1    2    0    0  0.00000000000E+00  0.00000000000E+00 -0.13662169385E+03  0.40266568820E+04  0.40243384746E+04 0.  0.
        2    1    3    3  502    0  0.14062156814E+04 -0.13560504044E+04  0.41415964009E+03  0.19969585498E+04  0.25500000920E-02 0.  1.
       -2    1    3    3    0  502 -0.14062156814E+04  0.13560504044E+04 -0.55078133394E+03  0.20296983322E+04  0.25500000920E-02 0. -1.
</event>
<event>
 5   0  0.8329875E-09  0.4017931E+04  0.7818609E-02  0.8000939E-01
       -1   -1    0    0    0  501  0.00000000000E+00  0.00000000000E+00  0.18355493623E+04  0.18355493623E+04  0.50400001928E-02 0.  1.
        1   -1    0    0  501    0  0.00000000000E+00  0.00000000000E+00 -0.21987653900E+04  0.21987653901E+04  0.50400001928E-02 0. -1.
    10030    2    1    2    0    0  0.00000000000E+00  0.00000000000E+00 -0.36321602774E+03  0.40343147524E+04  0.40179310146E+04 0.  0.
        1    1    3    3  502    0  0.12942766673E+04 -0.11586012495E+04 -0.11948977246E+04  0.21083855243E+04  0.50400001928E-02 0.  1.
       -1    1    3    3    0  502 -0.12942766673E+04  0.11586012495E+04  0.83168169683E+03  0.19259292281E+04  0.50400001928E-02 0. -1.
</event>
<event>
 5   0  0.8329875E-09  0.3950935E+04  0.7818609E-02  0.8014518E-01
        1   -1    0    0  501    0  0.00000000000E+00  0.00000000000E+00  0.16996701403E+04  0.16996701403E+04  0.50400001928E-02 0.  1.
       -1   -1    0    0    0  501  0.00000000000E+00  0.00000000000E+00 -0.22960172026E+04  0.22960172026E+04  0.50400001928E-02 0. -1.
    10030    2    1    2    0    0  0.00000000000E+00  0.00000000000E+00 -0.59634706224E+03  0.39956873429E+04  0.39509350189E+04 0.  0.
        3    1    3    3  502    0  0.71400671771E+03 -0.86316749565E+03  0.13474044434E+04  0.17522449780E+04  0.10100000352E+00 0.  1.
       -3    1    3    3    0  502 -0.71400671771E+03  0.86316749565E+03 -0.19437515057E+04  0.22434423649E+04  0.10100000352E+00 0. -1.
</event>
<event>
 5   0  0.8329875E-09  0.4002644E+04  0.7818609E-02  0.8004013E-01
        1   -1    0    0  501    0  0.00000000000E+00  0.00000000000E+00  0.18485128224E+04  0.18485128224E+04  0.50400001928E-02 0.  1.
       -1   -1    0    0    0  501  0.00000000000E+00  0.00000000000E+00 -0.21667635550E+04  0.21667635550E+04  0.50400001928E-02 0. -1.
    10030    2    1    2    0    0  0.00000000000E+00  0.00000000000E+00 -0.31825073256E+03  0.40152763775E+04  0.40026442333E+04 0.  0.
        3    1    3    3  502    0 -0.50436106410E+03 -0.74271856966E+03  0.16351724467E+04  0.18654221767E+04  0.10100000352E+00 0.  1.
       -3    1    3    3    0  502  0.50436106410E+03  0.74271856966E+03 -0.19534231793E+04  0.21498542007E+04  0.10100000352E+00 0. -1.
</event>
<event>
 5   0  0.2599332E-08  0.3998977E+04  0.7818609E-02  0.8004753E-01
        2   -1    0    0  501    0  0.00000000000E+00  0.00000000000E+00  0.22837871574E+04  0.22837871574E+04  0.25500000920E-02 0. -1.
       -2   -1    0    0    0  501  0.00000000000E+00  0.00000000000E+00 -0.17505808759E+04  0.17505808759E+04  0.25500000920E-02 0.  1.
    10030    2    1    2    0    0  0.00000000000E+00  0.00000000000E+00  0.53320628148E+03  0.40343680333E+04  0.39989769304E+04 0.  0.
        2    1    3    3  502    0 -0.13313220823E+04  0.45161219366E+03  0.17010098335E+04  0.22067638102E+04  0.25500000920E-02 0. -1.
       -2    1    3    3    0  502  0.13313220823E+04 -0.45161219366E+03 -0.11678035520E+04  0.18276042231E+04  0.25500000920E-02 0.  1.
</event>
<event>
 5   0  0.8329875E-09  0.4020713E+04  0.7818609E-02  0.8000381E-01
       -1   -1    0    0    0  501  0.00000000000E+00  0.00000000000E+00  0.17401118655E+04  0.17401118655E+04  0.50400001928E-02 0.  1.
        1   -1    0    0  501    0  0.00000000000E+00  0.00000000000E+00 -0.23225711242E+04  0.23225711242E+04  0.50400001928E-02 0. -1.
    10030    2    1    2    0    0  0.00000000000E+00  0.00000000000E+00 -0.58245925873E+03  0.40626829897E+04  0.40207131565E+04 0.  0.
        5    1    3    3  502    0  0.35686933236E+03  0.16246878850E+03 -0.22835517135E+04  0.23169769843E+04  0.46999998093E+01 0. -1.
       -5    1    3    3    0  502 -0.35686933236E+03 -0.16246878850E+03  0.17010924548E+04  0.17457060054E+04  0.46999998093E+01 0.  1.
</event>
<event>
 5   0  0.2587493E-08  0.3998442E+04  0.7818609E-02  0.8004861E-01
        2   -1    0    0  501    0  0.00000000000E+00  0.00000000000E+00  0.30533625615E+04  0.30533625615E+04  0.25500000920E-02 0. -1.
       -2   -1    0    0    0  501  0.00000000000E+00  0.00000000000E+00 -0.13090105159E+04  0.13090105159E+04  0.25500000920E-02 0.  1.
    10030    2    1    2    0    0  0.00000000000E+00  0.00000000000E+00  0.17443520456E+04  0.43623730774E+04  0.39984415473E+04 0.  0.
        5    1    3    3  502    0  0.12698625143E+04  0.15383910411E+04  0.10171781126E+04  0.22391675246E+04  0.46999998093E+01 0. -1.
       -5    1    3    3    0  502 -0.12698625143E+04 -0.15383910411E+04  0.72717393301E+03  0.21232055528E+04  0.46999998093E+01 0.  1.
</event>
<event>
 5   0  0.8329875E-09  0.3986150E+04  0.7818609E-02  0.8007346E-01
        1   -1    0    0  501    0  0.00000000000E+00  0.00000000000E+00  0.25691817071E+04  0.25691817071E+04  0.50400001928E-02 0. -1.
       -1   -1    0    0    0  501  0.00000000000E+00  0.00000000000E+00 -0.15461528083E+04  0.15461528083E+04  0.50400001928E-02 0.  1.
    10030    2    1    2    0    0  0.00000000000E+00  0.00000000000E+00  0.10230288989E+04  0.41153345154E+04  0.39861497772E+04 0.  0.
        2    1    3    3  502    0  0.19598667299E+04  0.34346961975E+03  0.39245787140E+03  0.20280710440E+04  0.25500000920E-02 0. -1.
       -2    1    3    3    0  502 -0.19598667299E+04 -0.34346961975E+03  0.63057102746E+03  0.20872634715E+04  0.25500000920E-02 0.  1.
</event>
<event>
 5   0  0.2587493E-08  0.4006308E+04  0.7818609E-02  0.8003275E-01
        2   -1    0    0  501    0  0.00000000000E+00  0.00000000000E+00  0.15314195502E+04  0.15314195502E+04  0.25500000920E-02 0. -1.
       -2   -1    0    0    0  501  0.00000000000E+00  0.00000000000E+00 -0.26202007381E+04  0.26202007381E+04  0.25500000920E-02 0.  1.
    10030    2    1    2    0    0  0.00000000000E+00  0.00000000000E+00 -0.10887811879E+04  0.41516202883E+04  0.40063083435E+04 0.  0.
        5    1    3    3  502    0  0.36018714632E+03  0.21318707762E+03 -0.25743763008E+04  0.26081830723E+04  0.46999998093E+01 0.  1.
       -5    1    3    3    0  502 -0.36018714632E+03 -0.21318707762E+03  0.14855951128E+04  0.15434372160E+04  0.46999998093E+01 0. -1.
</event>
<event>
 5   0  0.8329875E-09  0.4006483E+04  0.7818609E-02  0.8003240E-01
       -1   -1    0    0    0  501  0.00000000000E+00  0.00000000000E+00  0.23936044164E+04  0.23936044164E+04  0.50400001928E-02 0.  1.
        1   -1    0    0  501    0  0.00000000000E+00  0.00000000000E+00 -0.16765414899E+04  0.16765414899E+04  0.50400001928E-02 0. -1.
    10030    2    1    2    0    0  0.00000000000E+00  0.00000000000E+00  0.71706292651E+03  0.40701459063E+04  0.40064833031E+04 0.  0.
        1    1    3    3  502    0  0.16069145226E+04 -0.69413001629E+03  0.13481700587E+04  0.22094237415E+04  0.50400001928E-02 0.  1.
       -1    1    3    3    0  502 -0.16069145226E+04  0.69413001629E+03 -0.63110713215E+03  0.18607221648E+04  0.50400001928E-02 0. -1.
</event>
<event>
 5   0  0.8329875E-09  0.3999414E+04  0.7818609E-02  0.8004665E-01
       -1   -1    0    0    0  501  0.00000000000E+00  0.00000000000E+00  0.19145282512E+04  0.19145282512E+04  0.50400001928E-02 0.  1.
        1   -1    0    0  501    0  0.00000000000E+00  0.00000000000E+00 -0.20886758485E+04  0.20886758485E+04  0.50400001928E-02 0. -1.
    10030    2    1    2    0    0  0.00000000000E+00  0.00000000000E+00 -0.17414759728E+03  0.40032040997E+04  0.39994144169E+04 0.  0.
        2    1    3    3  502    0 -0.65874268780E+03 -0.16587785771E+04 -0.98978235091E+03  0.20408717252E+04  0.25500000920E-02 0. -1.
       -2    1    3    3    0  502  0.65874268780E+03  0.16587785771E+04  0.81563475363E+03  0.19623323745E+04  0.25500000920E-02 0.  1.
</event>
<event>
 5   0  0.2746876E-08  0.3998853E+04  0.7818609E-02  0.8004778E-01
       -2   -1    0    0    0  501  0.00000000000E+00  0.00000000000E+00  0.16074834102E+04  0.16074834102E+04  0.25500000920E-02 0.  1.
        2   -1    0    0  501    0  0.00000000000E+00  0.00000000000E+00 -0.24869345086E+04  0.24869345086E+04  0.25500000920E-02 0. -1.
    10030    2    1    2    0    0  0.00000000000E+00  0.00000000000E+00 -0.87945109836E+03  0.40944179188E+04  0.39988528179E+04 0.  0.
        1    1    3    3  502    0 -0.15413045302E+04  0.11201134733E+04 -0.10603734729E+04  0.21805196055E+04  0.50400001928E-02 0. -1.
       -1    1    3    3    0  502  0.15413045302E+04 -0.11201134733E+04  0.18092237454E+03  0.19138983133E+04  0.50400001928E-02 0.  1.
</event>
<event>
 5   0  0.2746876E-08  0.3989679E+04  0.7818609E-02  0.8006632E-01
        2   -1    0    0  501    0  0.00000000000E+00  0.00000000000E+00  0.29769068090E+04  0.29769068090E+04  0.25500000920E-02 0. -1.
       -2   -1    0    0    0  501  0.00000000000E+00  0.00000000000E+00 -0.13367515038E+04  0.13367515038E+04  0.25500000920E-02 0.  1.
    10030    2    1    2    0    0  0.00000000000E+00  0.00000000000E+00  0.16401553051E+04  0.43136583128E+04  0.39896790115E+04 0.  0.
        1    1    3    3  502    0 -0.35573314181E+03 -0.16418249415E+04 -0.34303365090E+03  0.17145866243E+04  0.50400001928E-02 0.  1.
       -1    1    3    3    0  502  0.35573314181E+03  0.16418249415E+04  0.19831889560E+04  0.25990716885E+04  0.50400001928E-02 0. -1.
</event>
<event>
 5   0  0.8329875E-09  0.4003774E+04  0.7818609E-02  0.8003786E-01
       -1   -1    0    0    0  501  0.00000000000E+00  0.00000000000E+00  0.17267247656E+04  0.17267247656E+04  0.50400001928E-02 0.  1.
        1   -1    0    0  501    0  0.00000000000E+00  0.00000000000E+00 -0.23208979733E+04  0.23208979733E+04  0.50400001928E-02 0. -1.
    10030    2    1    2    0    0  0.00000000000E+00  0.00000000000E+00 -0.59417320771E+03  0.40476227389E+04  0.40037742239E+04 0.  0.
        4    1    3    3  502    0  0.16255877634E+04 -0.77719419321E+03  0.58481110061E+03  0.18943526670E+04  0.12699999809E+01 0.  1.
       -4    1    3    3    0  502 -0.16255877634E+04  0.77719419321E+03 -0.11789843083E+04  0.21532700720E+04  0.12699999809E+01 0. -1.
</event>
<event>
 5   0  0.2587493E-08  0.3999810E+04  0.7818609E-02  0.8004585E-01
       -2   -1    0    0    0  501  0.00000000000E+00  0.00000000000E+00  0.25845564094E+04  0.25845564094E+04  0.25500000920E-02 0. -1.
        2   -1    0    0  501    0  0.00000000000E+00  0.00000000000E+00 -0.15475076049E+04  0.15475076049E+04  0.25500000920E-02 0.  1.
    10030    2    1    2    0    0  0.00000000000E+00  0.00000000000E+00  0.10370488045E+04  0.41320640144E+04  0.39998103450E+04 0.  0.
        5    1    3    3  502    0  0.14667067428E+04 -0.18564310961E+03  0.19098702597E+04  0.24152263936E+04  0.46999998093E+01 0. -1.
       -5    1    3    3    0  502 -0.14667067428E+04  0.18564310961E+03 -0.87282145522E+03  0.17168376208E+04  0.46999998093E+01 0.  1.
</event>
<event>
 5   0  0.8329875E-09  0.3997102E+04  0.7818609E-02  0.8005131E-01
        1   -1    0    0  501    0  0.00000000000E+00  0.00000000000E+00  0.21698094732E+04  0.21698094733E+04  0.50400001928E-02 0. -1.
       -1   -1    0    0    0  501  0.00000000000E+00  0.00000000000E+00 -0.18408096115E+04  0.18408096115E+04  0.50400001928E-02 0.  1.
    10030    2    1    2    0    0  0.00000000000E+00  0.00000000000E+00  0.32899986173E+03  0.40106190848E+04  0.39971020170E+04 0.  0.
        5    1    3    3  502    0 -0.12454797966E+04 -0.35595276748E+03 -0.13625737803E+04  0.18800403435E+04  0.46999998093E+01 0.  1.
       -5    1    3    3    0  502  0.12454797966E+04  0.35595276748E+03  0.16915736421E+04  0.21305787413E+04  0.46999998093E+01 0. -1.
</event>
<event>
 5   0  0.8329875E-09  0.4000087E+04  0.7818609E-02  0.8004529E-01
        1   -1    0    0  501    0  0.00000000000E+00  0.00000000000E+00  0.22998462964E+04  0.22998462965E+04  0.50400001928E-02 0. -1.
       -1   -1    0    0    0  501  0.00000000000E+00  0.00000000000E+00 -0.17393219566E+04  0.17393219566E+04  0.50400001928E-02 0.  1.
    10030    2    1    2    0    0  0.00000000000E+00  0.00000000000E+00  0.56052433985E+03  0.40391682531E+04  0.40000865792E+04 0.  0.
        2    1    3    3  502    0  0.79612493823E+03 -0.93636395408E+03 -0.13129942048E+04  0.17984844046E+04  0.25500000920E-02 0.  1.
       -2    1    3    3    0  502 -0.79612493823E+03  0.93636395408E+03  0.18735185446E+04  0.22406838485E+04  0.25500000920E-02 0. -1.
</event>
<event>
 5   0  0.2587493E-08  0.4010742E+04  0.7818609E-02  0.8002383E-01
        2   -1    0    0  501    0  0.00000000000E+00  0.00000000000E+00  0.20626910070E+04  0.20626910070E+04  0.25500000920E-02 0.  1.
       -2   -1    0    0    0  501  0.00000000000E+00  0.00000000000E+00 -0.19496435123E+04  0.19496435123E+04  0.25500000920E-02 0. -1.
    10030    2    1    2    0    0  0.00000000000E+00  0.00000000000E+00  0.11304749471E+03  0.40123345194E+04  0.40107416471E+04 0.  0.
        5    1    3    3  502    0  0.53952591045E+03  0.18426824011E+04 -0.52243177243E+03  0.19898551923E+04  0.46999998093E+01 0. -1.
       -5    1    3    3    0  502 -0.53952591045E+03 -0.18426824011E+04  0.63547926714E+03  0.20224793271E+04  0.46999998093E+01 0.  1.
</event>
<event>
 5   0  0.2746876E-08  0.3984804E+04  0.7818609E-02  0.8007619E-01
        2   -1    0    0  501    0  0.00000000000E+00  0.00000000000E+00  0.15310532312E+04  0.15310532312E+04  0.25500000920E-02 0.  1.
       -2   -1    0    0    0  501  0.00000000000E+00  0.00000000000E+00 -0.25927679832E+04  0.25927679832E+04  0.25500000920E-02 0. -1.
    10030    2    1    2    0    0  0.00000000000E+00  0.00000000000E+00 -0.10617147520E+04  0.41238212144E+04  0.39848040346E+04 0.  0.
        1    1    3    3  502    0 -0.94282447635E+02  0.94119943117E+01 -0.25904350629E+04  0.25921673520E+04  0.50400001928E-02 0. -1.
       -1    1    3    3    0  502  0.94282447635E+02 -0.94119943117E+01  0.15287203109E+04  0.15316538625E+04  0.50400001928E-02 0.  1.
</event>
<event>
 5   0  0.8329875E-09  0.4002052E+04  0.7818609E-02  0.8004133E-01
       -1   -1    0    0    0  501  0.00000000000E+00  0.00000000000E+00  0.12720520324E+04  0.12720520324E+04  0.50400001928E-02 0. -1.
        1   -1    0    0  501    0  0.00000000000E+00  0.00000000000E+00 -0.31477522412E+04  0.31477522412E+04  0.50400001928E-02 0.  1.
    10030    2    1    2    0    0  0.00000000000E+00  0.00000000000E+00 -0.18757002088E+04  0.44198042736E+04  0.40020517917E+04 0.  0.
        2    1    3    3  502    0  0.12451664809E+04  0.14729287958E+04 -0.15265459605E+04  0.24597360371E+04  0.25500000920E-02 0.  1.
       -2    1    3    3    0  502 -0.12451664809E+04 -0.14729287958E+04 -0.34915424823E+03  0.19600682365E+04  0.25500000920E-02 0. -1.
</event>
<event>
 5   0  0.8329875E-09  0.3954082E+04  0.7818609E-02  0.8013874E-01
       -3   -1    0    0    0  501  0.00000000000E+00  0.00000000000E+00  0.25308953157E+04  0.25308953177E+04  0.10100000352E+00 0.  1.
        3   -1    0    0  501    0  0.00000000000E+00  0.00000000000E+00 -0.15443909432E+04  0.15443909466E+04  0.10100000352E+00 0. -1.
    10030    2    1    2    0    0  0.00000000000E+00  0.00000000000E+00  0.98650437248E+03  0.40752862643E+04  0.39540823536E+04 0.  0.
        5    1    3    3  502    0 -0.15859653533E+04 -0.11720364815E+04  0.63796299988E+03  0.20726732726E+04  0.46999998093E+01 0.  1.
       -5    1    3    3    0  502  0.15859653533E+04  0.11720364815E+04  0.34854137261E+03  0.20026129917E+04  0.46999998093E+01 0. -1.
</event>
<event>
 5   0  0.8329875E-09  0.4001140E+04  0.7818609E-02  0.8004317E-01
       -1   -1    0    0    0  501  0.00000000000E+00  0.00000000000E+00  0.21257114882E+04  0.21257114882E+04  0.50400001928E-02 0. -1.
        1   -1    0    0  501    0  0.00000000000E+00  0.00000000000E+00 -0.18827954621E+04  0.18827954621E+04  0.50400001928E-02 0.  1.
    10030    2    1    2    0    0  0.00000000000E+00  0.00000000000E+00  0.24291602606E+03  0.40085069503E+04  0.40011398095E+04 0.  0.
        5    1    3    3  502    0 -0.12775415791E+04 -0.13629067473E+04  0.83875856105E+03  0.20477219787E+04  0.46999998093E+01 0.  1.
       -5    1    3    3    0  502  0.12775415791E+04  0.13629067473E+04 -0.59584253500E+03  0.19607849716E+04  0.46999998093E+01 0. -1.
</event>
<event>
 5   0  0.8329875E-09  0.4002630E+04  0.7818609E-02  0.8004016E-01
       -1   -1    0    0    0  501  0.00000000000E+00  0.00000000000E+00  0.17612593729E+04  0.17612593729E+04  0.50400001928E-02 0.  1.
        1   -1    0    0  501    0  0.00000000000E+00  0.00000000000E+00 -0.22740892973E+04  0.22740892973E+04  0.50400001928E-02 0. -1.
    10030    2    1    2    0    0  0.00000000000E+00  0.00000000000E+00 -0.51282992441E+03  0.40353486702E+04  0.40026296804E+04 0.  0.
        3    1    3    3  502    0 -0.85823266345E+03  0.16153862974E+04 -0.10749786039E+04  0.21217010165E+04  0.10100000352E+00 0.  1.
       -3    1    3    3    0  502  0.85823266345E+03 -0.16153862974E+04  0.56214867952E+03  0.19136476537E+04  0.10100000352E+00 0. -1.
</event>
<event>
 5   0  0.8329875E-09  0.3996265E+04  0.7818609E-02  0.8005300E-01
        3   -1    0    0  501    0  0.00000000000E+00  0.00000000000E+00  0.14263176073E+04  0.14263176108E+04  0.10100000352E+00 0.  1.
       -3   -1    0    0    0  501  0.00000000000E+00  0.00000000000E+00 -0.27991893941E+04  0.27991893960E+04  0.10100000352E+00 0. -1.
    10030    2    1    2    0    0  0.00000000000E+00  0.00000000000E+00 -0.13728717869E+04  0.42255070068E+04  0.39962648212E+04 0.  0.
        4    1    3    3  502    0 -0.13281395006E+04  0.12437989082E+04  0.18647646617E+03  0.18291433357E+04  0.12699999809E+01 0.  1.
       -4    1    3    3    0  502  0.13281395006E+04 -0.12437989082E+04 -0.15593482530E+04  0.23963636711E+04  0.12699999809E+01 0. -1.
</event>
<event>
 5   0  0.8329875E-09  0.3998770E+04  0.7818609E-02  0.8004795E-01
        1   -1    0    0  501    0  0.00000000000E+00  0.00000000000E+00  0.24650471565E+04  0.24650471565E+04  0.50400001928E-02 0.  1.
       -1   -1    0    0    0  501  0.00000000000E+00  0.00000000000E+00 -0.16216891284E+04  0.16216891284E+04  0.50400001928E-02 0. -1.
    10030    2    1    2    0    0  0.00000000000E+00  0.00000000000E+00  0.84335802814E+03  0.40867362849E+04  0.39987698982E+04 0.  0.
        4    1    3    3  502    0 -0.51053226877E+03 -0.60264933612E+03  0.22988508022E+04  0.24307500989E+04  0.12699999809E+01 0.  1.
       -4    1    3    3    0  502  0.51053226877E+03  0.60264933612E+03 -0.14554927741E+04  0.16559861859E+04  0.12699999809E+01 0. -1.
</event>
<event>
 5   0  0.8329875E-09  0.4006392E+04  0.7818609E-02  0.8003258E-01
       -1   -1    0    0    0  501  0.00000000000E+00  0.00000000000E+00  0.16645576008E+04  0.16645576008E+04  0.50400001928E-02 0.  1.
        1   -1    0    0  501    0  0.00000000000E+00  0.00000000000E+00 -0.24107271469E+04  0.24107271469E+04  0.50400001928E-02 0. -1.
    10030    2    1    2    0    0  0.00000000000E+00  0.00000000000E+00 -0.74616954609E+03  0.40752847477E+04  0.40063919908E+04 0.  0.
        5    1    3    3  502    0 -0.17012745930E+04 -0.71289673103E+03 -0.11676800896E+04  0.21831298338E+04  0.46999998093E+01 0. -1.
       -5    1    3    3    0  502  0.17012745930E+04  0.71289673103E+03  0.42151054347E+03  0.18921549139E+04  0.46999998093E+01 0.  1.
</event>
<event>
 5   0  0.2612363E-08  0.4009831E+04  0.7818609E-02  0.8002566E-01
       -2   -1    0    0    0  501  0.00000000000E+00  0.00000000000E+00  0.33041655845E+04  0.33041655845E+04  0.25500000920E-02 0. -1.
        2   -1    0    0  501    0  0.00000000000E+00  0.00000000000E+00 -0.12165508633E+04  0.12165508633E+04  0.25500000920E-02 0.  1.
    10030    2    1    2    0    0  0.00000000000E+00  0.00000000000E+00  0.20876147212E+04  0.45207164478E+04  0.40098306668E+04 0.  0.
        4    1    3    3  502    0  0.17963331487E+04 -0.85754391599E+03  0.77348895183E+03  0.21355283001E+04  0.12699999809E+01 0.  1.
       -4    1    3    3    0  502 -0.17963331487E+04  0.85754391599E+03  0.13141257694E+04  0.23851881477E+04  0.12699999809E+01 0. -1.
</event>
<event>
 5   0  0.8329875E-09  0.3998017E+04  0.7818609E-02  0.8004947E-01
       -1   -1    0    0    0  501  0.00000000000E+00  0.00000000000E+00  0.16632901985E+04  0.16632901985E+04  0.50400001928E-02 0. -1.
        1   -1    0    0  501    0  0.00000000000E+00  0.00000000000E+00 -0.24024876350E+04  0.24024876351E+04  0.50400001928E-02 0.  1.
    10030    2    1    2    0    0  0.00000000000E+00  0.00000000000E+00 -0.73919743658E+03  0.40657778335E+04  0.39980165759E+04 0.  0.
        5    1    3    3  502    0 -0.16696535659E+04 -0.10685690217E+04 -0.63170580574E+03  0.20805425012E+04  0.46999998093E+01 0. -1.
       -5    1    3    3    0  502  0.16696535659E+04  0.10685690217E+04 -0.10749163084E+03  0.19852353324E+04  0.46999998093E+01 0.  1.
</event>
<event>
 5   0  0.2650452E-08  0.3998950E+04  0.7818609E-02  0.8004758E-01
        2   -1    0    0  501    0  0.00000000000E+00  0.00000000000E+00  0.19732737625E+04  0.19732737625E+04  0.25500000920E-02 0. -1.
       -2   -1    0    0    0  501  0.00000000000E+00  0.00000000000E+00 -0.20260241382E+04  0.20260241382E+04  0.25500000920E-02 0.  1.
    10030    2    1    2    0    0  0.00000000000E+00  0.00000000000E+00 -0.52750375677E+02  0.39992979007E+04  0.39989499992E+04 0.  0.
        3    1    3    3  502    0 -0.11048050016E+04 -0.14348412320E+04 -0.87411444004E+03  0.20108305540E+04  0.10100000352E+00 0.  1.
       -3    1    3    3    0  502  0.11048050016E+04  0.14348412320E+04  0.82136406436E+03  0.19884673467E+04  0.10100000352E+00 0. -1.
</event>
<event>
 5   0  0.2650452E-08  0.4004492E+04  0.7818609E-02  0.8003641E-01
        2   -1    0    0  501    0  0.00000000000E+00  0.00000000000E+00  0.27422673184E+04  0.27422673184E+04  0.25500000920E-02 0. -1.
       -2   -1    0    0    0  501  0.00000000000E+00  0.00000000000E+00 -0.14619250711E+04  0.14619250711E+04  0.25500000920E-02 0.  1.
    10030    2    1    2    0    0  0.00000000000E+00  0.00000000000E+00  0.12803422472E+04  0.42041923895E+04  0.40044921498E+04 0.  0.
        3    1    3    3  502    0 -0.19656364542E+04  0.25380397611E+03  0.93868529786E+03  0.21930055237E+04  0.10100000352E+00 0.  1.
       -3    1    3    3    0  502  0.19656364542E+04 -0.25380397611E+03  0.34165694939E+03  0.20111868659E+04  0.10100000352E+00 0. -1.
</event>
<event>
 5   0  0.8329875E-09  0.3965099E+04  0.7818609E-02  0.8011624E-01
        4   -1    0    0  501    0  0.00000000000E+00  0.00000000000E+00  0.17042814386E+04  0.17042819118E+04  0.12699999809E+01 0.  1.
       -4   -1    0    0    0  501  0.00000000000E+00  0.00000000000E+00 -0.23062506116E+04  0.23062509613E+04  0.12699999809E+01 0. -1.
    10030    2    1    2    0    0  0.00000000000E+00  0.00000000000E+00 -0.60196917296E+03  0.40105328731E+04  0.39650986168E+04 0.  0.
        5    1    3    3  502    0 -0.19600213332E+03 -0.19725429405E+04 -0.26687605130E+03  0.20001468459E+04  0.46999998093E+01 0.  1.
       -5    1    3    3    0  502  0.19600213332E+03  0.19725429405E+04 -0.33509312166E+03  0.20103860272E+04  0.46999998093E+01 0. -1.
</event>
<event>
 5   0  0.2587493E-08  0.3960504E+04  0.7818609E-02  0.8012562E-01
        2   -1    0    0  501    0  0.00000000000E+00  0.00000000000E+00  0.26262406913E+04  0.26262406913E+04  0.25500000920E-02 0. -1.
       -2   -1    0    0    0  501  0.00000000000E+00  0.00000000000E+00 -0.14931597908E+04  0.14931597908E+04  0.25500000920E-02 0.  1.
    10030    2    1    2    0    0  0.00000000000E+00  0.00000000000E+00  0.11330809005E+04  0.41194004821E+04  0.39605035039E+04 0.  0.
        5    1    3    3  502    0 -0.22080690067E+03  0.17268053053E+03 -0.14724140844E+04  0.14988660977E+04  0.46999998093E+01 0.  1.
       -5    1    3    3    0  502  0.22080690067E+03 -0.17268053053E+03  0.26054949849E+04  0.26205343843E+04  0.46999998093E+01 0. -1.
</event>
<event>
 5   0  0.8329875E-09  0.3997399E+04  0.7818609E-02  0.8005072E-01
       -3   -1    0    0    0  501  0.00000000000E+00  0.00000000000E+00  0.25267276499E+04  0.25267276519E+04  0.10100000352E+00 0.  1.
        3   -1    0    0  501    0  0.00000000000E+00  0.00000000000E+00 -0.15810169365E+04  0.15810169398E+04  0.10100000352E+00 0. -1.
    10030    2    1    2    0    0  0.00000000000E+00  0.00000000000E+00  0.94571071336E+03  0.41077445917E+04  0.39973987638E+04 0.  0.
        2    1    3    3  502    0  0.17268403635E+04  0.91339666251E+03  0.90704480840E+03  0.21538341136E+04  0.25500000920E-02 0.  1.
       -2    1    3    3    0  502 -0.17268403635E+04 -0.91339666251E+03  0.38665904956E+02  0.19539104781E+04  0.25500000920E-02 0. -1.
</event>
<event>
 5   0  0.8329875E-09  0.4014483E+04  0.7818609E-02  0.8001631E-01
       -1   -1    0    0    0  501  0.00000000000E+00  0.00000000000E+00  0.14758373525E+04  0.14758373525E+04  0.50400001928E-02 0. -1.
        1   -1    0    0  501    0  0.00000000000E+00  0.00000000000E+00 -0.27299879211E+04  0.27299879211E+04  0.50400001928E-02 0.  1.
    10030    2    1    2    0    0  0.00000000000E+00  0.00000000000E+00 -0.12541505686E+04  0.42058252735E+04  0.40144828537E+04 0.  0.
        2    1    3    3  502    0  0.57774174319E+03  0.19012373153E+04 -0.32977278057E+03  0.20142589054E+04  0.25500000920E-02 0.  1.
       -2    1    3    3    0  502 -0.57774174319E+03 -0.19012373153E+04 -0.92437778802E+03  0.21915663682E+04  0.25500000920E-02 0. -1.
</event>
<event>
 5   0  0.2587493E-08  0.4054821E+04  0.7818609E-02  0.7993578E-01
        2   -1    0    0  501    0  0.00000000000E+00  0.00000000000E+00  0.29739658890E+04  0.29739658890E+04  0.25500000920E-02 0. -1.
       -2   -1    0    0    0  501  0.00000000000E+00  0.00000000000E+00 -0.13821255219E+04  0.13821255219E+04  0.25500000920E-02 0.  1.
    10030    2    1    2    0    0  0.00000000000E+00  0.00000000000E+00  0.15918403671E+04  0.43560914109E+04  0.40548214049E+04 0.  0.
        5    1    3    3  502    0  0.23102967093E+03  0.21544369938E+03 -0.13555182384E+04  0.13918485841E+04  0.46999998093E+01 0.  1.
       -5    1    3    3    0  502 -0.23102967093E+03 -0.21544369938E+03  0.29473586055E+04  0.29642428267E+04  0.46999998093E+01 0. -1.
</event>
<event>
 5   0  0.2746876E-08  0.4008728E+04  0.7818609E-02  0.8002788E-01
        2   -1    0    0  501    0  0.00000000000E+00  0.00000000000E+00  0.18532675257E+04  0.18532675257E+04  0.25500000920E-02 0.  1.
       -2   -1    0    0    0  501  0.00000000000E+00  0.00000000000E+00 -0.21677790605E+04  0.21677790605E+04  0.25500000920E-02 0. -1.
    10030    2    1    2    0    0  0.00000000000E+00  0.00000000000E+00 -0.31451153480E+03  0.40210465862E+04  0.40087277462E+04 0.  0.
        1    1    3    3  502    0 -0.16726396378E+04 -0.63181995529E+03 -0.10658841888E+04  0.20815928799E+04  0.50400001928E-02 0. -1.
       -1    1    3    3    0  502  0.16726396378E+04  0.63181995529E+03  0.75137265402E+03  0.19394537063E+04  0.50400001928E-02 0.  1.
</event>
<event>
 5   0  0.8329875E-09  0.4002778E+04  0.7818609E-02  0.8003986E-01
       -1   -1    0    0    0  501  0.00000000000E+00  0.00000000000E+00  0.26826474542E+04  0.26826474542E+04  0.50400001928E-02 0.  1.
        1   -1    0    0  501    0  0.00000000000E+00  0.00000000000E+00 -0.14931365173E+04  0.14931365173E+04  0.50400001928E-02 0. -1.
    10030    2    1    2    0    0  0.00000000000E+00  0.00000000000E+00  0.11895109369E+04  0.41757839715E+04  0.40027784735E+04 0.  0.
        2    1    3    3  502    0  0.81847286939E+03 -0.41929432042E+03 -0.12596723281E+04  0.15596409649E+04  0.25500000920E-02 0. -1.
       -2    1    3    3    0  502 -0.81847286939E+03  0.41929432042E+03  0.24491832651E+04  0.26161430066E+04  0.25500000920E-02 0.  1.
</event>
<event>
 5   0  0.2746876E-08  0.4002729E+04  0.7818609E-02  0.8003996E-01
        2   -1    0    0  501    0  0.00000000000E+00  0.00000000000E+00  0.14016079835E+04  0.14016079835E+04  0.25500000920E-02 0.  1.
       -2   -1    0    0    0  501  0.00000000000E+00  0.00000000000E+00 -0.28577606765E+04  0.28577606765E+04  0.25500000920E-02 0. -1.
    10030    2    1    2    0    0  0.00000000000E+00  0.00000000000E+00 -0.14561526930E+04  0.42593686600E+04  0.40027291585E+04 0.  0.
        1    1    3    3  502    0 -0.58277657509E+03  0.12330743489E+04  0.83053934448E+03  0.15968395314E+04  0.50400001928E-02 0.  1.
       -1    1    3    3    0  502  0.58277657509E+03 -0.12330743489E+04 -0.22866920375E+04  0.26625291286E+04  0.50400001928E-02 0. -1.
</event>
<event>
 5   0  0.8329875E-09  0.3998515E+04  0.7818609E-02  0.8004846E-01
       -1   -1    0    0    0  501  0.00000000000E+00  0.00000000000E+00  0.15042084131E+04  0.15042084131E+04  0.50400001928E-02 0.  1.
        1   -1    0    0  501    0  0.00000000000E+00  0.00000000000E+00 -0.26572318412E+04  0.26572318412E+04  0.50400001928E-02 0. -1.
    10030    2    1    2    0    0  0.00000000000E+00  0.00000000000E+00 -0.11530234281E+04  0.41614402543E+04  0.39985149699E+04 0.  0.
        4    1    3    3  502    0 -0.31040603187E+02 -0.18398732004E+04 -0.13899813787E+04  0.23061107429E+04  0.12699999809E+01 0.  1.
       -4    1    3    3    0  502  0.31040603187E+02  0.18398732004E+04  0.23695795061E+03  0.18553295114E+04  0.12699999809E+01 0. -1.
</event>
<event>
 5   0  0.2650452E-08  0.4005112E+04  0.7818609E-02  0.8003516E-01
       -2   -1    0    0    0  501  0.00000000000E+00  0.00000000000E+00  0.24074957666E+04  0.24074957666E+04  0.25500000920E-02 0. -1.
        2   -1    0    0  501    0  0.00000000000E+00  0.00000000000E+00 -0.16657273290E+04  0.16657273290E+04  0.25500000920E-02 0.  1.
    10030    2    1    2    0    0  0.00000000000E+00  0.00000000000E+00  0.74176843758E+03  0.40732230956E+04  0.40051124793E+04 0.  0.
        3    1    3    3  502    0  0.97109901234E+03  0.14234053089E+04 -0.66681846545E+03  0.18476370967E+04  0.10100000352E+00 0.  1.
       -3    1    3    3    0  502 -0.97109901234E+03 -0.14234053089E+04  0.14085869030E+04  0.22255859989E+04  0.10100000352E+00 0. -1.
</event>
<event>
 5   0  0.8329875E-09  0.3994828E+04  0.7818609E-02  0.8005591E-01
        1   -1    0    0  501    0  0.00000000000E+00  0.00000000000E+00  0.22238532578E+04  0.22238532578E+04  0.50400001928E-02 0.  1.
       -1   -1    0    0    0  501  0.00000000000E+00  0.00000000000E+00 -0.17940317155E+04  0.17940317155E+04  0.50400001928E-02 0. -1.
    10030    2    1    2    0    0  0.00000000000E+00  0.00000000000E+00  0.42982154228E+03  0.40178849734E+04  0.39948282943E+04 0.  0.
        4    1    3    3  502    0 -0.18969752735E+04 -0.47477711844E+03  0.62436380192E+03  0.20527445702E+04  0.12699999809E+01 0.  1.
       -4    1    3    3    0  502  0.18969752735E+04  0.47477711844E+03 -0.19454225964E+03  0.19651404032E+04  0.12699999809E+01 0. -1.
</event>
<event>
 5   0  0.2650452E-08  0.4004000E+04  0.7818609E-02  0.8003740E-01
       -2   -1    0    0    0  501  0.00000000000E+00  0.00000000000E+00  0.15019746349E+04  0.15019746349E+04  0.25500000920E-02 0.  1.
        2   -1    0    0  501    0  0.00000000000E+00  0.00000000000E+00 -0.26684896976E+04  0.26684896976E+04  0.25500000920E-02 0. -1.
    10030    2    1    2    0    0  0.00000000000E+00  0.00000000000E+00 -0.11665150628E+04  0.41704643325E+04  0.40039999197E+04 0.  0.
        3    1    3    3  502    0  0.12530993588E+04  0.14496462508E+03  0.10359574566E+04  0.16323236835E+04  0.10100000352E+00 0.  1.
       -3    1    3    3    0  502 -0.12530993588E+04 -0.14496462508E+03 -0.22024725194E+04  0.25381406490E+04  0.10100000352E+00 0. -1.
</event>
<event>
 5   0  0.2612363E-08  0.4004201E+04  0.7818609E-02  0.8003700E-01
        2   -1    0    0  501    0  0.00000000000E+00  0.00000000000E+00  0.28786676585E+04  0.28786676585E+04  0.25500000920E-02 0. -1.
       -2   -1    0    0    0  501  0.00000000000E+00  0.00000000000E+00 -0.13924521248E+04  0.13924521248E+04  0.25500000920E-02 0.  1.
    10030    2    1    2    0    0  0.00000000000E+00  0.00000000000E+00  0.14862155337E+04  0.42711197833E+04  0.40042012425E+04 0.  0.
        4    1    3    3  502    0  0.17739903446E+04 -0.27877661931E+02 -0.24640884391E+03  0.17912391907E+04  0.12699999809E+01 0.  1.
       -4    1    3    3    0  502 -0.17739903446E+04  0.27877661931E+02  0.17326243776E+04  0.24798805926E+04  0.12699999809E+01 0. -1.
</event>
<event>
 5   0  0.2599332E-08  0.3982451E+04  0.7818609E-02  0.8008096E-01
        2   -1    0    0  501    0  0.00000000000E+00  0.00000000000E+00  0.17018938029E+04  0.17018938029E+04  0.25500000920E-02 0. -1.
       -2   -1    0    0    0  501  0.00000000000E+00  0.00000000000E+00 -0.23297455395E+04  0.23297455395E+04  0.25500000920E-02 0.  1.
    10030    2    1    2    0    0  0.00000000000E+00  0.00000000000E+00 -0.62785173655E+03  0.40316393424E+04  0.39824512532E+04 0.  0.
        2    1    3    3  502    0 -0.95658048757E+02  0.80982626906E+03 -0.21529560779E+04  0.23022139174E+04  0.25500000920E-02 0.  1.
       -2    1    3    3    0  502  0.95658048757E+02 -0.80982626906E+03  0.15251043413E+04  0.17294254249E+04  0.25500000920E-02 0. -1.
</event>
<event>
 5   0  0.2599332E-08  0.4000983E+04  0.7818609E-02  0.8004348E-01
       -2   -1    0    0    0  501  0.00000000000E+00  0.00000000000E+00  0.14706582983E+04  0.14706582983E+04  0.25500000920E-02 0.  1.
        2   -1    0    0  501    0  0.00000000000E+00  0.00000000000E+00 -0.27212070344E+04  0.27212070344E+04  0.25500000920E-02 0. -1.
    10030    2    1    2    0    0  0.00000000000E+00  0.00000000000E+00 -0.12505487362E+04  0.41918653327E+04  0.40009827325E+04 0.  0.
        2    1    3    3  502    0  0.27834769518E+03  0.12695015183E+04 -0.22186375204E+04  0.25712767240E+04  0.25500000920E-02 0. -1.
       -2    1    3    3    0  502 -0.27834769518E+03 -0.12695015183E+04  0.96808878427E+03  0.16205886087E+04  0.25500000920E-02 0.  1.
</event>
<event>
 5   0  0.8329875E-09  0.3996787E+04  0.7818609E-02  0.8005195E-01
       -1   -1    0    0    0  501  0.00000000000E+00  0.00000000000E+00  0.20804217576E+04  0.20804217576E+04  0.50400001928E-02 0. -1.
        1   -1    0    0  501    0  0.00000000000E+00  0.00000000000E+00 -0.19195993717E+04  0.19195993717E+04  0.50400001928E-02 0.  1.
    10030    2    1    2    0    0  0.00000000000E+00  0.00000000000E+00  0.16082238591E+03  0.40000211294E+04  0.39967868589E+04 0.  0.
        4    1    3    3  502    0 -0.10123152478E+04  0.12416972822E+04  0.12759406966E+04  0.20480772876E+04  0.12699999809E+01 0. -1.
       -4    1    3    3    0  502  0.10123152478E+04 -0.12416972822E+04 -0.11151183107E+04  0.19519438418E+04  0.12699999809E+01 0.  1.
</event>
<event>
 5   0  0.2599332E-08  0.3989528E+04  0.7818609E-02  0.8006662E-01
       -2   -1    0    0    0  501  0.00000000000E+00  0.00000000000E+00  0.16925251468E+04  0.16925251468E+04  0.25500000920E-02 0.  1.
        2   -1    0    0  501    0  0.00000000000E+00  0.00000000000E+00 -0.23509748956E+04  0.23509748956E+04  0.25500000920E-02 0. -1.
    10030    2    1    2    0    0  0.00000000000E+00  0.00000000000E+00 -0.65844974889E+03  0.40435000424E+04  0.39895283582E+04 0.  0.
        2    1    3    3  502    0 -0.13004222023E+04  0.22203130919E+03  0.11872412477E+04  0.17748063519E+04  0.25500000920E-02 0.  1.
       -2    1    3    3    0  502  0.13004222023E+04 -0.22203130919E+03 -0.18456909966E+04  0.22686936905E+04  0.25500000920E-02 0. -1.
</event>
<event>
 5   0  0.2587493E-08  0.3992051E+04  0.7818609E-02  0.8006152E-01
        2   -1    0    0  501    0  0.00000000000E+00  0.00000000000E+00  0.16591315172E+04  0.16591315172E+04  0.25500000920E-02 0.  1.
       -2   -1    0    0    0  501  0.00000000000E+00  0.00000000000E+00 -0.24013273802E+04  0.24013273802E+04  0.25500000920E-02 0. -1.
    10030    2    1    2    0    0  0.00000000000E+00  0.00000000000E+00 -0.74219586308E+03  0.40604588974E+04  0.39920510716E+04 0.  0.
        5    1    3    3  502    0 -0.43287183805E+03 -0.10822790237E+04  0.12769731464E+04  0.17289847946E+04  0.46999998093E+01 0.  1.
       -5    1    3    3    0  502  0.43287183805E+03  0.10822790237E+04 -0.20191690094E+04  0.23314741028E+04  0.46999998093E+01 0. -1.
</event>
<event>
 5   0  0.2587493E-08  0.4005860E+04  0.7818609E-02  0.8003365E-01
       -2   -1    0    0    0  501  0.00000000000E+00  0.00000000000E+00  0.18564559694E+04  0.18564559694E+04  0.25500000920E-02 0. -1.
        2   -1    0    0  501    0  0.00000000000E+00  0.00000000000E+00 -0.21609607188E+04  0.21609607188E+04  0.25500000920E-02 0.  1.
    10030    2    1    2    0    0  0.00000000000E+00  0.00000000000E+00 -0.30450474944E+03  0.40174166882E+04  0.40058599207E+04 0.  0.
        5    1    3    3  502    0  0.17529994228E+04 -0.62573273792E+03 -0.89408761097E+03  0.20649366048E+04  0.46999998093E+01 0.  1.
       -5    1    3    3    0  502 -0.17529994228E+04  0.62573273792E+03  0.58958286154E+03  0.19524800834E+04  0.46999998093E+01 0. -1.
</event>
<event>
 5   0  0.2650452E-08  0.4000049E+04  0.7818609E-02  0.8004537E-01
       -2   -1    0    0    0  501  0.00000000000E+00  0.00000000000E+00  0.13590620797E+04  0.13590620797E+04  0.25500000920E-02 0.  1.
        2   -1    0    0  501    0  0.00000000000E+00  0.00000000000E+00 -0.29432779768E+04  0.29432779768E+04  0.25500000920E-02 0. -1.
    10030    2    1    2    0    0  0.00000000000E+00  0.00000000000E+00 -0.15842158971E+04  0.43023400566E+04  0.40000487439E+04 0.  0.
        3    1    3    3  502    0  0.95466999263E+03  0.13475855676E+03 -0.26768287729E+04  0.28451655406E+04  0.10100000352E+00 0. -1.
       -3    1    3    3    0  502 -0.95466999263E+03 -0.13475855676E+03  0.10926128758E+04  0.14571745160E+04  0.10100000352E+00 0.  1.
</event>
<event>
 5   0  0.8329875E-09  0.4003861E+04  0.7818609E-02  0.8003768E-01
        1   -1    0    0  501    0  0.00000000000E+00  0.00000000000E+00  0.18455751979E+04  0.18455751979E+04  0.50400001928E-02 0. -1.
       -1   -1    0    0    0  501  0.00000000000E+00  0.00000000000E+00 -0.21715318479E+04  0.21715318479E+04  0.50400001928E-02 0.  1.
    10030    2    1    2    0    0  0.00000000000E+00  0.00000000000E+00 -0.32595665004E+03  0.40171070458E+04  0.40038607968E+04 0.  0.
        5    1    3    3  502    0 -0.26569916164E+03 -0.18980359658E+04  0.41735266679E+03  0.19614642261E+04  0.46999998093E+01 0. -1.
       -5    1    3    3    0  502  0.26569916164E+03  0.18980359658E+04 -0.74330931683E+03  0.20556428197E+04  0.46999998093E+01 0.  1.
</event>
<event>
 5   0  0.8329875E-09  0.4001863E+04  0.7818609E-02  0.8004171E-01
       -1   -1    0    0    0  501  0.00000000000E+00  0.00000000000E+00  0.20352434918E+04  0.20352434918E+04  0.50400001928E-02 0.  1.
        1   -1    0    0  501    0  0.00000000000E+00  0.00000000000E+00 -0.19671980571E+04  0.19671980571E+04  0.50400001928E-02 0. -1.
    10030    2    1    2    0    0  0.00000000000E+00  0.00000000000E+00  0.68045434649E+02  0.40024415489E+04  0.40018630875E+04 0.  0.
        1    1    3    3  502    0  0.92008093762E+02 -0.19310135372E+04 -0.48223817334E+03  0.19924438326E+04  0.50400001928E-02 0.  1.
       -1    1    3    3    0  502 -0.92008093762E+02  0.19310135372E+04  0.55028360799E+03  0.20099977163E+04  0.50400001928E-02 0. -1.
</event>
<event>
 5   0  0.2650452E-08  0.3998699E+04  0.7818609E-02  0.8004809E-01
        2   -1    0    0  501    0  0.00000000000E+00  0.00000000000E+00  0.18386600085E+04  0.18386600085E+04  0.25500000920E-02 0.  1.
       -2   -1    0    0    0  501  0.00000000000E+00  0.00000000000E+00 -0.21740828610E+04  0.21740828610E+04  0.25500000920E-02 0. -1.
    10030    2    1    2    0    0  0.00000000000E+00  0.00000000000E+00 -0.33542285247E+03  0.40127428695E+04  0.39986993944E+04 0.  0.
        3    1    3    3  502    0  0.16842900364E+04  0.10681498328E+04 -0.27140169446E+02  0.19946211648E+04  0.10100000352E+00 0.  1.
       -3    1    3    3    0  502 -0.16842900364E+04 -0.10681498328E+04 -0.30828268303E+03  0.20181217047E+04  0.10100000352E+00 0. -1.
</event>
<event>
 5   0  0.8329875E-09  0.3994911E+04  0.7818609E-02  0.8005574E-01
        1   -1    0    0  501    0  0.00000000000E+00  0.00000000000E+00  0.17897095443E+04  0.17897095443E+04  0.50400001928E-02 0.  1.
       -1   -1    0    0    0  501  0.00000000000E+00  0.00000000000E+00 -0.22293162251E+04  0.22293162251E+04  0.50400001928E-02 0. -1.
    10030    2    1    2    0    0  0.00000000000E+00  0.00000000000E+00 -0.43960668072E+03  0.40190257694E+04  0.39949110255E+04 0.  0.
        2    1    3    3  502    0 -0.24436988990E+02 -0.33613668312E+03  0.17608989536E+04  0.17928608872E+04  0.25500000920E-02 0.  1.
       -2    1    3    3    0  502  0.24436988990E+02  0.33613668312E+03 -0.22005056343E+04  0.22261648822E+04  0.25500000920E-02 0. -1.
</event>
<event>
 5   0  0.2612363E-08  0.4003527E+04  0.7818609E-02  0.8003835E-01
        2   -1    0    0  501    0  0.00000000000E+00  0.00000000000E+00  0.24510428710E+04  0.24510428710E+04  0.25500000920E-02 0. -1.
       -2   -1    0    0    0  501  0.00000000000E+00  0.00000000000E+00 -0.16348380275E+04  0.16348380275E+04  0.25500000920E-02 0.  1.
    10030    2    1    2    0    0  0.00000000000E+00  0.00000000000E+00  0.81620484350E+03  0.40858808986E+04  0.40035274910E+04 0.  0.
        4    1    3    3  502    0  0.96681633855E+03  0.65828346393E+03  0.20660141062E+04  0.23741286509E+04  0.12699999809E+01 0. -1.
       -4    1    3    3    0  502 -0.96681633855E+03 -0.65828346393E+03 -0.12498092627E+04  0.17117522477E+04  0.12699999809E+01 0.  1.
</event>
<event>
 5   0  0.8329875E-09  0.4000582E+04  0.7818609E-02  0.8004429E-01
        1   -1    0    0  501    0  0.00000000000E+00  0.00000000000E+00  0.17565826049E+04  0.17565826049E+04  0.50400001928E-02 0.  1.
       -1   -1    0    0    0  501  0.00000000000E+00  0.00000000000E+00 -0.22778110139E+04  0.22778110139E+04  0.50400001928E-02 0. -1.
    10030    2    1    2    0    0  0.00000000000E+00  0.00000000000E+00 -0.52122840905E+03  0.40343936188E+04  0.40005815599E+04 0.  0.
        4    1    3    3  502    0 -0.24545136175E+03  0.80023446722E+03 -0.20927077337E+04  0.22538963697E+04  0.12699999809E+01 0. -1.
       -4    1    3    3    0  502  0.24545136175E+03 -0.80023446722E+03  0.15714793247E+04  0.17804972492E+04  0.12699999809E+01 0.  1.
</event>
<event>
 5   0  0.2612363E-08  0.4006172E+04  0.7818609E-02  0.8003303E-01
       -2   -1    0    0    0  501  0.00000000000E+00  0.00000000000E+00  0.14850947287E+04  0.14850947287E+04  0.25500000920E-02 0.  1.
        2   -1    0    0  501    0  0.00000000000E+00  0.00000000000E+00 -0.27017495142E+04  0.27017495142E+04  0.25500000920E-02 0. -1.
    10030    2    1    2    0    0  0.00000000000E+00  0.00000000000E+00 -0.12166547855E+04  0.41868442428E+04  0.40061722188E+04 0.  0.
        4    1    3    3  502    0  0.30799066472E+02  0.72678367548E+03  0.13421715794E+04  0.15266267569E+04  0.12699999809E+01 0.  1.
       -4    1    3    3    0  502 -0.30799066472E+02 -0.72678367548E+03 -0.25588263650E+04  0.26602174859E+04  0.12699999809E+01 0. -1.
</event>
<event>
 5   0  0.2746876E-08  0.4000698E+04  0.7818609E-02  0.8004406E-01
       -2   -1    0    0    0  501  0.00000000000E+00  0.00000000000E+00  0.32549899005E+04  0.32549899005E+04  0.25500000920E-02 0.  1.
        2   -1    0    0  501    0  0.00000000000E+00  0.00000000000E+00 -0.12293113987E+04  0.12293113987E+04  0.25500000920E-02 0. -1.
    10030    2    1    2    0    0  0.00000000000E+00  0.00000000000E+00  0.20256785018E+04  0.44843012992E+04  0.40006980328E+04 0.  0.
        1    1    3    3  502    0  0.13143670495E+04 -0.57063655224E+03  0.25773437863E+04  0.29488790766E+04  0.50400001928E-02 0.  1.
       -1    1    3    3    0  502 -0.13143670495E+04  0.57063655224E+03 -0.55166528458E+03  0.15354222226E+04  0.50400001928E-02 0. -1.
</event>
<event>
 5   0  0.2599332E-08  0.3994932E+04  0.7818609E-02  0.8005570E-01
        2   -1    0    0  501    0  0.00000000000E+00  0.00000000000E+00  0.19564899200E+04  0.19564899201E+04  0.25500000920E-02 0. -1.
       -2   -1    0    0    0  501  0.00000000000E+00  0.00000000000E+00 -0.20393000932E+04  0.20393000932E+04  0.25500000920E-02 0.  1.
    10030    2    1    2    0    0  0.00000000000E+00  0.00000000000E+00 -0.82810173185E+02  0.39957900133E+04  0.39949318274E+04 0.  0.
        2    1    3    3  502    0 -0.56247377769E+02 -0.12417348594E+04  0.15225166948E+04  0.19654837355E+04  0.25500000920E-02 0. -1.
       -2    1    3    3    0  502  0.56247377769E+02  0.12417348594E+04 -0.16053268680E+04  0.20303062778E+04  0.25500000920E-02 0.  1.
</event>
<event>
 5   0  0.8329875E-09  0.4002507E+04  0.7818609E-02  0.8004041E-01
        1   -1    0    0  501    0  0.00000000000E+00  0.00000000000E+00  0.24319660600E+04  0.24319660600E+04  0.50400001928E-02 0.  1.
       -1   -1    0    0    0  501  0.00000000000E+00  0.00000000000E+00 -0.16468225080E+04  0.16468225080E+04  0.50400001928E-02 0. -1.
    10030    2    1    2    0    0  0.00000000000E+00  0.00000000000E+00  0.78514355205E+03  0.40787885680E+04  0.40025074373E+04 0.  0.
        3    1    3    3  502    0 -0.66381733879E+03 -0.75167216504E+03  0.21574419330E+04  0.23791217302E+04  0.10100000352E+00 0.  1.
       -3    1    3    3    0  502  0.66381733879E+03  0.75167216504E+03 -0.13722983809E+04  0.16996668378E+04  0.10100000352E+00 0. -1.
</event>
<event>
 5   0  0.8329875E-09  0.4003813E+04  0.7818609E-02  0.8003778E-01
        1   -1    0    0  501    0  0.00000000000E+00  0.00000000000E+00  0.23136106962E+04  0.23136106962E+04  0.50400001928E-02 0.  1.
       -1   -1    0    0    0  501  0.00000000000E+00  0.00000000000E+00 -0.17321974592E+04  0.17321974592E+04  0.50400001928E-02 0. -1.
    10030    2    1    2    0    0  0.00000000000E+00  0.00000000000E+00  0.58141323696E+03  0.40458081554E+04  0.40038134670E+04 0.  0.
        1    1    3    3  502    0 -0.90635125156E+03  0.13145209510E+04 -0.92951552412E+03  0.18475489253E+04  0.50400001928E-02 0. -1.
       -1    1    3    3    0  502  0.90635125156E+03 -0.13145209510E+04  0.15109287611E+04  0.21982592301E+04  0.50400001928E-02 0.  1.
</event>
<event>
 5   0  0.8329875E-09  0.4001758E+04  0.7818609E-02  0.8004192E-01
       -1   -1    0    0    0  501  0.00000000000E+00  0.00000000000E+00  0.19421750693E+04  0.19421750693E+04  0.50400001928E-02 0.  1.
        1   -1    0    0  501    0  0.00000000000E+00  0.00000000000E+00 -0.20613568823E+04  0.20613568823E+04  0.50400001928E-02 0. -1.
    10030    2    1    2    0    0  0.00000000000E+00  0.00000000000E+00 -0.11918181304E+03  0.40035319516E+04  0.40017575868E+04 0.  0.
        2    1    3    3  502    0  0.17642213611E+03  0.15971877094E+04 -0.12523370438E+04  0.20372730353E+04  0.25500000920E-02 0. -1.
       -2    1    3    3    0  502 -0.17642213611E+03 -0.15971877094E+04  0.11331552308E+04  0.19662589163E+04  0.25500000920E-02 0.  1.
</event>
<event>
 5   0  0.2599332E-08  0.3998663E+04  0.7818609E-02  0.8004816E-01
        2   -1    0    0  501    0  0.00000000000E+00  0.00000000000E+00  0.28854750381E+04  0.28854750381E+04  0.25500000920E-02 0. -1.
       -2   -1    0    0    0  501  0.00000000000E+00  0.00000000000E+00 -0.13853271661E+04  0.13853271661E+04  0.25500000920E-02 0.  1.
    10030    2    1    2    0    0  0.00000000000E+00  0.00000000000E+00  0.15001478720E+04  0.42708022043E+04  0.39986632554E+04 0.  0.
        2    1    3    3  502    0 -0.18280277673E+04 -0.17925297147E+03  0.15934402928E+04  0.24316391822E+04  0.25500000920E-02 0. -1.
       -2    1    3    3    0  502  0.18280277673E+04  0.17925297147E+03 -0.93292420790E+02  0.18391630220E+04  0.25500000920E-02 0.  1.
</event>
<event>
 5   0  0.2587493E-08  0.3997306E+04  0.7818609E-02  0.8005090E-01
        2   -1    0    0  501    0  0.00000000000E+00  0.00000000000E+00  0.23728121608E+04  0.23728121608E+04  0.25500000920E-02 0.  1.
       -2   -1    0    0    0  501  0.00000000000E+00  0.00000000000E+00 -0.16834937336E+04  0.16834937336E+04  0.25500000920E-02 0. -1.
    10030    2    1    2    0    0  0.00000000000E+00  0.00000000000E+00  0.68931842724E+03  0.40563058944E+04  0.39973062948E+04 0.  0.
        5    1    3    3  502    0  0.13631451184E+04 -0.11126899980E+04 -0.61714291802E+03  0.18647067106E+04  0.46999998093E+01 0. -1.
       -5    1    3    3    0  502 -0.13631451184E+04  0.11126899980E+04  0.13064613453E+04  0.21915991837E+04  0.46999998093E+01 0.  1.
</event>
<event>
 5   0  0.8329875E-09  0.4041080E+04  0.7818609E-02  0.7996310E-01
        1   -1    0    0  501    0  0.00000000000E+00  0.00000000000E+00  0.21746595532E+04  0.21746595532E+04  0.50400001928E-02 0.  1.
       -1   -1    0    0    0  501  0.00000000000E+00  0.00000000000E+00 -0.18773434037E+04  0.18773434037E+04  0.50400001928E-02 0. -1.
    10030    2    1    2    0    0  0.00000000000E+00  0.00000000000E+00  0.29731614950E+03  0.40520029569E+04  0.40410804335E+04 0.  0.
        1    1    3    3  502    0  0.10684074039E+03 -0.13185169933E+04 -0.13827816658E+04  0.19136319240E+04  0.50400001928E-02 0. -1.
       -1    1    3    3    0  502 -0.10684074039E+03  0.13185169933E+04  0.16800978152E+04  0.21383710329E+04  0.50400001928E-02 0.  1.
</event>
<event>
 5   0  0.2746876E-08  0.3996198E+04  0.7818609E-02  0.8005314E-01
       -2   -1    0    0    0  501  0.00000000000E+00  0.00000000000E+00  0.26441193091E+04  0.26441193091E+04  0.25500000920E-02 0.  1.
        2   -1    0    0  501    0  0.00000000000E+00  0.00000000000E+00 -0.15099164343E+04  0.15099164343E+04  0.25500000920E-02 0. -1.
    10030    2    1    2    0    0  0.00000000000E+00  0.00000000000E+00  0.11342028748E+04  0.41540357434E+04  0.39961977925E+04 0.  0.
        1    1    3    3  502    0  0.11341597079E+04  0.15986112398E+04  0.16380464021E+03  0.19669031748E+04  0.50400001928E-02 0. -1.
       -1    1    3    3    0  502 -0.11341597079E+04 -0.15986112398E+04  0.97039823457E+03  0.21871325686E+04  0.50400001928E-02 0.  1.
</event>
<event>
 5   0  0.8329875E-09  0.4015384E+04  0.7818609E-02  0.8001450E-01
        1   -1    0    0  501    0  0.00000000000E+00  0.00000000000E+00  0.21792730236E+04  0.21792730236E+04  0.50400001928E-02 0. -1.
       -1   -1    0    0    0  501  0.00000000000E+00  0.00000000000E+00 -0.18496200398E+04  0.18496200398E+04  0.50400001928E-02 0.  1.
    10030    2    1    2    0    0  0.00000000000E+00  0.00000000000E+00  0.32965298383E+03  0.40288930634E+04  0.40153839451E+04 0.  0.
        1    1    3    3  502    0  0.10164459723E+04  0.13659611427E+04  0.12322735537E+04  0.21017874225E+04  0.50400001928E-02 0. -1.
       -1    1    3    3    0  502 -0.10164459723E+04 -0.13659611427E+04 -0.90262056990E+03  0.19271056409E+04  0.50400001928E-02 0.  1.
</event>
<event>
 5   0  0.2587493E-08  0.4015479E+04  0.7818609E-02  0.8001431E-01
       -2   -1    0    0    0  501  0.00000000000E+00  0.00000000000E+00  0.22530083627E+04  0.22530083627E+04  0.25500000920E-02 0.  1.
        2   -1    0    0  501    0  0.00000000000E+00  0.00000000000E+00 -0.17891716251E+04  0.17891716251E+04  0.25500000920E-02 0. -1.
    10030    2    1    2    0    0  0.00000000000E+00  0.00000000000E+00  0.46383673763E+03  0.40421799878E+04  0.40154793655E+04 0.  0.
        5    1    3    3  502    0 -0.84331116157E+03  0.10571383147E+04  0.17257947320E+04  0.21925110441E+04  0.46999998093E+01 0.  1.
       -5    1    3    3    0  502  0.84331116157E+03 -0.10571383147E+04 -0.12619579944E+04  0.18496689437E+04  0.46999998093E+01 0. -1.
</event>
<event>
 5   0  0.2612363E-08  0.3998516E+04  0.7818609E-02  0.8004846E-01
        2   -1    0    0  501    0  0.00000000000E+00  0.00000000000E+00  0.12102039750E+04  0.12102039750E+04  0.25500000920E-02 0. -1.
       -2   -1    0    0    0  501  0.00000000000E+00  0.00000000000E+00 -0.33027751697E+04  0.33027751697E+04  0.25500000920E-02 0.  1.
    10030    2    1    2    0    0  0.00000000000E+00  0.00000000000E+00 -0.20925711947E+04  0.45129791447E+04  0.39985155440E+04 0.  0.
        4    1    3    3  502    0  0.34223307517E+03 -0.15672438755E+04 -0.23929725101E+04  0.28809192787E+04  0.12699999809E+01 0.  1.
       -4    1    3    3    0  502 -0.34223307517E+03  0.15672438755E+04  0.30040131540E+03  0.16320598660E+04  0.12699999809E+01 0. -1.
</event>
<event>
 5   0  0.2587493E-08  0.4004720E+04  0.7818609E-02  0.8003595E-01
        2   -1    0    0  501    0  0.00000000000E+00  0.00000000000E+00  0.26418519536E+04  0.26418519536E+04  0.25500000920E-02 0.  1.
       -2   -1    0    0    0  501  0.00000000000E+00  0.00000000000E+00 -0.15176643682E+04  0.15176643682E+04  0.25500000920E-02 0. -1.
    10030    2    1    2    0    0  0.00000000000E+00  0.00000000000E+00  0.11241875854E+04  0.41595163218E+04  0.40047195038E+04 0.  0.
        5    1    3    3  502    0  0.10329301417E+04 -0.16700987087E+04  0.15549292997E+03  0.19698666238E+04  0.46999998093E+01 0. -1.
       -5    1    3    3    0  502 -0.10329301417E+04  0.16700987087E+04  0.96869465545E+03  0.21896496980E+04  0.46999998093E+01 0.  1.
</event>
<event>
 5   0  0.2587493E-08  0.4001187E+04  0.7818609E-02  0.8004307E-01
       -2   -1    0    0    0  501  0.00000000000E+00  0.00000000000E+00  0.20088258128E+04  0.20088258128E+04  0.25500000920E-02 0.  1.
        2   -1    0    0  501    0  0.00000000000E+00  0.00000000000E+00 -0.19923946827E+04  0.19923946827E+04  0.25500000920E-02 0. -1.
    10030    2    1    2    0    0  0.00000000000E+00  0.00000000000E+00  0.16431130043E+02  0.40012204955E+04  0.40011867579E+04 0.  0.
        5    1    3    3  502    0 -0.73899311060E+03  0.14598820672E+04 -0.11428742032E+04  0.19958832636E+04  0.46999998093E+01 0. -1.
       -5    1    3    3    0  502  0.73899311060E+03 -0.14598820672E+04  0.11593053332E+04  0.20053372318E+04  0.46999998093E+01 0.  1.
</event>
<event>
 5   0  0.8329875E-09  0.3993800E+04  0.7818609E-02  0.8005798E-01
       -4   -1    0    0    0  501  0.00000000000E+00  0.00000000000E+00  0.20282527906E+04  0.20282531882E+04  0.12699999809E+01 0. -1.
        4   -1    0    0  501    0  0.00000000000E+00  0.00000000000E+00 -0.19660314061E+04  0.19660318163E+04  0.12699999809E+01 0.  1.
    10030    2    1    2    0    0  0.00000000000E+00  0.00000000000E+00  0.62221384483E+02  0.39942850045E+04  0.39938003451E+04 0.  0.
        1    1    3    3  502    0  0.18109600596E+04  0.84023700771E+03 -0.14013874759E+02  0.19964395697E+04  0.50400001928E-02 0.  1.
       -1    1    3    3    0  502 -0.18109600596E+04 -0.84023700771E+03  0.76235259243E+02  0.19978454348E+04  0.50400001928E-02 0. -1.
</event>
<event>
 5   0  0.2746876E-08  0.4002964E+04  0.7818609E-02  0.8003949E-01
       -2   -1    0    0    0  501  0.00000000000E+00  0.00000000000E+00  0.15553018531E+04  0.15553018531E+04  0.25500000920E-02 0. -1.
        2   -1    0    0  501    0  0.00000000000E+00  0.00000000000E+00 -0.25756608819E+04  0.25756608819E+04  0.25500000920E-02 0.  1.
    10030    2    1    2    0    0  0.00000000000E+00  0.00000000000E+00 -0.10203590289E+04  0.41309627350E+04  0.40029639732E+04 0.  0.
        1    1    3    3  502    0  0.36180918695E+03 -0.15748601341E+04  0.70861857082E+03  0.17644349262E+04  0.50400001928E-02 0. -1.
       -1    1    3    3    0  502 -0.36180918695E+03  0.15748601341E+04 -0.17289775997E+04  0.23665278088E+04  0.50400001928E-02 0.  1.
</event>
<event>
 5   0  0.8329875E-09  0.4005091E+04  0.7818609E-02  0.8003520E-01
        1   -1    0    0  501    0  0.00000000000E+00  0.00000000000E+00  0.34853175022E+04  0.34853175022E+04  0.50400001928E-02 0. -1.
       -1   -1    0    0    0  501  0.00000000000E+00  0.00000000000E+00 -0.11505950160E+04  0.11505950160E+04  0.50400001928E-02 0.  1.
    10030    2    1    2    0    0  0.00000000000E+00  0.00000000000E+00  0.23347224863E+04  0.46359125182E+04  0.40050912335E+04 0.  0.
        2    1    3    3  502    0 -0.24178404172E+03 -0.18433635210E+04  0.30601868590E+03  0.18841698516E+04  0.25500000920E-02 0.  1.
       -2    1    3    3    0  502  0.24178404172E+03  0.18433635210E+04  0.20287038004E+04  0.27517426666E+04  0.25500000920E-02 0. -1.
</event>
<event>
 5   0  0.2612363E-08  0.3912831E+04  0.7818609E-02  0.8022366E-01
       -2   -1    0    0    0  501  0.00000000000E+00  0.00000000000E+00  0.23909287396E+04  0.23909287396E+04  0.25500000920E-02 0.  1.
        2   -1    0    0  501    0  0.00000000000E+00  0.00000000000E+00 -0.16008678584E+04  0.16008678584E+04  0.25500000920E-02 0. -1.
    10030    2    1    2    0    0  0.00000000000E+00  0.00000000000E+00  0.79006088125E+03  0.39917965980E+04  0.39128306740E+04 0.  0.
        4    1    3    3  502    0  0.63602315402E+03 -0.17399227612E+04 -0.24671360952E+03  0.18688835934E+04  0.12699999809E+01 0.  1.
       -4    1    3    3    0  502 -0.63602315402E+03  0.17399227612E+04  0.10367744908E+04  0.21229130046E+04  0.12699999809E+01 0. -1.
</event>
<event>
 5   0  0.8329875E-09  0.3993488E+04  0.7818609E-02  0.8005862E-01
       -1   -1    0    0    0  501  0.00000000000E+00  0.00000000000E+00  0.26286386113E+04  0.26286386113E+04  0.50400001928E-02 0.  1.
        1   -1    0    0  501    0  0.00000000000E+00  0.00000000000E+00 -0.15167496245E+04  0.15167496245E+04  0.50400001928E-02 0. -1.
    10030    2    1    2    0    0  0.00000000000E+00  0.00000000000E+00  0.11118889869E+04  0.41453882358E+04  0.39934880126E+04 0.  0.
        3    1    3    3  502    0 -0.65287306353E+03  0.17212489709E+04  0.13586937054E+04  0.22880100201E+04  0.10100000352E+00 0.  1.
       -3    1    3    3    0  502  0.65287306353E+03 -0.17212489709E+04 -0.24680471859E+03  0.18573782157E+04  0.10100000352E+00 0. -1.
</event>
<event>
 5   0  0.2650452E-08  0.3997069E+04  0.7818609E-02  0.8005138E-01
       -2   -1    0    0    0  501  0.00000000000E+00  0.00000000000E+00  0.15344201203E+04  0.15344201203E+04  0.25500000920E-02 0. -1.
        2   -1    0    0  501    0  0.00000000000E+00  0.00000000000E+00 -0.26030285634E+04  0.26030285634E+04  0.25500000920E-02 0.  1.
    10030    2    1    2    0    0  0.00000000000E+00  0.00000000000E+00 -0.10686084431E+04  0.41374486837E+04  0.39970686266E+04 0.  0.
        3    1    3    3  502    0  0.11726488252E+04  0.43246897691E+02 -0.22088864204E+04  0.25012306551E+04  0.10100000352E+00 0.  1.
       -3    1    3    3    0  502 -0.11726488252E+04 -0.43246897691E+02  0.11402779773E+04  0.16362180286E+04  0.10100000352E+00 0. -1.
</event>
<event>
 5   0  0.8329875E-09  0.4025097E+04  0.7818609E-02  0.7999503E-01
        1   -1    0    0  501    0  0.00000000000E+00  0.00000000000E+00  0.20058517079E+04  0.20058517079E+04  0.50400001928E-02 0.  1.
       -1   -1    0    0    0  501  0.00000000000E+00  0.00000000000E+00 -0.20192673916E+04  0.20192673916E+04  0.50400001928E-02 0. -1.
    10030    2    1    2    0    0  0.00000000000E+00  0.00000000000E+00 -0.13415683672E+02  0.40251190996E+04  0.40250967423E+04 0.  0.
        4    1    3    3  502    0 -0.11987315103E+04 -0.73979843564E+03  0.14306902681E+04  0.20077687156E+04  0.12699999809E+01 0.  1.
       -4    1    3    3    0  502  0.11987315103E+04  0.73979843564E+03 -0.14441059518E+04  0.20173503840E+04  0.12699999809E+01 0. -1.
</event>
<event>
 5   0  0.2746876E-08  0.4000721E+04  0.7818609E-02  0.8004401E-01
       -2   -1    0    0    0  501  0.00000000000E+00  0.00000000000E+00  0.19794601421E+04  0.19794601421E+04  0.25500000920E-02 0.  1.
        2   -1    0    0  501    0  0.00000000000E+00  0.00000000000E+00 -0.20214815619E+04  0.20214815619E+04  0.25500000920E-02 0. -1.
    10030    2    1    2    0    0  0.00000000000E+00  0.00000000000E+00 -0.42021419830E+02  0.40009417040E+04  0.40007210250E+04 0.  0.
        1    1    3    3  502    0 -0.18574779737E+04 -0.52970667113E+03  0.49923774616E+03  0.19950067437E+04  0.50400001928E-02 0.  1.
       -1    1    3    3    0  502  0.18574779737E+04  0.52970667113E+03 -0.54125916599E+03  0.20059349603E+04  0.50400001928E-02 0. -1.
</event>
<event>
 5   0  0.8329875E-09  0.4003351E+04  0.7818609E-02  0.8003871E-01
       -1   -1    0    0    0  501  0.00000000000E+00  0.00000000000E+00  0.13397752640E+04  0.13397752641E+04  0.50400001928E-02 0.  1.
        1   -1    0    0  501    0  0.00000000000E+00  0.00000000000E+00 -0.29905800720E+04  0.29905800720E+04  0.50400001928E-02 0. -1.
    10030    2    1    2    0    0  0.00000000000E+00  0.00000000000E+00 -0.16508048080E+04  0.43303553361E+04  0.40033511990E+04 0.  0.
        5    1    3    3  502    0  0.82511152257E+03 -0.12899952150E+04  0.56899783602E+03  0.16336086762E+04  0.46999998093E+01 0.  1.
       -5    1    3    3    0  502 -0.82511152257E+03  0.12899952150E+04 -0.22198026440E+04  0.26967466599E+04  0.46999998093E+01 0. -1.
</event>
<event>
 5   0  0.8329875E-09  0.4004818E+04  0.7818609E-02  0.8003575E-01
       -1   -1    0    0    0  501  0.00000000000E+00  0.00000000000E+00  0.16884391907E+04  0.16884391907E+04  0.50400001928E-02 0. -1.
        1   -1    0    0  501    0  0.00000000000E+00  0.00000000000E+00 -0.23747622297E+04  0.23747622297E+04  0.50400001928E-02 0.  1.
    10030    2    1    2    0    0  0.00000000000E+00  0.00000000000E+00 -0.68632303898E+03  0.40632014204E+04  0.40048179071E+04 0.  0.
        4    1    3    3  502    0 -0.11035557733E+04  0.58949353728E+03  0.12430569838E+04  0.17636695419E+04  0.12699999809E+01 0. -1.
       -4    1    3    3    0  502  0.11035557733E+04 -0.58949353728E+03 -0.19293800228E+04  0.22995318785E+04  0.12699999809E+01 0.  1.
</event>
<event>
 5   0  0.2650452E-08  0.3997002E+04  0.7818609E-02  0.8005152E-01
       -2   -1    0    0    0  501  0.00000000000E+00  0.00000000000E+00  0.21978337753E+04  0.21978337753E+04  0.25500000920E-02 0. -1.
        2   -1    0    0  501    0  0.00000000000E+00  0.00000000000E+00 -0.18172471093E+04  0.18172471093E+04  0.25500000920E-02 0.  1.
    10030    2    1    2    0    0  0.00000000000E+00  0.00000000000E+00  0.38058666604E+03  0.40150808846E+04  0.39970024143E+04 0.  0.
        3    1    3    3  502    0  0.73953682095E+03  0.15130165448E+03 -0.16685357551E+04  0.18313433529E+04  0.10100000352E+00 0.  1.
       -3    1    3    3    0  502 -0.73953682095E+03 -0.15130165448E+03  0.20491224211E+04  0.21837375317E+04  0.10100000352E+00 0. -1.
</event>
<event>
 5   0  0.8329875E-09  0.3973037E+04  0.7818609E-02  0.8010008E-01
        3   -1    0    0  501    0  0.00000000000E+00  0.00000000000E+00  0.18372174454E+04  0.18372174482E+04  0.10100000352E+00 0. -1.
       -3   -1    0    0    0  501  0.00000000000E+00  0.00000000000E+00 -0.21479525579E+04  0.21479525603E+04  0.10100000352E+00 0.  1.
    10030    2    1    2    0    0  0.00000000000E+00  0.00000000000E+00 -0.31073511250E+03  0.39851700085E+04  0.39730370860E+04 0.  0.
        1    1    3    3  502    0 -0.17914345286E+03 -0.34183103882E+03  0.17992534041E+04  0.18401776132E+04  0.50400001928E-02 0. -1.
       -1    1    3    3    0  502  0.17914345286E+03  0.34183103882E+03 -0.21099885166E+04  0.21449923953E+04  0.50400001928E-02 0.  1.
</event>
<event>
 5   0  0.8329875E-09  0.4000666E+04  0.7818609E-02  0.8004412E-01
        1   -1    0    0  501    0  0.00000000000E+00  0.00000000000E+00  0.21564467241E+04  0.21564467241E+04  0.50400001928E-02 0.  1.
       -1   -1    0    0    0  501  0.00000000000E+00  0.00000000000E+00 -0.18555205631E+04  0.18555205631E+04  0.50400001928E-02 0. -1.
    10030    2    1    2    0    0  0.00000000000E+00  0.00000000000E+00  0.30092616101E+03  0.40119672872E+04  0.40006655645E+04 0.  0.
        3    1    3    3  502    0 -0.82523650101E+03  0.11052915780E+04  0.16032261066E+04  0.21149512321E+04  0.10100000352E+00 0.  1.
       -3    1    3    3    0  502  0.82523650101E+03 -0.11052915780E+04 -0.13022999456E+04  0.18970160551E+04  0.10100000352E+00 0. -1.
</event>
<event>
 5   0  0.8329875E-09  0.3980746E+04  0.7818609E-02  0.8008442E-01
       -1   -1    0    0    0  501  0.00000000000E+00  0.00000000000E+00  0.24574241433E+04  0.24574241433E+04  0.50400001928E-02 0.  1.
        1   -1    0    0  501    0  0.00000000000E+00  0.00000000000E+00 -0.16120878909E+04  0.16120878909E+04  0.50400001928E-02 0. -1.
    10030    2    1    2    0    0  0.00000000000E+00  0.00000000000E+00  0.84533625233E+03  0.40695120342E+04  0.39807455102E+04 0.  0.
        2    1    3    3  502    0  0.98626249753E+03 -0.26490892606E+03 -0.13238461908E+04  0.16719626761E+04  0.25500000920E-02 0. -1.
       -2    1    3    3    0  502 -0.98626249753E+03  0.26490892606E+03  0.21691824432E+04  0.23975493582E+04  0.25500000920E-02 0.  1.
</event>
<event>
 5   0  0.2599332E-08  0.4005246E+04  0.7818609E-02  0.8003489E-01
       -2   -1    0    0    0  501  0.00000000000E+00  0.00000000000E+00  0.12312507819E+04  0.12312507819E+04  0.25500000920E-02 0.  1.
        2   -1    0    0  501    0  0.00000000000E+00  0.00000000000E+00 -0.32572562612E+04  0.32572562612E+04  0.25500000920E-02 0. -1.
    10030    2    1    2    0    0  0.00000000000E+00  0.00000000000E+00 -0.20260054793E+04  0.44885070431E+04  0.40052462188E+04 0.  0.
        2    1    3    3  502    0 -0.72001324947E+03 -0.18279523630E+04 -0.57800534199E+03  0.20479060272E+04  0.25500000920E-02 0. -1.
       -2    1    3    3    0  502  0.72001324947E+03  0.18279523630E+04 -0.14480001373E+04  0.24406010158E+04  0.25500000920E-02 0.  1.
</event>
<event>
 5   0  0.8329875E-09  0.3997269E+04  0.7818609E-02  0.8005098E-01
        1   -1    0    0  501    0  0.00000000000E+00  0.00000000000E+00  0.15390818448E+04  0.15390818448E+04  0.50400001928E-02 0. -1.
       -1   -1    0    0    0  501  0.00000000000E+00  0.00000000000E+00 -0.25954048779E+04  0.25954048779E+04  0.50400001928E-02 0.  1.
    10030    2    1    2    0    0  0.00000000000E+00  0.00000000000E+00 -0.10563230331E+04  0.41344867227E+04  0.39972693317E+04 0.  0.
        2    1    3    3  502    0 -0.18469823817E+04 -0.76360012182E+03 -0.51724149076E+03  0.20644533960E+04  0.25500000920E-02 0.  1.
       -2    1    3    3    0  502  0.18469823817E+04  0.76360012182E+03 -0.53908154235E+03  0.20700333267E+04  0.25500000920E-02 0. -1.
</event>
<event>
 5   0  0.8329875E-09  0.4000466E+04  0.7818609E-02  0.8004453E-01
        1   -1    0    0  501    0  0.00000000000E+00  0.00000000000E+00  0.24572763392E+04  0.24572763392E+04  0.50400001928E-02 0.  1.
       -1   -1    0    0    0  501  0.00000000000E+00  0.00000000000E+00 -0.16281978612E+04  0.16281978612E+04  0.50400001928E-02 0. -1.
    10030    2    1    2    0    0  0.00000000000E+00  0.00000000000E+00  0.82907847805E+03  0.40854742004E+04  0.40004660128E+04 0.  0.
        2    1    3    3  502    0 -0.17289661684E+04 -0.54266994448E+03 -0.45028333513E+03  0.18672358613E+04  0.25500000920E-02 0. -1.
       -2    1    3    3    0  502  0.17289661684E+04  0.54266994448E+03  0.12793618132E+04  0.22182383391E+04  0.25500000920E-02 0.  1.
</event>
<event>
 5   0  0.8329875E-09  0.3995772E+04  0.7818609E-02  0.8005400E-01
        1   -1    0    0  501    0  0.00000000000E+00  0.00000000000E+00  0.14096796577E+04  0.14096796578E+04  0.50400001928E-02 0. -1.
       -1   -1    0    0    0  501  0.00000000000E+00  0.00000000000E+00 -0.28315281935E+04  0.28315281935E+04  0.50400001928E-02 0.  1.
    10030    2    1    2    0    0  0.00000000000E+00  0.00000000000E+00 -0.14218485358E+04  0.42412078513E+04  0.39957716125E+04 0.  0.
        3    1    3    3  502    0 -0.18303354512E+04  0.17393959718E+03  0.11886550769E+03  0.18424201113E+04  0.10100000352E+00 0. -1.
       -3    1    3    3    0  502  0.18303354512E+04 -0.17393959718E+03 -0.15407140435E+04  0.23987877400E+04  0.10100000352E+00 0.  1.
</event>
<event>
 5   0  0.2746876E-08  0.4025649E+04  0.7818609E-02  0.7999392E-01
        2   -1    0    0  501    0  0.00000000000E+00  0.00000000000E+00  0.27128855638E+04  0.27128855638E+04  0.25500000920E-02 0.  1.
       -2   -1    0    0    0  501  0.00000000000E+00  0.00000000000E+00 -0.14934146928E+04  0.14934146928E+04  0.25500000920E-02 0. -1.
    10030    2    1    2    0    0  0.00000000000E+00  0.00000000000E+00  0.12194708710E+04  0.42063002566E+04  0.40256493443E+04 0.  0.
        1    1    3    3  502    0  0.19843234723E+04 -0.15700559196E+03  0.92192890443E+03  0.21936597967E+04  0.50400001928E-02 0.  1.
       -1    1    3    3    0  502 -0.19843234723E+04  0.15700559196E+03  0.29754196653E+03  0.20126404599E+04  0.50400001928E-02 0. -1.
</event>
<event>
 5   0  0.2612363E-08  0.3997308E+04  0.7818609E-02  0.8005090E-01
        2   -1    0    0  501    0  0.00000000000E+00  0.00000000000E+00  0.21599190601E+04  0.21599190601E+04  0.25500000920E-02 0. -1.
       -2   -1    0    0    0  501  0.00000000000E+00  0.00000000000E+00 -0.18494289422E+04  0.18494289422E+04  0.25500000920E-02 0.  1.
    10030    2    1    2    0    0  0.00000000000E+00  0.00000000000E+00  0.31049011785E+03  0.40093480023E+04  0.39973075051E+04 0.  0.
        4    1    3    3  502    0 -0.85558639593E+03  0.90377921703E+03  0.17238516091E+04  0.21261493214E+04  0.12699999809E+01 0. -1.
       -4    1    3    3    0  502  0.85558639593E+03 -0.90377921703E+03 -0.14133614912E+04  0.18831986809E+04  0.12699999809E+01 0.  1.
</event>
<event>
 5   0  0.8329875E-09  0.4033277E+04  0.7818609E-02  0.7997867E-01
        1   -1    0    0  501    0  0.00000000000E+00  0.00000000000E+00  0.27110995221E+04  0.27110995221E+04  0.50400001928E-02 0.  1.
       -1   -1    0    0    0  501  0.00000000000E+00  0.00000000000E+00 -0.15000672398E+04  0.15000672398E+04  0.50400001928E-02 0. -1.
    10030    2    1    2    0    0  0.00000000000E+00  0.00000000000E+00  0.12110322823E+04  0.42111667619E+04  0.40332773656E+04 0.  0.
        1    1    3    3  502    0 -0.93925374564E+02 -0.28763033807E+03 -0.14762317076E+04  0.15069217769E+04  0.50400001928E-02 0. -1.
       -1    1    3    3    0  502  0.93925374564E+02  0.28763033807E+03  0.26872639899E+04  0.27042449849E+04  0.50400001928E-02 0.  1.
</event>
<event>
 5   0  0.2746876E-08  0.3977105E+04  0.7818609E-02  0.8009181E-01
       -2   -1    0    0    0  501  0.00000000000E+00  0.00000000000E+00  0.22827181697E+04  0.22827181697E+04  0.25500000920E-02 0.  1.
        2   -1    0    0  501    0  0.00000000000E+00  0.00000000000E+00 -0.17322945816E+04  0.17322945816E+04  0.25500000920E-02 0. -1.
    10030    2    1    2    0    0  0.00000000000E+00  0.00000000000E+00  0.55042358802E+03  0.40150127513E+04  0.39771046336E+04 0.  0.
        1    1    3    3  502    0  0.68023519206E+03  0.63144429243E+03  0.20506384919E+04  0.22509020493E+04  0.50400001928E-02 0.  1.
       -1    1    3    3    0  502 -0.68023519206E+03 -0.63144429243E+03 -0.15002149039E+04  0.17641107020E+04  0.50400001928E-02 0. -1.
</event>
<event>
 5   0  0.2612363E-08  0.3999359E+04  0.7818609E-02  0.8004676E-01
        2   -1    0    0  501    0  0.00000000000E+00  0.00000000000E+00  0.28644486970E+04  0.28644486970E+04  0.25500000920E-02 0. -1.
       -2   -1    0    0    0  501  0.00000000000E+00  0.00000000000E+00 -0.13959819368E+04  0.13959819368E+04  0.25500000920E-02 0.  1.
    10030    2    1    2    0    0  0.00000000000E+00  0.00000000000E+00  0.14684667602E+04  0.42604306338E+04  0.39993592686E+04 0.  0.
        4    1    3    3  502    0  0.10463119781E+04  0.16351025015E+04  0.22291302332E+03  0.19539756331E+04  0.12699999809E+01 0. -1.
       -4    1    3    3    0  502 -0.10463119781E+04 -0.16351025015E+04  0.12455537369E+04  0.23064550007E+04  0.12699999809E+01 0.  1.
</event>
<event>
 5   0  0.2587493E-08  0.3999974E+04  0.7818609E-02  0.8004552E-01
        2   -1    0    0  501    0  0.00000000000E+00  0.00000000000E+00  0.22596817777E+04  0.22596817777E+04  0.25500000920E-02 0. -1.
       -2   -1    0    0    0  501  0.00000000000E+00  0.00000000000E+00 -0.17701374191E+04  0.17701374191E+04  0.25500000920E-02 0.  1.
    10030    2    1    2    0    0  0.00000000000E+00  0.00000000000E+00  0.48954435857E+03  0.40298191969E+04  0.39999736350E+04 0.  0.
        5    1    3    3  502    0  0.17928153224E+04 -0.84754121146E+03 -0.16803877285E+02  0.19831332143E+04  0.46999998093E+01 0. -1.
       -5    1    3    3    0  502 -0.17928153224E+04  0.84754121146E+03  0.50634823586E+03  0.20466859826E+04  0.46999998093E+01 0.  1.
</event>
<event>
 5   0  0.2746876E-08  0.4007365E+04  0.7818609E-02  0.8003062E-01
       -2   -1    0    0    0  501  0.00000000000E+00  0.00000000000E+00  0.17936138065E+04  0.17936138065E+04  0.25500000920E-02 0.  1.
        2   -1    0    0  501    0  0.00000000000E+00  0.00000000000E+00 -0.22383543960E+04  0.22383543960E+04  0.25500000920E-02 0. -1.
    10030    2    1    2    0    0  0.00000000000E+00  0.00000000000E+00 -0.44474058954E+03  0.40319682025E+04  0.40073648940E+04 0.  0.
        1    1    3    3  502    0 -0.14490200418E+04  0.12982601264E+04 -0.70448324298E+03  0.20691628929E+04  0.50400001928E-02 0.  1.
       -1    1    3    3    0  502  0.14490200418E+04 -0.12982601264E+04  0.25974265344E+03  0.19628053096E+04  0.50400001928E-02 0. -1.
</event>
<event>
 5   0  0.2587493E-08  0.3999101E+04  0.7818609E-02  0.8004728E-01
        2   -1    0    0  501    0  0.00000000000E+00  0.00000000000E+00  0.19610213293E+04  0.19610213293E+04  0.25500000920E-02 0.  1.
       -2   -1    0    0    0  501  0.00000000000E+00  0.00000000000E+00 -0.20388363717E+04  0.20388363717E+04  0.25500000920E-02 0. -1.
    10030    2    1    2    0    0  0.00000000000E+00  0.00000000000E+00 -0.77815042437E+02  0.39998577009E+04  0.39991007048E+04 0.  0.
        5    1    3    3  502    0 -0.17795628168E+04  0.64318720790E+03 -0.68528515622E+03  0.20125037736E+04  0.46999998093E+01 0. -1.
       -5    1    3    3    0  502  0.17795628168E+04 -0.64318720790E+03  0.60747011379E+03  0.19873539274E+04  0.46999998093E+01 0.  1.
</event>
<event>
 5   0  0.2746876E-08  0.4002119E+04  0.7818609E-02  0.8004119E-01
        2   -1    0    0  501    0  0.00000000000E+00  0.00000000000E+00  0.20854147012E+04  0.20854147012E+04  0.25500000920E-02 0.  1.
       -2   -1    0    0    0  501  0.00000000000E+00  0.00000000000E+00 -0.19201161549E+04  0.19201161549E+04  0.25500000920E-02 0. -1.
    10030    2    1    2    0    0  0.00000000000E+00  0.00000000000E+00  0.16529854624E+03  0.40055308561E+04  0.40021186676E+04 0.  0.
        1    1    3    3  502    0 -0.31202678397E+03  0.90797683816E+03  0.18398385690E+04  0.20752803696E+04  0.50400001928E-02 0.  1.
       -1    1    3    3    0  502  0.31202678397E+03 -0.90797683816E+03 -0.16745400228E+04  0.19302504864E+04  0.50400001928E-02 0. -1.
</event>
<event>
 5   0  0.8329875E-09  0.4000038E+04  0.7818609E-02  0.8004539E-01
       -1   -1    0    0    0  501  0.00000000000E+00  0.00000000000E+00  0.18440804971E+04  0.18440804971E+04  0.50400001928E-02 0.  1.
        1   -1    0    0  501    0  0.00000000000E+00  0.00000000000E+00 -0.21691435419E+04  0.21691435419E+04  0.50400001928E-02 0. -1.
    10030    2    1    2    0    0  0.00000000000E+00  0.00000000000E+00 -0.32506304480E+03  0.40132240390E+04  0.40000376503E+04 0.  0.
        4    1    3    3  502    0  0.63217124370E+03  0.49048128630E+03 -0.20015665513E+04  0.21555701440E+04  0.12699999809E+01 0. -1.
       -4    1    3    3    0  502 -0.63217124370E+03 -0.49048128630E+03  0.16765035065E+04  0.18576538950E+04  0.12699999809E+01 0.  1.
</event>
<event>
 5   0  0.8329875E-09  0.4001311E+04  0.7818609E-02  0.8004282E-01
       -1   -1    0    0    0  501  0.00000000000E+00  0.00000000000E+00  0.17368533351E+04  0.17368533351E+04  0.50400001928E-02 0.  1.
        1   -1    0    0  501    0  0.00000000000E+00  0.00000000000E+00 -0.23045251717E+04  0.23045251717E+04  0.50400001928E-02 0. -1.
    10030    2    1    2    0    0  0.00000000000E+00  0.00000000000E+00 -0.56767183662E+03  0.40413785068E+04  0.40013109003E+04 0.  0.
        3    1    3    3  502    0 -0.14738324481E+04 -0.48668746136E+03 -0.15588457847E+04  0.21997833896E+04  0.10100000352E+00 0. -1.
       -3    1    3    3    0  502  0.14738324481E+04  0.48668746136E+03  0.99117394810E+03  0.18415951172E+04  0.10100000352E+00 0.  1.
</event>
<event>
 5   0  0.2746876E-08  0.4007388E+04  0.7818609E-02  0.8003058E-01
       -2   -1    0    0    0  501  0.00000000000E+00  0.00000000000E+00  0.18895194800E+04  0.18895194800E+04  0.25500000920E-02 0. -1.
        2   -1    0    0  501    0  0.00000000000E+00  0.00000000000E+00 -0.21247673529E+04  0.21247673529E+04  0.25500000920E-02 0.  1.
    10030    2    1    2    0    0  0.00000000000E+00  0.00000000000E+00 -0.23524787289E+03  0.40142868329E+04  0.40073878294E+04 0.  0.
        1    1    3    3  502    0 -0.66310851719E+03  0.53945528704E+03  0.16976946654E+04  0.19007609237E+04  0.50400001928E-02 0. -1.
       -1    1    3    3    0  502  0.66310851719E+03 -0.53945528704E+03 -0.19329425383E+04  0.21135259091E+04  0.50400001928E-02 0.  1.
</event>
<event>
 5   0  0.8329875E-09  0.4001607E+04  0.7818609E-02  0.8004222E-01
        1   -1    0    0  501    0  0.00000000000E+00  0.00000000000E+00  0.20865121166E+04  0.20865121166E+04  0.50400001928E-02 0. -1.
       -1   -1    0    0    0  501  0.00000000000E+00  0.00000000000E+00 -0.19186153663E+04  0.19186153663E+04  0.50400001928E-02 0.  1.
    10030    2    1    2    0    0  0.00000000000E+00  0.00000000000E+00  0.16789675035E+03  0.40051274829E+04  0.40016067817E+04 0.  0.
        2    1    3    3  502    0  0.98369564420E+03 -0.27430558507E+03  0.18060183282E+04  0.20747536905E+04  0.25500000920E-02 0. -1.
       -2    1    3    3    0  502 -0.98369564420E+03  0.27430558507E+03 -0.16381215779E+04  0.19303737924E+04  0.25500000920E-02 0.  1.
</event>
<event>
 5   0  0.2599332E-08  0.4008713E+04  0.7818609E-02  0.8002791E-01
        2   -1    0    0  501    0  0.00000000000E+00  0.00000000000E+00  0.20634211756E+04  0.20634211756E+04  0.25500000920E-02 0. -1.
       -2   -1    0    0    0  501  0.00000000000E+00  0.00000000000E+00 -0.19469829581E+04  0.19469829581E+04  0.25500000920E-02 0.  1.
    10030    2    1    2    0    0  0.00000000000E+00  0.00000000000E+00  0.11643821741E+03  0.40104041337E+04  0.40087134416E+04 0.  0.
        2    1    3    3  502    0 -0.17093678888E+04 -0.26010045786E+03 -0.95604033745E+03  0.19757540217E+04  0.25500000920E-02 0.  1.
       -2    1    3    3    0  502  0.17093678888E+04  0.26010045786E+03  0.10724785549E+04  0.20346501120E+04  0.25500000920E-02 0. -1.
</event>
<event>
 5   0  0.8329875E-09  0.4001625E+04  0.7818609E-02  0.8004219E-01
        1   -1    0    0  501    0  0.00000000000E+00  0.00000000000E+00  0.21432211711E+04  0.21432211711E+04  0.50400001928E-02 0. -1.
       -1   -1    0    0    0  501  0.00000000000E+00  0.00000000000E+00 -0.18678659769E+04  0.18678659769E+04  0.50400001928E-02 0.  1.
    10030    2    1    2    0    0  0.00000000000E+00  0.00000000000E+00  0.27535519418E+03  0.40110871480E+04  0.40016246233E+04 0.  0.
        4    1    3    3  502    0 -0.18372161600E+04  0.78843241192E+03  0.58374100385E+02  0.20000995064E+04  0.12699999809E+01 0. -1.
       -4    1    3    3    0  502  0.18372161600E+04 -0.78843241192E+03  0.21698109380E+03  0.20109876417E+04  0.12699999809E+01 0.  1.
</event>
<event>
 5   0  0.2587493E-08  0.4000114E+04  0.7818609E-02  0.8004524E-01
       -2   -1    0    0    0  501  0.00000000000E+00  0.00000000000E+00  0.15042704008E+04  0.15042704008E+04  0.25500000920E-02 0.  1.
        2   -1    0    0  501    0  0.00000000000E+00  0.00000000000E+00 -0.26592483028E+04  0.26592483028E+04  0.25500000920E-02 0. -1.
    10030    2    1    2    0    0  0.00000000000E+00  0.00000000000E+00 -0.11549779020E+04  0.41635187036E+04  0.40001142536E+04 0.  0.
        5    1    3    3  502    0  0.16697304741E+04 -0.67099321029E+03 -0.14860589512E+04  0.23338005572E+04  0.46999998093E+01 0.  1.
       -5    1    3    3    0  502 -0.16697304741E+04  0.67099321029E+03  0.33108104923E+03  0.18297181465E+04  0.46999998093E+01 0. -1.
</event>
<event>
 5   0  0.8329875E-09  0.3998007E+04  0.7818609E-02  0.8004949E-01
        1   -1    0    0  501    0  0.00000000000E+00  0.00000000000E+00  0.14643617928E+04  0.14643617928E+04  0.50400001928E-02 0.  1.
       -1   -1    0    0    0  501  0.00000000000E+00  0.00000000000E+00 -0.27288442716E+04  0.27288442716E+04  0.50400001928E-02 0. -1.
    10030    2    1    2    0    0  0.00000000000E+00  0.00000000000E+00 -0.12644824788E+04  0.41932060645E+04  0.39980071485E+04 0.  0.
        1    1    3    3  502    0  0.50624671218E+03  0.88522653039E+03  0.11710358297E+04  0.15528157193E+04  0.50400001928E-02 0.  1.
       -1    1    3    3    0  502 -0.50624671218E+03 -0.88522653039E+03 -0.24355183085E+04  0.26403903451E+04  0.50400001928E-02 0. -1.
</event>
<event>
 5   0  0.2746876E-08  0.3999937E+04  0.7818609E-02  0.8004559E-01
        2   -1    0    0  501    0  0.00000000000E+00  0.00000000000E+00  0.29615077172E+04  0.29615077172E+04  0.25500000920E-02 0.  1.
       -2   -1    0    0    0  501  0.00000000000E+00  0.00000000000E+00 -0.13506208932E+04  0.13506208932E+04  0.25500000920E-02 0. -1.
    10030    2    1    2    0    0  0.00000000000E+00  0.00000000000E+00  0.16108868240E+04  0.43121286105E+04  0.39999370987E+04 0.  0.
        1    1    3    3  502    0 -0.22669877997E+03 -0.18137697620E+04  0.16804057001E+04  0.24829249693E+04  0.50400001928E-02 0. -1.
       -1    1    3    3    0  502  0.22669877997E+03  0.18137697620E+04 -0.69518876039E+02  0.18292036411E+04  0.50400001928E-02 0.  1.
</event>
<event>
 5   0  0.8329875E-09  0.3992877E+04  0.7818609E-02  0.8005985E-01
       -1   -1    0    0    0  501  0.00000000000E+00  0.00000000000E+00  0.21097520894E+04  0.21097520894E+04  0.50400001928E-02 0.  1.
        1   -1    0    0  501    0  0.00000000000E+00  0.00000000000E+00 -0.18892109118E+04  0.18892109118E+04  0.50400001928E-02 0. -1.
    10030    2    1    2    0    0  0.00000000000E+00  0.00000000000E+00  0.22054117757E+03  0.39989630012E+04  0.39928769921E+04 0.  0.
        2    1    3    3  502    0 -0.25060220923E+02  0.39964312094E+03  0.20691208807E+04  0.21075112948E+04  0.25500000920E-02 0.  1.
       -2    1    3    3    0  502  0.25060220923E+02 -0.39964312094E+03 -0.18485797031E+04  0.18914517064E+04  0.25500000920E-02 0. -1.
</event>
<event>
 5   0  0.8329875E-09  0.4001036E+04  0.7818609E-02  0.8004338E-01
       -1   -1    0    0    0  501  0.00000000000E+00  0.00000000000E+00  0.14744130079E+04  0.14744130080E+04  0.50400001928E-02 0.  1.
        1   -1    0    0  501    0  0.00000000000E+00  0.00000000000E+00 -0.27143499669E+04  0.27143499669E+04  0.50400001928E-02 0. -1.
    10030    2    1    2    0    0  0.00000000000E+00  0.00000000000E+00 -0.12399369590E+04  0.41887629749E+04  0.40010363154E+04 0.  0.
        2    1    3    3  502    0 -0.11447014127E+03 -0.18989060110E+04 -0.12679815896E+04  0.22862031326E+04  0.25500000920E-02 0.  1.
       -2    1    3    3    0  502  0.11447014127E+03  0.18989060110E+04  0.28044630668E+02  0.19025598422E+04  0.25500000920E-02 0. -1.
</event>
<event>
 5   0  0.8329875E-09  0.3977075E+04  0.7818609E-02  0.8009187E-01
       -1   -1    0    0    0  501  0.00000000000E+00  0.00000000000E+00  0.18762139845E+04  0.18762139845E+04  0.50400001928E-02 0.  1.
        1   -1    0    0  501    0  0.00000000000E+00  0.00000000000E+00 -0.21075849962E+04  0.21075849962E+04  0.50400001928E-02 0. -1.
    10030    2    1    2    0    0  0.00000000000E+00  0.00000000000E+00 -0.23137101175E+03  0.39837989807E+04  0.39770745245E+04 0.  0.
        5    1    3    3  502    0 -0.93232104263E+02 -0.10527375601E+04 -0.18029651337E+04  0.20898932889E+04  0.46999998093E+01 0. -1.
       -5    1    3    3    0  502  0.93232104263E+02  0.10527375601E+04  0.15715941219E+04  0.18939056919E+04  0.46999998093E+01 0.  1.
</event>
<event>
 5   0  0.8329875E-09  0.3969055E+04  0.7818609E-02  0.8010818E-01
       -1   -1    0    0    0  501  0.00000000000E+00  0.00000000000E+00  0.18199097932E+04  0.18199097933E+04  0.50400001928E-02 0. -1.
        1   -1    0    0  501    0  0.00000000000E+00  0.00000000000E+00 -0.21640354081E+04  0.21640354081E+04  0.50400001928E-02 0.  1.
    10030    2    1    2    0    0  0.00000000000E+00  0.00000000000E+00 -0.34412561489E+03  0.39839452014E+04  0.39690549163E+04 0.  0.
        5    1    3    3  502    0 -0.11134586594E+04  0.10078359715E+04  0.11300330758E+04  0.18795000330E+04  0.46999998093E+01 0. -1.
       -5    1    3    3    0  502  0.11134586594E+04 -0.10078359715E+04 -0.14741586907E+04  0.21044451684E+04  0.46999998093E+01 0.  1.
</event>
<event>
 5   0  0.8329875E-09  0.4046068E+04  0.7818609E-02  0.7995317E-01
       -1   -1    0    0    0  501  0.00000000000E+00  0.00000000000E+00  0.27364851714E+04  0.27364851714E+04  0.50400001928E-02 0.  1.
        1   -1    0    0  501    0  0.00000000000E+00  0.00000000000E+00 -0.14955923444E+04  0.14955923444E+04  0.50400001928E-02 0. -1.
    10030    2    1    2    0    0  0.00000000000E+00  0.00000000000E+00  0.12408928270E+04  0.42320775158E+04  0.40460678555E+04 0.  0.
        4    1    3    3  502    0 -0.14408362700E+04 -0.77574941437E+03  0.18646128105E+04  0.24808423684E+04  0.12699999809E+01 0. -1.
       -4    1    3    3    0  502  0.14408362700E+04  0.77574941437E+03 -0.62371998342E+03  0.17512351474E+04  0.12699999809E+01 0.  1.
</event>
<event>
 5   0  0.2612363E-08  0.4009365E+04  0.7818609E-02  0.8002660E-01
       -2   -1    0    0    0  501  0.00000000000E+00  0.00000000000E+00  0.16127212324E+04  0.16127212324E+04  0.25500000920E-02 0.  1.
        2   -1    0    0  501    0  0.00000000000E+00  0.00000000000E+00 -0.24919070039E+04  0.24919070039E+04  0.25500000920E-02 0. -1.
    10030    2    1    2    0    0  0.00000000000E+00  0.00000000000E+00 -0.87918577155E+03  0.41046282363E+04  0.40093647049E+04 0.  0.
        4    1    3    3  502    0 -0.16427004739E+04  0.98963160923E+03  0.15815876038E+03  0.19242794431E+04  0.12699999809E+01 0. -1.
       -4    1    3    3    0  502  0.16427004739E+04 -0.98963160923E+03 -0.10373445319E+04  0.21803487931E+04  0.12699999809E+01 0.  1.
</event>
<event>
 5   0  0.2746876E-08  0.4006592E+04  0.7818609E-02  0.8003218E-01
        2   -1    0    0  501    0  0.00000000000E+00  0.00000000000E+00  0.20884836355E+04  0.20884836355E+04  0.25500000920E-02 0.  1.
       -2   -1    0    0    0  501  0.00000000000E+00  0.00000000000E+00 -0.19215831320E+04  0.19215831320E+04  0.25500000920E-02 0. -1.
    10030    2    1    2    0    0  0.00000000000E+00  0.00000000000E+00  0.16690050354E+03  0.40100667675E+04  0.40065920308E+04 0.  0.
        1    1    3    3  502    0  0.17000858427E+04  0.71953365877E+03  0.86205445340E+03  0.20374391866E+04  0.50400001928E-02 0.  1.
       -1    1    3    3    0  502 -0.17000858427E+04 -0.71953365877E+03 -0.69515394986E+03  0.19726275808E+04  0.50400001928E-02 0. -1.
</event>
<event>
 5   0  0.2587493E-08  0.4004565E+04  0.7818609E-02  0.8003626E-01
       -2   -1    0    0    0  501  0.00000000000E+00  0.00000000000E+00  0.15175850423E+04  0.15175850423E+04  0.25500000920E-02 0. -1.
        2   -1    0    0  501    0  0.00000000000E+00  0.00000000000E+00 -0.26417860655E+04  0.26417860655E+04  0.25500000920E-02 0.  1.
    10030    2    1    2    0    0  0.00000000000E+00  0.00000000000E+00 -0.11242010233E+04  0.41593711078E+04  0.40045649042E+04 0.  0.
        5    1    3    3  502    0 -0.58926239766E+03  0.15771264703E+04 -0.16877650515E+04  0.23839318437E+04  0.46999998093E+01 0.  1.
       -5    1    3    3    0  502  0.58926239766E+03 -0.15771264703E+04  0.56356402820E+03  0.17754392641E+04  0.46999998093E+01 0. -1.
</event>
<event>
 5   0  0.2599332E-08  0.3978489E+04  0.7818609E-02  0.8008900E-01
        2   -1    0    0  501    0  0.00000000000E+00  0.00000000000E+00  0.30119121639E+04  0.30119121639E+04  0.25500000920E-02 0.  1.
       -2   -1    0    0    0  501  0.00000000000E+00  0.00000000000E+00 -0.13138146011E+04  0.13138146011E+04  0.25500000920E-02 0. -1.
    10030    2    1    2    0    0  0.00000000000E+00  0.00000000000E+00  0.16980975628E+04  0.43257267650E+04  0.39784892501E+04 0.  0.
        2    1    3    3  502    0 -0.60840142856E+03 -0.36447249875E+03 -0.11716819840E+04  0.13696098614E+04  0.25500000920E-02 0. -1.
       -2    1    3    3    0  502  0.60840142856E+03  0.36447249875E+03  0.28697795469E+04  0.29561169037E+04  0.25500000920E-02 0.  1.
</event>
<event>
 5   0  0.8329875E-09  0.4000797E+04  0.7818609E-02  0.8004386E-01
        1   -1    0    0  501    0  0.00000000000E+00  0.00000000000E+00  0.25936761422E+04  0.25936761422E+04  0.50400001928E-02 0. -1.
       -1   -1    0    0    0  501  0.00000000000E+00  0.00000000000E+00 -0.15428270745E+04  0.15428270745E+04  0.50400001928E-02 0.  1.
    10030    2    1    2    0    0  0.00000000000E+00  0.00000000000E+00  0.10508490676E+04  0.41365032167E+04  0.40007968080E+04 0.  0.
        2    1    3    3  502    0  0.43072359099E+03 -0.11370850998E+02  0.25451285772E+04  0.25813429804E+04  0.25500000920E-02 0. -1.
       -2    1    3    3    0  502 -0.43072359099E+03  0.11370850998E+02 -0.14942795095E+04  0.15551602363E+04  0.25500000920E-02 0.  1.
</event>
<event>
 5   0  0.8329875E-09  0.3999784E+04  0.7818609E-02  0.8004590E-01
        1   -1    0    0  501    0  0.00000000000E+00  0.00000000000E+00  0.16476692421E+04  0.16476692422E+04  0.50400001928E-02 0.  1.
       -1   -1    0    0    0  501  0.00000000000E+00  0.00000000000E+00 -0.24274096818E+04  0.24274096818E+04  0.50400001928E-02 0. -1.
    10030    2    1    2    0    0  0.00000000000E+00  0.00000000000E+00 -0.77974043968E+03  0.40750789240E+04  0.39997841296E+04 0.  0.
        1    1    3    3  502    0  0.27779804963E+02  0.79007662737E+03  0.14817125766E+04  0.16794239948E+04  0.50400001928E-02 0.  1.
       -1    1    3    3    0  502 -0.27779804963E+02 -0.79007662737E+03 -0.22614530163E+04  0.23956549292E+04  0.50400001928E-02 0. -1.
</event>
<event>
 5   0  0.2587493E-08  0.4000027E+04  0.7818609E-02  0.8004541E-01
       -2   -1    0    0    0  501  0.00000000000E+00  0.00000000000E+00  0.20649581495E+04  0.20649581495E+04  0.25500000920E-02 0.  1.
        2   -1    0    0  501    0  0.00000000000E+00  0.00000000000E+00 -0.19371109416E+04  0.19371109416E+04  0.25500000920E-02 0. -1.
    10030    2    1    2    0    0  0.00000000000E+00  0.00000000000E+00  0.12784720790E+03  0.40020690911E+04  0.40000265125E+04 0.  0.
        5    1    3    3  502    0  0.16108443401E+04 -0.60321000106E+03 -0.95706264719E+03  0.19684188564E+04  0.46999998093E+01 0. -1.
       -5    1    3    3    0  502 -0.16108443401E+04  0.60321000106E+03  0.10849098551E+04  0.20336502347E+04  0.46999998093E+01 0.  1.
</event>
<event>
 5   0  0.2746876E-08  0.4032475E+04  0.7818609E-02  0.7998027E-01
        2   -1    0    0  501    0  0.00000000000E+00  0.00000000000E+00  0.14035891024E+04  0.14035891024E+04  0.25500000920E-02 0. -1.
       -2   -1    0    0    0  501  0.00000000000E+00  0.00000000000E+00 -0.28962995852E+04  0.28962995852E+04  0.25500000920E-02 0.  1.
    10030    2    1    2    0    0  0.00000000000E+00  0.00000000000E+00 -0.14927104828E+04  0.42998886877E+04  0.40324754359E+04 0.  0.
        1    1    3    3  502    0  0.86986556437E+03  0.64613642830E+02 -0.26846956456E+04  0.28228410746E+04  0.50400001928E-02 0.  1.
       -1    1    3    3    0  502 -0.86986556437E+03 -0.64613642830E+02  0.11919851628E+04  0.14770476131E+04  0.50400001928E-02 0. -1.
</event>
<event>
 5   0  0.8329875E-09  0.4006451E+04  0.7818609E-02  0.8003246E-01
        3   -1    0    0  501    0  0.00000000000E+00  0.00000000000E+00  0.14673055198E+04  0.14673055232E+04  0.10100000352E+00 0.  1.
       -3   -1    0    0    0  501  0.00000000000E+00  0.00000000000E+00 -0.27348853684E+04  0.27348853703E+04  0.10100000352E+00 0. -1.
    10030    2    1    2    0    0  0.00000000000E+00  0.00000000000E+00 -0.12675798486E+04  0.42021908935E+04  0.40064510022E+04 0.  0.
        3    1    3    3  502    0 -0.16063173172E+04 -0.11947896203E+04 -0.70894863117E+03  0.21237668733E+04  0.10100000352E+00 0.  1.
       -3    1    3    3    0  502  0.16063173172E+04  0.11947896203E+04 -0.55863121746E+03  0.20784240202E+04  0.10100000352E+00 0. -1.
</event>
<event>
 5   0  0.8329875E-09  0.3996191E+04  0.7818609E-02  0.8005315E-01
       -1   -1    0    0    0  501  0.00000000000E+00  0.00000000000E+00  0.25993937387E+04  0.25993937387E+04  0.50400001928E-02 0. -1.
        1   -1    0    0  501    0  0.00000000000E+00  0.00000000000E+00 -0.15358908615E+04  0.15358908616E+04  0.50400001928E-02 0.  1.
    10030    2    1    2    0    0  0.00000000000E+00  0.00000000000E+00  0.10635028771E+04  0.41352846003E+04  0.39961907306E+04 0.  0.
        3    1    3    3  502    0 -0.21342577230E+03  0.50551418291E+03  0.25198974439E+04  0.25789490665E+04  0.10100000352E+00 0. -1.
       -3    1    3    3    0  502  0.21342577230E+03 -0.50551418291E+03 -0.14563945668E+04  0.15563355338E+04  0.10100000352E+00 0.  1.
</event>
<event>
 5   0  0.2587493E-08  0.3999231E+04  0.7818609E-02  0.8004702E-01
       -2   -1    0    0    0  501  0.00000000000E+00  0.00000000000E+00  0.27657337022E+04  0.27657337022E+04  0.25500000920E-02 0. -1.
        2   -1    0    0  501    0  0.00000000000E+00  0.00000000000E+00 -0.14457150623E+04  0.14457150623E+04  0.25500000920E-02 0.  1.
    10030    2    1    2    0    0  0.00000000000E+00  0.00000000000E+00  0.13200186399E+04  0.42114487646E+04  0.39992313620E+04 0.  0.
        5    1    3    3  502    0  0.50944918053E+03  0.45209676922E+02  0.26956837089E+04  0.27437775294E+04  0.46999998093E+01 0. -1.
       -5    1    3    3    0  502 -0.50944918053E+03 -0.45209676922E+02 -0.13756650690E+04  0.14676712352E+04  0.46999998093E+01 0.  1.
</event>
<event>
 5   0  0.8329875E-09  0.3991543E+04  0.7818609E-02  0.8006255E-01
        1   -1    0    0  501    0  0.00000000000E+00  0.00000000000E+00  0.23161389197E+04  0.23161389197E+04  0.50400001928E-02 0.  1.
       -1   -1    0    0    0  501  0.00000000000E+00  0.00000000000E+00 -0.17197173827E+04  0.17197173827E+04  0.50400001928E-02 0. -1.
    10030    2    1    2    0    0  0.00000000000E+00  0.00000000000E+00  0.59642153703E+03  0.40358563024E+04  0.39915432409E+04 0.  0.
        3    1    3    3  502    0  0.19684777377E+04  0.26984806860E+03  0.48839942666E+03  0.20460343580E+04  0.10100000352E+00 0. -1.
       -3    1    3    3    0  502 -0.19684777377E+04 -0.26984806860E+03  0.10802211037E+03  0.19898219444E+04  0.10100000352E+00 0.  1.
</event>
<event>
 5   0  0.2650452E-08  0.4001410E+04  0.7818609E-02  0.8004262E-01
       -2   -1    0    0    0  501  0.00000000000E+00  0.00000000000E+00  0.26570390729E+04  0.26570390729E+04  0.25500000920E-02 0. -1.
        2   -1    0    0  501    0  0.00000000000E+00  0.00000000000E+00 -0.15064966539E+04  0.15064966539E+04  0.25500000920E-02 0.  1.
    10030    2    1    2    0    0  0.00000000000E+00  0.00000000000E+00  0.11505424190E+04  0.41635357268E+04  0.40014099878E+04 0.  0.
        3    1    3    3  502    0  0.15444174383E+04 -0.69771525657E+03  0.16817420316E+04  0.23875276070E+04  0.10100000352E+00 0. -1.
       -3    1    3    3    0  502 -0.15444174383E+04  0.69771525657E+03 -0.53119961263E+03  0.17760081198E+04  0.10100000352E+00 0.  1.
</event>
<event>
 5   0  0.8329875E-09  0.3987839E+04  0.7818609E-02  0.8007004E-01
        1   -1    0    0  501    0  0.00000000000E+00  0.00000000000E+00  0.29885704536E+04  0.29885704536E+04  0.50400001928E-02 0. -1.
       -1   -1    0    0    0  501  0.00000000000E+00  0.00000000000E+00 -0.13303067280E+04  0.13303067280E+04  0.50400001928E-02 0.  1.
    10030    2    1    2    0    0  0.00000000000E+00  0.00000000000E+00  0.16582637256E+04  0.43188771816E+04  0.39878392052E+04 0.  0.
        2    1    3    3  502    0 -0.14803163226E+04 -0.12606316229E+04  0.35065766381E+03  0.19757250064E+04  0.25500000920E-02 0.  1.
       -2    1    3    3    0  502  0.14803163226E+04  0.12606316229E+04  0.13076060618E+04  0.23431521753E+04  0.25500000920E-02 0. -1.
</event>
<event>
 5   0  0.2746876E-08  0.3999773E+04  0.7818609E-02  0.8004592E-01
        2   -1    0    0  501    0  0.00000000000E+00  0.00000000000E+00  0.25361884297E+04  0.25361884297E+04  0.25500000920E-02 0.  1.
       -2   -1    0    0    0  501  0.00000000000E+00  0.00000000000E+00 -0.15769908028E+04  0.15769908028E+04  0.25500000920E-02 0. -1.
    10030    2    1    2    0    0  0.00000000000E+00  0.00000000000E+00  0.95919762697E+03  0.41131792325E+04  0.39997729074E+04 0.  0.
        1    1    3    3  502    0 -0.17456838723E+03  0.16196206894E+04 -0.71342409152E+03  0.17783754479E+04  0.50400001928E-02 0. -1.
       -1    1    3    3    0  502  0.17456838723E+03 -0.16196206894E+04  0.16726217185E+04  0.23348037846E+04  0.50400001928E-02 0.  1.
</event>
<event>
 5   0  0.8329875E-09  0.3997075E+04  0.7818609E-02  0.8005137E-01
       -1   -1    0    0    0  501  0.00000000000E+00  0.00000000000E+00  0.13299291805E+04  0.13299291805E+04  0.50400001928E-02 0.  1.
        1   -1    0    0  501    0  0.00000000000E+00  0.00000000000E+00 -0.30032813139E+04  0.30032813140E+04  0.50400001928E-02 0. -1.
    10030    2    1    2    0    0  0.00000000000E+00  0.00000000000E+00 -0.16733521334E+04  0.43332104945E+04  0.39970746587E+04 0.  0.
        2    1    3    3  502    0 -0.10583741751E+04 -0.14492468055E+04  0.11688388550E+03  0.17983698286E+04  0.25500000920E-02 0. -1.
       -2    1    3    3    0  502  0.10583741751E+04  0.14492468055E+04 -0.17902360189E+04  0.25348406659E+04  0.25500000920E-02 0.  1.
</event>
<event>
 5   0  0.2612363E-08  0.4003369E+04  0.7818609E-02  0.8003867E-01
        2   -1    0    0  501    0  0.00000000000E+00  0.00000000000E+00  0.24030678418E+04  0.24030678418E+04  0.25500000920E-02 0.  1.
       -2   -1    0    0    0  501  0.00000000000E+00  0.00000000000E+00 -0.16673441285E+04  0.16673441285E+04  0.25500000920E-02 0. -1.
    10030    2    1    2    0    0  0.00000000000E+00  0.00000000000E+00  0.73572371329E+03  0.40704119704E+04  0.40033691094E+04 0.  0.
        4    1    3    3  502    0 -0.10787420413E+04 -0.69010545799E+03 -0.11963457221E+04  0.17524767144E+04  0.12699999809E+01 0. -1.
       -4    1    3    3    0  502  0.10787420413E+04  0.69010545799E+03  0.19320694354E+04  0.23179352560E+04  0.12699999809E+01 0.  1.
</event>
<event>
 5   0  0.8329875E-09  0.3999739E+04  0.7818609E-02  0.8004599E-01
       -1   -1    0    0    0  501  0.00000000000E+00  0.00000000000E+00  0.21464085645E+04  0.21464085645E+04  0.50400001928E-02 0. -1.
        1   -1    0    0  501    0  0.00000000000E+00  0.00000000000E+00 -0.18633353651E+04  0.18633353651E+04  0.50400001928E-02 0.  1.
    10030    2    1    2    0    0  0.00000000000E+00  0.00000000000E+00  0.28307319945E+03  0.40097439296E+04  0.39997394846E+04 0.  0.
        4    1    3    3  502    0  0.55027119969E+03  0.11335869200E+04  0.16983728812E+04  0.21147788903E+04  0.12699999809E+01 0. -1.
       -4    1    3    3    0  502 -0.55027119969E+03 -0.11335869200E+04 -0.14152996817E+04  0.18949650393E+04  0.12699999809E+01 0.  1.
</event>
<event>
 5   0  0.8329875E-09  0.3988966E+04  0.7818609E-02  0.8006776E-01
       -1   -1    0    0    0  501  0.00000000000E+00  0.00000000000E+00  0.21214400213E+04  0.21214400213E+04  0.50400001928E-02 0.  1.
        1   -1    0    0  501    0  0.00000000000E+00  0.00000000000E+00 -0.18751235373E+04  0.18751235373E+04  0.50400001928E-02 0. -1.
    10030    2    1    2    0    0  0.00000000000E+00  0.00000000000E+00  0.24631648404E+03  0.39965635586E+04  0.39889658394E+04 0.  0.
        2    1    3    3  502    0 -0.18100504148E+04 -0.45528714282E+03 -0.58131201959E+03  0.19548638190E+04  0.25500000920E-02 0. -1.
       -2    1    3    3    0  502  0.18100504148E+04  0.45528714282E+03  0.82762850362E+03  0.20416997396E+04  0.25500000920E-02 0.  1.
</event>
<event>
 5   0  0.8329875E-09  0.3996643E+04  0.7818609E-02  0.8005224E-01
       -1   -1    0    0    0  501  0.00000000000E+00  0.00000000000E+00  0.16147250605E+04  0.16147250605E+04  0.50400001928E-02 0. -1.
        1   -1    0    0  501    0  0.00000000000E+00  0.00000000000E+00 -0.24730455455E+04  0.24730455455E+04  0.50400001928E-02 0.  1.
    10030    2    1    2    0    0  0.00000000000E+00  0.00000000000E+00 -0.85832048500E+03  0.40877706061E+04  0.39966429004E+04 0.  0.
        5    1    3    3  502    0  0.11941177104E+04  0.45545694597E+03  0.11420660685E+04  0.17139705746E+04  0.46999998093E+01 0. -1.
       -5    1    3    3    0  502 -0.11941177104E+04 -0.45545694597E+03 -0.20003865535E+04  0.23738000315E+04  0.46999998093E+01 0.  1.
</event>
<event>
 5   0  0.8329875E-09  0.4002808E+04  0.7818609E-02  0.8003980E-01
        1   -1    0    0  501    0  0.00000000000E+00  0.00000000000E+00  0.32863488876E+04  0.32863488876E+04  0.50400001928E-02 0. -1.
       -1   -1    0    0    0  501  0.00000000000E+00  0.00000000000E+00 -0.12188658048E+04  0.12188658048E+04  0.50400001928E-02 0.  1.
    10030    2    1    2    0    0  0.00000000000E+00  0.00000000000E+00  0.20674830828E+04  0.45052146924E+04  0.40028081551E+04 0.  0.
        2    1    3    3  502    0 -0.32613417978E+02  0.93355353612E+03  0.30259425783E+04  0.31668461167E+04  0.25500000920E-02 0. -1.
       -2    1    3    3    0  502  0.32613417978E+02 -0.93355353612E+03 -0.95845949551E+03  0.13383685757E+04  0.25500000920E-02 0.  1.
</event>
<event>
 5   0  0.8329875E-09  0.4035766E+04  0.7818609E-02  0.7997370E-01
        1   -1    0    0  501    0  0.00000000000E+00  0.00000000000E+00  0.26342567660E+04  0.26342567660E+04  0.50400001928E-02 0.  1.
       -1   -1    0    0    0  501  0.00000000000E+00  0.00000000000E+00 -0.15457304589E+04  0.15457304589E+04  0.50400001928E-02 0. -1.
    10030    2    1    2    0    0  0.00000000000E+00  0.00000000000E+00  0.10885263071E+04  0.41799872249E+04  0.40357655629E+04 0.  0.
        3    1    3    3  502    0  0.21486987437E+03 -0.11076365948E+04 -0.11884901797E+04  0.16387607532E+04  0.10100000352E+00 0. -1.
       -3    1    3    3    0  502 -0.21486987437E+03  0.11076365948E+04  0.22770164868E+04  0.25412264716E+04  0.10100000352E+00 0.  1.
</event>
<event>
 5   0  0.8329875E-09  0.4004537E+04  0.7818609E-02  0.8003632E-01
        1   -1    0    0  501    0  0.00000000000E+00  0.00000000000E+00  0.27129621214E+04  0.27129621214E+04  0.50400001928E-02 0. -1.
       -1   -1    0    0    0  501  0.00000000000E+00  0.00000000000E+00 -0.14777494262E+04  0.14777494262E+04  0.50400001928E-02 0.  1.
    10030    2    1    2    0    0  0.00000000000E+00  0.00000000000E+00  0.12352126952E+04  0.41907115476E+04  0.40045365365E+04 0.  0.
        5    1    3    3  502    0  0.92226048521E+03  0.14235961449E+04  0.17309595586E+04  0.24235167567E+04  0.46999998093E+01 0. -1.
       -5    1    3    3    0  502 -0.92226048521E+03 -0.14235961449E+04 -0.49574686342E+03  0.17671947909E+04  0.46999998093E+01 0.  1.
</event>
<event>
 5   0  0.8329875E-09  0.3995685E+04  0.7818609E-02  0.8005418E-01
       -1   -1    0    0    0  501  0.00000000000E+00  0.00000000000E+00  0.17792009882E+04  0.17792009882E+04  0.50400001928E-02 0.  1.
        1   -1    0    0  501    0  0.00000000000E+00  0.00000000000E+00 -0.22433527626E+04  0.22433527626E+04  0.50400001928E-02 0. -1.
    10030    2    1    2    0    0  0.00000000000E+00  0.00000000000E+00 -0.46415177435E+03  0.40225537508E+04  0.39956853991E+04 0.  0.
        5    1    3    3  502    0  0.44095678445E+03 -0.51460654573E+03  0.16599474354E+04  0.17929613384E+04  0.46999998093E+01 0.  1.
       -5    1    3    3    0  502 -0.44095678445E+03  0.51460654573E+03 -0.21240992097E+04  0.22295924124E+04  0.46999998093E+01 0. -1.
</event>
<event>
 5   0  0.8329875E-09  0.4000671E+04  0.7818609E-02  0.8004411E-01
        1   -1    0    0  501    0  0.00000000000E+00  0.00000000000E+00  0.25623219808E+04  0.25623219808E+04  0.50400001928E-02 0. -1.
       -1   -1    0    0    0  501  0.00000000000E+00  0.00000000000E+00 -0.15616078724E+04  0.15616078724E+04  0.50400001928E-02 0.  1.
    10030    2    1    2    0    0  0.00000000000E+00  0.00000000000E+00  0.10007141085E+04  0.41239298532E+04  0.40006710321E+04 0.  0.
        5    1    3    3  502    0  0.42441457337E+03 -0.17879350526E+04  0.13149448609E+04  0.22596330586E+04  0.46999998093E+01 0. -1.
       -5    1    3    3    0  502 -0.42441457337E+03  0.17879350526E+04 -0.31423075239E+03  0.18642967946E+04  0.46999998093E+01 0.  1.
</event>
<event>
 5   0  0.2612363E-08  0.4002312E+04  0.7818609E-02  0.8004080E-01
       -2   -1    0    0    0  501  0.00000000000E+00  0.00000000000E+00  0.19100580797E+04  0.19100580797E+04  0.25500000920E-02 0. -1.
        2   -1    0    0  501    0  0.00000000000E+00  0.00000000000E+00 -0.20965989345E+04  0.20965989345E+04  0.25500000920E-02 0.  1.
    10030    2    1    2    0    0  0.00000000000E+00  0.00000000000E+00 -0.18654085488E+03  0.40066570142E+04  0.40023121991E+04 0.  0.
        4    1    3    3  502    0 -0.18886075537E+03 -0.29924480076E+03 -0.20650299577E+04  0.20951291546E+04  0.12699999809E+01 0.  1.
       -4    1    3    3    0  502  0.18886075537E+03  0.29924480076E+03  0.18784891028E+04  0.19115278596E+04  0.12699999809E+01 0. -1.
</event>
<event>
 5   0  0.8329875E-09  0.3996937E+04  0.7818609E-02  0.8005165E-01
       -1   -1    0    0    0  501  0.00000000000E+00  0.00000000000E+00  0.15344186265E+04  0.15344186265E+04  0.50400001928E-02 0.  1.
        1   -1    0    0  501    0  0.00000000000E+00  0.00000000000E+00 -0.26028594733E+04  0.26028594733E+04  0.50400001928E-02 0. -1.
    10030    2    1    2    0    0  0.00000000000E+00  0.00000000000E+00 -0.10684408468E+04  0.41372780998E+04  0.39969368561E+04 0.  0.
        4    1    3    3  502    0  0.13590408921E+04  0.10513294892E+04 -0.15906378016E+04  0.23414559723E+04  0.12699999809E+01 0. -1.
       -4    1    3    3    0  502 -0.13590408921E+04 -0.10513294892E+04  0.52219695479E+03  0.17958221275E+04  0.12699999809E+01 0.  1.
</event>
<event>
 5   0  0.2650452E-08  0.3992057E+04  0.7818609E-02  0.8006151E-01
       -2   -1    0    0    0  501  0.00000000000E+00  0.00000000000E+00  0.25992277161E+04  0.25992277161E+04  0.25500000920E-02 0.  1.
        2   -1    0    0  501    0  0.00000000000E+00  0.00000000000E+00 -0.15328131588E+04  0.15328131588E+04  0.25500000920E-02 0. -1.
    10030    2    1    2    0    0  0.00000000000E+00  0.00000000000E+00  0.10664145573E+04  0.41320408748E+04  0.39920573372E+04 0.  0.
        3    1    3    3  502    0 -0.11709699965E+04 -0.15079558030E+04 -0.69472003672E+02  0.19104784233E+04  0.10100000352E+00 0.  1.
       -3    1    3    3    0  502  0.11709699965E+04  0.15079558030E+04  0.11358865610E+04  0.22215624515E+04  0.10100000352E+00 0. -1.
</event>
<event>
 5   0  0.2746876E-08  0.3999170E+04  0.7818609E-02  0.8004714E-01
       -2   -1    0    0    0  501  0.00000000000E+00  0.00000000000E+00  0.22534255668E+04  0.22534255668E+04  0.25500000920E-02 0. -1.
        2   -1    0    0  501    0  0.00000000000E+00  0.00000000000E+00 -0.17743385721E+04  0.17743385721E+04  0.25500000920E-02 0.  1.
    10030    2    1    2    0    0  0.00000000000E+00  0.00000000000E+00  0.47908699475E+03  0.40277641389E+04  0.39991698652E+04 0.  0.
        1    1    3    3  502    0 -0.32268056075E+03  0.43518401236E+03  0.21780998991E+04  0.22444658695E+04  0.50400001928E-02 0. -1.
       -1    1    3    3    0  502  0.32268056075E+03 -0.43518401236E+03 -0.16990129043E+04  0.17832982695E+04  0.50400001928E-02 0.  1.
</event>
<event>
 5   0  0.8329875E-09  0.4005667E+04  0.7818609E-02  0.8003404E-01
        1   -1    0    0  501    0  0.00000000000E+00  0.00000000000E+00  0.15994976140E+04  0.15994976140E+04  0.50400001928E-02 0. -1.
       -1   -1    0    0    0  501  0.00000000000E+00  0.00000000000E+00 -0.25078763613E+04  0.25078763613E+04  0.50400001928E-02 0.  1.
    10030    2    1    2    0    0  0.00000000000E+00  0.00000000000E+00 -0.90837874730E+03  0.41073739753E+04  0.40056671135E+04 0.  0.
        4    1    3    3  502    0  0.19758887986E+04  0.32155562371E+03 -0.51744924946E+03  0.20676774173E+04  0.12699999809E+01 0.  1.
       -4    1    3    3    0  502 -0.19758887986E+04 -0.32155562371E+03 -0.39092949784E+03  0.20396965580E+04  0.12699999809E+01 0. -1.
</event>
<event>
 5   0  0.2746876E-08  0.3993693E+04  0.7818609E-02  0.8005820E-01
       -2   -1    0    0    0  501  0.00000000000E+00  0.00000000000E+00  0.19984355015E+04  0.19984355015E+04  0.25500000920E-02 0.  1.
        2   -1    0    0  501    0  0.00000000000E+00  0.00000000000E+00 -0.19952589408E+04  0.19952589408E+04  0.25500000920E-02 0. -1.
    10030    2    1    2    0    0  0.00000000000E+00  0.00000000000E+00  0.31765606936E+01  0.39936944423E+04  0.39936931790E+04 0.  0.
        1    1    3    3  502    0  0.75764580007E+02 -0.19524717490E+04  0.41330445336E+03  0.19971746977E+04  0.50400001928E-02 0.  1.
       -1    1    3    3    0  502 -0.75764580007E+02  0.19524717490E+04 -0.41012789267E+03  0.19965197446E+04  0.50400001928E-02 0. -1.
</event>
<event>
 5   0  0.2650452E-08  0.3913061E+04  0.7818609E-02  0.8022318E-01
        2   -1    0    0  501    0  0.00000000000E+00  0.00000000000E+00  0.15799321572E+04  0.15799321572E+04  0.25500000920E-02 0. -1.
       -2   -1    0    0    0  501  0.00000000000E+00  0.00000000000E+00 -0.24228964386E+04  0.24228964386E+04  0.25500000920E-02 0.  1.
    10030    2    1    2    0    0  0.00000000000E+00  0.00000000000E+00 -0.84296428144E+03  0.40028285958E+04  0.39130612042E+04 0.  0.
        3    1    3    3  502    0  0.81747836208E+03  0.94324074278E+03 -0.19627102388E+04  0.23259848372E+04  0.10100000352E+00 0.  1.
       -3    1    3    3    0  502 -0.81747836208E+03 -0.94324074278E+03  0.11197459574E+04  0.16768437586E+04  0.10100000352E+00 0. -1.
</event>
<event>
 5   0  0.8329875E-09  0.4007514E+04  0.7818609E-02  0.8003033E-01
        1   -1    0    0  501    0  0.00000000000E+00  0.00000000000E+00  0.26875362821E+04  0.26875362821E+04  0.50400001928E-02 0.  1.
       -1   -1    0    0    0  501  0.00000000000E+00  0.00000000000E+00 -0.14939486856E+04  0.14939486856E+04  0.50400001928E-02 0. -1.
    10030    2    1    2    0    0  0.00000000000E+00  0.00000000000E+00  0.11935875965E+04  0.41814849677E+04  0.40075135913E+04 0.  0.
        2    1    3    3  502    0 -0.24374401110E+03 -0.33638058535E+03 -0.14485261079E+04  0.15069143726E+04  0.25500000920E-02 0. -1.
       -2    1    3    3    0  502  0.24374401110E+03  0.33638058535E+03  0.26421137044E+04  0.26745705951E+04  0.25500000920E-02 0.  1.
</event>
<event>
 5   0  0.2746876E-08  0.3995361E+04  0.7818609E-02  0.8005483E-01
        2   -1    0    0  501    0  0.00000000000E+00  0.00000000000E+00  0.28228684728E+04  0.28228684728E+04  0.25500000920E-02 0.  1.
       -2   -1    0    0    0  501  0.00000000000E+00  0.00000000000E+00 -0.14137137236E+04  0.14137137236E+04  0.25500000920E-02 0. -1.
    10030    2    1    2    0    0  0.00000000000E+00  0.00000000000E+00  0.14091547493E+04  0.42365821964E+04  0.39953612602E+04 0.  0.
        1    1    3    3  502    0  0.10564465581E+04  0.66265502140E+03 -0.95026616470E+03  0.15678637668E+04  0.50400001928E-02 0. -1.
       -1    1    3    3    0  502 -0.10564465581E+04 -0.66265502140E+03  0.23594209140E+04  0.26687184296E+04  0.50400001928E-02 0.  1.
</event>
<event>
 5   0  0.8329875E-09  0.4005589E+04  0.7818609E-02  0.8003420E-01
        1   -1    0    0  501    0  0.00000000000E+00  0.00000000000E+00  0.26795309310E+04  0.26795309310E+04  0.50400001928E-02 0. -1.
       -1   -1    0    0    0  501  0.00000000000E+00  0.00000000000E+00 -0.14969733231E+04  0.14969733231E+04  0.50400001928E-02 0.  1.
    10030    2    1    2    0    0  0.00000000000E+00  0.00000000000E+00  0.11825576079E+04  0.41765042541E+04  0.40055892560E+04 0.  0.
        1    1    3    3  502    0 -0.25642165009E+03  0.18101170140E+04  0.14440461685E+04  0.23297092101E+04  0.50400001928E-02 0. -1.
       -1    1    3    3    0  502  0.25642165009E+03 -0.18101170140E+04 -0.26148856056E+03  0.18467950439E+04  0.50400001928E-02 0.  1.
</event>
<event>
 5   0  0.8329875E-09  0.4000193E+04  0.7818609E-02  0.8004508E-01
        1   -1    0    0  501    0  0.00000000000E+00  0.00000000000E+00  0.15587619697E+04  0.15587619697E+04  0.50400001928E-02 0.  1.
       -1   -1    0    0    0  501  0.00000000000E+00  0.00000000000E+00 -0.25663866477E+04  0.25663866477E+04  0.50400001928E-02 0. -1.
    10030    2    1    2    0    0  0.00000000000E+00  0.00000000000E+00 -0.10076246780E+04  0.41251486173E+04  0.40001929483E+04 0.  0.
        2    1    3    3  502    0 -0.12959122758E+04 -0.12654274986E+04  0.37103354362E+03  0.18488810863E+04  0.25500000920E-02 0.  1.
       -2    1    3    3    0  502  0.12959122758E+04  0.12654274986E+04 -0.13786582216E+04  0.22762675310E+04  0.25500000920E-02 0. -1.
</event>
<event>
 5   0  0.8329875E-09  0.3992624E+04  0.7818609E-02  0.8006036E-01
       -1   -1    0    0    0  501  0.00000000000E+00  0.00000000000E+00  0.27198461329E+04  0.27198461329E+04  0.50400001928E-02 0. -1.
        1   -1    0    0  501    0  0.00000000000E+00  0.00000000000E+00 -0.14652527732E+04  0.14652527732E+04  0.50400001928E-02 0.  1.
    10030    2    1    2    0    0  0.00000000000E+00  0.00000000000E+00  0.12545933597E+04  0.41850989062E+04  0.39926242443E+04 0.  0.
        1    1    3    3  502    0 -0.92199378132E+03 -0.33051716567E+03 -0.11960867923E+04  0.15459423483E+04  0.50400001928E-02 0.  1.
       -1    1    3    3    0  502  0.92199378132E+03  0.33051716567E+03  0.24506801520E+04  0.26391565579E+04  0.50400001928E-02 0. -1.
</event>
<event>
 5   0  0.2746876E-08  0.3995974E+04  0.7818609E-02  0.8005359E-01
        2   -1    0    0  501    0  0.00000000000E+00  0.00000000000E+00  0.21006224788E+04  0.21006224788E+04  0.25500000920E-02 0. -1.
       -2   -1    0    0    0  501  0.00000000000E+00  0.00000000000E+00 -0.19003663274E+04  0.19003663274E+04  0.25500000920E-02 0.  1.
    10030    2    1    2    0    0  0.00000000000E+00  0.00000000000E+00  0.20025615139E+03  0.40009888063E+04  0.39959740867E+04 0.  0.
        1    1    3    3  502    0  0.38682271798E+03 -0.12391270600E+04  0.16208772955E+04  0.20766104336E+04  0.50400001928E-02 0. -1.
       -1    1    3    3    0  502 -0.38682271798E+03  0.12391270600E+04 -0.14206211441E+04  0.19243783726E+04  0.50400001928E-02 0.  1.
</event>
<event>
 5   0  0.8329875E-09  0.4043835E+04  0.7818609E-02  0.7995762E-01
       -1   -1    0    0    0  501  0.00000000000E+00  0.00000000000E+00  0.18267458641E+04  0.18267458641E+04  0.50400001928E-02 0. -1.
        1   -1    0    0  501    0  0.00000000000E+00  0.00000000000E+00 -0.22379417058E+04  0.22379417058E+04  0.50400001928E-02 0.  1.
    10030    2    1    2    0    0  0.00000000000E+00  0.00000000000E+00 -0.41119584171E+03  0.40646875699E+04  0.40438351871E+04 0.  0.
        1    1    3    3  502    0 -0.15056766630E+04 -0.12785584046E+03 -0.15559319619E+04  0.21689475787E+04  0.50400001928E-02 0.  1.
       -1    1    3    3    0  502  0.15056766630E+04  0.12785584046E+03  0.11447361202E+04  0.18957399912E+04  0.50400001928E-02 0. -1.
</event>
<event>
 5   0  0.8329875E-09  0.3998281E+04  0.7818609E-02  0.8004893E-01
        1   -1    0    0  501    0  0.00000000000E+00  0.00000000000E+00  0.11205688394E+04  0.11205688395E+04  0.50400001928E-02 0. -1.
       -1   -1    0    0    0  501  0.00000000000E+00  0.00000000000E+00 -0.35665483951E+04  0.35665483951E+04  0.50400001928E-02 0.  1.
    10030    2    1    2    0    0  0.00000000000E+00  0.00000000000E+00 -0.24459795556E+04  0.46871172345E+04  0.39982811286E+04 0.  0.
        4    1    3    3  502    0  0.89826752329E+03  0.83468708367E+03 -0.30739257288E+04  0.33094724761E+04  0.12699999809E+01 0.  1.
       -4    1    3    3    0  502 -0.89826752329E+03 -0.83468708367E+03  0.62794617318E+03  0.13776447584E+04  0.12699999809E+01 0. -1.
</event>
<event>
 5   0  0.2599332E-08  0.3972650E+04  0.7818609E-02  0.8010087E-01
       -2   -1    0    0    0  501  0.00000000000E+00  0.00000000000E+00  0.18395450916E+04  0.18395450916E+04  0.25500000920E-02 0.  1.
        2   -1    0    0  501    0  0.00000000000E+00  0.00000000000E+00 -0.21448165816E+04  0.21448165816E+04  0.25500000920E-02 0. -1.
    10030    2    1    2    0    0  0.00000000000E+00  0.00000000000E+00 -0.30527149007E+03  0.39843616732E+04  0.39726499040E+04 0.  0.
        2    1    3    3  502    0  0.53811140808E+03  0.19120350480E+04 -0.15935644673E+03  0.19926957594E+04  0.25500000920E-02 0. -1.
       -2    1    3    3    0  502 -0.53811140808E+03 -0.19120350480E+04 -0.14591504334E+03  0.19916659138E+04  0.25500000920E-02 0.  1.
</event>
<event>
 5   0  0.2599332E-08  0.4000601E+04  0.7818609E-02  0.8004425E-01
        2   -1    0    0  501    0  0.00000000000E+00  0.00000000000E+00  0.21327074335E+04  0.21327074335E+04  0.25500000920E-02 0. -1.
       -2   -1    0    0    0  501  0.00000000000E+00  0.00000000000E+00 -0.18761140826E+04  0.18761140826E+04  0.25500000920E-02 0.  1.
    10030    2    1    2    0    0  0.00000000000E+00  0.00000000000E+00  0.25659335092E+03  0.40088215161E+04  0.40006011798E+04 0.  0.
        2    1    3    3  502    0 -0.12310924102E+03  0.11055910438E+04 -0.15375617530E+04  0.18977838617E+04  0.25500000920E-02 0.  1.
       -2    1    3    3    0  502  0.12310924102E+03 -0.11055910438E+04  0.17941551039E+04  0.21110376544E+04  0.25500000920E-02 0. -1.
</event>
<event>
 5   0  0.2587493E-08  0.4019151E+04  0.7818609E-02  0.8000694E-01
       -2   -1    0    0    0  501  0.00000000000E+00  0.00000000000E+00  0.18538700410E+04  0.18538700410E+04  0.25500000920E-02 0. -1.
        2   -1    0    0  501    0  0.00000000000E+00  0.00000000000E+00 -0.21783584208E+04  0.21783584208E+04  0.25500000920E-02 0.  1.
    10030    2    1    2    0    0  0.00000000000E+00  0.00000000000E+00 -0.32448837979E+03  0.40322284618E+04  0.40191508630E+04 0.  0.
        5    1    3    3  502    0 -0.18778716526E+04 -0.29917163163E+03 -0.81433271520E+03  0.20685902131E+04  0.46999998093E+01 0.  1.
       -5    1    3    3    0  502  0.18778716526E+04  0.29917163163E+03  0.48984433540E+03  0.19636382487E+04  0.46999998093E+01 0. -1.
</event>
<event>
 5   0  0.2746876E-08  0.4009573E+04  0.7818609E-02  0.8002618E-01
        2   -1    0    0  501    0  0.00000000000E+00  0.00000000000E+00  0.16561247807E+04  0.16561247807E+04  0.25500000920E-02 0. -1.
       -2   -1    0    0    0  501  0.00000000000E+00  0.00000000000E+00 -0.24268511381E+04  0.24268511381E+04  0.25500000920E-02 0.  1.
    10030    2    1    2    0    0  0.00000000000E+00  0.00000000000E+00 -0.77072635735E+03  0.40829759188E+04  0.40095726999E+04 0.  0.
        1    1    3    3  502    0 -0.94550514051E+03  0.91801448971E+03  0.11530684342E+04  0.17510846319E+04  0.50400001928E-02 0. -1.
       -1    1    3    3    0  502  0.94550514051E+03 -0.91801448971E+03 -0.19237947915E+04  0.23318912869E+04  0.50400001928E-02 0.  1.
</event>
<event>
 5   0  0.8329875E-09  0.3981992E+04  0.7818609E-02  0.8008189E-01
       -1   -1    0    0    0  501  0.00000000000E+00  0.00000000000E+00  0.26198512793E+04  0.26198512793E+04  0.50400001928E-02 0. -1.
        1   -1    0    0  501    0  0.00000000000E+00  0.00000000000E+00 -0.15130880519E+04  0.15130880519E+04  0.50400001928E-02 0.  1.
    10030    2    1    2    0    0  0.00000000000E+00  0.00000000000E+00  0.11067632274E+04  0.41329393312E+04  0.39819922996E+04 0.  0.
        3    1    3    3  502    0 -0.10428943512E+03 -0.91257031339E+03  0.23868105553E+04  0.25574451119E+04  0.10100000352E+00 0. -1.
       -3    1    3    3    0  502  0.10428943512E+03  0.91257031339E+03 -0.12800473279E+04  0.15754942193E+04  0.10100000352E+00 0.  1.
</event>
<event>
 5   0  0.2612363E-08  0.3999906E+04  0.7818609E-02  0.8004566E-01
       -2   -1    0    0    0  501  0.00000000000E+00  0.00000000000E+00  0.18861994592E+04  0.18861994592E+04  0.25500000920E-02 0.  1.
        2   -1    0    0  501    0  0.00000000000E+00  0.00000000000E+00 -0.21205664259E+04  0.21205664259E+04  0.25500000920E-02 0. -1.
    10030    2    1    2    0    0  0.00000000000E+00  0.00000000000E+00 -0.23436696678E+03  0.40067658851E+04  0.39999056218E+04 0.  0.
        4    1    3    3  502    0  0.14988079216E+04  0.11386901955E+04  0.55982260544E+03  0.19637829589E+04  0.12699999809E+01 0.  1.
       -4    1    3    3    0  502 -0.14988079216E+04 -0.11386901955E+04 -0.79418957222E+03  0.20429829262E+04  0.12699999809E+01 0. -1.
</event>
<event>
 5   0  0.2587493E-08  0.4000807E+04  0.7818609E-02  0.8004384E-01
        2   -1    0    0  501    0  0.00000000000E+00  0.00000000000E+00  0.12208979979E+04  0.12208979979E+04  0.25500000920E-02 0.  1.
       -2   -1    0    0    0  501  0.00000000000E+00  0.00000000000E+00 -0.32775998112E+04  0.32775998112E+04  0.25500000920E-02 0. -1.
    10030    2    1    2    0    0  0.00000000000E+00  0.00000000000E+00 -0.20567018133E+04  0.44984978092E+04  0.40008074423E+04 0.  0.
        5    1    3    3  502    0  0.13393246560E+04 -0.13738531339E+04 -0.16647340447E+04  0.25402016647E+04  0.46999998093E+01 0. -1.
       -5    1    3    3    0  502 -0.13393246560E+04  0.13738531339E+04 -0.39196776862E+03  0.19582961445E+04  0.46999998093E+01 0.  1.
</event>
<event>
 5   0  0.2746876E-08  0.4071167E+04  0.7818609E-02  0.7990342E-01
        2   -1    0    0  501    0  0.00000000000E+00  0.00000000000E+00  0.27233613885E+04  0.27233613885E+04  0.25500000920E-02 0. -1.
       -2   -1    0    0    0  501  0.00000000000E+00  0.00000000000E+00 -0.15215022083E+04  0.15215022083E+04  0.25500000920E-02 0.  1.
    10030    2    1    2    0    0  0.00000000000E+00  0.00000000000E+00  0.12018591802E+04  0.42448635968E+04  0.40711670890E+04 0.  0.
        1    1    3    3  502    0  0.82917884686E+03 -0.29114409733E+02 -0.13371979839E+04  0.15736847388E+04  0.50400001928E-02 0.  1.
       -1    1    3    3    0  502 -0.82917884686E+03  0.29114409733E+02  0.25390571641E+04  0.26711788580E+04  0.50400001928E-02 0. -1.
</event>
<event>
 5   0  0.8329875E-09  0.4009848E+04  0.7818609E-02  0.8002563E-01
       -1   -1    0    0    0  501  0.00000000000E+00  0.00000000000E+00  0.23151493549E+04  0.23151493549E+04  0.50400001928E-02 0. -1.
        1   -1    0    0  501    0  0.00000000000E+00  0.00000000000E+00 -0.17362678597E+04  0.17362678597E+04  0.50400001928E-02 0.  1.
    10030    2    1    2    0    0  0.00000000000E+00  0.00000000000E+00  0.57888149524E+03  0.40514172147E+04  0.40098475858E+04 0.  0.
        1    1    3    3  502    0 -0.26504090280E+03 -0.10799742554E+04 -0.13961250906E+04  0.17848687182E+04  0.50400001928E-02 0.  1.
       -1    1    3    3    0  502  0.26504090280E+03  0.10799742554E+04  0.19750065859E+04  0.22665484965E+04  0.50400001928E-02 0. -1.
</event>
<event>
 5   0  0.8329875E-09  0.3992901E+04  0.7818609E-02  0.8005980E-01
        1   -1    0    0  501    0  0.00000000000E+00  0.00000000000E+00  0.23739450436E+04  0.23739450436E+04  0.50400001928E-02 0. -1.
       -1   -1    0    0    0  501  0.00000000000E+00  0.00000000000E+00 -0.16789831038E+04  0.16789831038E+04  0.50400001928E-02 0.  1.
    10030    2    1    2    0    0  0.00000000000E+00  0.00000000000E+00  0.69496193976E+03  0.40529281474E+04  0.39929005084E+04 0.  0.
        2    1    3    3  502    0  0.13805451053E+03 -0.30950303733E+03 -0.16495734247E+04  0.16840260276E+04  0.25500000920E-02 0.  1.
       -2    1    3    3    0  502 -0.13805451053E+03  0.30950303733E+03  0.23445353645E+04  0.23689021198E+04  0.25500000920E-02 0. -1.
</event>
<event>
 5   0  0.8329875E-09  0.4013663E+04  0.7818609E-02  0.8001796E-01
        1   -1    0    0  501    0  0.00000000000E+00  0.00000000000E+00  0.14586673229E+04  0.14586673229E+04  0.50400001928E-02 0.  1.
       -1   -1    0    0    0  501  0.00000000000E+00  0.00000000000E+00 -0.27609946935E+04  0.27609946935E+04  0.50400001928E-02 0. -1.
    10030    2    1    2    0    0  0.00000000000E+00  0.00000000000E+00 -0.13023273706E+04  0.42196620165E+04  0.40136630343E+04 0.  0.
        2    1    3    3  502    0 -0.94005231838E+03 -0.15821202697E+04  0.19027020030E+03  0.18501366594E+04  0.25500000920E-02 0.  1.
       -2    1    3    3    0  502  0.94005231838E+03  0.15821202697E+04 -0.14925975709E+04  0.23695253571E+04  0.25500000920E-02 0. -1.
</event>
<event>
 5   0  0.2599332E-08  0.3946247E+04  0.7818609E-02  0.8015479E-01
        2   -1    0    0  501    0  0.00000000000E+00  0.00000000000E+00  0.28877501583E+04  0.28877501583E+04  0.25500000920E-02 0. -1.
       -2   -1    0    0    0  501  0.00000000000E+00  0.00000000000E+00 -0.13481834317E+04  0.13481834317E+04  0.25500000920E-02 0.  1.
    10030    2    1    2    0    0  0.00000000000E+00  0.00000000000E+00  0.15395667265E+04  0.42359335900E+04  0.39462472900E+04 0.  0.
        2    1    3    3  502    0 -0.11786423680E+04 -0.13734520775E+04 -0.73814621651E+02  0.18113577889E+04  0.25500000920E-02 0.  1.
       -2    1    3    3    0  502  0.11786423680E+04  0.13734520775E+04  0.16133813482E+04  0.24245758012E+04  0.25500000920E-02 0. -1.
</event>
<event>
 5   0  0.2612363E-08  0.4000338E+04  0.7818609E-02  0.8004478E-01
        2   -1    0    0  501    0  0.00000000000E+00  0.00000000000E+00  0.20183281399E+04  0.20183281399E+04  0.25500000920E-02 0.  1.
       -2   -1    0    0    0  501  0.00000000000E+00  0.00000000000E+00 -0.19821728246E+04  0.19821728246E+04  0.25500000920E-02 0. -1.
    10030    2    1    2    0    0  0.00000000000E+00  0.00000000000E+00  0.36155315316E+02  0.40005009645E+04  0.40003375807E+04 0.  0.
        4    1    3    3  502    0  0.12763614776E+04 -0.10148075674E+04  0.11764602193E+04  0.20107195928E+04  0.12699999809E+01 0.  1.
       -4    1    3    3    0  502 -0.12763614776E+04  0.10148075674E+04 -0.11403049040E+04  0.19897813717E+04  0.12699999809E+01 0. -1.
</event>
<event>
 5   0  0.2587493E-08  0.4046353E+04  0.7818609E-02  0.7995260E-01
       -2   -1    0    0    0  501  0.00000000000E+00  0.00000000000E+00  0.18288431445E+04  0.18288431445E+04  0.25500000920E-02 0.  1.
        2   -1    0    0  501    0  0.00000000000E+00  0.00000000000E+00 -0.22381601969E+04  0.22381601969E+04  0.25500000920E-02 0. -1.
    10030    2    1    2    0    0  0.00000000000E+00  0.00000000000E+00 -0.40931705242E+03  0.40670033414E+04  0.40463533867E+04 0.  0.
        5    1    3    3  502    0 -0.12994443602E+04 -0.15503085130E+04 -0.23961693410E+03  0.20370200038E+04  0.46999998093E+01 0. -1.
       -5    1    3    3    0  502  0.12994443602E+04  0.15503085130E+04 -0.16970011832E+03  0.20299833376E+04  0.46999998093E+01 0.  1.
</event>
<event>
 5   0  0.8329875E-09  0.3995450E+04  0.7818609E-02  0.8005465E-01
        1   -1    0    0  501    0  0.00000000000E+00  0.00000000000E+00  0.33190767227E+04  0.33190767228E+04  0.50400001928E-02 0. -1.
       -1   -1    0    0    0  501  0.00000000000E+00  0.00000000000E+00 -0.12024140297E+04  0.12024140297E+04  0.50400001928E-02 0.  1.
    10030    2    1    2    0    0  0.00000000000E+00  0.00000000000E+00  0.21166626931E+04  0.45214907524E+04  0.39954496203E+04 0.  0.
        1    1    3    3  502    0  0.94244036399E+03 -0.17608408932E+04  0.10058593292E+04  0.22361814508E+04  0.50400001928E-02 0. -1.
       -1    1    3    3    0  502 -0.94244036399E+03  0.17608408932E+04  0.11108033638E+04  0.22853093016E+04  0.50400001928E-02 0.  1.
</event>
<event>
 5   0  0.8329875E-09  0.3993253E+04  0.7818609E-02  0.8005909E-01
       -1   -1    0    0    0  501  0.00000000000E+00  0.00000000000E+00  0.18864258656E+04  0.18864258656E+04  0.50400001928E-02 0.  1.
        1   -1    0    0  501    0  0.00000000000E+00  0.00000000000E+00 -0.21132653193E+04  0.21132653193E+04  0.50400001928E-02 0. -1.
    10030    2    1    2    0    0  0.00000000000E+00  0.00000000000E+00 -0.22683945369E+03  0.39996911849E+04  0.39932534902E+04 0.  0.
        4    1    3    3  502    0 -0.17250980818E+04  0.36587204288E+03  0.82440754049E+03  0.19466574299E+04  0.12699999809E+01 0.  1.
       -4    1    3    3    0  502  0.17250980818E+04 -0.36587204288E+03 -0.10512469942E+04  0.20530337550E+04  0.12699999809E+01 0. -1.
</event>
<event>
 5   0  0.2599332E-08  0.4006646E+04  0.7818609E-02  0.8003207E-01
        2   -1    0    0  501    0  0.00000000000E+00  0.00000000000E+00  0.24005486195E+04  0.24005486195E+04  0.25500000920E-02 0.  1.
       -2   -1    0    0    0  501  0.00000000000E+00  0.00000000000E+00 -0.16718274799E+04  0.16718274799E+04  0.25500000920E-02 0. -1.
    10030    2    1    2    0    0  0.00000000000E+00  0.00000000000E+00  0.72872113955E+03  0.40723760994E+04  0.40066460532E+04 0.  0.
        2    1    3    3  502    0 -0.34240073596E+03  0.75996327202E+03  0.22159264427E+04  0.23675118665E+04  0.25500000920E-02 0.  1.
       -2    1    3    3    0  502  0.34240073596E+03 -0.75996327202E+03 -0.14872053031E+04  0.17048642329E+04  0.25500000920E-02 0. -1.
</event>
<event>
 5   0  0.2746876E-08  0.3948161E+04  0.7818609E-02  0.8015086E-01
       -2   -1    0    0    0  501  0.00000000000E+00  0.00000000000E+00  0.19059460229E+04  0.19059460229E+04  0.25500000920E-02 0.  1.
        2   -1    0    0  501    0  0.00000000000E+00  0.00000000000E+00 -0.20446508628E+04  0.20446508628E+04  0.25500000920E-02 0. -1.
    10030    2    1    2    0    0  0.00000000000E+00  0.00000000000E+00 -0.13870483991E+03  0.39505968857E+04  0.39481611822E+04 0.  0.
        1    1    3    3  502    0 -0.15451214043E+04  0.12156598447E+04 -0.24769022711E+03  0.19815598554E+04  0.50400001928E-02 0.  1.
       -1    1    3    3    0  502  0.15451214043E+04 -0.12156598447E+04  0.10898538719E+03  0.19690370303E+04  0.50400001928E-02 0. -1.
</event>
<event>
 5   0  0.2612363E-08  0.4000261E+04  0.7818609E-02  0.8004494E-01
       -2   -1    0    0    0  501  0.00000000000E+00  0.00000000000E+00  0.16706677283E+04  0.16706677283E+04  0.25500000920E-02 0. -1.
        2   -1    0    0  501    0  0.00000000000E+00  0.00000000000E+00 -0.23945643477E+04  0.23945643477E+04  0.25500000920E-02 0.  1.
    10030    2    1    2    0    0  0.00000000000E+00  0.00000000000E+00 -0.72389661944E+03  0.40652320761E+04  0.40002606811E+04 0.  0.
        4    1    3    3  502    0  0.40676488183E+03  0.13480778116E+04  0.10815974201E+04  0.17755635858E+04  0.12699999809E+01 0. -1.
       -4    1    3    3    0  502 -0.40676488183E+03 -0.13480778116E+04 -0.18054940396E+04  0.22896684902E+04  0.12699999809E+01 0.  1.
</event>
<event>
 5   0  0.8329875E-09  0.3998586E+04  0.7818609E-02  0.8004832E-01
       -1   -1    0    0    0  501  0.00000000000E+00  0.00000000000E+00  0.17567479672E+04  0.17567479672E+04  0.50400001928E-02 0.  1.
        1   -1    0    0  501    0  0.00000000000E+00  0.00000000000E+00 -0.22753245370E+04  0.22753245370E+04  0.50400001928E-02 0. -1.
    10030    2    1    2    0    0  0.00000000000E+00  0.00000000000E+00 -0.51857656983E+03  0.40320725042E+04  0.39985856275E+04 0.  0.
        2    1    3    3  502    0  0.42558622556E+03 -0.46550010415E+03 -0.21723740532E+04  0.22620837759E+04  0.25500000920E-02 0. -1.
       -2    1    3    3    0  502 -0.42558622556E+03  0.46550010415E+03  0.16537974833E+04  0.17699887283E+04  0.25500000920E-02 0.  1.
</event>
<event>
 5   0  0.2587493E-08  0.4004805E+04  0.7818609E-02  0.8003578E-01
       -2   -1    0    0    0  501  0.00000000000E+00  0.00000000000E+00  0.14284425895E+04  0.14284425895E+04  0.25500000920E-02 0. -1.
        2   -1    0    0  501    0  0.00000000000E+00  0.00000000000E+00 -0.28069846361E+04  0.28069846361E+04  0.25500000920E-02 0.  1.
    10030    2    1    2    0    0  0.00000000000E+00  0.00000000000E+00 -0.13785420466E+04  0.42354272256E+04  0.40048053147E+04 0.  0.
        5    1    3    3  502    0 -0.11064956876E+04  0.10822868350E+04 -0.20328289274E+04  0.25550133146E+04  0.46999998093E+01 0.  1.
       -5    1    3    3    0  502  0.11064956876E+04 -0.10822868350E+04  0.65428688080E+03  0.16804139110E+04  0.46999998093E+01 0. -1.
</event>
<event>
 5   0  0.8329875E-09  0.3996082E+04  0.7818609E-02  0.8005338E-01
       -1   -1    0    0    0  501  0.00000000000E+00  0.00000000000E+00  0.23825253754E+04  0.23825253754E+04  0.50400001928E-02 0. -1.
        1   -1    0    0  501    0  0.00000000000E+00  0.00000000000E+00 -0.16756030784E+04  0.16756030784E+04  0.50400001928E-02 0.  1.
    10030    2    1    2    0    0  0.00000000000E+00  0.00000000000E+00  0.70692229701E+03  0.40581284538E+04  0.39960815074E+04 0.  0.
        4    1    3    3  502    0  0.15706311749E+04  0.12347908256E+04  0.37780352517E+03  0.20333046468E+04  0.12699999809E+01 0.  1.
       -4    1    3    3    0  502 -0.15706311749E+04 -0.12347908256E+04  0.32911877184E+03  0.20248238070E+04  0.12699999809E+01 0. -1.
</event>
<event>
 5   0  0.8329875E-09  0.3984218E+04  0.7818609E-02  0.8007738E-01
       -1   -1    0    0    0  501  0.00000000000E+00  0.00000000000E+00  0.15470838373E+04  0.15470838373E+04  0.50400001928E-02 0.  1.
        1   -1    0    0  501    0  0.00000000000E+00  0.00000000000E+00 -0.25651478712E+04  0.25651478712E+04  0.50400001928E-02 0. -1.
    10030    2    1    2    0    0  0.00000000000E+00  0.00000000000E+00 -0.10180640339E+04  0.41122317085E+04  0.39842182731E+04 0.  0.
        1    1    3    3  502    0  0.67284478765E+03 -0.18336965518E+04 -0.10486949656E+03  0.19560574541E+04  0.50400001928E-02 0.  1.
       -1    1    3    3    0  502 -0.67284478765E+03  0.18336965518E+04 -0.91319453734E+03  0.21561742544E+04  0.50400001928E-02 0. -1.
</event>
<event>
 5   0  0.8329875E-09  0.4001154E+04  0.7818609E-02  0.8004314E-01
       -1   -1    0    0    0  501  0.00000000000E+00  0.00000000000E+00  0.15081730609E+04  0.15081730609E+04  0.50400001928E-02 0. -1.
        1   -1    0    0  501    0  0.00000000000E+00  0.00000000000E+00 -0.26537456535E+04  0.26537456535E+04  0.50400001928E-02 0.  1.
    10030    2    1    2    0    0  0.00000000000E+00  0.00000000000E+00 -0.11455725926E+04  0.41619187144E+04  0.40011536862E+04 0.  0.
        1    1    3    3  502    0 -0.17764450945E+04 -0.91617617902E+03 -0.66087508578E+03  0.21052058910E+04  0.50400001928E-02 0.  1.
       -1    1    3    3    0  502  0.17764450945E+04  0.91617617902E+03 -0.48469750682E+03  0.20567128234E+04  0.50400001928E-02 0. -1.
</event>
<event>
 5   0  0.8329875E-09  0.4006680E+04  0.7818609E-02  0.8003200E-01
        1   -1    0    0  501    0  0.00000000000E+00  0.00000000000E+00  0.20579355008E+04  0.20579355008E+04  0.50400001928E-02 0.  1.
       -1   -1    0    0    0  501  0.00000000000E+00  0.00000000000E+00 -0.19501929406E+04  0.19501929406E+04  0.50400001928E-02 0. -1.
    10030    2    1    2    0    0  0.00000000000E+00  0.00000000000E+00  0.10774256019E+03  0.40081284414E+04  0.40066800650E+04 0.  0.
        2    1    3    3  502    0 -0.10904657614E+04  0.36236821022E+03 -0.15877414296E+04  0.19599360051E+04  0.25500000920E-02 0. -1.
       -2    1    3    3    0  502  0.10904657614E+04 -0.36236821022E+03  0.16954839898E+04  0.20481924363E+04  0.25500000920E-02 0.  1.
</event>
<event>
 5   0  0.8329875E-09  0.4000646E+04  0.7818609E-02  0.8004416E-01
        1   -1    0    0  501    0  0.00000000000E+00  0.00000000000E+00  0.25184551481E+04  0.25184551481E+04  0.50400001928E-02 0. -1.
       -1   -1    0    0    0  501  0.00000000000E+00  0.00000000000E+00 -0.15887882181E+04  0.15887882181E+04  0.50400001928E-02 0.  1.
    10030    2    1    2    0    0  0.00000000000E+00  0.00000000000E+00  0.92966692996E+03  0.41072433662E+04  0.40006458814E+04 0.  0.
        3    1    3    3  502    0 -0.10603391200E+04 -0.12349974076E+04 -0.72879506587E+03  0.17834460756E+04  0.10100000352E+00 0.  1.
       -3    1    3    3    0  502  0.10603391200E+04  0.12349974076E+04  0.16584619958E+04  0.23237972906E+04  0.10100000352E+00 0. -1.
</event>
<event>
 5   0  0.2650452E-08  0.4011659E+04  0.7818609E-02  0.8002199E-01
        2   -1    0    0  501    0  0.00000000000E+00  0.00000000000E+00  0.22822083995E+04  0.22822083995E+04  0.25500000920E-02 0.  1.
       -2   -1    0    0    0  501  0.00000000000E+00  0.00000000000E+00 -0.17629203831E+04  0.17629203831E+04  0.25500000920E-02 0. -1.
    10030    2    1    2    0    0  0.00000000000E+00  0.00000000000E+00  0.51928801634E+03  0.40451287826E+04  0.40116588619E+04 0.  0.
        3    1    3    3  502    0  0.49408068455E+02 -0.74926581382E+03 -0.16158502247E+04  0.17818003187E+04  0.10100000352E+00 0. -1.
       -3    1    3    3    0  502 -0.49408068455E+02  0.74926581382E+03  0.21351382410E+04  0.22633284639E+04  0.10100000352E+00 0.  1.
</event>
<event>
 5   0  0.8329875E-09  0.4017875E+04  0.7818609E-02  0.8000950E-01
        1   -1    0    0  501    0  0.00000000000E+00  0.00000000000E+00  0.13711386056E+04  0.13711386057E+04  0.50400001928E-02 0.  1.
       -1   -1    0    0    0  501  0.00000000000E+00  0.00000000000E+00 -0.29434156781E+04  0.29434156781E+04  0.50400001928E-02 0. -1.
    10030    2    1    2    0    0  0.00000000000E+00  0.00000000000E+00 -0.15722770724E+04  0.43145542837E+04  0.40178754927E+04 0.  0.
        3    1    3    3  502    0 -0.12591436723E+04  0.14832411821E+04 -0.24880683883E+03  0.19614668096E+04  0.10100000352E+00 0.  1.
       -3    1    3    3    0  502  0.12591436723E+04 -0.14832411821E+04 -0.13234702336E+04  0.23530874742E+04  0.10100000352E+00 0. -1.
</event>
<event>
 5   0  0.2612363E-08  0.3992214E+04  0.7818609E-02  0.8006119E-01
        2   -1    0    0  501    0  0.00000000000E+00  0.00000000000E+00  0.24649627661E+04  0.24649627661E+04  0.25500000920E-02 0. -1.
       -2   -1    0    0    0  501  0.00000000000E+00  0.00000000000E+00 -0.16164311394E+04  0.16164311394E+04  0.25500000920E-02 0.  1.
    10030    2    1    2    0    0  0.00000000000E+00  0.00000000000E+00  0.84853162674E+03  0.40813939055E+04  0.39922137080E+04 0.  0.
        4    1    3    3  502    0  0.15587100202E+04 -0.11015571028E+04  0.10216440181E+04  0.21648933208E+04  0.12699999809E+01 0. -1.
       -4    1    3    3    0  502 -0.15587100202E+04  0.11015571028E+04 -0.17311239135E+03  0.19165005846E+04  0.12699999809E+01 0.  1.
</event>
<event>
 5   0  0.2650452E-08  0.3995770E+04  0.7818609E-02  0.8005400E-01
       -2   -1    0    0    0  501  0.00000000000E+00  0.00000000000E+00  0.34204436853E+04  0.34204436853E+04  0.25500000920E-02 0.  1.
        2   -1    0    0  501    0  0.00000000000E+00  0.00000000000E+00 -0.11669671351E+04  0.11669671351E+04  0.25500000920E-02 0. -1.
    10030    2    1    2    0    0  0.00000000000E+00  0.00000000000E+00  0.22534765502E+04  0.45874108205E+04  0.39957704480E+04 0.  0.
        3    1    3    3  502    0 -0.16756519789E+04 -0.24636232090E+03 -0.89909844757E+02  0.16960506295E+04  0.10100000352E+00 0. -1.
       -3    1    3    3    0  502  0.16756519789E+04  0.24636232090E+03  0.23433863950E+04  0.28913601910E+04  0.10100000352E+00 0.  1.
</event>
<event>
 5   0  0.2599332E-08  0.3997904E+04  0.7818609E-02  0.8004970E-01
       -2   -1    0    0    0  501  0.00000000000E+00  0.00000000000E+00  0.12409445066E+04  0.12409445066E+04  0.25500000920E-02 0. -1.
        2   -1    0    0  501    0  0.00000000000E+00  0.00000000000E+00 -0.32199734703E+04  0.32199734703E+04  0.25500000920E-02 0.  1.
    10030    2    1    2    0    0  0.00000000000E+00  0.00000000000E+00 -0.19790289636E+04  0.44609179769E+04  0.39979036453E+04 0.  0.
        2    1    3    3  502    0  0.15739728292E+04 -0.11907234936E+04 -0.63561399748E+03  0.20734555841E+04  0.25500000920E-02 0. -1.
       -2    1    3    3    0  502 -0.15739728292E+04  0.11907234936E+04 -0.13434149662E+04  0.23874623928E+04  0.25500000920E-02 0.  1.
</event>
<event>
 5   0  0.8329875E-09  0.4011012E+04  0.7818609E-02  0.8002329E-01
        1   -1    0    0  501    0  0.00000000000E+00  0.00000000000E+00  0.22111277201E+04  0.22111277202E+04  0.50400001928E-02 0. -1.
       -1   -1    0    0    0  501  0.00000000000E+00  0.00000000000E+00 -0.18190059779E+04  0.18190059779E+04  0.50400001928E-02 0.  1.
    10030    2    1    2    0    0  0.00000000000E+00  0.00000000000E+00  0.39212174229E+03  0.40301336980E+04  0.40110121121E+04 0.  0.
        5    1    3    3  502    0 -0.17322926409E+04  0.92644535393E+03  0.60158581740E+03  0.20545233932E+04  0.46999998093E+01 0. -1.
       -5    1    3    3    0  502  0.17322926409E+04 -0.92644535393E+03 -0.20946407511E+03  0.19756103048E+04  0.46999998093E+01 0.  1.
</event>
<event>
 5   0  0.8329875E-09  0.3997810E+04  0.7818609E-02  0.8004989E-01
       -1   -1    0    0    0  501  0.00000000000E+00  0.00000000000E+00  0.30795023700E+04  0.30795023700E+04  0.50400001928E-02 0. -1.
        1   -1    0    0  501    0  0.00000000000E+00  0.00000000000E+00 -0.12974889598E+04  0.12974889598E+04  0.50400001928E-02 0.  1.
    10030    2    1    2    0    0  0.00000000000E+00  0.00000000000E+00  0.17820134102E+04  0.43769913298E+04  0.39978095636E+04 0.  0.
        1    1    3    3  502    0 -0.71166421067E+03 -0.18649144063E+04  0.10071257611E+04  0.22357714531E+04  0.50400001928E-02 0.  1.
       -1    1    3    3    0  502  0.71166421067E+03  0.18649144063E+04  0.77488764913E+03  0.21412198767E+04  0.50400001928E-02 0. -1.
</event>
<event>
 5   0  0.2612363E-08  0.3996160E+04  0.7818609E-02  0.8005322E-01
        2   -1    0    0  501    0  0.00000000000E+00  0.00000000000E+00  0.12109194735E+04  0.12109194735E+04  0.25500000920E-02 0.  1.
       -2   -1    0    0    0  501  0.00000000000E+00  0.00000000000E+00 -0.32969351092E+04  0.32969351092E+04  0.25500000920E-02 0. -1.
    10030    2    1    2    0    0  0.00000000000E+00  0.00000000000E+00 -0.20860156357E+04  0.45078545827E+04  0.39961596197E+04 0.  0.
        4    1    3    3  502    0  0.13029969153E+03  0.72180019433E+03 -0.31395813600E+04  0.32241194549E+04  0.12699999809E+01 0. -1.
       -4    1    3    3    0  502 -0.13029969153E+03 -0.72180019433E+03  0.10535657243E+04  0.12837351279E+04  0.12699999809E+01 0.  1.
</event>
<event>
 5   0  0.2612363E-08  0.4003216E+04  0.7818609E-02  0.8003898E-01
       -2   -1    0    0    0  501  0.00000000000E+00  0.00000000000E+00  0.14257601230E+04  0.14257601230E+04  0.25500000920E-02 0.  1.
        2   -1    0    0  501    0  0.00000000000E+00  0.00000000000E+00 -0.28100342239E+04  0.28100342239E+04  0.25500000920E-02 0. -1.
    10030    2    1    2    0    0  0.00000000000E+00  0.00000000000E+00 -0.13842741010E+04  0.42357943469E+04  0.40032160775E+04 0.  0.
        4    1    3    3  502    0 -0.79832899883E+02 -0.16954164005E+04  0.43045593963E+03  0.17510294092E+04  0.12699999809E+01 0.  1.
       -4    1    3    3    0  502  0.79832899883E+02  0.16954164005E+04 -0.18147300406E+04  0.24847649378E+04  0.12699999809E+01 0. -1.
</event>
<event>
 5   0  0.2587493E-08  0.4000577E+04  0.7818609E-02  0.8004430E-01
        2   -1    0    0  501    0  0.00000000000E+00  0.00000000000E+00  0.24418944545E+04  0.24418944545E+04  0.25500000920E-02 0. -1.
       -2   -1    0    0    0  501  0.00000000000E+00  0.00000000000E+00 -0.16385452989E+04  0.16385452989E+04  0.25500000920E-02 0.  1.
    10030    2    1    2    0    0  0.00000000000E+00  0.00000000000E+00  0.80334915557E+03  0.40804397534E+04  0.40005772978E+04 0.  0.
        5    1    3    3  502    0 -0.15062373024E+04 -0.51536266456E+03  0.16369598197E+04  0.22834204668E+04  0.46999998093E+01 0. -1.
       -5    1    3    3    0  502  0.15062373024E+04  0.51536266456E+03 -0.83361066409E+03  0.17970192866E+04  0.46999998093E+01 0.  1.
</event>
<event>
 5   0  0.2650452E-08  0.3993656E+04  0.7818609E-02  0.8005828E-01
        2   -1    0    0  501    0  0.00000000000E+00  0.00000000000E+00  0.24496442895E+04  0.24496442895E+04  0.25500000920E-02 0. -1.
       -2   -1    0    0    0  501  0.00000000000E+00  0.00000000000E+00 -0.16277145517E+04  0.16277145517E+04  0.25500000920E-02 0.  1.
    10030    2    1    2    0    0  0.00000000000E+00  0.00000000000E+00  0.82192973778E+03  0.40773588412E+04  0.39936557971E+04 0.  0.
        3    1    3    3  502    0  0.37769173439E+03  0.15490896193E+04 -0.81630767164E+03  0.17912810834E+04  0.10100000352E+00 0.  1.
       -3    1    3    3    0  502 -0.37769173439E+03 -0.15490896193E+04  0.16382374094E+04  0.22860777578E+04  0.10100000352E+00 0. -1.
</event>
<event>
 5   0  0.2612363E-08  0.4001506E+04  0.7818609E-02  0.8004243E-01
        2   -1    0    0  501    0  0.00000000000E+00  0.00000000000E+00  0.12160977350E+04  0.12160977350E+04  0.25500000920E-02 0. -1.
       -2   -1    0    0    0  501  0.00000000000E+00  0.00000000000E+00 -0.32916865465E+04  0.32916865465E+04  0.25500000920E-02 0.  1.
    10030    2    1    2    0    0  0.00000000000E+00  0.00000000000E+00 -0.20755888115E+04  0.45077842815E+04  0.40015059932E+04 0.  0.
        4    1    3    3  502    0 -0.71240131699E+03  0.13839526345E+04 -0.24538868827E+04  0.29059254941E+04  0.12699999809E+01 0.  1.
       -4    1    3    3    0  502  0.71240131699E+03 -0.13839526345E+04  0.37829807124E+03  0.16018587874E+04  0.12699999809E+01 0. -1.
</event>
<event>
 5   0  0.8329875E-09  0.4003803E+04  0.7818609E-02  0.8003780E-01
       -1   -1    0    0    0  501  0.00000000000E+00  0.00000000000E+00  0.26097078649E+04  0.26097078649E+04  0.50400001928E-02 0.  1.
        1   -1    0    0  501    0  0.00000000000E+00  0.00000000000E+00 -0.15356543507E+04  0.15356543507E+04  0.50400001928E-02 0. -1.
    10030    2    1    2    0    0  0.00000000000E+00  0.00000000000E+00  0.10740535141E+04  0.41453622156E+04  0.40038028108E+04 0.  0.
        5    1    3    3  502    0 -0.70083372724E+02  0.11290017686E+03 -0.15310773124E+04  0.15368402505E+04  0.46999998093E+01 0. -1.
       -5    1    3    3    0  502  0.70083372724E+02 -0.11290017686E+03  0.26051308265E+04  0.26085219651E+04  0.46999998093E+01 0.  1.
</event>
<event>
 5   0  0.8329875E-09  0.3997810E+04  0.7818609E-02  0.8004989E-01
        1   -1    0    0  501    0  0.00000000000E+00  0.00000000000E+00  0.20842930758E+04  0.20842930758E+04  0.50400001928E-02 0.  1.
       -1   -1    0    0    0  501  0.00000000000E+00  0.00000000000E+00 -0.19170148103E+04  0.19170148103E+04  0.50400001928E-02 0. -1.
    10030    2    1    2    0    0  0.00000000000E+00  0.00000000000E+00  0.16727826549E+03  0.40013078861E+04  0.39978097480E+04 0.  0.
        2    1    3    3  502    0  0.72921168393E+03  0.11117869182E+04  0.15775271078E+04  0.20631072699E+04  0.25500000920E-02 0.  1.
       -2    1    3    3    0  502 -0.72921168393E+03 -0.11117869182E+04 -0.14102488423E+04  0.19382006162E+04  0.25500000920E-02 0. -1.
</event>
<event>
 5   0  0.2612363E-08  0.4003096E+04  0.7818609E-02  0.8003922E-01
        2   -1    0    0  501    0  0.00000000000E+00  0.00000000000E+00  0.29180856295E+04  0.29180856295E+04  0.25500000920E-02 0. -1.
       -2   -1    0    0    0  501  0.00000000000E+00  0.00000000000E+00 -0.13728847572E+04  0.13728847572E+04  0.25500000920E-02 0.  1.
    10030    2    1    2    0    0  0.00000000000E+00  0.00000000000E+00  0.15452008723E+04  0.42909703867E+04  0.40030964419E+04 0.  0.
        4    1    3    3  502    0 -0.10173526775E+04 -0.15415631074E+04  0.15992741560E+04  0.24431747222E+04  0.12699999809E+01 0. -1.
       -4    1    3    3    0  502  0.10173526775E+04  0.15415631074E+04 -0.54073283683E+02  0.18477956644E+04  0.12699999809E+01 0.  1.
</event>
<event>
 5   0  0.2650452E-08  0.3999927E+04  0.7818609E-02  0.8004561E-01
       -2   -1    0    0    0  501  0.00000000000E+00  0.00000000000E+00  0.18361403254E+04  0.18361403254E+04  0.25500000920E-02 0. -1.
        2   -1    0    0  501    0  0.00000000000E+00  0.00000000000E+00 -0.21784031454E+04  0.21784031454E+04  0.25500000920E-02 0.  1.
    10030    2    1    2    0    0  0.00000000000E+00  0.00000000000E+00 -0.34226282005E+03  0.40145434708E+04  0.39999269295E+04 0.  0.
        3    1    3    3  502    0 -0.38247695963E+03 -0.54775544462E+03  0.17208377433E+04  0.18459705308E+04  0.10100000352E+00 0. -1.
       -3    1    3    3    0  502  0.38247695963E+03  0.54775544462E+03 -0.20631005633E+04  0.21685729400E+04  0.10100000352E+00 0.  1.
</event>
<event>
 5   0  0.2599332E-08  0.3968307E+04  0.7818609E-02  0.8010971E-01
       -2   -1    0    0    0  501  0.00000000000E+00  0.00000000000E+00  0.18652149024E+04  0.18652149024E+04  0.25500000920E-02 0. -1.
        2   -1    0    0  501    0  0.00000000000E+00  0.00000000000E+00 -0.21106767796E+04  0.21106767796E+04  0.25500000920E-02 0.  1.
    10030    2    1    2    0    0  0.00000000000E+00  0.00000000000E+00 -0.24546187723E+03  0.39758916821E+04  0.39683073387E+04 0.  0.
        2    1    3    3  502    0  0.77272651353E+03  0.12186729698E+04  0.12417072606E+04  0.19037087469E+04  0.25500000920E-02 0. -1.
       -2    1    3    3    0  502 -0.77272651353E+03 -0.12186729698E+04 -0.14871691378E+04  0.20721829351E+04  0.25500000920E-02 0.  1.
</event>
<event>
 5   0  0.2612363E-08  0.3997200E+04  0.7818609E-02  0.8005112E-01
        2   -1    0    0  501    0  0.00000000000E+00  0.00000000000E+00  0.14884889412E+04  0.14884889412E+04  0.25500000920E-02 0.  1.
       -2   -1    0    0    0  501  0.00000000000E+00  0.00000000000E+00 -0.26835284372E+04  0.26835284372E+04  0.25500000920E-02 0. -1.
    10030    2    1    2    0    0  0.00000000000E+00  0.00000000000E+00 -0.11950394960E+04  0.41720173784E+04  0.39972002213E+04 0.  0.
        4    1    3    3  502    0  0.45351892379E+02 -0.15157511650E+04 -0.19563176457E+04  0.24752249862E+04  0.12699999809E+01 0. -1.
       -4    1    3    3    0  502 -0.45351892379E+02  0.15157511650E+04  0.76127814979E+03  0.16967923923E+04  0.12699999809E+01 0.  1.
</event>
<event>
 5   0  0.8329875E-09  0.3987763E+04  0.7818609E-02  0.8007020E-01
        1   -1    0    0  501    0  0.00000000000E+00  0.00000000000E+00  0.15572296325E+04  0.15572296325E+04  0.50400001928E-02 0. -1.
       -1   -1    0    0    0  501  0.00000000000E+00  0.00000000000E+00 -0.25529713219E+04  0.25529713219E+04  0.50400001928E-02 0.  1.
    10030    2    1    2    0    0  0.00000000000E+00  0.00000000000E+00 -0.99574168940E+03  0.41102009543E+04  0.39877625773E+04 0.  0.
        1    1    3    3  502    0  0.25177596230E+03 -0.19768565578E+04 -0.43099726336E+03  0.20388996117E+04  0.50400001928E-02 0. -1.
       -1    1    3    3    0  502 -0.25177596230E+03  0.19768565578E+04 -0.56474442604E+03  0.20713013427E+04  0.50400001928E-02 0.  1.
</event>
<event>
 5   0  0.2599332E-08  0.3998894E+04  0.7818609E-02  0.8004770E-01
       -2   -1    0    0    0  501  0.00000000000E+00  0.00000000000E+00  0.23324955300E+04  0.23324955300E+04  0.25500000920E-02 0. -1.
        2   -1    0    0  501    0  0.00000000000E+00  0.00000000000E+00 -0.17139533673E+04  0.17139533673E+04  0.25500000920E-02 0.  1.
    10030    2    1    2    0    0  0.00000000000E+00  0.00000000000E+00  0.61854216273E+03  0.40464488973E+04  0.39988941311E+04 0.  0.
        2    1    3    3  502    0  0.12019750159E+04 -0.48251774488E+03  0.18506125182E+04  0.22588346565E+04  0.25500000920E-02 0. -1.
       -2    1    3    3    0  502 -0.12019750159E+04  0.48251774488E+03 -0.12320703555E+04  0.17876142408E+04  0.25500000920E-02 0.  1.
</event>
<event>
 5   0  0.8329875E-09  0.3999796E+04  0.7818609E-02  0.8004588E-01
       -1   -1    0    0    0  501  0.00000000000E+00  0.00000000000E+00  0.15702992914E+04  0.15702992914E+04  0.50400001928E-02 0. -1.
        1   -1    0    0  501    0  0.00000000000E+00  0.00000000000E+00 -0.25470247865E+04  0.25470247865E+04  0.50400001928E-02 0.  1.
    10030    2    1    2    0    0  0.00000000000E+00  0.00000000000E+00 -0.97672549516E+03  0.41173240779E+04  0.39997956035E+04 0.  0.
        5    1    3    3  502    0  0.50379919957E+03  0.76375395225E+03 -0.23189400970E+04  0.24929177677E+04  0.46999998093E+01 0.  1.
       -5    1    3    3    0  502 -0.50379919957E+03 -0.76375395225E+03  0.13422146019E+04  0.16244063102E+04  0.46999998093E+01 0. -1.
</event>
<event>
 5   0  0.8329875E-09  0.4009891E+04  0.7818609E-02  0.8002554E-01
       -1   -1    0    0    0  501  0.00000000000E+00  0.00000000000E+00  0.17684925071E+04  0.17684925071E+04  0.50400001928E-02 0.  1.
        1   -1    0    0  501    0  0.00000000000E+00  0.00000000000E+00 -0.22730126441E+04  0.22730126441E+04  0.50400001928E-02 0. -1.
    10030    2    1    2    0    0  0.00000000000E+00  0.00000000000E+00 -0.50452013699E+03  0.40415051511E+04  0.40098906865E+04 0.  0.
        3    1    3    3  502    0 -0.10878303864E+04  0.40258473005E+03 -0.19004992932E+04  0.22265100467E+04  0.10100000352E+00 0. -1.
       -3    1    3    3    0  502  0.10878303864E+04 -0.40258473005E+03  0.13959791562E+04  0.18149951044E+04  0.10100000352E+00 0.  1.
</event>
<event>
 5   0  0.2587493E-08  0.3960374E+04  0.7818609E-02  0.8012588E-01
       -2   -1    0    0    0  501  0.00000000000E+00  0.00000000000E+00  0.12831488545E+04  0.12831488545E+04  0.25500000920E-02 0.  1.
        2   -1    0    0  501    0  0.00000000000E+00  0.00000000000E+00 -0.30558735160E+04  0.30558735160E+04  0.25500000920E-02 0. -1.
    10030    2    1    2    0    0  0.00000000000E+00  0.00000000000E+00 -0.17727246615E+04  0.43390223706E+04  0.39603740236E+04 0.  0.
        5    1    3    3  502    0 -0.99668820214E+03 -0.79284966407E+03  0.77489365025E+03  0.14907985180E+04  0.46999998093E+01 0.  1.
       -5    1    3    3    0  502  0.99668820214E+03  0.79284966407E+03 -0.25476183117E+04  0.28482238526E+04  0.46999998093E+01 0. -1.
</event>
<event>
 5   0  0.8329875E-09  0.4002253E+04  0.7818609E-02  0.8004092E-01
       -1   -1    0    0    0  501  0.00000000000E+00  0.00000000000E+00  0.23117900844E+04  0.23117900844E+04  0.50400001928E-02 0.  1.
        1   -1    0    0  501    0  0.00000000000E+00  0.00000000000E+00 -0.17322106456E+04  0.17322106456E+04  0.50400001928E-02 0. -1.
    10030    2    1    2    0    0  0.00000000000E+00  0.00000000000E+00  0.57957943880E+03  0.40440007299E+04  0.40022530627E+04 0.  0.
        5    1    3    3  502    0  0.19119455190E+04  0.59032363038E+03  0.31164046672E+03  0.20251319776E+04  0.46999998093E+01 0. -1.
       -5    1    3    3    0  502 -0.19119455190E+04 -0.59032363038E+03  0.26793897208E+03  0.20188687523E+04  0.46999998093E+01 0.  1.
</event>
<event>
 5   0  0.2650452E-08  0.3999250E+04  0.7818609E-02  0.8004698E-01
        2   -1    0    0  501    0  0.00000000000E+00  0.00000000000E+00  0.20291642162E+04  0.20291642162E+04  0.25500000920E-02 0. -1.
       -2   -1    0    0    0  501  0.00000000000E+00  0.00000000000E+00 -0.19705160256E+04  0.19705160256E+04  0.25500000920E-02 0.  1.
    10030    2    1    2    0    0  0.00000000000E+00  0.00000000000E+00  0.58648190583E+02  0.39996802418E+04  0.39992502330E+04 0.  0.
        3    1    3    3  502    0 -0.69073857996E+03 -0.22341582460E+03  0.18927115323E+04  0.20271633805E+04  0.10100000352E+00 0. -1.
       -3    1    3    3    0  502  0.69073857996E+03  0.22341582460E+03 -0.18340633417E+04  0.19725168613E+04  0.10100000352E+00 0.  1.
</event>
<event>
 5   0  0.8329875E-09  0.3973772E+04  0.7818609E-02  0.8009859E-01
        1   -1    0    0  501    0  0.00000000000E+00  0.00000000000E+00  0.17958799284E+04  0.17958799284E+04  0.50400001928E-02 0.  1.
       -1   -1    0    0    0  501  0.00000000000E+00  0.00000000000E+00 -0.21982071515E+04  0.21982071515E+04  0.50400001928E-02 0. -1.
    10030    2    1    2    0    0  0.00000000000E+00  0.00000000000E+00 -0.40232722306E+03  0.39940870799E+04  0.39737720628E+04 0.  0.
        1    1    3    3  502    0 -0.68077205162E+03  0.17832024349E+04  0.35343124962E+03  0.19411788064E+04  0.50400001928E-02 0.  1.
       -1    1    3    3    0  502  0.68077205162E+03 -0.17832024349E+04 -0.75575847268E+03  0.20529082735E+04  0.50400001928E-02 0. -1.
</event>
<event>
 5   0  0.8329875E-09  0.3995913E+04  0.7818609E-02  0.8005371E-01
        1   -1    0    0  501    0  0.00000000000E+00  0.00000000000E+00  0.13911611536E+04  0.13911611537E+04  0.50400001928E-02 0.  1.
       -1   -1    0    0    0  501  0.00000000000E+00  0.00000000000E+00 -0.28694236914E+04  0.28694236914E+04  0.50400001928E-02 0. -1.
    10030    2    1    2    0    0  0.00000000000E+00  0.00000000000E+00 -0.14782625378E+04  0.42605848451E+04  0.39959132988E+04 0.  0.
        5    1    3    3  502    0  0.13238698916E+04  0.88790805422E+03  0.54513893982E+03  0.16846990106E+04  0.46999998093E+01 0.  1.
       -5    1    3    3    0  502 -0.13238698916E+04 -0.88790805422E+03 -0.20234014776E+04  0.25758858345E+04  0.46999998093E+01 0. -1.
</event>
<event>
 5   0  0.2650452E-08  0.4001350E+04  0.7818609E-02  0.8004274E-01
        2   -1    0    0  501    0  0.00000000000E+00  0.00000000000E+00  0.15693398210E+04  0.15693398210E+04  0.25500000920E-02 0. -1.
       -2   -1    0    0    0  501  0.00000000000E+00  0.00000000000E+00 -0.25505626707E+04  0.25505626707E+04  0.25500000920E-02 0.  1.
    10030    2    1    2    0    0  0.00000000000E+00  0.00000000000E+00 -0.98122284976E+03  0.41199024917E+04  0.40013495549E+04 0.  0.
        3    1    3    3  502    0  0.11759475349E+04 -0.13463266936E+04  0.43448040176E+03  0.18396253425E+04  0.10100000352E+00 0. -1.
       -3    1    3    3    0  502 -0.11759475349E+04  0.13463266936E+04 -0.14157032515E+04  0.22802771493E+04  0.10100000352E+00 0.  1.
</event>
<event>
 5   0  0.2587493E-08  0.3997158E+04  0.7818609E-02  0.8005120E-01
       -2   -1    0    0    0  501  0.00000000000E+00  0.00000000000E+00  0.14696871335E+04  0.14696871335E+04  0.25500000920E-02 0. -1.
        2   -1    0    0  501    0  0.00000000000E+00  0.00000000000E+00 -0.27178016350E+04  0.27178016350E+04  0.25500000920E-02 0.  1.
    10030    2    1    2    0    0  0.00000000000E+00  0.00000000000E+00 -0.12481145016E+04  0.41874887685E+04  0.39971580375E+04 0.  0.
        5    1    3    3  502    0  0.18668684764E+03 -0.11767673859E+04 -0.23050370453E+04  0.25947738495E+04  0.46999998093E+01 0.  1.
       -5    1    3    3    0  502 -0.18668684764E+03  0.11767673859E+04  0.10569225438E+04  0.15927149190E+04  0.46999998093E+01 0. -1.
</event>
<event>
 5   0  0.2587493E-08  0.4004349E+04  0.7818609E-02  0.8003670E-01
       -2   -1    0    0    0  501  0.00000000000E+00  0.00000000000E+00  0.20446705634E+04  0.20446705634E+04  0.25500000920E-02 0.  1.
        2   -1    0    0  501    0  0.00000000000E+00  0.00000000000E+00 -0.19605619145E+04  0.19605619145E+04  0.25500000920E-02 0. -1.
    10030    2    1    2    0    0  0.00000000000E+00  0.00000000000E+00  0.84108648925E+02  0.40052324779E+04  0.40043492527E+04 0.  0.
        5    1    3    3  502    0  0.16294894727E+03  0.65969407158E+03  0.19257998907E+04  0.20421743159E+04  0.46999998093E+01 0.  1.
       -5    1    3    3    0  502 -0.16294894727E+03 -0.65969407158E+03 -0.18416912418E+04  0.19630581620E+04  0.46999998093E+01 0. -1.
</event>
<event>
 5   0  0.8329875E-09  0.4002651E+04  0.7818609E-02  0.8004012E-01
        1   -1    0    0  501    0  0.00000000000E+00  0.00000000000E+00  0.14425393975E+04  0.14425393975E+04  0.50400001928E-02 0. -1.
       -1   -1    0    0    0  501  0.00000000000E+00  0.00000000000E+00 -0.27765647729E+04  0.27765647730E+04  0.50400001928E-02 0.  1.
    10030    2    1    2    0    0  0.00000000000E+00  0.00000000000E+00 -0.13340253755E+04  0.42191041704E+04  0.40026511587E+04 0.  0.
        4    1    3    3  502    0 -0.19827350003E+04 -0.23143842555E+03 -0.81793594440E+03  0.21572720386E+04  0.12699999809E+01 0. -1.
       -4    1    3    3    0  502  0.19827350003E+04  0.23143842555E+03 -0.51608943107E+03  0.20618321319E+04  0.12699999809E+01 0.  1.
</event>
<event>
 5   0  0.8329875E-09  0.3992929E+04  0.7818609E-02  0.8005975E-01
        1   -1    0    0  501    0  0.00000000000E+00  0.00000000000E+00  0.13042056474E+04  0.13042056474E+04  0.50400001928E-02 0.  1.
       -1   -1    0    0    0  501  0.00000000000E+00  0.00000000000E+00 -0.30561668388E+04  0.30561668389E+04  0.50400001928E-02 0. -1.
    10030    2    1    2    0    0  0.00000000000E+00  0.00000000000E+00 -0.17519611914E+04  0.43603724863E+04  0.39929287751E+04 0.  0.
        4    1    3    3  502    0 -0.19363120219E+04 -0.25641448027E+03 -0.42464867090E+03  0.19988448510E+04  0.12699999809E+01 0. -1.
       -4    1    3    3    0  502  0.19363120219E+04  0.25641448027E+03 -0.13273125205E+04  0.23615276352E+04  0.12699999809E+01 0.  1.
</event>
<event>
 5   0  0.8329875E-09  0.4000763E+04  0.7818609E-02  0.8004393E-01
       -1   -1    0    0    0  501  0.00000000000E+00  0.00000000000E+00  0.25311401128E+04  0.25311401128E+04  0.50400001928E-02 0.  1.
        1   -1    0    0  501    0  0.00000000000E+00  0.00000000000E+00 -0.15809188500E+04  0.15809188500E+04  0.50400001928E-02 0. -1.
    10030    2    1    2    0    0  0.00000000000E+00  0.00000000000E+00  0.95022126275E+03  0.41120589628E+04  0.40007634854E+04 0.  0.
        3    1    3    3  502    0 -0.28530537089E+03 -0.16537905962E+04 -0.64379845426E+03  0.17974701529E+04  0.10100000352E+00 0. -1.
       -3    1    3    3    0  502  0.28530537089E+03  0.16537905962E+04  0.15940197170E+04  0.23145888099E+04  0.10100000352E+00 0.  1.
</event>
<event>
 5   0  0.8329875E-09  0.4004609E+04  0.7818609E-02  0.8003617E-01
       -1   -1    0    0    0  501  0.00000000000E+00  0.00000000000E+00  0.20705736932E+04  0.20705736932E+04  0.50400001928E-02 0.  1.
        1   -1    0    0  501    0  0.00000000000E+00  0.00000000000E+00 -0.19362863127E+04  0.19362863127E+04  0.50400001928E-02 0. -1.
    10030    2    1    2    0    0  0.00000000000E+00  0.00000000000E+00  0.13428738053E+03  0.40068600059E+04  0.40046090953E+04 0.  0.
        1    1    3    3  502    0 -0.91405116473E+03  0.49948047984E+03  0.17781496728E+04  0.20607732870E+04  0.50400001928E-02 0.  1.
       -1    1    3    3    0  502  0.91405116473E+03 -0.49948047984E+03 -0.16438622922E+04  0.19460867189E+04  0.50400001928E-02 0. -1.
</event>
<event>
 5   0  0.2650452E-08  0.3998932E+04  0.7818609E-02  0.8004762E-01
       -2   -1    0    0    0  501  0.00000000000E+00  0.00000000000E+00  0.19400990267E+04  0.19400990267E+04  0.25500000920E-02 0.  1.
        2   -1    0    0  501    0  0.00000000000E+00  0.00000000000E+00 -0.20606493732E+04  0.20606493732E+04  0.25500000920E-02 0. -1.
    10030    2    1    2    0    0  0.00000000000E+00  0.00000000000E+00 -0.12055034645E+03  0.40007483999E+04  0.39989317791E+04 0.  0.
        3    1    3    3  502    0 -0.12793272775E+03  0.16929114659E+04  0.99639960350E+03  0.19685345296E+04  0.10100000352E+00 0.  1.
       -3    1    3    3    0  502  0.12793272775E+03 -0.16929114659E+04 -0.11169499499E+04  0.20322138704E+04  0.10100000352E+00 0. -1.
</event>
<event>
 5   0  0.2587493E-08  0.4003692E+04  0.7818609E-02  0.8003802E-01
       -2   -1    0    0    0  501  0.00000000000E+00  0.00000000000E+00  0.18371265522E+04  0.18371265523E+04  0.25500000920E-02 0. -1.
        2   -1    0    0  501    0  0.00000000000E+00  0.00000000000E+00 -0.21813340883E+04  0.21813340883E+04  0.25500000920E-02 0.  1.
    10030    2    1    2    0    0  0.00000000000E+00  0.00000000000E+00 -0.34420753601E+03  0.40184606405E+04  0.40036916829E+04 0.  0.
        5    1    3    3  502    0 -0.13330922078E+03 -0.11262033879E+04  0.14836053989E+04  0.18674079600E+04  0.46999998093E+01 0. -1.
       -5    1    3    3    0  502  0.13330922078E+03  0.11262033879E+04 -0.18278129349E+04  0.21510526805E+04  0.46999998093E+01 0.  1.
</event>
<event>
 5   0  0.2587493E-08  0.3999928E+04  0.7818609E-02  0.8004561E-01
        2   -1    0    0  501    0  0.00000000000E+00  0.00000000000E+00  0.19145965556E+04  0.19145965556E+04  0.25500000920E-02 0.  1.
       -2   -1    0    0    0  501  0.00000000000E+00  0.00000000000E+00 -0.20891375459E+04  0.20891375459E+04  0.25500000920E-02 0. -1.
    10030    2    1    2    0    0  0.00000000000E+00  0.00000000000E+00 -0.17454099026E+03  0.40037341015E+04  0.39999277741E+04 0.  0.
        5    1    3    3  502    0 -0.95854451718E+03  0.70442152444E+03  0.15219957792E+04  0.19317118101E+04  0.46999998093E+01 0.  1.
       -5    1    3    3    0  502  0.95854451718E+03 -0.70442152444E+03 -0.16965367695E+04  0.20720222913E+04  0.46999998093E+01 0. -1.
</event>
<event>
 5   0  0.8329875E-09  0.3997670E+04  0.7818609E-02  0.8005017E-01
       -1   -1    0    0    0  501  0.00000000000E+00  0.00000000000E+00  0.15943316547E+04  0.15943316547E+04  0.50400001928E-02 0.  1.
        1   -1    0    0  501    0  0.00000000000E+00  0.00000000000E+00 -0.25059657419E+04  0.25059657419E+04  0.50400001928E-02 0. -1.
    10030    2    1    2    0    0  0.00000000000E+00  0.00000000000E+00 -0.91163408715E+03  0.41002973966E+04  0.39976695751E+04 0.  0.
        1    1    3    3  502    0  0.12093481466E+04 -0.12463864885E+04  0.55920349441E+03  0.18244754771E+04  0.50400001928E-02 0.  1.
       -1    1    3    3    0  502 -0.12093481466E+04  0.12463864885E+04 -0.14708375816E+04  0.22758219196E+04  0.50400001928E-02 0. -1.
</event>
<event>
 5   0  0.2746876E-08  0.4016354E+04  0.7818609E-02  0.8001256E-01
        2   -1    0    0  501    0  0.00000000000E+00  0.00000000000E+00  0.25263661047E+04  0.25263661047E+04  0.25500000920E-02 0. -1.
       -2   -1    0    0    0  501  0.00000000000E+00  0.00000000000E+00 -0.15962750699E+04  0.15962750699E+04  0.25500000920E-02 0.  1.
    10030    2    1    2    0    0  0.00000000000E+00  0.00000000000E+00  0.93009103482E+03  0.41226411747E+04  0.40163541828E+04 0.  0.
        1    1    3    3  502    0 -0.16037214912E+04 -0.83288178821E+03  0.13641013425E+04  0.22641526378E+04  0.50400001928E-02 0. -1.
       -1    1    3    3    0  502  0.16037214912E+04  0.83288178821E+03 -0.43401030763E+03  0.18584885369E+04  0.50400001928E-02 0.  1.
</event>
<event>
 5   0  0.2746876E-08  0.3997771E+04  0.7818609E-02  0.8004996E-01
        2   -1    0    0  501    0  0.00000000000E+00  0.00000000000E+00  0.18157418534E+04  0.18157418534E+04  0.25500000920E-02 0.  1.
       -2   -1    0    0    0  501  0.00000000000E+00  0.00000000000E+00 -0.22005019567E+04  0.22005019567E+04  0.25500000920E-02 0. -1.
    10030    2    1    2    0    0  0.00000000000E+00  0.00000000000E+00 -0.38476010331E+03  0.40162438100E+04  0.39977711296E+04 0.  0.
        1    1    3    3  502    0 -0.15917721735E+04  0.26158136782E+03  0.99348954261E+03  0.18945144327E+04  0.50400001928E-02 0.  1.
       -1    1    3    3    0  502  0.15917721735E+04 -0.26158136782E+03 -0.13782496459E+04  0.21217293774E+04  0.50400001928E-02 0. -1.
</event>
<event>
 5   0  0.8329875E-09  0.4001244E+04  0.7818609E-02  0.8004296E-01
       -1   -1    0    0    0  501  0.00000000000E+00  0.00000000000E+00  0.17368704867E+04  0.17368704867E+04  0.50400001928E-02 0.  1.
        1   -1    0    0  501    0  0.00000000000E+00  0.00000000000E+00 -0.23044259096E+04  0.23044259096E+04  0.50400001928E-02 0. -1.
    10030    2    1    2    0    0  0.00000000000E+00  0.00000000000E+00 -0.56755542290E+03  0.40412963963E+04  0.40012444820E+04 0.  0.
        3    1    3    3  502    0  0.14154109176E+03 -0.10162943631E+04  0.14508539458E+04  0.17770383494E+04  0.10100000352E+00 0.  1.
       -3    1    3    3    0  502 -0.14154109176E+03  0.10162943631E+04 -0.20184093687E+04  0.22642580469E+04  0.10100000352E+00 0. -1.
</event>
<event>
 5   0  0.2612363E-08  0.4004433E+04  0.7818609E-02  0.8003653E-01
        2   -1    0    0  501    0  0.00000000000E+00  0.00000000000E+00  0.17570631043E+04  0.17570631043E+04  0.25500000920E-02 0. -1.
       -2   -1    0    0    0  501  0.00000000000E+00  0.00000000000E+00 -0.22815746682E+04  0.22815746682E+04  0.25500000920E-02 0.  1.
    10030    2    1    2    0    0  0.00000000000E+00  0.00000000000E+00 -0.52451156388E+03  0.40386377724E+04  0.40044328782E+04 0.  0.
        4    1    3    3  502    0 -0.71081015829E+03 -0.59094095411E+03 -0.20534914641E+04  0.22519527301E+04  0.12699999809E+01 0.  1.
       -4    1    3    3    0  502  0.71081015829E+03  0.59094095411E+03  0.15289799002E+04  0.17866850424E+04  0.12699999809E+01 0. -1.
</event>
<event>
 5   0  0.8329875E-09  0.3994754E+04  0.7818609E-02  0.8005606E-01
       -1   -1    0    0    0  501  0.00000000000E+00  0.00000000000E+00  0.26089106822E+04  0.26089106822E+04  0.50400001928E-02 0.  1.
        1   -1    0    0  501    0  0.00000000000E+00  0.00000000000E+00 -0.15291880389E+04  0.15291880389E+04  0.50400001928E-02 0. -1.
    10030    2    1    2    0    0  0.00000000000E+00  0.00000000000E+00  0.10797226433E+04  0.41380987211E+04  0.39947540649E+04 0.  0.
        2    1    3    3  502    0  0.58556164845E+02  0.12446415616E+04  0.21569521995E+04  0.24909845909E+04  0.25500000920E-02 0.  1.
       -2    1    3    3    0  502 -0.58556164845E+02 -0.12446415616E+04 -0.10772295562E+04  0.16471141302E+04  0.25500000920E-02 0. -1.
</event>
<event>
 5   0  0.2599332E-08  0.3996333E+04  0.7818609E-02  0.8005287E-01
        2   -1    0    0  501    0  0.00000000000E+00  0.00000000000E+00  0.17658273114E+04  0.17658273114E+04  0.25500000920E-02 0.  1.
       -2   -1    0    0    0  501  0.00000000000E+00  0.00000000000E+00 -0.22610760951E+04  0.22610760951E+04  0.25500000920E-02 0. -1.
    10030    2    1    2    0    0  0.00000000000E+00  0.00000000000E+00 -0.49524878370E+03  0.40269034066E+04  0.39963332804E+04 0.  0.
        2    1    3    3  502    0  0.18848736138E+04 -0.46913156172E+03 -0.72007875849E+03  0.20715565116E+04  0.25500000920E-02 0. -1.
       -2    1    3    3    0  502 -0.18848736138E+04  0.46913156172E+03  0.22482997479E+03  0.19553468950E+04  0.25500000920E-02 0.  1.
</event>
<event>
 5   0  0.8329875E-09  0.3999358E+04  0.7818609E-02  0.8004676E-01
        1   -1    0    0  501    0  0.00000000000E+00  0.00000000000E+00  0.19889211608E+04  0.19889211608E+04  0.50400001928E-02 0.  1.
       -1   -1    0    0    0  501  0.00000000000E+00  0.00000000000E+00 -0.20104953403E+04  0.20104953404E+04  0.50400001928E-02 0. -1.
    10030    2    1    2    0    0  0.00000000000E+00  0.00000000000E+00 -0.21574179540E+02  0.39994165012E+04  0.39993583116E+04 0.  0.
        3    1    3    3  502    0  0.13903485291E+04 -0.12639462437E+04 -0.69496630431E+03  0.20033989403E+04  0.10100000352E+00 0. -1.
       -3    1    3    3    0  502 -0.13903485291E+04  0.12639462437E+04  0.67339212477E+03  0.19960175609E+04  0.10100000352E+00 0.  1.
</event>
<event>
 5   0  0.2599332E-08  0.3994074E+04  0.7818609E-02  0.8005743E-01
        2   -1    0    0  501    0  0.00000000000E+00  0.00000000000E+00  0.16903093897E+04  0.16903093897E+04  0.25500000920E-02 0. -1.
       -2   -1    0    0    0  501  0.00000000000E+00  0.00000000000E+00 -0.23594235682E+04  0.23594235682E+04  0.25500000920E-02 0.  1.
    10030    2    1    2    0    0  0.00000000000E+00  0.00000000000E+00 -0.66911417852E+03  0.40497329578E+04  0.39940735153E+04 0.  0.
        2    1    3    3  502    0  0.92179300216E+03  0.45183855734E+02  0.14611143625E+04  0.17281779711E+04  0.25500000920E-02 0. -1.
       -2    1    3    3    0  502 -0.92179300216E+03 -0.45183855734E+02 -0.21302285410E+04  0.23215549867E+04  0.25500000920E-02 0.  1.
</event>
<event>
 5   0  0.2587493E-08  0.3996735E+04  0.7818609E-02  0.8005206E-01
       -2   -1    0    0    0  501  0.00000000000E+00  0.00000000000E+00  0.16361804522E+04  0.16361804522E+04  0.25500000920E-02 0. -1.
        2   -1    0    0  501    0  0.00000000000E+00  0.00000000000E+00 -0.24407284836E+04  0.24407284836E+04  0.25500000920E-02 0.  1.
    10030    2    1    2    0    0  0.00000000000E+00  0.00000000000E+00 -0.80454803140E+03  0.40769089357E+04  0.39967347842E+04 0.  0.
        5    1    3    3  502    0 -0.59010985815E+03 -0.11063898588E+04  0.11849346130E+04  0.17252305039E+04  0.46999998093E+01 0. -1.
       -5    1    3    3    0  502  0.59010985815E+03  0.11063898588E+04 -0.19894826444E+04  0.23516784319E+04  0.46999998093E+01 0.  1.
</event>
<event>
 5   0  0.2587493E-08  0.3995434E+04  0.7818609E-02  0.8005468E-01
        2   -1    0    0  501    0  0.00000000000E+00  0.00000000000E+00  0.13878686669E+04  0.13878686669E+04  0.25500000920E-02 0. -1.
       -2   -1    0    0    0  501  0.00000000000E+00  0.00000000000E+00 -0.28755414029E+04  0.28755414029E+04  0.25500000920E-02 0.  1.
    10030    2    1    2    0    0  0.00000000000E+00  0.00000000000E+00 -0.14876727359E+04  0.42634100698E+04  0.39954343011E+04 0.  0.
        5    1    3    3  502    0  0.12196042079E+04 -0.57416164011E+03 -0.23170890502E+04  0.26806752451E+04  0.46999998093E+01 0.  1.
       -5    1    3    3    0  502 -0.12196042079E+04  0.57416164011E+03  0.82941631431E+03  0.15827348247E+04  0.46999998093E+01 0. -1.
</event>
<event>
 5   0  0.2587493E-08  0.3998442E+04  0.7818609E-02  0.8004861E-01
        2   -1    0    0  501    0  0.00000000000E+00  0.00000000000E+00  0.20404777279E+04  0.20404777279E+04  0.25500000920E-02 0.  1.
       -2   -1    0    0    0  501  0.00000000000E+00  0.00000000000E+00 -0.19587980711E+04  0.19587980711E+04  0.25500000920E-02 0. -1.
    10030    2    1    2    0    0  0.00000000000E+00  0.00000000000E+00  0.81679656773E+02  0.39992757990E+04  0.39984416152E+04 0.  0.
        5    1    3    3  502    0  0.28793192499E+03 -0.14415657731E+04  0.13960561102E+04  0.20273163109E+04  0.46999998093E+01 0.  1.
       -5    1    3    3    0  502 -0.28793192499E+03  0.14415657731E+04 -0.13143764534E+04  0.19719594881E+04  0.46999998093E+01 0. -1.
</event>
<event>
 5   0  0.8329875E-09  0.4002198E+04  0.7818609E-02  0.8004103E-01
       -1   -1    0    0    0  501  0.00000000000E+00  0.00000000000E+00  0.26934100919E+04  0.26934100919E+04  0.50400001928E-02 0. -1.
        1   -1    0    0  501    0  0.00000000000E+00  0.00000000000E+00 -0.14867387515E+04  0.14867387515E+04  0.50400001928E-02 0.  1.
    10030    2    1    2    0    0  0.00000000000E+00  0.00000000000E+00  0.12066713404E+04  0.41801488434E+04  0.40021979748E+04 0.  0.
        3    1    3    3  502    0 -0.18984168907E+04  0.14685838971E+03  0.12462052142E+04  0.22756496927E+04  0.10100000352E+00 0.  1.
       -3    1    3    3    0  502  0.18984168907E+04 -0.14685838971E+03 -0.39533873836E+02  0.19044991507E+04  0.10100000352E+00 0. -1.
</event>
<event>
 5   0  0.8329875E-09  0.4006240E+04  0.7818609E-02  0.8003289E-01
       -1   -1    0    0    0  501  0.00000000000E+00  0.00000000000E+00  0.13676885943E+04  0.13676885943E+04  0.50400001928E-02 0.  1.
        1   -1    0    0  501    0  0.00000000000E+00  0.00000000000E+00 -0.29337740077E+04  0.29337740077E+04  0.50400001928E-02 0. -1.
    10030    2    1    2    0    0  0.00000000000E+00  0.00000000000E+00 -0.15660854135E+04  0.43014626020E+04  0.40062397575E+04 0.  0.
        3    1    3    3  502    0  0.75021990750E+03  0.14307971439E+04  0.48848953534E+03  0.16877892087E+04  0.10100000352E+00 0.  1.
       -3    1    3    3    0  502 -0.75021990750E+03 -0.14307971439E+04 -0.20545749488E+04  0.26136733933E+04  0.10100000352E+00 0. -1.
</event>
<event>
 5   0  0.8329875E-09  0.3988789E+04  0.7818609E-02  0.8006812E-01
        1   -1    0    0  501    0  0.00000000000E+00  0.00000000000E+00  0.30934988967E+04  0.30934988967E+04  0.50400001928E-02 0.  1.
       -1   -1    0    0    0  501  0.00000000000E+00  0.00000000000E+00 -0.12857962780E+04  0.12857962780E+04  0.50400001928E-02 0. -1.
    10030    2    1    2    0    0  0.00000000000E+00  0.00000000000E+00  0.18077026187E+04  0.43792951748E+04  0.39887889729E+04 0.  0.
        5    1    3    3  502    0 -0.42223640237E+03 -0.18339042171E+04  0.17882174886E+03  0.18903670450E+04  0.46999998093E+01 0. -1.
       -5    1    3    3    0  502  0.42223640237E+03  0.18339042171E+04  0.16288808698E+04  0.24889281297E+04  0.46999998093E+01 0.  1.
</event>
<event>
 5   0  0.2746876E-08  0.3989791E+04  0.7818609E-02  0.8006609E-01
        2   -1    0    0  501    0  0.00000000000E+00  0.00000000000E+00  0.19517591408E+04  0.19517591409E+04  0.25500000920E-02 0.  1.
       -2   -1    0    0    0  501  0.00000000000E+00  0.00000000000E+00 -0.20389852336E+04  0.20389852336E+04  0.25500000920E-02 0. -1.
    10030    2    1    2    0    0  0.00000000000E+00  0.00000000000E+00 -0.87226092757E+02  0.39907443745E+04  0.39897910059E+04 0.  0.
        1    1    3    3  502    0 -0.70699657501E+03 -0.18103926001E+04 -0.49343435328E+03  0.20052039758E+04  0.50400001928E-02 0. -1.
       -1    1    3    3    0  502  0.70699657501E+03  0.18103926001E+04  0.40620826052E+03  0.19855403986E+04  0.50400001928E-02 0.  1.
</event>
<event>
 5   0  0.8329875E-09  0.3999708E+04  0.7818609E-02  0.8004606E-01
        1   -1    0    0  501    0  0.00000000000E+00  0.00000000000E+00  0.26119317419E+04  0.26119317419E+04  0.50400001928E-02 0.  1.
       -1   -1    0    0    0  501  0.00000000000E+00  0.00000000000E+00 -0.15312097819E+04  0.15312097819E+04  0.50400001928E-02 0. -1.
    10030    2    1    2    0    0  0.00000000000E+00  0.00000000000E+00  0.10807219600E+04  0.41431415238E+04  0.39997077057E+04 0.  0.
        5    1    3    3  502    0  0.16847902701E+03 -0.18715548266E+04 -0.16849707083E+03  0.18866679635E+04  0.46999998093E+01 0. -1.
       -5    1    3    3    0  502 -0.16847902701E+03  0.18715548266E+04  0.12492190308E+04  0.22564735603E+04  0.46999998093E+01 0.  1.
</event>
<event>
 5   0  0.2746876E-08  0.4002909E+04  0.7818609E-02  0.8003960E-01
        2   -1    0    0  501    0  0.00000000000E+00  0.00000000000E+00  0.19833159757E+04  0.19833159757E+04  0.25500000920E-02 0.  1.
       -2   -1    0    0    0  501  0.00000000000E+00  0.00000000000E+00 -0.20197585175E+04  0.20197585175E+04  0.25500000920E-02 0. -1.
    10030    2    1    2    0    0  0.00000000000E+00  0.00000000000E+00 -0.36442541746E+02  0.40030744932E+04  0.40029086099E+04 0.  0.
        1    1    3    3  502    0 -0.15747558072E+04  0.86294881899E+03  0.86571739969E+03  0.19934901888E+04  0.50400001928E-02 0.  1.
       -1    1    3    3    0  502  0.15747558072E+04 -0.86294881899E+03 -0.90215994143E+03  0.20095843044E+04  0.50400001928E-02 0. -1.
</event>
<event>
 5   0  0.2650452E-08  0.3987164E+04  0.7818609E-02  0.8007141E-01
        2   -1    0    0  501    0  0.00000000000E+00  0.00000000000E+00  0.15823239656E+04  0.15823239656E+04  0.25500000920E-02 0. -1.
       -2   -1    0    0    0  501  0.00000000000E+00  0.00000000000E+00 -0.25117293410E+04  0.25117293410E+04  0.25500000920E-02 0.  1.
    10030    2    1    2    0    0  0.00000000000E+00  0.00000000000E+00 -0.92940537537E+03  0.40940533066E+04  0.39871641708E+04 0.  0.
        3    1    3    3  502    0  0.41351697622E+03  0.30141038017E+03  0.15137427121E+04  0.15978928361E+04  0.10100000352E+00 0. -1.
       -3    1    3    3    0  502 -0.41351697622E+03 -0.30141038017E+03 -0.24431480875E+04  0.24961604705E+04  0.10100000352E+00 0.  1.
</event>
<event>
 5   0  0.2599332E-08  0.3996072E+04  0.7818609E-02  0.8005339E-01
       -2   -1    0    0    0  501  0.00000000000E+00  0.00000000000E+00  0.23307618519E+04  0.23307618519E+04  0.25500000920E-02 0. -1.
        2   -1    0    0  501    0  0.00000000000E+00  0.00000000000E+00 -0.17128082175E+04  0.17128082175E+04  0.25500000920E-02 0.  1.
    10030    2    1    2    0    0  0.00000000000E+00  0.00000000000E+00  0.61795363444E+03  0.40435700694E+04  0.39960720979E+04 0.  0.
        2    1    3    3  502    0  0.14927265291E+04 -0.13235330464E+04  0.42063256237E+03  0.20388486869E+04  0.25500000920E-02 0.  1.
       -2    1    3    3    0  502 -0.14927265291E+04  0.13235330464E+04  0.19732107207E+03  0.20047213824E+04  0.25500000920E-02 0. -1.
</event>
<event>
 5   0  0.8329875E-09  0.3997737E+04  0.7818609E-02  0.8005003E-01
        1   -1    0    0  501    0  0.00000000000E+00  0.00000000000E+00  0.32017504855E+04  0.32017504855E+04  0.50400001928E-02 0.  1.
       -1   -1    0    0    0  501  0.00000000000E+00  0.00000000000E+00 -0.12479033409E+04  0.12479033409E+04  0.50400001928E-02 0. -1.
    10030    2    1    2    0    0  0.00000000000E+00  0.00000000000E+00  0.19538471446E+04  0.44496538264E+04  0.39977369235E+04 0.  0.
        2    1    3    3  502    0 -0.10359356528E+04 -0.16336612501E+04  0.41656035930E+03  0.19787709038E+04  0.25500000920E-02 0. -1.
       -2    1    3    3    0  502  0.10359356528E+04  0.16336612501E+04  0.15372867853E+04  0.24708829226E+04  0.25500000920E-02 0.  1.
</event>
<event>
 5   0  0.2587493E-08  0.4003793E+04  0.7818609E-02  0.8003782E-01
        2   -1    0    0  501    0  0.00000000000E+00  0.00000000000E+00  0.22745203966E+04  0.22745203966E+04  0.25500000920E-02 0. -1.
       -2   -1    0    0    0  501  0.00000000000E+00  0.00000000000E+00 -0.17619492516E+04  0.17619492517E+04  0.25500000920E-02 0.  1.
    10030    2    1    2    0    0  0.00000000000E+00  0.00000000000E+00  0.51257114492E+03  0.40364696482E+04  0.40037929570E+04 0.  0.
        5    1    3    3  502    0 -0.96303881621E+03  0.58188335114E+02 -0.15120933176E+04  0.17936772103E+04  0.46999998093E+01 0.  1.
       -5    1    3    3    0  502  0.96303881621E+03 -0.58188335114E+02  0.20246644625E+04  0.22427924379E+04  0.46999998093E+01 0. -1.
</event>
<event>
 5   0  0.2587493E-08  0.3997680E+04  0.7818609E-02  0.8005015E-01
       -2   -1    0    0    0  501  0.00000000000E+00  0.00000000000E+00  0.19288002132E+04  0.19288002132E+04  0.25500000920E-02 0.  1.
        2   -1    0    0  501    0  0.00000000000E+00  0.00000000000E+00 -0.20714229842E+04  0.20714229842E+04  0.25500000920E-02 0. -1.
    10030    2    1    2    0    0  0.00000000000E+00  0.00000000000E+00 -0.14262277095E+03  0.40002231974E+04  0.39976798739E+04 0.  0.
        5    1    3    3  502    0  0.49683385400E+03 -0.54716644457E+03  0.17870465032E+04  0.19338542579E+04  0.46999998093E+01 0.  1.
       -5    1    3    3    0  502 -0.49683385400E+03  0.54716644457E+03 -0.19296692741E+04  0.20663689395E+04  0.46999998093E+01 0. -1.
</event>
<event>
 5   0  0.2746876E-08  0.4002173E+04  0.7818609E-02  0.8004108E-01
        2   -1    0    0  501    0  0.00000000000E+00  0.00000000000E+00  0.14777064556E+04  0.14777064556E+04  0.25500000920E-02 0. -1.
       -2   -1    0    0    0  501  0.00000000000E+00  0.00000000000E+00 -0.27098393748E+04  0.27098393748E+04  0.25500000920E-02 0.  1.
    10030    2    1    2    0    0  0.00000000000E+00  0.00000000000E+00 -0.12321329192E+04  0.41875458304E+04  0.40021729787E+04 0.  0.
        1    1    3    3  502    0  0.30685524085E+03  0.12469624568E+04 -0.22218397072E+04  0.25662515839E+04  0.50400001928E-02 0.  1.
       -1    1    3    3    0  502 -0.30685524085E+03 -0.12469624568E+04  0.98970678793E+03  0.16212942465E+04  0.50400001928E-02 0. -1.
</event>
<event>
 5   0  0.2612363E-08  0.4003420E+04  0.7818609E-02  0.8003857E-01
        2   -1    0    0  501    0  0.00000000000E+00  0.00000000000E+00  0.14104305211E+04  0.14104305211E+04  0.25500000920E-02 0.  1.
       -2   -1    0    0    0  501  0.00000000000E+00  0.00000000000E+00 -0.28408655032E+04  0.28408655032E+04  0.25500000920E-02 0. -1.
    10030    2    1    2    0    0  0.00000000000E+00  0.00000000000E+00 -0.14304349821E+04  0.42512960243E+04  0.40034202437E+04 0.  0.
        4    1    3    3  502    0 -0.84607350593E+03 -0.11505411604E+04 -0.22046494069E+04  0.26267976625E+04  0.12699999809E+01 0. -1.
       -4    1    3    3    0  502  0.84607350593E+03  0.11505411604E+04  0.77421442478E+03  0.16244983618E+04  0.12699999809E+01 0.  1.
</event>
<event>
 5   0  0.8329875E-09  0.4003001E+04  0.7818609E-02  0.8003941E-01
       -1   -1    0    0    0  501  0.00000000000E+00  0.00000000000E+00  0.19300959189E+04  0.19300959189E+04  0.50400001928E-02 0. -1.
        1   -1    0    0  501    0  0.00000000000E+00  0.00000000000E+00 -0.20755471544E+04  0.20755471544E+04  0.50400001928E-02 0.  1.
    10030    2    1    2    0    0  0.00000000000E+00  0.00000000000E+00 -0.14545123552E+03  0.40056430732E+04  0.40030014200E+04 0.  0.
        2    1    3    3  502    0 -0.14891163153E+04 -0.11633486863E+04 -0.73282564941E+03  0.20267908128E+04  0.25500000920E-02 0.  1.
       -2    1    3    3    0  502  0.14891163153E+04  0.11633486863E+04  0.58737441389E+03  0.19788522604E+04  0.25500000920E-02 0. -1.
</event>
<event>
 5   0  0.8329875E-09  0.3981009E+04  0.7818609E-02  0.8008389E-01
       -1   -1    0    0    0  501  0.00000000000E+00  0.00000000000E+00  0.17988067213E+04  0.17988067213E+04  0.50400001928E-02 0.  1.
        1   -1    0    0  501    0  0.00000000000E+00  0.00000000000E+00 -0.22026318689E+04  0.22026318689E+04  0.50400001928E-02 0. -1.
    10030    2    1    2    0    0  0.00000000000E+00  0.00000000000E+00 -0.40382514762E+03  0.40014385902E+04  0.39810094249E+04 0.  0.
        2    1    3    3  502    0 -0.12241108582E+04  0.14505189306E+04  0.40087858869E+03  0.19398856162E+04  0.25500000920E-02 0.  1.
       -2    1    3    3    0  502  0.12241108582E+04 -0.14505189306E+04 -0.80470373631E+03  0.20615529740E+04  0.25500000920E-02 0. -1.
</event>
<event>
 5   0  0.2587493E-08  0.4001786E+04  0.7818609E-02  0.8004186E-01
       -2   -1    0    0    0  501  0.00000000000E+00  0.00000000000E+00  0.13226002239E+04  0.13226002239E+04  0.25500000920E-02 0.  1.
        2   -1    0    0  501    0  0.00000000000E+00  0.00000000000E+00 -0.30270467732E+04  0.30270467732E+04  0.25500000920E-02 0. -1.
    10030    2    1    2    0    0  0.00000000000E+00  0.00000000000E+00 -0.17044465493E+04  0.43496469971E+04  0.40017859713E+04 0.  0.
        5    1    3    3  502    0  0.19725705888E+03 -0.25672231565E+03  0.12939360289E+04  0.13338325350E+04  0.46999998093E+01 0.  1.
       -5    1    3    3    0  502 -0.19725705888E+03  0.25672231565E+03 -0.29983825782E+04  0.30158144621E+04  0.46999998093E+01 0. -1.
</event>
<event>
 5   0  0.2650452E-08  0.3933595E+04  0.7818609E-02  0.8018078E-01
       -2   -1    0    0    0  501  0.00000000000E+00  0.00000000000E+00  0.16827855819E+04  0.16827855819E+04  0.25500000920E-02 0. -1.
        2   -1    0    0  501    0  0.00000000000E+00  0.00000000000E+00 -0.22987431537E+04  0.22987431537E+04  0.25500000920E-02 0.  1.
    10030    2    1    2    0    0  0.00000000000E+00  0.00000000000E+00 -0.61595757180E+03  0.39815287356E+04  0.39335947100E+04 0.  0.
        3    1    3    3  502    0 -0.66835670040E+03 -0.29280087415E+03 -0.21566687035E+04  0.22767636983E+04  0.10100000352E+00 0.  1.
       -3    1    3    3    0  502  0.66835670040E+03  0.29280087415E+03  0.15407111317E+04  0.17047650373E+04  0.10100000352E+00 0. -1.
</event>
<event>
 5   0  0.8329875E-09  0.3999093E+04  0.7818609E-02  0.8004730E-01
       -1   -1    0    0    0  501  0.00000000000E+00  0.00000000000E+00  0.19588496552E+04  0.19588496552E+04  0.50400001928E-02 0.  1.
        1   -1    0    0  501    0  0.00000000000E+00  0.00000000000E+00 -0.20410889572E+04  0.20410889572E+04  0.50400001928E-02 0. -1.
    10030    2    1    2    0    0  0.00000000000E+00  0.00000000000E+00 -0.82239302059E+02  0.39999386124E+04  0.39990930972E+04 0.  0.
        2    1    3    3  502    0  0.84366108059E+03  0.17940626928E+04  0.21924565326E+03  0.19946161588E+04  0.25500000920E-02 0. -1.
       -2    1    3    3    0  502 -0.84366108059E+03 -0.17940626928E+04 -0.30148495532E+03  0.20053224536E+04  0.25500000920E-02 0.  1.
</event>
<event>
 5   0  0.2599332E-08  0.3995648E+04  0.7818609E-02  0.8005425E-01
        2   -1    0    0  501    0  0.00000000000E+00  0.00000000000E+00  0.21913594512E+04  0.21913594512E+04  0.25500000920E-02 0. -1.
       -2   -1    0    0    0  501  0.00000000000E+00  0.00000000000E+00 -0.18213808181E+04  0.18213808181E+04  0.25500000920E-02 0.  1.
    10030    2    1    2    0    0  0.00000000000E+00  0.00000000000E+00  0.36997863312E+03  0.40127402694E+04  0.39956476672E+04 0.  0.
        2    1    3    3  502    0  0.27988368697E+02 -0.91233420357E+03  0.19697136167E+04  0.21709234854E+04  0.25500000920E-02 0. -1.
       -2    1    3    3    0  502 -0.27988368697E+02  0.91233420357E+03 -0.15997349836E+04  0.18418167839E+04  0.25500000920E-02 0.  1.
</event>
<event>
 5   0  0.8329875E-09  0.3996675E+04  0.7818609E-02  0.8005218E-01
        1   -1    0    0  501    0  0.00000000000E+00  0.00000000000E+00  0.21040461777E+04  0.21040461777E+04  0.50400001928E-02 0.  1.
       -1   -1    0    0    0  501  0.00000000000E+00  0.00000000000E+00 -0.18979397544E+04  0.18979397544E+04  0.50400001928E-02 0. -1.
    10030    2    1    2    0    0  0.00000000000E+00  0.00000000000E+00  0.20610642332E+03  0.40019859321E+04  0.39966750609E+04 0.  0.
        4    1    3    3  502    0  0.10320700200E+04  0.91972583150E+03  0.15479839358E+04  0.20754083959E+04  0.12699999809E+01 0.  1.
       -4    1    3    3    0  502 -0.10320700200E+04 -0.91972583150E+03 -0.13418775125E+04  0.19265775362E+04  0.12699999809E+01 0. -1.
</event>
<event>
 5   0  0.8329875E-09  0.4003279E+04  0.7818609E-02  0.8003885E-01
       -1   -1    0    0    0  501  0.00000000000E+00  0.00000000000E+00  0.18668624846E+04  0.18668624846E+04  0.50400001928E-02 0. -1.
        1   -1    0    0  501    0  0.00000000000E+00  0.00000000000E+00 -0.21461471881E+04  0.21461471881E+04  0.50400001928E-02 0.  1.
    10030    2    1    2    0    0  0.00000000000E+00  0.00000000000E+00 -0.27928470350E+03  0.40130096727E+04  0.40032794915E+04 0.  0.
        3    1    3    3  502    0  0.10329275564E+04  0.12073258487E+04  0.10806852549E+04  0.19215763508E+04  0.10100000352E+00 0.  1.
       -3    1    3    3    0  502 -0.10329275564E+04 -0.12073258487E+04 -0.13599699584E+04  0.20914333218E+04  0.10100000352E+00 0. -1.
</event>
<event>
 5   0  0.2746876E-08  0.4001521E+04  0.7818609E-02  0.8004240E-01
       -2   -1    0    0    0  501  0.00000000000E+00  0.00000000000E+00  0.15151771354E+04  0.15151771354E+04  0.25500000920E-02 0. -1.
        2   -1    0    0  501    0  0.00000000000E+00  0.00000000000E+00 -0.26419637114E+04  0.26419637114E+04  0.25500000920E-02 0.  1.
    10030    2    1    2    0    0  0.00000000000E+00  0.00000000000E+00 -0.11267865760E+04  0.41571408468E+04  0.40015212148E+04 0.  0.
        1    1    3    3  502    0 -0.79724491085E+01  0.18877614966E+04 -0.12519948462E+04  0.22652148073E+04  0.50400001928E-02 0.  1.
       -1    1    3    3    0  502  0.79724491085E+01 -0.18877614966E+04  0.12520827020E+03  0.18919260395E+04  0.50400001928E-02 0. -1.
</event>
<event>
 5   0  0.8329875E-09  0.3977252E+04  0.7818609E-02  0.8009151E-01
        1   -1    0    0  501    0  0.00000000000E+00  0.00000000000E+00  0.17146117248E+04  0.17146117248E+04  0.50400001928E-02 0. -1.
       -1   -1    0    0    0  501  0.00000000000E+00  0.00000000000E+00 -0.23064309772E+04  0.23064309772E+04  0.50400001928E-02 0.  1.
    10030    2    1    2    0    0  0.00000000000E+00  0.00000000000E+00 -0.59181925237E+03  0.40210427021E+04  0.39772521148E+04 0.  0.
        2    1    3    3  502    0  0.15715484103E+04 -0.11662584092E+04 -0.65294158830E+03  0.20630695094E+04  0.25500000920E-02 0.  1.
       -2    1    3    3    0  502 -0.15715484103E+04  0.11662584092E+04  0.61122335921E+02  0.19579731926E+04  0.25500000920E-02 0. -1.
</event>
<event>
 5   0  0.2746876E-08  0.4008959E+04  0.7818609E-02  0.8002742E-01
        2   -1    0    0  501    0  0.00000000000E+00  0.00000000000E+00  0.18410166042E+04  0.18410166042E+04  0.25500000920E-02 0.  1.
       -2   -1    0    0    0  501  0.00000000000E+00  0.00000000000E+00 -0.21824564916E+04  0.21824564916E+04  0.25500000920E-02 0. -1.
    10030    2    1    2    0    0  0.00000000000E+00  0.00000000000E+00 -0.34143988738E+03  0.40234730957E+04  0.40089592858E+04 0.  0.
        1    1    3    3  502    0  0.50779105985E+02  0.83796854020E+02 -0.21800516406E+04  0.21822524111E+04  0.50400001928E-02 0. -1.
       -1    1    3    3    0  502 -0.50779105985E+02 -0.83796854020E+02  0.18386117532E+04  0.18412206846E+04  0.50400001928E-02 0.  1.
</event>
<event>
 5   0  0.2650452E-08  0.3993572E+04  0.7818609E-02  0.8005845E-01
       -2   -1    0    0    0  501  0.00000000000E+00  0.00000000000E+00  0.16371418393E+04  0.16371418393E+04  0.25500000920E-02 0. -1.
        2   -1    0    0  501    0  0.00000000000E+00  0.00000000000E+00 -0.24354361241E+04  0.24354361241E+04  0.25500000920E-02 0.  1.
    10030    2    1    2    0    0  0.00000000000E+00  0.00000000000E+00 -0.79829428479E+03  0.40725779635E+04  0.39935720230E+04 0.  0.
        3    1    3    3  502    0  0.46660027903E+03 -0.77073327281E+03 -0.22163679692E+04  0.23924950540E+04  0.10100000352E+00 0.  1.
       -3    1    3    3    0  502 -0.46660027903E+03  0.77073327281E+03  0.14180736844E+04  0.16800829095E+04  0.10100000352E+00 0. -1.
</event>
<event>
 5   0  0.8329875E-09  0.3995790E+04  0.7818609E-02  0.8005396E-01
        1   -1    0    0  501    0  0.00000000000E+00  0.00000000000E+00  0.18663914086E+04  0.18663914086E+04  0.50400001928E-02 0. -1.
       -1   -1    0    0    0  501  0.00000000000E+00  0.00000000000E+00 -0.21386641465E+04  0.21386641465E+04  0.50400001928E-02 0.  1.
    10030    2    1    2    0    0  0.00000000000E+00  0.00000000000E+00 -0.27227273787E+03  0.40050555551E+04  0.39957899789E+04 0.  0.
        3    1    3    3  502    0  0.12180235207E+04 -0.10312489793E+04  0.10685360503E+04  0.19206314210E+04  0.10100000352E+00 0.  1.
       -3    1    3    3    0  502 -0.12180235207E+04  0.10312489793E+04 -0.13408087882E+04  0.20844241341E+04  0.10100000352E+00 0. -1.
</event>
<event>
 5   0  0.8329875E-09  0.3998426E+04  0.7818609E-02  0.8004864E-01
       -1   -1    0    0    0  501  0.00000000000E+00  0.00000000000E+00  0.16612264198E+04  0.16612264198E+04  0.50400001928E-02 0.  1.
        1   -1    0    0  501    0  0.00000000000E+00  0.00000000000E+00 -0.24059655108E+04  0.24059655108E+04  0.50400001928E-02 0. -1.
    10030    2    1    2    0    0  0.00000000000E+00  0.00000000000E+00 -0.74473909092E+03  0.40671919306E+04  0.39984264263E+04 0.  0.
        1    1    3    3  502    0  0.90565305086E+03  0.43932041881E+03  0.13846598606E+04  0.17118682217E+04  0.50400001928E-02 0.  1.
       -1    1    3    3    0  502 -0.90565305086E+03 -0.43932041881E+03 -0.21293989515E+04  0.23553237089E+04  0.50400001928E-02 0. -1.
</event>
<event>
 5   0  0.2746876E-08  0.3980285E+04  0.7818609E-02  0.8008536E-01
        2   -1    0    0  501    0  0.00000000000E+00  0.00000000000E+00  0.30859095802E+04  0.30859095802E+04  0.25500000920E-02 0. -1.
       -2   -1    0    0    0  501  0.00000000000E+00  0.00000000000E+00 -0.12834684161E+04  0.12834684161E+04  0.25500000920E-02 0.  1.
    10030    2    1    2    0    0  0.00000000000E+00  0.00000000000E+00  0.18024411641E+04  0.43693779963E+04  0.39802851562E+04 0.  0.
        1    1    3    3  502    0 -0.15278989174E+04 -0.11618243198E+04  0.14783063632E+04  0.24227464901E+04  0.50400001928E-02 0.  1.
       -1    1    3    3    0  502  0.15278989174E+04  0.11618243198E+04  0.32413480093E+03  0.19466315062E+04  0.50400001928E-02 0. -1.
</event>
<event>
 5   0  0.8329875E-09  0.4030756E+04  0.7818609E-02  0.7998371E-01
        1   -1    0    0  501    0  0.00000000000E+00  0.00000000000E+00  0.16803759335E+04  0.16803759335E+04  0.50400001928E-02 0. -1.
       -1   -1    0    0    0  501  0.00000000000E+00  0.00000000000E+00 -0.24171664082E+04  0.24171664083E+04  0.50400001928E-02 0.  1.
    10030    2    1    2    0    0  0.00000000000E+00  0.00000000000E+00 -0.73679047476E+03  0.40975423418E+04  0.40307558893E+04 0.  0.
        2    1    3    3  502    0  0.10094914427E+03 -0.18649684985E+04  0.40141687928E+03  0.19103491150E+04  0.25500000920E-02 0. -1.
       -2    1    3    3    0  502 -0.10094914427E+03  0.18649684985E+04 -0.11382073540E+04  0.21871932267E+04  0.25500000920E-02 0.  1.
</event>
<event>
 5   0  0.8329875E-09  0.4003535E+04  0.7818609E-02  0.8003834E-01
        1   -1    0    0  501    0  0.00000000000E+00  0.00000000000E+00  0.18109718881E+04  0.18109718881E+04  0.50400001928E-02 0.  1.
       -1   -1    0    0    0  501  0.00000000000E+00  0.00000000000E+00 -0.22126639547E+04  0.22126639547E+04  0.50400001928E-02 0. -1.
    10030    2    1    2    0    0  0.00000000000E+00  0.00000000000E+00 -0.40169206657E+03  0.40236358428E+04  0.40035345483E+04 0.  0.
        1    1    3    3  502    0 -0.11173550147E+04  0.99843671611E+03  0.11331139591E+04  0.18786445511E+04  0.50400001928E-02 0.  1.
       -1    1    3    3    0  502  0.11173550147E+04 -0.99843671611E+03 -0.15348060257E+04  0.21449912917E+04  0.50400001928E-02 0. -1.
</event>
<event>
 5   0  0.2650452E-08  0.3982607E+04  0.7818609E-02  0.8008065E-01
        2   -1    0    0  501    0  0.00000000000E+00  0.00000000000E+00  0.28333949103E+04  0.28333949103E+04  0.25500000920E-02 0.  1.
       -2   -1    0    0    0  501  0.00000000000E+00  0.00000000000E+00 -0.13994833984E+04  0.13994833984E+04  0.25500000920E-02 0. -1.
    10030    2    1    2    0    0  0.00000000000E+00  0.00000000000E+00  0.14339115119E+04  0.42328783088E+04  0.39826067535E+04 0.  0.
        3    1    3    3  502    0 -0.12203667217E+04  0.20017538268E+03 -0.94186791958E+03  0.15545032349E+04  0.10100000352E+00 0. -1.
       -3    1    3    3    0  502  0.12203667217E+04 -0.20017538268E+03  0.23757794314E+04  0.26783750739E+04  0.10100000352E+00 0.  1.
</event>
<event>
 5   0  0.8329875E-09  0.4004528E+04  0.7818609E-02  0.8003634E-01
       -1   -1    0    0    0  501  0.00000000000E+00  0.00000000000E+00  0.18381356027E+04  0.18381356027E+04  0.50400001928E-02 0.  1.
        1   -1    0    0  501    0  0.00000000000E+00  0.00000000000E+00 -0.21810474897E+04  0.21810474897E+04  0.50400001928E-02 0. -1.
    10030    2    1    2    0    0  0.00000000000E+00  0.00000000000E+00 -0.34291188692E+03  0.40191830924E+04  0.40045279582E+04 0.  0.
        4    1    3    3  502    0 -0.73169350097E+03 -0.33315763925E+03  0.16690188728E+04  0.18525644396E+04  0.12699999809E+01 0.  1.
       -4    1    3    3    0  502  0.73169350097E+03  0.33315763925E+03 -0.20119307597E+04  0.21666186528E+04  0.12699999809E+01 0. -1.
</event>
<event>
 5   0  0.8329875E-09  0.3998506E+04  0.7818609E-02  0.8004848E-01
       -1   -1    0    0    0  501  0.00000000000E+00  0.00000000000E+00  0.29576965163E+04  0.29576965164E+04  0.50400001928E-02 0.  1.
        1   -1    0    0  501    0  0.00000000000E+00  0.00000000000E+00 -0.13513934172E+04  0.13513934173E+04  0.50400001928E-02 0. -1.
    10030    2    1    2    0    0  0.00000000000E+00  0.00000000000E+00  0.16063030991E+04  0.43090899336E+04  0.39985055220E+04 0.  0.
        1    1    3    3  502    0 -0.98184079600E+03 -0.64466789321E+03  0.25466565712E+04  0.28044728083E+04  0.50400001928E-02 0.  1.
       -1    1    3    3    0  502  0.98184079600E+03  0.64466789321E+03 -0.94035347206E+03  0.15046171253E+04  0.50400001928E-02 0. -1.
</event>
<event>
 5   0  0.8329875E-09  0.3999057E+04  0.7818609E-02  0.8004737E-01
        1   -1    0    0  501    0  0.00000000000E+00  0.00000000000E+00  0.15276459160E+04  0.15276459160E+04  0.50400001928E-02 0.  1.
       -1   -1    0    0    0  501  0.00000000000E+00  0.00000000000E+00 -0.26171735933E+04  0.26171735933E+04  0.50400001928E-02 0. -1.
    10030    2    1    2    0    0  0.00000000000E+00  0.00000000000E+00 -0.10895276773E+04  0.41448195093E+04  0.39990571645E+04 0.  0.
        1    1    3    3  502    0 -0.85040709903E+03 -0.21855579719E+03 -0.24066707738E+04  0.25618397851E+04  0.50400001928E-02 0. -1.
       -1    1    3    3    0  502  0.85040709903E+03  0.21855579719E+03  0.13171430965E+04  0.15829797242E+04  0.50400001928E-02 0.  1.
</event>
<event>
 5   0  0.2599332E-08  0.3938992E+04  0.7818609E-02  0.8016968E-01
        2   -1    0    0  501    0  0.00000000000E+00  0.00000000000E+00  0.21694177335E+04  0.21694177335E+04  0.25500000920E-02 0. -1.
       -2   -1    0    0    0  501  0.00000000000E+00  0.00000000000E+00 -0.17879977146E+04  0.17879977146E+04  0.25500000920E-02 0.  1.
    10030    2    1    2    0    0  0.00000000000E+00  0.00000000000E+00  0.38142001897E+03  0.39574154481E+04  0.39389917235E+04 0.  0.
        2    1    3    3  502    0 -0.44112690752E+03  0.19120506763E+04  0.35997118300E+03  0.19950213006E+04  0.25500000920E-02 0. -1.
       -2    1    3    3    0  502  0.44112690752E+03 -0.19120506763E+04  0.21448835966E+02  0.19623941475E+04  0.25500000920E-02 0.  1.
</event>
<event>
 5   0  0.2612363E-08  0.3998207E+04  0.7818609E-02  0.8004908E-01
       -2   -1    0    0    0  501  0.00000000000E+00  0.00000000000E+00  0.16075878775E+04  0.16075878775E+04  0.25500000920E-02 0.  1.
        2   -1    0    0  501    0  0.00000000000E+00  0.00000000000E+00 -0.24859692117E+04  0.24859692117E+04  0.25500000920E-02 0. -1.
    10030    2    1    2    0    0  0.00000000000E+00  0.00000000000E+00 -0.87838133420E+03  0.40935570893E+04  0.39982065823E+04 0.  0.
        4    1    3    3  502    0  0.88820547929E+03 -0.79823365152E+03  0.12022672835E+04  0.16945601700E+04  0.12699999809E+01 0.  1.
       -4    1    3    3    0  502 -0.88820547929E+03  0.79823365152E+03 -0.20806486177E+04  0.23989969193E+04  0.12699999809E+01 0. -1.
</event>
<event>
 5   0  0.2650452E-08  0.4006292E+04  0.7818609E-02  0.8003279E-01
        2   -1    0    0  501    0  0.00000000000E+00  0.00000000000E+00  0.17952838030E+04  0.17952838030E+04  0.25500000920E-02 0.  1.
       -2   -1    0    0    0  501  0.00000000000E+00  0.00000000000E+00 -0.22350745623E+04  0.22350745623E+04  0.25500000920E-02 0. -1.
    10030    2    1    2    0    0  0.00000000000E+00  0.00000000000E+00 -0.43979075933E+03  0.40303583653E+04  0.40062916320E+04 0.  0.
        3    1    3    3  502    0  0.10669962043E+04  0.72048955979E+03 -0.17637173215E+04  0.21836402877E+04  0.10100000352E+00 0. -1.
       -3    1    3    3    0  502 -0.10669962043E+04 -0.72048955979E+03  0.13239265622E+04  0.18467180776E+04  0.10100000352E+00 0.  1.
</event>
<event>
 5   0  0.8329875E-09  0.3987564E+04  0.7818609E-02  0.8007060E-01
       -1   -1    0    0    0  501  0.00000000000E+00  0.00000000000E+00  0.17970744305E+04  0.17970744305E+04  0.50400001928E-02 0. -1.
        1   -1    0    0  501    0  0.00000000000E+00  0.00000000000E+00 -0.22120210619E+04  0.22120210619E+04  0.50400001928E-02 0.  1.
    10030    2    1    2    0    0  0.00000000000E+00  0.00000000000E+00 -0.41494663139E+03  0.40090954924E+04  0.39875639130E+04 0.  0.
        5    1    3    3  502    0 -0.10626650107E+04  0.13345245864E+04 -0.12450007796E+04  0.21119331968E+04  0.46999998093E+01 0.  1.
       -5    1    3    3    0  502  0.10626650107E+04 -0.13345245864E+04  0.83005414825E+03  0.18971622955E+04  0.46999998093E+01 0. -1.
</event>
<event>
 5   0  0.2650452E-08  0.3946723E+04  0.7818609E-02  0.8015381E-01
       -2   -1    0    0    0  501  0.00000000000E+00  0.00000000000E+00  0.22301489858E+04  0.22301489858E+04  0.25500000920E-02 0. -1.
        2   -1    0    0  501    0  0.00000000000E+00  0.00000000000E+00 -0.17461418534E+04  0.17461418534E+04  0.25500000920E-02 0.  1.
    10030    2    1    2    0    0  0.00000000000E+00  0.00000000000E+00  0.48400713235E+03  0.39762908392E+04  0.39467234428E+04 0.  0.
        3    1    3    3  502    0  0.12771650894E+04 -0.15157016813E+03  0.17498898364E+04  0.21716902706E+04  0.10100000352E+00 0. -1.
       -3    1    3    3    0  502 -0.12771650894E+04  0.15157016813E+03 -0.12658827041E+04  0.18046005686E+04  0.10100000352E+00 0.  1.
</event>
<event>
 5   0  0.2599332E-08  0.3999183E+04  0.7818609E-02  0.8004711E-01
       -2   -1    0    0    0  501  0.00000000000E+00  0.00000000000E+00  0.13603363933E+04  0.13603363933E+04  0.25500000920E-02 0.  1.
        2   -1    0    0  501    0  0.00000000000E+00  0.00000000000E+00 -0.29392475828E+04  0.29392475828E+04  0.25500000920E-02 0. -1.
    10030    2    1    2    0    0  0.00000000000E+00  0.00000000000E+00 -0.15789111895E+04  0.42995839761E+04  0.39991826443E+04 0.  0.
        2    1    3    3  502    0 -0.53500777786E+03  0.95139421994E+03  0.10117983562E+04  0.14883279873E+04  0.25500000920E-02 0.  1.
       -2    1    3    3    0  502  0.53500777786E+03 -0.95139421994E+03 -0.25907095457E+04  0.28112559888E+04  0.25500000920E-02 0. -1.
</event>
<event>
 5   0  0.8329875E-09  0.4024821E+04  0.7818609E-02  0.7999558E-01
       -1   -1    0    0    0  501  0.00000000000E+00  0.00000000000E+00  0.16006993756E+04  0.16006993756E+04  0.50400001928E-02 0.  1.
        1   -1    0    0  501    0  0.00000000000E+00  0.00000000000E+00 -0.25300166105E+04  0.25300166105E+04  0.50400001928E-02 0. -1.
    10030    2    1    2    0    0  0.00000000000E+00  0.00000000000E+00 -0.92931723491E+03  0.41307159860E+04  0.40248209941E+04 0.  0.
        3    1    3    3  502    0 -0.85816867136E+03 -0.10519333262E+02  0.14034609999E+04  0.16450735283E+04  0.10100000352E+00 0.  1.
       -3    1    3    3    0  502  0.85816867136E+03  0.10519333262E+02 -0.23327782348E+04  0.24856424578E+04  0.10100000352E+00 0. -1.
</event>
<event>
 5   0  0.2587493E-08  0.3997864E+04  0.7818609E-02  0.8004978E-01
        2   -1    0    0  501    0  0.00000000000E+00  0.00000000000E+00  0.31322593464E+04  0.31322593464E+04  0.25500000920E-02 0.  1.
       -2   -1    0    0    0  501  0.00000000000E+00  0.00000000000E+00 -0.12756701885E+04  0.12756701885E+04  0.25500000920E-02 0. -1.
    10030    2    1    2    0    0  0.00000000000E+00  0.00000000000E+00  0.18565891579E+04  0.44079295348E+04  0.39978643652E+04 0.  0.
        5    1    3    3  502    0  0.59939786803E+03 -0.10749334923E+03  0.30274911791E+04  0.30881317255E+04  0.46999998093E+01 0.  1.
       -5    1    3    3    0  502 -0.59939786803E+03  0.10749334923E+03 -0.11709020212E+04  0.13197978093E+04  0.46999998093E+01 0. -1.
</event>
<event>
 5   0  0.2587493E-08  0.4004195E+04  0.7818609E-02  0.8003701E-01
        2   -1    0    0  501    0  0.00000000000E+00  0.00000000000E+00  0.24585135096E+04  0.24585135096E+04  0.25500000920E-02 0.  1.
       -2   -1    0    0    0  501  0.00000000000E+00  0.00000000000E+00 -0.16304136690E+04  0.16304136690E+04  0.25500000920E-02 0. -1.
    10030    2    1    2    0    0  0.00000000000E+00  0.00000000000E+00  0.82809984061E+03  0.40889271786E+04  0.40041948162E+04 0.  0.
        5    1    3    3  502    0 -0.51046262917E+03 -0.60592296636E+03 -0.14635140598E+04  0.16642145986E+04  0.46999998093E+01 0. -1.
       -5    1    3    3    0  502  0.51046262917E+03  0.60592296636E+03  0.22916139004E+04  0.24247125800E+04  0.46999998093E+01 0.  1.
</event>
<event>
 5   0  0.2746876E-08  0.4015076E+04  0.7818609E-02  0.8001512E-01
        2   -1    0    0  501    0  0.00000000000E+00  0.00000000000E+00  0.20625257182E+04  0.20625257182E+04  0.25500000920E-02 0.  1.
       -2   -1    0    0    0  501  0.00000000000E+00  0.00000000000E+00 -0.19540167540E+04  0.19540167540E+04  0.25500000920E-02 0. -1.
    10030    2    1    2    0    0  0.00000000000E+00  0.00000000000E+00  0.10850896429E+03  0.40165424722E+04  0.40150764919E+04 0.  0.
        1    1    3    3  502    0 -0.73047743422E+03  0.15905099356E+04  0.10379194967E+04  0.20348454533E+04  0.50400001928E-02 0. -1.
       -1    1    3    3    0  502  0.73047743422E+03 -0.15905099356E+04 -0.92941053238E+03  0.19816970189E+04  0.50400001928E-02 0.  1.
</event>
<event>
 5   0  0.2612363E-08  0.4000001E+04  0.7818609E-02  0.8004546E-01
       -2   -1    0    0    0  501  0.00000000000E+00  0.00000000000E+00  0.17172395835E+04  0.17172395835E+04  0.25500000920E-02 0. -1.
        2   -1    0    0  501    0  0.00000000000E+00  0.00000000000E+00 -0.23293208435E+04  0.23293208435E+04  0.25500000920E-02 0.  1.
    10030    2    1    2    0    0  0.00000000000E+00  0.00000000000E+00 -0.61208125999E+03  0.40465604269E+04  0.40000009775E+04 0.  0.
        4    1    3    3  502    0 -0.39763051442E+03  0.98516996988E+03 -0.20202644306E+04  0.22825730827E+04  0.12699999809E+01 0.  1.
       -4    1    3    3    0  502  0.39763051442E+03 -0.98516996988E+03  0.14081831706E+04  0.17639873442E+04  0.12699999809E+01 0. -1.
</event>
<event>
 5   0  0.8329875E-09  0.4000144E+04  0.7818609E-02  0.8004517E-01
        1   -1    0    0  501    0  0.00000000000E+00  0.00000000000E+00  0.26053713273E+04  0.26053713273E+04  0.50400001928E-02 0.  1.
       -1   -1    0    0    0  501  0.00000000000E+00  0.00000000000E+00 -0.15354004872E+04  0.15354004872E+04  0.50400001928E-02 0. -1.
    10030    2    1    2    0    0  0.00000000000E+00  0.00000000000E+00  0.10699708401E+04  0.41407718145E+04  0.40001442000E+04 0.  0.
        3    1    3    3  502    0 -0.12304051091E+04  0.80870887890E+03  0.19362289283E+04  0.24324656742E+04  0.10100000352E+00 0.  1.
       -3    1    3    3    0  502  0.12304051091E+04 -0.80870887890E+03 -0.86625808826E+03  0.17083061403E+04  0.10100000352E+00 0. -1.
</event>
<event>
 5   0  0.8329875E-09  0.3996482E+04  0.7818609E-02  0.8005257E-01
        1   -1    0    0  501    0  0.00000000000E+00  0.00000000000E+00  0.11631135811E+04  0.11631135811E+04  0.50400001928E-02 0. -1.
       -1   -1    0    0    0  501  0.00000000000E+00  0.00000000000E+00 -0.34329975966E+04  0.34329975966E+04  0.50400001928E-02 0.  1.
    10030    2    1    2    0    0  0.00000000000E+00  0.00000000000E+00 -0.22698840155E+04  0.45961111777E+04  0.39964815168E+04 0.  0.
        4    1    3    3  502    0  0.16242368011E+04  0.98292633541E+03 -0.41796355580E+03  0.19439610371E+04  0.12699999809E+01 0. -1.
       -4    1    3    3    0  502 -0.16242368011E+04 -0.98292633541E+03 -0.18519204597E+04  0.26521501406E+04  0.12699999809E+01 0.  1.
</event>
<event>
 5   0  0.2746876E-08  0.3999561E+04  0.7818609E-02  0.8004635E-01
        2   -1    0    0  501    0  0.00000000000E+00  0.00000000000E+00  0.19296981111E+04  0.19296981111E+04  0.25500000920E-02 0.  1.
       -2   -1    0    0    0  501  0.00000000000E+00  0.00000000000E+00 -0.20724080604E+04  0.20724080604E+04  0.25500000920E-02 0. -1.
    10030    2    1    2    0    0  0.00000000000E+00  0.00000000000E+00 -0.14270994925E+03  0.40021061715E+04  0.39995609357E+04 0.  0.
        1    1    3    3  502    0  0.92622406863E+03 -0.17698890690E+04  0.22104557633E+02  0.19977204392E+04  0.50400001928E-02 0. -1.
       -1    1    3    3    0  502 -0.92622406863E+03  0.17698890690E+04 -0.16481450688E+03  0.20043857322E+04  0.50400001928E-02 0.  1.
</event>
<event>
 5   0  0.8329875E-09  0.3999291E+04  0.7818609E-02  0.8004690E-01
        1   -1    0    0  501    0  0.00000000000E+00  0.00000000000E+00  0.15603153473E+04  0.15603153473E+04  0.50400001928E-02 0.  1.
       -1   -1    0    0    0  501  0.00000000000E+00  0.00000000000E+00 -0.25626756626E+04  0.25626756626E+04  0.50400001928E-02 0. -1.
    10030    2    1    2    0    0  0.00000000000E+00  0.00000000000E+00 -0.10023603153E+04  0.41229910099E+04  0.39992910205E+04 0.  0.
        1    1    3    3  502    0 -0.17875115549E+04  0.34185465595E+03  0.35301278179E+03  0.18538285219E+04  0.50400001928E-02 0.  1.
       -1    1    3    3    0  502  0.17875115549E+04 -0.34185465595E+03 -0.13553730971E+04  0.22691624880E+04  0.50400001928E-02 0. -1.
</event>
<event>
 5   0  0.2612363E-08  0.4007060E+04  0.7818609E-02  0.8003124E-01
       -2   -1    0    0    0  501  0.00000000000E+00  0.00000000000E+00  0.14719943580E+04  0.14719943580E+04  0.25500000920E-02 0.  1.
        2   -1    0    0  501    0  0.00000000000E+00  0.00000000000E+00 -0.27270031878E+04  0.27270031878E+04  0.25500000920E-02 0. -1.
    10030    2    1    2    0    0  0.00000000000E+00  0.00000000000E+00 -0.12550088298E+04  0.41989975458E+04  0.40070604222E+04 0.  0.
        4    1    3    3  502    0 -0.12717440511E+03 -0.12059276911E+04  0.10437878330E+04  0.15999779932E+04  0.12699999809E+01 0.  1.
       -4    1    3    3    0  502  0.12717440511E+03  0.12059276911E+04 -0.22987966628E+04  0.25990195527E+04  0.12699999809E+01 0. -1.
</event>
<event>
 5   0  0.2587493E-08  0.4000211E+04  0.7818609E-02  0.8004504E-01
        2   -1    0    0  501    0  0.00000000000E+00  0.00000000000E+00  0.20138614241E+04  0.20138614241E+04  0.25500000920E-02 0.  1.
       -2   -1    0    0    0  501  0.00000000000E+00  0.00000000000E+00 -0.19864432001E+04  0.19864432001E+04  0.25500000920E-02 0. -1.
    10030    2    1    2    0    0  0.00000000000E+00  0.00000000000E+00  0.27418223988E+02  0.40003046242E+04  0.40002106604E+04 0.  0.
        5    1    3    3  502    0  0.19734770176E+04 -0.22160998221E+03  0.25178343105E+03  0.20017840816E+04  0.46999998093E+01 0.  1.
       -5    1    3    3    0  502 -0.19734770176E+04  0.22160998221E+03 -0.22436520706E+03  0.19985205426E+04  0.46999998093E+01 0. -1.
</event>
<event>
 5   0  0.2587493E-08  0.4002086E+04  0.7818609E-02  0.8004126E-01
       -2   -1    0    0    0  501  0.00000000000E+00  0.00000000000E+00  0.17302129950E+04  0.17302129950E+04  0.25500000920E-02 0.  1.
        2   -1    0    0  501    0  0.00000000000E+00  0.00000000000E+00 -0.23142665496E+04  0.23142665496E+04  0.25500000920E-02 0. -1.
    10030    2    1    2    0    0  0.00000000000E+00  0.00000000000E+00 -0.58405355460E+03  0.40444795446E+04  0.40020864848E+04 0.  0.
        5    1    3    3  502    0  0.13077048685E+04 -0.46728628224E+02 -0.18219575084E+04  0.22431733861E+04  0.46999998093E+01 0. -1.
       -5    1    3    3    0  502 -0.13077048685E+04  0.46728628224E+02  0.12379039538E+04  0.18013061585E+04  0.46999998093E+01 0.  1.
</event>
<event>
 5   0  0.8329875E-09  0.4050190E+04  0.7818609E-02  0.7994498E-01
       -1   -1    0    0    0  501  0.00000000000E+00  0.00000000000E+00  0.30467122702E+04  0.30467122702E+04  0.50400001928E-02 0. -1.
        1   -1    0    0  501    0  0.00000000000E+00  0.00000000000E+00 -0.13460440150E+04  0.13460440150E+04  0.50400001928E-02 0.  1.
    10030    2    1    2    0    0  0.00000000000E+00  0.00000000000E+00  0.17006682552E+04  0.43927562852E+04  0.40501895347E+04 0.  0.
        4    1    3    3  502    0 -0.50897934729E+03  0.15631520576E+04 -0.43227239173E+03  0.16998133323E+04  0.12699999809E+01 0.  1.
       -4    1    3    3    0  502  0.50897934729E+03 -0.15631520576E+04  0.21329406470E+04  0.26929429529E+04  0.12699999809E+01 0. -1.
</event>
<event>
 5   0  0.8329875E-09  0.3995600E+04  0.7818609E-02  0.8005435E-01
       -1   -1    0    0    0  501  0.00000000000E+00  0.00000000000E+00  0.15503137630E+04  0.15503137631E+04  0.50400001928E-02 0.  1.
        1   -1    0    0  501    0  0.00000000000E+00  0.00000000000E+00 -0.25744496811E+04  0.25744496811E+04  0.50400001928E-02 0. -1.
    10030    2    1    2    0    0  0.00000000000E+00  0.00000000000E+00 -0.10241359180E+04  0.41247634441E+04  0.39955999664E+04 0.  0.
        4    1    3    3  502    0  0.10040605659E+04  0.17271082690E+04 -0.52523030248E+03  0.20656497952E+04  0.12699999809E+01 0. -1.
       -4    1    3    3    0  502 -0.10040605659E+04 -0.17271082690E+04 -0.49890561553E+03  0.20591136489E+04  0.12699999809E+01 0.  1.
</event>
<event>
 5   0  0.8329875E-09  0.3993682E+04  0.7818609E-02  0.8005822E-01
        1   -1    0    0  501    0  0.00000000000E+00  0.00000000000E+00  0.12513666017E+04  0.12513666017E+04  0.50400001928E-02 0. -1.
       -1   -1    0    0    0  501  0.00000000000E+00  0.00000000000E+00 -0.31864154952E+04  0.31864154952E+04  0.50400001928E-02 0.  1.
    10030    2    1    2    0    0  0.00000000000E+00  0.00000000000E+00 -0.19350488935E+04  0.44377820969E+04  0.39936819753E+04 0.  0.
        1    1    3    3  502    0  0.96634593291E+03 -0.14108718754E+04  0.17813908475E+03  0.17193363384E+04  0.50400001928E-02 0. -1.
       -1    1    3    3    0  502 -0.96634593291E+03  0.14108718754E+04 -0.21131879783E+04  0.27184457586E+04  0.50400001928E-02 0.  1.
</event>
<event>
 5   0  0.2587493E-08  0.4001364E+04  0.7818609E-02  0.8004272E-01
        2   -1    0    0  501    0  0.00000000000E+00  0.00000000000E+00  0.23204897671E+04  0.23204897671E+04  0.25500000920E-02 0.  1.
       -2   -1    0    0    0  501  0.00000000000E+00  0.00000000000E+00 -0.17249496136E+04  0.17249496136E+04  0.25500000920E-02 0. -1.
    10030    2    1    2    0    0  0.00000000000E+00  0.00000000000E+00  0.59554015346E+03  0.40454393807E+04  0.40013637311E+04 0.  0.
        5    1    3    3  502    0  0.30419727095E+02 -0.13735082532E+04  0.17681822474E+04  0.22391830723E+04  0.46999998093E+01 0.  1.
       -5    1    3    3    0  502 -0.30419727095E+02  0.13735082532E+04 -0.11726420939E+04  0.18062563084E+04  0.46999998093E+01 0. -1.
</event>
<event>
 5   0  0.2612363E-08  0.4001691E+04  0.7818609E-02  0.8004206E-01
       -2   -1    0    0    0  501  0.00000000000E+00  0.00000000000E+00  0.17481493961E+04  0.17481493961E+04  0.25500000920E-02 0.  1.
        2   -1    0    0  501    0  0.00000000000E+00  0.00000000000E+00 -0.22900690320E+04  0.22900690320E+04  0.25500000920E-02 0. -1.
    10030    2    1    2    0    0  0.00000000000E+00  0.00000000000E+00 -0.54191963593E+03  0.40382184281E+04  0.40016910402E+04 0.  0.
        4    1    3    3  502    0 -0.94058531420E+03 -0.20820176929E+03 -0.20406298170E+04  0.22565948624E+04  0.12699999809E+01 0. -1.
       -4    1    3    3    0  502  0.94058531420E+03  0.20820176929E+03  0.14987101811E+04  0.17816235657E+04  0.12699999809E+01 0.  1.
</event>
<event>
 5   0  0.2746876E-08  0.3980023E+04  0.7818609E-02  0.8008589E-01
       -2   -1    0    0    0  501  0.00000000000E+00  0.00000000000E+00  0.23981303179E+04  0.23981303179E+04  0.25500000920E-02 0.  1.
        2   -1    0    0  501    0  0.00000000000E+00  0.00000000000E+00 -0.16513468594E+04  0.16513468594E+04  0.25500000920E-02 0. -1.
    10030    2    1    2    0    0  0.00000000000E+00  0.00000000000E+00  0.74678345851E+03  0.40494771774E+04  0.39800225974E+04 0.  0.
        1    1    3    3  502    0 -0.23921879224E+02  0.33489982647E+03  0.23691039856E+04  0.23927774331E+04  0.50400001928E-02 0.  1.
       -1    1    3    3    0  502  0.23921879224E+02 -0.33489982647E+03 -0.16223205270E+04  0.16566997442E+04  0.50400001928E-02 0. -1.
</event>
<event>
 5   0  0.2746876E-08  0.3990811E+04  0.7818609E-02  0.8006403E-01
       -2   -1    0    0    0  501  0.00000000000E+00  0.00000000000E+00  0.20647686823E+04  0.20647686823E+04  0.25500000920E-02 0.  1.
        2   -1    0    0  501    0  0.00000000000E+00  0.00000000000E+00 -0.19283722544E+04  0.19283722544E+04  0.25500000920E-02 0. -1.
    10030    2    1    2    0    0  0.00000000000E+00  0.00000000000E+00  0.13639642791E+03  0.39931409367E+04  0.39908107641E+04 0.  0.
        1    1    3    3  502    0 -0.14154447949E+04  0.21139753016E+03  0.14595027316E+04  0.20440942020E+04  0.50400001928E-02 0.  1.
       -1    1    3    3    0  502  0.14154447949E+04 -0.21139753016E+03 -0.13231063037E+04  0.19490467347E+04  0.50400001928E-02 0. -1.
</event>
<event>
 5   0  0.8329875E-09  0.4007441E+04  0.7818609E-02  0.8003047E-01
       -1   -1    0    0    0  501  0.00000000000E+00  0.00000000000E+00  0.17242525565E+04  0.17242525565E+04  0.50400001928E-02 0.  1.
        1   -1    0    0  501    0  0.00000000000E+00  0.00000000000E+00 -0.23284849274E+04  0.23284849274E+04  0.50400001928E-02 0. -1.
    10030    2    1    2    0    0  0.00000000000E+00  0.00000000000E+00 -0.60423237093E+03  0.40527374839E+04  0.40074411232E+04 0.  0.
        2    1    3    3  502    0  0.63113742776E+03 -0.36668643519E+03  0.15850150818E+04  0.17450118062E+04  0.25500000920E-02 0.  1.
       -2    1    3    3    0  502 -0.63113742776E+03  0.36668643519E+03 -0.21892474527E+04  0.23077256777E+04  0.25500000920E-02 0. -1.
</event>
<event>
 5   0  0.8329875E-09  0.3998844E+04  0.7818609E-02  0.8004780E-01
        3   -1    0    0  501    0  0.00000000000E+00  0.00000000000E+00  0.16658054557E+04  0.16658054588E+04  0.10100000352E+00 0.  1.
       -3   -1    0    0    0  501  0.00000000000E+00  0.00000000000E+00 -0.23998526242E+04  0.23998526263E+04  0.10100000352E+00 0. -1.
    10030    2    1    2    0    0  0.00000000000E+00  0.00000000000E+00 -0.73404716846E+03  0.40656580850E+04  0.39988436352E+04 0.  0.
        4    1    3    3  502    0  0.61297350353E+03 -0.22047078114E+03 -0.22889366030E+04  0.23798269405E+04  0.12699999809E+01 0. -1.
       -4    1    3    3    0  502 -0.61297350353E+03  0.22047078114E+03  0.15548894345E+04  0.16858311445E+04  0.12699999809E+01 0.  1.
</event>
<event>
 5   0  0.2587493E-08  0.4051596E+04  0.7818609E-02  0.7994218E-01
       -2   -1    0    0    0  501  0.00000000000E+00  0.00000000000E+00  0.21736217086E+04  0.21736217086E+04  0.25500000920E-02 0.  1.
        2   -1    0    0  501    0  0.00000000000E+00  0.00000000000E+00 -0.18880279491E+04  0.18880279491E+04  0.25500000920E-02 0. -1.
    10030    2    1    2    0    0  0.00000000000E+00  0.00000000000E+00  0.28559375949E+03  0.40616496577E+04  0.40515964935E+04 0.  0.
        5    1    3    3  502    0  0.90910312222E+03  0.25215887822E+03  0.19399480341E+04  0.21571910095E+04  0.46999998093E+01 0.  1.
       -5    1    3    3    0  502 -0.90910312222E+03 -0.25215887822E+03 -0.16543542746E+04  0.19044586482E+04  0.46999998093E+01 0. -1.
</event>
<event>
 5   0  0.8329875E-09  0.3984764E+04  0.7818609E-02  0.8007627E-01
        1   -1    0    0  501    0  0.00000000000E+00  0.00000000000E+00  0.17385012729E+04  0.17385012729E+04  0.50400001928E-02 0.  1.
       -1   -1    0    0    0  501  0.00000000000E+00  0.00000000000E+00 -0.22833383388E+04  0.22833383388E+04  0.50400001928E-02 0. -1.
    10030    2    1    2    0    0  0.00000000000E+00  0.00000000000E+00 -0.54483706590E+03  0.40218396116E+04  0.39847642883E+04 0.  0.
        4    1    3    3  502    0  0.39034144553E+03  0.68143832489E+03  0.15757000923E+04  0.17605558862E+04  0.12699999809E+01 0.  1.
       -4    1    3    3    0  502 -0.39034144553E+03 -0.68143832489E+03 -0.21205371582E+04  0.22612837254E+04  0.12699999809E+01 0. -1.
</event>
<event>
 5   0  0.2599332E-08  0.3998207E+04  0.7818609E-02  0.8004908E-01
       -2   -1    0    0    0  501  0.00000000000E+00  0.00000000000E+00  0.14597774364E+04  0.14597774364E+04  0.25500000920E-02 0. -1.
        2   -1    0    0  501    0  0.00000000000E+00  0.00000000000E+00 -0.27376872890E+04  0.27376872890E+04  0.25500000920E-02 0.  1.
    10030    2    1    2    0    0  0.00000000000E+00  0.00000000000E+00 -0.12779098526E+04  0.41974647254E+04  0.39982066642E+04 0.  0.
        2    1    3    3  502    0 -0.79389033089E+03 -0.90724422818E+03  0.10352173106E+04  0.15890339289E+04  0.25500000920E-02 0. -1.
       -2    1    3    3    0  502  0.79389033089E+03  0.90724422818E+03 -0.23131271631E+04  0.26084307965E+04  0.25500000920E-02 0.  1.
</event>
<event>
 5   0  0.8329875E-09  0.3965422E+04  0.7818609E-02  0.8011559E-01
       -1   -1    0    0    0  501  0.00000000000E+00  0.00000000000E+00  0.26807348243E+04  0.26807348243E+04  0.50400001928E-02 0.  1.
        1   -1    0    0  501    0  0.00000000000E+00  0.00000000000E+00 -0.14664420869E+04  0.14664420869E+04  0.50400001928E-02 0. -1.
    10030    2    1    2    0    0  0.00000000000E+00  0.00000000000E+00  0.12142927374E+04  0.41471769111E+04  0.39654217279E+04 0.  0.
        1    1    3    3  502    0  0.19000555261E+04 -0.55693037977E+03  0.49866186710E+03  0.20418242108E+04  0.50400001928E-02 0. -1.
       -1    1    3    3    0  502 -0.19000555261E+04  0.55693037977E+03  0.71563087028E+03  0.21053527003E+04  0.50400001928E-02 0.  1.
</event>
<event>
 5   0  0.2650452E-08  0.4006051E+04  0.7818609E-02  0.8003327E-01
        2   -1    0    0  501    0  0.00000000000E+00  0.00000000000E+00  0.14473946918E+04  0.14473946918E+04  0.25500000920E-02 0. -1.
       -2   -1    0    0    0  501  0.00000000000E+00  0.00000000000E+00 -0.27719541514E+04  0.27719541514E+04  0.25500000920E-02 0.  1.
    10030    2    1    2    0    0  0.00000000000E+00  0.00000000000E+00 -0.13245594597E+04  0.42193488432E+04  0.40060512851E+04 0.  0.
        3    1    3    3  502    0  0.19700972924E+04 -0.14360797559E+03 -0.10119267400E+04  0.22194373903E+04  0.10100000352E+00 0. -1.
       -3    1    3    3    0  502 -0.19700972924E+04  0.14360797559E+03 -0.31263271968E+03  0.19999114530E+04  0.10100000352E+00 0.  1.
</event>
<event>
 5   0  0.2587493E-08  0.3993608E+04  0.7818609E-02  0.8005837E-01
       -2   -1    0    0    0  501  0.00000000000E+00  0.00000000000E+00  0.27351371852E+04  0.27351371852E+04  0.25500000920E-02 0. -1.
        2   -1    0    0  501    0  0.00000000000E+00  0.00000000000E+00 -0.14577792134E+04  0.14577792134E+04  0.25500000920E-02 0.  1.
    10030    2    1    2    0    0  0.00000000000E+00  0.00000000000E+00  0.12773579717E+04  0.41929163986E+04  0.39936079599E+04 0.  0.
        5    1    3    3  502    0  0.16915258766E+03 -0.79567786396E+03 -0.12759228826E+04  0.15131811370E+04  0.46999998093E+01 0.  1.
       -5    1    3    3    0  502 -0.16915258766E+03  0.79567786396E+03  0.25532808543E+04  0.26797352616E+04  0.46999998093E+01 0. -1.
</event>
<event>
 5   0  0.8329875E-09  0.3999240E+04  0.7818609E-02  0.8004700E-01
       -1   -1    0    0    0  501  0.00000000000E+00  0.00000000000E+00  0.24891775677E+04  0.24891775677E+04  0.50400001928E-02 0. -1.
        1   -1    0    0  501    0  0.00000000000E+00  0.00000000000E+00 -0.16063457390E+04  0.16063457390E+04  0.50400001928E-02 0.  1.
    10030    2    1    2    0    0  0.00000000000E+00  0.00000000000E+00  0.88283182873E+03  0.40955233067E+04  0.39992398175E+04 0.  0.
        1    1    3    3  502    0 -0.19026431283E+04 -0.57722276845E+03  0.65924035255E+03  0.20947159331E+04  0.50400001928E-02 0. -1.
       -1    1    3    3    0  502  0.19026431283E+04  0.57722276845E+03  0.22359147618E+03  0.20008073736E+04  0.50400001928E-02 0.  1.
</event>
<event>
 5   0  0.8329875E-09  0.4002665E+04  0.7818609E-02  0.8004009E-01
       -1   -1    0    0    0  501  0.00000000000E+00  0.00000000000E+00  0.14583470441E+04  0.14583470441E+04  0.50400001928E-02 0. -1.
        1   -1    0    0  501    0  0.00000000000E+00  0.00000000000E+00 -0.27464868765E+04  0.27464868765E+04  0.50400001928E-02 0.  1.
    10030    2    1    2    0    0  0.00000000000E+00  0.00000000000E+00 -0.12881398323E+04  0.42048339206E+04  0.40026646215E+04 0.  0.
        4    1    3    3  502    0 -0.12682512192E+04  0.73868462862E+03  0.78524482157E+03  0.16645501429E+04  0.12699999809E+01 0. -1.
       -4    1    3    3    0  502  0.12682512192E+04 -0.73868462862E+03 -0.20733846539E+04  0.25402837777E+04  0.12699999809E+01 0.  1.
</event>
<event>
 5   0  0.8329875E-09  0.3999471E+04  0.7818609E-02  0.8004653E-01
        1   -1    0    0  501    0  0.00000000000E+00  0.00000000000E+00  0.14152279105E+04  0.14152279105E+04  0.50400001928E-02 0.  1.
       -1   -1    0    0    0  501  0.00000000000E+00  0.00000000000E+00 -0.28256517079E+04  0.28256517079E+04  0.50400001928E-02 0. -1.
    10030    2    1    2    0    0  0.00000000000E+00  0.00000000000E+00 -0.14104237974E+04  0.42408796184E+04  0.39994705462E+04 0.  0.
        5    1    3    3  502    0  0.15336746813E+04  0.44833113337E+02 -0.20651011037E+04  0.25727092130E+04  0.46999998093E+01 0. -1.
       -5    1    3    3    0  502 -0.15336746813E+04 -0.44833113337E+02  0.65467730629E+03  0.16681704054E+04  0.46999998093E+01 0.  1.
</event>
<event>
 5   0  0.2587493E-08  0.3998073E+04  0.7818609E-02  0.8004935E-01
       -2   -1    0    0    0  501  0.00000000000E+00  0.00000000000E+00  0.16015647697E+04  0.16015647697E+04  0.25500000920E-02 0. -1.
        2   -1    0    0  501    0  0.00000000000E+00  0.00000000000E+00 -0.24951518769E+04  0.24951518769E+04  0.25500000920E-02 0.  1.
    10030    2    1    2    0    0  0.00000000000E+00  0.00000000000E+00 -0.89358710717E+03  0.40967166466E+04  0.39980732065E+04 0.  0.
        5    1    3    3  502    0  0.43565350535E+01  0.33316859130E+03  0.15729050388E+04  0.16078161091E+04  0.46999998093E+01 0. -1.
       -5    1    3    3    0  502 -0.43565350535E+01 -0.33316859130E+03 -0.24664921459E+04  0.24889005375E+04  0.46999998093E+01 0.  1.
</event>
<event>
 5   0  0.2587493E-08  0.4039681E+04  0.7818609E-02  0.7996589E-01
        2   -1    0    0  501    0  0.00000000000E+00  0.00000000000E+00  0.12034362652E+04  0.12034362652E+04  0.25500000920E-02 0.  1.
       -2   -1    0    0    0  501  0.00000000000E+00  0.00000000000E+00 -0.33900887263E+04  0.33900887263E+04  0.25500000920E-02 0. -1.
    10030    2    1    2    0    0  0.00000000000E+00  0.00000000000E+00 -0.21866524611E+04  0.45935249915E+04  0.40396810347E+04 0.  0.
        5    1    3    3  502    0 -0.28018661105E+03 -0.18069987141E+04 -0.11781244339E+03  0.18323893559E+04  0.46999998093E+01 0. -1.
       -5    1    3    3    0  502  0.28018661105E+03  0.18069987141E+04 -0.20688400177E+04  0.27611356357E+04  0.46999998093E+01 0.  1.
</event>
<event>
 5   0  0.2650452E-08  0.4012435E+04  0.7818609E-02  0.8002043E-01
       -2   -1    0    0    0  501  0.00000000000E+00  0.00000000000E+00  0.17377539945E+04  0.17377539945E+04  0.25500000920E-02 0.  1.
        2   -1    0    0  501    0  0.00000000000E+00  0.00000000000E+00 -0.23161560114E+04  0.23161560114E+04  0.25500000920E-02 0. -1.
    10030    2    1    2    0    0  0.00000000000E+00  0.00000000000E+00 -0.57840201686E+03  0.40539100059E+04  0.40124353506E+04 0.  0.
        3    1    3    3  502    0 -0.63847212447E+03  0.17798842180E+04  0.38800705063E+03  0.19303326047E+04  0.10100000352E+00 0.  1.
       -3    1    3    3    0  502  0.63847212447E+03 -0.17798842180E+04 -0.96640906749E+03  0.21235774013E+04  0.10100000352E+00 0. -1.
</event>
<event>
 5   0  0.2587493E-08  0.4081054E+04  0.7818609E-02  0.7988392E-01
        2   -1    0    0  501    0  0.00000000000E+00  0.00000000000E+00  0.21004243625E+04  0.21004243625E+04  0.25500000920E-02 0. -1.
       -2   -1    0    0    0  501  0.00000000000E+00  0.00000000000E+00 -0.19823380260E+04  0.19823380260E+04  0.25500000920E-02 0.  1.
    10030    2    1    2    0    0  0.00000000000E+00  0.00000000000E+00  0.11808633643E+03  0.40827623885E+04  0.40810543170E+04 0.  0.
        5    1    3    3  502    0  0.19275681254E+04 -0.54233725544E+03 -0.33365190622E+03  0.20300232169E+04  0.46999998093E+01 0.  1.
       -5    1    3    3    0  502 -0.19275681254E+04  0.54233725544E+03  0.45173824266E+03  0.20527391716E+04  0.46999998093E+01 0. -1.
</event>
<event>
 5   0  0.8329875E-09  0.4098121E+04  0.7818609E-02  0.7985040E-01
        1   -1    0    0  501    0  0.00000000000E+00  0.00000000000E+00  0.17481094925E+04  0.17481094925E+04  0.50400001928E-02 0. -1.
       -1   -1    0    0    0  501  0.00000000000E+00  0.00000000000E+00 -0.24018221399E+04  0.24018221399E+04  0.50400001928E-02 0.  1.
    10030    2    1    2    0    0  0.00000000000E+00  0.00000000000E+00 -0.65371264743E+03  0.41499316325E+04  0.40981205849E+04 0.  0.
        2    1    3    3  502    0 -0.11953375982E+04  0.11264741333E+04  0.91373304835E+03  0.18795435696E+04  0.25500000920E-02 0. -1.
       -2    1    3    3    0  502  0.11953375982E+04 -0.11264741333E+04 -0.15674456958E+04  0.22703880628E+04  0.25500000920E-02 0.  1.
</event>
<event>
 5   0  0.2650452E-08  0.4001577E+04  0.7818609E-02  0.8004229E-01
       -2   -1    0    0    0  501  0.00000000000E+00  0.00000000000E+00  0.14215505887E+04  0.14215505887E+04  0.25500000920E-02 0. -1.
        2   -1    0    0  501    0  0.00000000000E+00  0.00000000000E+00 -0.28160474863E+04  0.28160474863E+04  0.25500000920E-02 0.  1.
    10030    2    1    2    0    0  0.00000000000E+00  0.00000000000E+00 -0.13944968976E+04  0.42375980750E+04  0.40015766702E+04 0.  0.
        3    1    3    3  502    0 -0.16494790940E+04  0.83028681094E+03  0.11823411310E+03  0.18504423216E+04  0.10100000352E+00 0.  1.
       -3    1    3    3    0  502  0.16494790940E+04 -0.83028681094E+03 -0.15127310107E+04  0.23871557534E+04  0.10100000352E+00 0. -1.
</event>
<event>
 5   0  0.2599332E-08  0.4000159E+04  0.7818609E-02  0.8004514E-01
        2   -1    0    0  501    0  0.00000000000E+00  0.00000000000E+00  0.15084430057E+04  0.15084430057E+04  0.25500000920E-02 0.  1.
       -2   -1    0    0    0  501  0.00000000000E+00  0.00000000000E+00 -0.26519519558E+04  0.26519519558E+04  0.25500000920E-02 0. -1.
    10030    2    1    2    0    0  0.00000000000E+00  0.00000000000E+00 -0.11435089502E+04  0.41603949615E+04  0.40001591864E+04 0.  0.
        2    1    3    3  502    0 -0.13968579302E+04  0.96824521520E+03 -0.16683160473E+04  0.23815938587E+04  0.25500000920E-02 0. -1.
       -2    1    3    3    0  502  0.13968579302E+04 -0.96824521520E+03  0.52480709716E+03  0.17788011028E+04  0.25500000920E-02 0.  1.
</event>
<event>
 5   0  0.2650452E-08  0.3978540E+04  0.7818609E-02  0.8008890E-01
       -2   -1    0    0    0  501  0.00000000000E+00  0.00000000000E+00  0.15749770736E+04  0.15749770736E+04  0.25500000920E-02 0. -1.
        2   -1    0    0  501    0  0.00000000000E+00  0.00000000000E+00 -0.25125408650E+04  0.25125408650E+04  0.25500000920E-02 0.  1.
    10030    2    1    2    0    0  0.00000000000E+00  0.00000000000E+00 -0.93756379140E+03  0.40875179386E+04  0.39785395607E+04 0.  0.
        3    1    3    3  502    0 -0.46227517287E+03  0.42542479416E+03  0.14703797645E+04  0.15989688092E+04  0.10100000352E+00 0. -1.
       -3    1    3    3    0  502  0.46227517287E+03 -0.42542479416E+03 -0.24079435559E+04  0.24885491294E+04  0.10100000352E+00 0.  1.
</event>
<event>
 5   0  0.8329875E-09  0.4000591E+04  0.7818609E-02  0.8004427E-01
        1   -1    0    0  501    0  0.00000000000E+00  0.00000000000E+00  0.20799428204E+04  0.20799428204E+04  0.50400001928E-02 0.  1.
       -1   -1    0    0    0  501  0.00000000000E+00  0.00000000000E+00 -0.19236980977E+04  0.19236980977E+04  0.50400001928E-02 0. -1.
    10030    2    1    2    0    0  0.00000000000E+00  0.00000000000E+00  0.15624472273E+03  0.40036409181E+04  0.40005909798E+04 0.  0.
        2    1    3    3  502    0 -0.19749956638E+03  0.25609699307E+03 -0.18973608365E+04  0.19247259266E+04  0.25500000920E-02 0. -1.
       -2    1    3    3    0  502  0.19749956638E+03 -0.25609699307E+03  0.20536055593E+04  0.20789149914E+04  0.25500000920E-02 0.  1.
</event>
<event>
 5   0  0.2599332E-08  0.4007032E+04  0.7818609E-02  0.8003129E-01
       -2   -1    0    0    0  501  0.00000000000E+00  0.00000000000E+00  0.15987043281E+04  0.15987043281E+04  0.25500000920E-02 0.  1.
        2   -1    0    0  501    0  0.00000000000E+00  0.00000000000E+00 -0.25108309664E+04  0.25108309664E+04  0.25500000920E-02 0. -1.
    10030    2    1    2    0    0  0.00000000000E+00  0.00000000000E+00 -0.91212663830E+03  0.41095352944E+04  0.40070319854E+04 0.  0.
        2    1    3    3  502    0 -0.67092602297E+03 -0.16597552620E+03 -0.23846971547E+04  0.24828350979E+04  0.25500000920E-02 0. -1.
       -2    1    3    3    0  502  0.67092602297E+03  0.16597552620E+03  0.14725705164E+04  0.16267001965E+04  0.25500000920E-02 0.  1.
</event>
<event>
 5   0  0.8329875E-09  0.3984591E+04  0.7818609E-02  0.8007662E-01
       -1   -1    0    0    0  501  0.00000000000E+00  0.00000000000E+00  0.16432325576E+04  0.16432325576E+04  0.50400001928E-02 0. -1.
        1   -1    0    0  501    0  0.00000000000E+00  0.00000000000E+00 -0.24155084365E+04  0.24155084365E+04  0.50400001928E-02 0.  1.
    10030    2    1    2    0    0  0.00000000000E+00  0.00000000000E+00 -0.77227587892E+03  0.40587409942E+04  0.39845913748E+04 0.  0.
        4    1    3    3  502    0  0.89836483926E+03  0.10147976733E+04 -0.18735746731E+04  0.23123921317E+04  0.12699999809E+01 0.  1.
       -4    1    3    3    0  502 -0.89836483926E+03 -0.10147976733E+04  0.11012987942E+04  0.17463488624E+04  0.12699999809E+01 0. -1.
</event>
<event>
 5   0  0.8329875E-09  0.3998889E+04  0.7818609E-02  0.8004771E-01
       -1   -1    0    0    0  501  0.00000000000E+00  0.00000000000E+00  0.18378913243E+04  0.18378913243E+04  0.50400001928E-02 0.  1.
        1   -1    0    0  501    0  0.00000000000E+00  0.00000000000E+00 -0.21751984400E+04  0.21751984400E+04  0.50400001928E-02 0. -1.
    10030    2    1    2    0    0  0.00000000000E+00  0.00000000000E+00 -0.33730711574E+03  0.40130897643E+04  0.39988890165E+04 0.  0.
        4    1    3    3  502    0  0.16236139472E+04  0.57903532393E+03 -0.11853517284E+04  0.20920001168E+04  0.12699999809E+01 0. -1.
       -4    1    3    3    0  502 -0.16236139472E+04 -0.57903532393E+03  0.84804461261E+03  0.19210896475E+04  0.12699999809E+01 0.  1.
</event>
<event>
 5   0  0.2612363E-08  0.4001894E+04  0.7818609E-02  0.8004165E-01
       -2   -1    0    0    0  501  0.00000000000E+00  0.00000000000E+00  0.21830503512E+04  0.21830503512E+04  0.25500000920E-02 0. -1.
        2   -1    0    0  501    0  0.00000000000E+00  0.00000000000E+00 -0.18340339098E+04  0.18340339098E+04  0.25500000920E-02 0.  1.
    10030    2    1    2    0    0  0.00000000000E+00  0.00000000000E+00  0.34901644138E+03  0.40170842610E+04  0.40018937372E+04 0.  0.
        4    1    3    3  502    0 -0.14458729429E+04 -0.40218874373E+03  0.15029675967E+04  0.21239627027E+04  0.12699999809E+01 0. -1.
       -4    1    3    3    0  502  0.14458729429E+04  0.40218874373E+03 -0.11539511553E+04  0.18931215583E+04  0.12699999809E+01 0.  1.
</event>
<event>
 5   0  0.8329875E-09  0.4000321E+04  0.7818609E-02  0.8004482E-01
        1   -1    0    0  501    0  0.00000000000E+00  0.00000000000E+00  0.22250463751E+04  0.22250463751E+04  0.50400001928E-02 0. -1.
       -1   -1    0    0    0  501  0.00000000000E+00  0.00000000000E+00 -0.17980042184E+04  0.17980042184E+04  0.50400001928E-02 0.  1.
    10030    2    1    2    0    0  0.00000000000E+00  0.00000000000E+00  0.42704215668E+03  0.40230505935E+04  0.40003213713E+04 0.  0.
        5    1    3    3  502    0 -0.14003259479E+04 -0.13041963496E+04 -0.37183396622E+03  0.19493905373E+04  0.46999998093E+01 0.  1.
       -5    1    3    3    0  502  0.14003259479E+04  0.13041963496E+04  0.79887612290E+03  0.20736600561E+04  0.46999998093E+01 0. -1.
</event>
<event>
 5   0  0.8329875E-09  0.4014749E+04  0.7818609E-02  0.8001578E-01
       -1   -1    0    0    0  501  0.00000000000E+00  0.00000000000E+00  0.19780492548E+04  0.19780492548E+04  0.50400001928E-02 0. -1.
        1   -1    0    0  501    0  0.00000000000E+00  0.00000000000E+00 -0.20371341139E+04  0.20371341139E+04  0.50400001928E-02 0.  1.
    10030    2    1    2    0    0  0.00000000000E+00  0.00000000000E+00 -0.59084859093E+02  0.40151833687E+04  0.40147486177E+04 0.  0.
        2    1    3    3  502    0 -0.10786649209E+04 -0.90140527952E+03  0.14036173283E+04  0.19865022260E+04  0.25500000920E-02 0. -1.
       -2    1    3    3    0  502  0.10786649209E+04  0.90140527952E+03 -0.14627021874E+04  0.20286811427E+04  0.25500000920E-02 0.  1.
</event>
<event>
 5   0  0.2746876E-08  0.4013753E+04  0.7818609E-02  0.8001778E-01
        2   -1    0    0  501    0  0.00000000000E+00  0.00000000000E+00  0.17877981307E+04  0.17877981307E+04  0.25500000920E-02 0. -1.
       -2   -1    0    0    0  501  0.00000000000E+00  0.00000000000E+00 -0.22528006629E+04  0.22528006629E+04  0.25500000920E-02 0.  1.
    10030    2    1    2    0    0  0.00000000000E+00  0.00000000000E+00 -0.46500253225E+03  0.40405987936E+04  0.40137527646E+04 0.  0.
        1    1    3    3  502    0 -0.59939064874E+03 -0.11160515004E+04  0.13344160182E+04  0.18399745137E+04  0.50400001928E-02 0. -1.
       -1    1    3    3    0  502  0.59939064874E+03  0.11160515004E+04 -0.17994185505E+04  0.22006242799E+04  0.50400001928E-02 0.  1.
</event>
<event>
 5   0  0.2650452E-08  0.4000756E+04  0.7818609E-02  0.8004394E-01
        2   -1    0    0  501    0  0.00000000000E+00  0.00000000000E+00  0.22040152263E+04  0.22040152263E+04  0.25500000920E-02 0. -1.
       -2   -1    0    0    0  501  0.00000000000E+00  0.00000000000E+00 -0.18155555010E+04  0.18155555010E+04  0.25500000920E-02 0.  1.
    10030    2    1    2    0    0  0.00000000000E+00  0.00000000000E+00  0.38845972530E+03  0.40195707274E+04  0.40007559128E+04 0.  0.
        3    1    3    3  502    0  0.83138335391E+03 -0.15307978625E+04 -0.79374176856E+03  0.19143057181E+04  0.10100000352E+00 0.  1.
       -3    1    3    3    0  502 -0.83138335391E+03  0.15307978625E+04  0.11822014939E+04  0.21052650093E+04  0.10100000352E+00 0. -1.
</event>
<event>
 5   0  0.2599332E-08  0.3931801E+04  0.7818609E-02  0.8018448E-01
        2   -1    0    0  501    0  0.00000000000E+00  0.00000000000E+00  0.13582452398E+04  0.13582452398E+04  0.25500000920E-02 0. -1.
       -2   -1    0    0    0  501  0.00000000000E+00  0.00000000000E+00 -0.28454095995E+04  0.28454095995E+04  0.25500000920E-02 0.  1.
    10030    2    1    2    0    0  0.00000000000E+00  0.00000000000E+00 -0.14871643597E+04  0.42036548393E+04  0.39318006277E+04 0.  0.
        2    1    3    3  502    0  0.10207044050E+04 -0.12427531892E+04 -0.19524655721E+04  0.25295048491E+04  0.25500000920E-02 0.  1.
       -2    1    3    3    0  502 -0.10207044050E+04  0.12427531892E+04  0.46530121238E+03  0.16741499902E+04  0.25500000920E-02 0. -1.
</event>
<event>
 5   0  0.8329875E-09  0.3998938E+04  0.7818609E-02  0.8004761E-01
        1   -1    0    0  501    0  0.00000000000E+00  0.00000000000E+00  0.20892012526E+04  0.20892012526E+04  0.50400001928E-02 0.  1.
       -1   -1    0    0    0  501  0.00000000000E+00  0.00000000000E+00 -0.19135906692E+04  0.19135906692E+04  0.50400001928E-02 0. -1.
    10030    2    1    2    0    0  0.00000000000E+00  0.00000000000E+00  0.17561058344E+03  0.40027919218E+04  0.39989378706E+04 0.  0.
        1    1    3    3  502    0  0.51620883053E+03  0.17125123799E+04  0.98237004194E+03  0.20406423272E+04  0.50400001928E-02 0.  1.
       -1    1    3    3    0  502 -0.51620883053E+03 -0.17125123799E+04 -0.80675945850E+03  0.19621495947E+04  0.50400001928E-02 0. -1.
</event>
<event>
 5   0  0.2612363E-08  0.4001159E+04  0.7818609E-02  0.8004313E-01
       -2   -1    0    0    0  501  0.00000000000E+00  0.00000000000E+00  0.29634308119E+04  0.29634308119E+04  0.25500000920E-02 0. -1.
        2   -1    0    0  501    0  0.00000000000E+00  0.00000000000E+00 -0.13505692583E+04  0.13505692583E+04  0.25500000920E-02 0.  1.
    10030    2    1    2    0    0  0.00000000000E+00  0.00000000000E+00  0.16128615536E+04  0.43140000703E+04  0.40011591089E+04 0.  0.
        4    1    3    3  502    0  0.30537704208E+03  0.12642476972E+04  0.24453963309E+04  0.27697549000E+04  0.12699999809E+01 0. -1.
       -4    1    3    3    0  502 -0.30537704208E+03 -0.12642476972E+04 -0.83253477730E+03  0.15442451703E+04  0.12699999809E+01 0.  1.
</event>
<event>
 5   0  0.8329875E-09  0.3994525E+04  0.7818609E-02  0.8005652E-01
        1   -1    0    0  501    0  0.00000000000E+00  0.00000000000E+00  0.22582365168E+04  0.22582365168E+04  0.50400001928E-02 0.  1.
       -1   -1    0    0    0  501  0.00000000000E+00  0.00000000000E+00 -0.17664483539E+04  0.17664483539E+04  0.50400001928E-02 0. -1.
    10030    2    1    2    0    0  0.00000000000E+00  0.00000000000E+00  0.49178816291E+03  0.40246848707E+04  0.39945253425E+04 0.  0.
        3    1    3    3  502    0  0.17019950848E+04 -0.12499552185E+03  0.12913443329E+04  0.21400890976E+04  0.10100000352E+00 0.  1.
       -3    1    3    3    0  502 -0.17019950848E+04  0.12499552185E+03 -0.79955617001E+03  0.18845957732E+04  0.10100000352E+00 0. -1.
</event>
<event>
 5   0  0.2650452E-08  0.3998660E+04  0.7818609E-02  0.8004817E-01
       -2   -1    0    0    0  501  0.00000000000E+00  0.00000000000E+00  0.12536073976E+04  0.12536073976E+04  0.25500000920E-02 0.  1.
        2   -1    0    0  501    0  0.00000000000E+00  0.00000000000E+00 -0.31886549536E+04  0.31886549536E+04  0.25500000920E-02 0. -1.
    10030    2    1    2    0    0  0.00000000000E+00  0.00000000000E+00 -0.19350475561E+04  0.44422623512E+04  0.39986604948E+04 0.  0.
        3    1    3    3  502    0  0.40885431129E+03 -0.11298030073E+04  0.80778954873E+03  0.14478054594E+04  0.10100000352E+00 0.  1.
       -3    1    3    3    0  502 -0.40885431129E+03  0.11298030073E+04 -0.27428371048E+04  0.29944568918E+04  0.10100000352E+00 0. -1.
</event>
<event>
 5   0  0.2650452E-08  0.4000863E+04  0.7818609E-02  0.8004372E-01
       -2   -1    0    0    0  501  0.00000000000E+00  0.00000000000E+00  0.18099524531E+04  0.18099524531E+04  0.25500000920E-02 0.  1.
        2   -1    0    0  501    0  0.00000000000E+00  0.00000000000E+00 -0.22109565261E+04  0.22109565261E+04  0.25500000920E-02 0. -1.
    10030    2    1    2    0    0  0.00000000000E+00  0.00000000000E+00 -0.40100407301E+03  0.40209089792E+04  0.40008630009E+04 0.  0.
        3    1    3    3  502    0 -0.99343310484E+03 -0.17363109567E+04 -0.19405852682E+03  0.20098118803E+04  0.10100000352E+00 0. -1.
       -3    1    3    3    0  502  0.99343310484E+03  0.17363109567E+04 -0.20694554619E+03  0.20110970989E+04  0.10100000352E+00 0.  1.
</event>
<event>
 5   0  0.8329875E-09  0.4004852E+04  0.7818609E-02  0.8003568E-01
       -1   -1    0    0    0  501  0.00000000000E+00  0.00000000000E+00  0.14304537665E+04  0.14304537665E+04  0.50400001928E-02 0.  1.
        1   -1    0    0  501    0  0.00000000000E+00  0.00000000000E+00 -0.28031033180E+04  0.28031033180E+04  0.50400001928E-02 0. -1.
    10030    2    1    2    0    0  0.00000000000E+00  0.00000000000E+00 -0.13726495515E+04  0.42335570845E+04  0.40048519070E+04 0.  0.
        1    1    3    3  502    0 -0.14032401622E+04  0.14272171744E+04 -0.62221593270E+03  0.20959924815E+04  0.50400001928E-02 0. -1.
       -1    1    3    3    0  502  0.14032401622E+04 -0.14272171744E+04 -0.75043361883E+03  0.21375646030E+04  0.50400001928E-02 0.  1.
</event>
<event>
 5   0  0.8329875E-09  0.3998115E+04  0.7818609E-02  0.8004927E-01
        1   -1    0    0  501    0  0.00000000000E+00  0.00000000000E+00  0.22103867798E+04  0.22103867798E+04  0.50400001928E-02 0.  1.
       -1   -1    0    0    0  501  0.00000000000E+00  0.00000000000E+00 -0.18079325196E+04  0.18079325196E+04  0.50400001928E-02 0. -1.
    10030    2    1    2    0    0  0.00000000000E+00  0.00000000000E+00  0.40245426022E+03  0.40183192994E+04  0.39981146257E+04 0.  0.
        1    1    3    3  502    0  0.71336889235E+03  0.13882392833E+04 -0.10541353101E+04  0.18834289836E+04  0.50400001928E-02 0. -1.
       -1    1    3    3    0  502 -0.71336889235E+03 -0.13882392833E+04  0.14565895703E+04  0.21348903158E+04  0.50400001928E-02 0.  1.
</event>
<event>
 5   0  0.2746876E-08  0.4000131E+04  0.7818609E-02  0.8004520E-01
       -2   -1    0    0    0  501  0.00000000000E+00  0.00000000000E+00  0.24114175813E+04  0.24114175814E+04  0.25500000920E-02 0. -1.
        2   -1    0    0  501    0  0.00000000000E+00  0.00000000000E+00 -0.16588843054E+04  0.16588843054E+04  0.25500000920E-02 0.  1.
    10030    2    1    2    0    0  0.00000000000E+00  0.00000000000E+00  0.75253327595E+03  0.40703018867E+04  0.40001313876E+04 0.  0.
        1    1    3    3  502    0  0.32225196958E+03  0.10348460135E+04  0.20866789056E+04  0.23513786294E+04  0.50400001928E-02 0. -1.
       -1    1    3    3    0  502 -0.32225196958E+03 -0.10348460135E+04 -0.13341456297E+04  0.17189232574E+04  0.50400001928E-02 0.  1.
</event>
<event>
 5   0  0.8329875E-09  0.3986979E+04  0.7818609E-02  0.8007178E-01
       -1   -1    0    0    0  501  0.00000000000E+00  0.00000000000E+00  0.15916044767E+04  0.15916044767E+04  0.50400001928E-02 0.  1.
        1   -1    0    0  501    0  0.00000000000E+00  0.00000000000E+00 -0.24968521647E+04  0.24968521647E+04  0.50400001928E-02 0. -1.
    10030    2    1    2    0    0  0.00000000000E+00  0.00000000000E+00 -0.90524768792E+03  0.40884566414E+04  0.39869793494E+04 0.  0.
        4    1    3    3  502    0 -0.46601559441E+03 -0.81108185805E+03 -0.22578202383E+04  0.24439267902E+04  0.12699999809E+01 0. -1.
       -4    1    3    3    0  502  0.46601559441E+03  0.81108185805E+03  0.13525725503E+04  0.16445298512E+04  0.12699999809E+01 0.  1.
</event>
<event>
 5   0  0.2587493E-08  0.3998305E+04  0.7818609E-02  0.8004889E-01
       -2   -1    0    0    0  501  0.00000000000E+00  0.00000000000E+00  0.11881726645E+04  0.11881726645E+04  0.25500000920E-02 0.  1.
        2   -1    0    0  501    0  0.00000000000E+00  0.00000000000E+00 -0.33636607591E+04  0.33636607591E+04  0.25500000920E-02 0. -1.
    10030    2    1    2    0    0  0.00000000000E+00  0.00000000000E+00 -0.21754880946E+04  0.45518334236E+04  0.39983045240E+04 0.  0.
        5    1    3    3  502    0 -0.17365530592E+04  0.86878151909E+03 -0.54630818142E+03  0.20171446587E+04  0.46999998093E+01 0.  1.
       -5    1    3    3    0  502  0.17365530592E+04 -0.86878151909E+03 -0.16291799132E+04  0.25346887648E+04  0.46999998093E+01 0. -1.
</event>
<event>
 5   0  0.8329875E-09  0.4005282E+04  0.7818609E-02  0.8003482E-01
        1   -1    0    0  501    0  0.00000000000E+00  0.00000000000E+00  0.20831221049E+04  0.20831221049E+04  0.50400001928E-02 0.  1.
       -1   -1    0    0    0  501  0.00000000000E+00  0.00000000000E+00 -0.19252688872E+04  0.19252688872E+04  0.50400001928E-02 0. -1.
    10030    2    1    2    0    0  0.00000000000E+00  0.00000000000E+00  0.15785321773E+03  0.40083909922E+04  0.40052816015E+04 0.  0.
        2    1    3    3  502    0  0.33060952251E+03 -0.44231201577E+03 -0.18475684883E+04  0.19283287828E+04  0.25500000920E-02 0. -1.
       -2    1    3    3    0  502 -0.33060952251E+03  0.44231201577E+03  0.20054217060E+04  0.20800622093E+04  0.25500000920E-02 0.  1.
</event>
<event>
 5   0  0.8329875E-09  0.4008218E+04  0.7818609E-02  0.8002891E-01
       -1   -1    0    0    0  501  0.00000000000E+00  0.00000000000E+00  0.27176865253E+04  0.27176865253E+04  0.50400001928E-02 0.  1.
        1   -1    0    0  501    0  0.00000000000E+00  0.00000000000E+00 -0.14778942423E+04  0.14778942423E+04  0.50400001928E-02 0. -1.
    10030    2    1    2    0    0  0.00000000000E+00  0.00000000000E+00  0.12397922830E+04  0.41955807676E+04  0.40082181918E+04 0.  0.
        5    1    3    3  502    0  0.18443618984E+03  0.17260937347E+04 -0.42842518537E+03  0.17880118899E+04  0.46999998093E+01 0. -1.
       -5    1    3    3    0  502 -0.18443618984E+03 -0.17260937347E+04  0.16682174683E+04  0.24075688777E+04  0.46999998093E+01 0.  1.
</event>
<event>
 5   0  0.8329875E-09  0.4005944E+04  0.7818609E-02  0.8003348E-01
       -1   -1    0    0    0  501  0.00000000000E+00  0.00000000000E+00  0.25376521092E+04  0.25376521092E+04  0.50400001928E-02 0.  1.
        1   -1    0    0  501    0  0.00000000000E+00  0.00000000000E+00 -0.15809484682E+04  0.15809484682E+04  0.50400001928E-02 0. -1.
    10030    2    1    2    0    0  0.00000000000E+00  0.00000000000E+00  0.95670364093E+03  0.41186005774E+04  0.40059441908E+04 0.  0.
        3    1    3    3  502    0 -0.10616409559E+04 -0.10769670889E+04  0.18286633956E+04  0.23729621688E+04  0.10100000352E+00 0.  1.
       -3    1    3    3    0  502  0.10616409559E+04  0.10769670889E+04 -0.87195975465E+03  0.17456384087E+04  0.10100000352E+00 0. -1.
</event>
<event>
 5   0  0.2587493E-08  0.3998919E+04  0.7818609E-02  0.8004765E-01
       -2   -1    0    0    0  501  0.00000000000E+00  0.00000000000E+00  0.17954679786E+04  0.17954679786E+04  0.25500000920E-02 0.  1.
        2   -1    0    0  501    0  0.00000000000E+00  0.00000000000E+00 -0.22266272909E+04  0.22266272909E+04  0.25500000920E-02 0. -1.
    10030    2    1    2    0    0  0.00000000000E+00  0.00000000000E+00 -0.43115931230E+03  0.40220952695E+04  0.39989188545E+04 0.  0.
        5    1    3    3  502    0  0.12401285486E+04  0.14051080911E+04  0.48528626859E+03  0.19359164283E+04  0.46999998093E+01 0.  1.
       -5    1    3    3    0  502 -0.12401285486E+04 -0.14051080911E+04 -0.91644558089E+03  0.20861788412E+04  0.46999998093E+01 0. -1.
</event>
<event>
 5   0  0.8329875E-09  0.4002820E+04  0.7818609E-02  0.8003978E-01
        1   -1    0    0  501    0  0.00000000000E+00  0.00000000000E+00  0.26458587218E+04  0.26458587218E+04  0.50400001928E-02 0.  1.
       -1   -1    0    0    0  501  0.00000000000E+00  0.00000000000E+00 -0.15139290892E+04  0.15139290892E+04  0.50400001928E-02 0. -1.
    10030    2    1    2    0    0  0.00000000000E+00  0.00000000000E+00  0.11319296326E+04  0.41597878109E+04  0.40028202481E+04 0.  0.
        2    1    3    3  502    0 -0.71585915310E+03  0.18550610530E+04  0.32913190987E+03  0.20154487470E+04  0.25500000920E-02 0.  1.
       -2    1    3    3    0  502  0.71585915310E+03 -0.18550610530E+04  0.80279772272E+03  0.21443390640E+04  0.25500000920E-02 0. -1.
</event>
<event>
 5   0  0.8329875E-09  0.3999167E+04  0.7818609E-02  0.8004715E-01
        1   -1    0    0  501    0  0.00000000000E+00  0.00000000000E+00  0.13640704747E+04  0.13640704747E+04  0.50400001928E-02 0.  1.
       -1   -1    0    0    0  501  0.00000000000E+00  0.00000000000E+00 -0.29311791531E+04  0.29311791531E+04  0.50400001928E-02 0. -1.
    10030    2    1    2    0    0  0.00000000000E+00  0.00000000000E+00 -0.15671086784E+04  0.42952496279E+04  0.39991673828E+04 0.  0.
        3    1    3    3  502    0 -0.15588930948E+04 -0.12258762234E+04 -0.10582530446E+04  0.22478477957E+04  0.10100000352E+00 0.  1.
       -3    1    3    3    0  502  0.15588930948E+04  0.12258762234E+04 -0.50885563384E+03  0.20474018322E+04  0.10100000352E+00 0. -1.
</event>
<event>
 5   0  0.2650452E-08  0.3997292E+04  0.7818609E-02  0.8005093E-01
       -2   -1    0    0    0  501  0.00000000000E+00  0.00000000000E+00  0.15065324668E+04  0.15065324668E+04  0.25500000920E-02 0. -1.
        2   -1    0    0  501    0  0.00000000000E+00  0.00000000000E+00 -0.26515102263E+04  0.26515102263E+04  0.25500000920E-02 0.  1.
    10030    2    1    2    0    0  0.00000000000E+00  0.00000000000E+00 -0.11449777594E+04  0.41580426931E+04  0.39972922045E+04 0.  0.
        3    1    3    3  502    0  0.12961897311E+04  0.45411921065E+03  0.93788522149E+03  0.16631177876E+04  0.10100000352E+00 0. -1.
       -3    1    3    3    0  502 -0.12961897311E+04 -0.45411921065E+03 -0.20828629809E+04  0.24949249055E+04  0.10100000352E+00 0.  1.
</event>
<event>
 5   0  0.2587493E-08  0.3991299E+04  0.7818609E-02  0.8006304E-01
        2   -1    0    0  501    0  0.00000000000E+00  0.00000000000E+00  0.17654967648E+04  0.17654967648E+04  0.25500000920E-02 0.  1.
       -2   -1    0    0    0  501  0.00000000000E+00  0.00000000000E+00 -0.22558052767E+04  0.22558052767E+04  0.25500000920E-02 0. -1.
    10030    2    1    2    0    0  0.00000000000E+00  0.00000000000E+00 -0.49030851185E+03  0.40213020415E+04  0.39912989956E+04 0.  0.
        5    1    3    3  502    0 -0.61609468225E+03 -0.18639780648E+04 -0.60646953759E+03  0.20547053982E+04  0.46999998093E+01 0. -1.
       -5    1    3    3    0  502  0.61609468225E+03  0.18639780648E+04  0.11616102574E+03  0.19665966433E+04  0.46999998093E+01 0.  1.
</event>
<event>
 5   0  0.2746876E-08  0.3995175E+04  0.7818609E-02  0.8005521E-01
       -2   -1    0    0    0  501  0.00000000000E+00  0.00000000000E+00  0.18153679566E+04  0.18153679566E+04  0.25500000920E-02 0. -1.
        2   -1    0    0  501    0  0.00000000000E+00  0.00000000000E+00 -0.21980972946E+04  0.21980972946E+04  0.25500000920E-02 0.  1.
    10030    2    1    2    0    0  0.00000000000E+00  0.00000000000E+00 -0.38272933801E+03  0.40134652513E+04  0.39951747868E+04 0.  0.
        1    1    3    3  502    0 -0.43588942132E+03  0.22429326160E+03 -0.21367344079E+04  0.21922456489E+04  0.50400001928E-02 0.  1.
       -1    1    3    3    0  502  0.43588942132E+03 -0.22429326160E+03  0.17540050699E+04  0.18212196024E+04  0.50400001928E-02 0. -1.
</event>
<event>
 5   0  0.8329875E-09  0.4002700E+04  0.7818609E-02  0.8004002E-01
       -1   -1    0    0    0  501  0.00000000000E+00  0.00000000000E+00  0.15968540660E+04  0.15968540660E+04  0.50400001928E-02 0.  1.
        1   -1    0    0  501    0  0.00000000000E+00  0.00000000000E+00 -0.25083077687E+04  0.25083077687E+04  0.50400001928E-02 0. -1.
    10030    2    1    2    0    0  0.00000000000E+00  0.00000000000E+00 -0.91145370274E+03  0.41051618348E+04  0.40026998185E+04 0.  0.
        4    1    3    3  502    0  0.59072104224E+03 -0.10163920164E+04  0.12054243620E+04  0.16837617368E+04  0.12699999809E+01 0.  1.
       -4    1    3    3    0  502 -0.59072104224E+03  0.10163920164E+04 -0.21168780647E+04  0.24214000980E+04  0.12699999809E+01 0. -1.
</event>
<event>
 5   0  0.8329875E-09  0.3988975E+04  0.7818609E-02  0.8006774E-01
        1   -1    0    0  501    0  0.00000000000E+00  0.00000000000E+00  0.13708639560E+04  0.13708639561E+04  0.50400001928E-02 0. -1.
       -1   -1    0    0    0  501  0.00000000000E+00  0.00000000000E+00 -0.29018049203E+04  0.29018049203E+04  0.50400001928E-02 0.  1.
    10030    2    1    2    0    0  0.00000000000E+00  0.00000000000E+00 -0.15309409643E+04  0.42726688764E+04  0.39889746917E+04 0.  0.
        5    1    3    3  502    0 -0.10684670115E+04 -0.39309662924E+03  0.98862018381E+03  0.15078258097E+04  0.46999998093E+01 0. -1.
       -5    1    3    3    0  502  0.10684670115E+04  0.39309662924E+03 -0.25195611481E+04  0.27648430667E+04  0.46999998093E+01 0.  1.
</event>
<event>
 5   0  0.8329875E-09  0.3902911E+04  0.7818609E-02  0.8024424E-01
        1   -1    0    0  501    0  0.00000000000E+00  0.00000000000E+00  0.16516345058E+04  0.16516345058E+04  0.50400001928E-02 0.  1.
       -1   -1    0    0    0  501  0.00000000000E+00  0.00000000000E+00 -0.23057023692E+04  0.23057023692E+04  0.50400001928E-02 0. -1.
    10030    2    1    2    0    0  0.00000000000E+00  0.00000000000E+00 -0.65406786341E+03  0.39573368750E+04  0.39029105002E+04 0.  0.
        3    1    3    3  502    0  0.74571605447E+03  0.60645642561E+03  0.13949707378E+04  0.16940558431E+04  0.10100000352E+00 0.  1.
       -3    1    3    3    0  502 -0.74571605447E+03 -0.60645642561E+03 -0.20490386012E+04  0.22632810319E+04  0.10100000352E+00 0. -1.
</event>
<event>
 5   0  0.2599332E-08  0.4007890E+04  0.7818609E-02  0.8002957E-01
       -2   -1    0    0    0  501  0.00000000000E+00  0.00000000000E+00  0.19469931717E+04  0.19469931717E+04  0.25500000920E-02 0.  1.
        2   -1    0    0  501    0  0.00000000000E+00  0.00000000000E+00 -0.20625627583E+04  0.20625627583E+04  0.25500000920E-02 0. -1.
    10030    2    1    2    0    0  0.00000000000E+00  0.00000000000E+00 -0.11556958664E+03  0.40095559300E+04  0.40078900217E+04 0.  0.
        2    1    3    3  502    0 -0.54098891823E+03 -0.59861086908E+03  0.17773144970E+04  0.19518839114E+04  0.25500000920E-02 0.  1.
       -2    1    3    3    0  502  0.54098891823E+03  0.59861086908E+03 -0.18928840836E+04  0.20576720186E+04  0.25500000920E-02 0. -1.
</event>
<event>
 5   0  0.8329875E-09  0.3997629E+04  0.7818609E-02  0.8005025E-01
        1   -1    0    0  501    0  0.00000000000E+00  0.00000000000E+00  0.25816629570E+04  0.25816629570E+04  0.50400001928E-02 0.  1.
       -1   -1    0    0    0  501  0.00000000000E+00  0.00000000000E+00 -0.15475524418E+04  0.15475524418E+04  0.50400001928E-02 0. -1.
    10030    2    1    2    0    0  0.00000000000E+00  0.00000000000E+00  0.10341105152E+04  0.41292153988E+04  0.39976287036E+04 0.  0.
        3    1    3    3  502    0 -0.12808290487E+04 -0.14805809844E+04  0.93358528943E+03  0.21689224527E+04  0.10100000352E+00 0. -1.
       -3    1    3    3    0  502  0.12808290487E+04  0.14805809844E+04  0.10052522581E+03  0.19602929461E+04  0.10100000352E+00 0.  1.
</event>
<event>
 5   0  0.8329875E-09  0.4007352E+04  0.7818609E-02  0.8003065E-01
        1   -1    0    0  501    0  0.00000000000E+00  0.00000000000E+00  0.23265402466E+04  0.23265402466E+04  0.50400001928E-02 0.  1.
       -1   -1    0    0    0  501  0.00000000000E+00  0.00000000000E+00 -0.17256173099E+04  0.17256173099E+04  0.50400001928E-02 0. -1.
    10030    2    1    2    0    0  0.00000000000E+00  0.00000000000E+00  0.60092293677E+03  0.40521575565E+04  0.40073523038E+04 0.  0.
        2    1    3    3  502    0  0.16216342826E+04 -0.90974211255E+03  0.10553941973E+04  0.21380330609E+04  0.25500000920E-02 0.  1.
       -2    1    3    3    0  502 -0.16216342826E+04  0.90974211255E+03 -0.45447126051E+03  0.19141244956E+04  0.25500000920E-02 0. -1.
</event>
<event>
 5   0  0.8329875E-09  0.3999831E+04  0.7818609E-02  0.8004581E-01
        1   -1    0    0  501    0  0.00000000000E+00  0.00000000000E+00  0.29353088695E+04  0.29353088696E+04  0.50400001928E-02 0. -1.
       -1   -1    0    0    0  501  0.00000000000E+00  0.00000000000E+00 -0.13626036181E+04  0.13626036181E+04  0.50400001928E-02 0.  1.
    10030    2    1    2    0    0  0.00000000000E+00  0.00000000000E+00  0.15727052515E+04  0.42979124877E+04  0.39998312394E+04 0.  0.
        4    1    3    3  502    0 -0.90363092061E+03 -0.15540284044E+04 -0.15537860672E+03  0.18043550778E+04  0.12699999809E+01 0.  1.
       -4    1    3    3    0  502  0.90363092061E+03  0.15540284044E+04  0.17280838582E+04  0.24935574099E+04  0.12699999809E+01 0. -1.
</event>
<event>
 5   0  0.2746876E-08  0.4003847E+04  0.7818609E-02  0.8003771E-01
        2   -1    0    0  501    0  0.00000000000E+00  0.00000000000E+00  0.12554738556E+04  0.12554738556E+04  0.25500000920E-02 0. -1.
       -2   -1    0    0    0  501  0.00000000000E+00  0.00000000000E+00 -0.31921800603E+04  0.31921800603E+04  0.25500000920E-02 0.  1.
    10030    2    1    2    0    0  0.00000000000E+00  0.00000000000E+00 -0.19367062047E+04  0.44476539158E+04  0.40038474536E+04 0.  0.
        1    1    3    3  502    0 -0.91730842147E+03  0.22733879301E+03 -0.29287855416E+04  0.30774863795E+04  0.50400001928E-02 0.  1.
       -1    1    3    3    0  502  0.91730842147E+03 -0.22733879301E+03  0.99207933694E+03  0.13701675364E+04  0.50400001928E-02 0. -1.
</event>
<event>
 5   0  0.2650452E-08  0.3998716E+04  0.7818609E-02  0.8004806E-01
       -2   -1    0    0    0  501  0.00000000000E+00  0.00000000000E+00  0.22045123427E+04  0.22045123427E+04  0.25500000920E-02 0. -1.
        2   -1    0    0  501    0  0.00000000000E+00  0.00000000000E+00 -0.18132958919E+04  0.18132958919E+04  0.25500000920E-02 0.  1.
    10030    2    1    2    0    0  0.00000000000E+00  0.00000000000E+00  0.39121645082E+03  0.40178082346E+04  0.39987163814E+04 0.  0.
        3    1    3    3  502    0 -0.84795686980E+03 -0.18070752598E+04  0.81570451075E+02  0.19978001893E+04  0.10100000352E+00 0. -1.
       -3    1    3    3    0  502  0.84795686980E+03  0.18070752598E+04  0.30964599974E+03  0.20200080453E+04  0.10100000352E+00 0.  1.
</event>
<event>
 5   0  0.8329875E-09  0.3998087E+04  0.7818609E-02  0.8004933E-01
        1   -1    0    0  501    0  0.00000000000E+00  0.00000000000E+00  0.27258480827E+04  0.27258480827E+04  0.50400001928E-02 0.  1.
       -1   -1    0    0    0  501  0.00000000000E+00  0.00000000000E+00 -0.14660299318E+04  0.14660299318E+04  0.50400001928E-02 0. -1.
    10030    2    1    2    0    0  0.00000000000E+00  0.00000000000E+00  0.12598181509E+04  0.41918780145E+04  0.39980869819E+04 0.  0.
        2    1    3    3  502    0  0.15762277020E+04 -0.48434111827E+03 -0.55495345142E+03  0.17398429299E+04  0.25500000920E-02 0. -1.
       -2    1    3    3    0  502 -0.15762277020E+04  0.48434111827E+03  0.18147716023E+04  0.24520350846E+04  0.25500000920E-02 0.  1.
</event>
<event>
 5   0  0.8329875E-09  0.3996608E+04  0.7818609E-02  0.8005231E-01
        1   -1    0    0  501    0  0.00000000000E+00  0.00000000000E+00  0.22765977042E+04  0.22765977042E+04  0.50400001928E-02 0.  1.
       -1   -1    0    0    0  501  0.00000000000E+00  0.00000000000E+00 -0.17540293988E+04  0.17540293988E+04  0.50400001928E-02 0. -1.
    10030    2    1    2    0    0  0.00000000000E+00  0.00000000000E+00  0.52256830538E+03  0.40306271031E+04  0.39966082132E+04 0.  0.
        5    1    3    3  502    0 -0.11384495266E+03  0.49571002480E+03  0.22102209157E+04  0.22679919947E+04  0.46999998093E+01 0.  1.
       -5    1    3    3    0  502  0.11384495266E+03 -0.49571002480E+03 -0.16876526103E+04  0.17626351083E+04  0.46999998093E+01 0. -1.
</event>
<event>
 5   0  0.2587493E-08  0.3995948E+04  0.7818609E-02  0.8005364E-01
       -2   -1    0    0    0  501  0.00000000000E+00  0.00000000000E+00  0.18767745520E+04  0.18767745520E+04  0.25500000920E-02 0.  1.
        2   -1    0    0  501    0  0.00000000000E+00  0.00000000000E+00 -0.21270004125E+04  0.21270004125E+04  0.25500000920E-02 0. -1.
    10030    2    1    2    0    0  0.00000000000E+00  0.00000000000E+00 -0.25022586053E+03  0.40037749644E+04  0.39959480708E+04 0.  0.
        5    1    3    3  502    0 -0.14428357109E+04  0.13800675562E+04 -0.50692229874E+02  0.19972363757E+04  0.46999998093E+01 0. -1.
       -5    1    3    3    0  502  0.14428357109E+04 -0.13800675562E+04 -0.19953363065E+03  0.20065385887E+04  0.46999998093E+01 0.  1.
</event>
<event>
 5   0  0.2746876E-08  0.3998128E+04  0.7818609E-02  0.8004924E-01
       -2   -1    0    0    0  501  0.00000000000E+00  0.00000000000E+00  0.26179099390E+04  0.26179099390E+04  0.25500000920E-02 0. -1.
        2   -1    0    0  501    0  0.00000000000E+00  0.00000000000E+00 -0.15265065848E+04  0.15265065848E+04  0.25500000920E-02 0.  1.
    10030    2    1    2    0    0  0.00000000000E+00  0.00000000000E+00  0.10914033542E+04  0.41444165237E+04  0.39981279420E+04 0.  0.
        1    1    3    3  502    0  0.17172130477E+04  0.94146635608E+03  0.12967253120E+03  0.19626498710E+04  0.50400001928E-02 0.  1.
       -1    1    3    3    0  502 -0.17172130477E+04 -0.94146635608E+03  0.96173082300E+03  0.21817666527E+04  0.50400001928E-02 0. -1.
</event>
<event>
 5   0  0.8329875E-09  0.4003036E+04  0.7818609E-02  0.8003934E-01
        1   -1    0    0  501    0  0.00000000000E+00  0.00000000000E+00  0.27265694436E+04  0.27265694436E+04  0.50400001928E-02 0. -1.
       -1   -1    0    0    0  501  0.00000000000E+00  0.00000000000E+00 -0.14692730559E+04  0.14692730559E+04  0.50400001928E-02 0.  1.
    10030    2    1    2    0    0  0.00000000000E+00  0.00000000000E+00  0.12572963877E+04  0.41958424995E+04  0.40030363568E+04 0.  0.
        4    1    3    3  502    0 -0.33096653529E+03 -0.16691440401E+04 -0.47590720631E+03  0.17669380170E+04  0.12699999809E+01 0.  1.
       -4    1    3    3    0  502  0.33096653529E+03  0.16691440401E+04  0.17332035940E+04  0.24289044825E+04  0.12699999809E+01 0. -1.
</event>
<event>
 5   0  0.2612363E-08  0.4001611E+04  0.7818609E-02  0.8004222E-01
        2   -1    0    0  501    0  0.00000000000E+00  0.00000000000E+00  0.17681262631E+04  0.17681262631E+04  0.25500000920E-02 0. -1.
       -2   -1    0    0    0  501  0.00000000000E+00  0.00000000000E+00 -0.22641042003E+04  0.22641042003E+04  0.25500000920E-02 0.  1.
    10030    2    1    2    0    0  0.00000000000E+00  0.00000000000E+00 -0.49597793721E+03  0.40322304634E+04  0.40016107252E+04 0.  0.
        4    1    3    3  502    0  0.10595915341E+03  0.11075316266E+04  0.14276748155E+04  0.18100029386E+04  0.12699999809E+01 0. -1.
       -4    1    3    3    0  502 -0.10595915341E+03 -0.11075316266E+04 -0.19236527527E+04  0.22222275248E+04  0.12699999809E+01 0.  1.
</event>
<event>
 5   0  0.2746876E-08  0.3997292E+04  0.7818609E-02  0.8005093E-01
        2   -1    0    0  501    0  0.00000000000E+00  0.00000000000E+00  0.15588450574E+04  0.15588450574E+04  0.25500000920E-02 0. -1.
       -2   -1    0    0    0  501  0.00000000000E+00  0.00000000000E+00 -0.25625294866E+04  0.25625294866E+04  0.25500000920E-02 0.  1.
    10030    2    1    2    0    0  0.00000000000E+00  0.00000000000E+00 -0.10036844292E+04  0.41213745440E+04  0.39972922958E+04 0.  0.
        1    1    3    3  502    0 -0.26395028663E+03  0.17712443698E+04  0.41318034848E+03  0.18378504759E+04  0.50400001928E-02 0. -1.
       -1    1    3    3    0  502  0.26395028663E+03 -0.17712443698E+04 -0.14168647777E+04  0.22835240681E+04  0.50400001928E-02 0.  1.
</event>
<event>
 5   0  0.2587493E-08  0.4015335E+04  0.7818609E-02  0.8001460E-01
        2   -1    0    0  501    0  0.00000000000E+00  0.00000000000E+00  0.16951383551E+04  0.16951383551E+04  0.25500000920E-02 0. -1.
       -2   -1    0    0    0  501  0.00000000000E+00  0.00000000000E+00 -0.23778175196E+04  0.23778175196E+04  0.25500000920E-02 0.  1.
    10030    2    1    2    0    0  0.00000000000E+00  0.00000000000E+00 -0.68267916453E+03  0.40729558747E+04  0.40153354425E+04 0.  0.
        5    1    3    3  502    0 -0.50246206610E+02  0.14195118546E+04 -0.17805622490E+04  0.22777099462E+04  0.46999998093E+01 0.  1.
       -5    1    3    3    0  502  0.50246206610E+02 -0.14195118546E+04  0.10978830844E+04  0.17952459285E+04  0.46999998093E+01 0. -1.
</event>
<event>
 5   0  0.2587493E-08  0.3997704E+04  0.7818609E-02  0.8005010E-01
       -2   -1    0    0    0  501  0.00000000000E+00  0.00000000000E+00  0.17740005584E+04  0.17740005584E+04  0.25500000920E-02 0. -1.
        2   -1    0    0  501    0  0.00000000000E+00  0.00000000000E+00 -0.22522032583E+04  0.22522032583E+04  0.25500000920E-02 0.  1.
    10030    2    1    2    0    0  0.00000000000E+00  0.00000000000E+00 -0.47820269991E+03  0.40262038167E+04  0.39977042601E+04 0.  0.
        5    1    3    3  502    0  0.10063963003E+04 -0.30156937553E+03 -0.19516974993E+04  0.22165114077E+04  0.46999998093E+01 0.  1.
       -5    1    3    3    0  502 -0.10063963003E+04  0.30156937553E+03  0.14734947994E+04  0.18096924090E+04  0.46999998093E+01 0. -1.
</event>
<event>
 5   0  0.2587493E-08  0.3996045E+04  0.7818609E-02  0.8005345E-01
        2   -1    0    0  501    0  0.00000000000E+00  0.00000000000E+00  0.23066077978E+04  0.23066077978E+04  0.25500000920E-02 0.  1.
       -2   -1    0    0    0  501  0.00000000000E+00  0.00000000000E+00 -0.17307206018E+04  0.17307206018E+04  0.25500000920E-02 0. -1.
    10030    2    1    2    0    0  0.00000000000E+00  0.00000000000E+00  0.57588719601E+03  0.40373283997E+04  0.39960448626E+04 0.  0.
        5    1    3    3  502    0  0.45071617373E+03 -0.17764158678E+04  0.10919495355E+04  0.21333481391E+04  0.46999998093E+01 0.  1.
       -5    1    3    3    0  502 -0.45071617373E+03  0.17764158678E+04 -0.51606233947E+03  0.19039802606E+04  0.46999998093E+01 0. -1.
</event>
<event>
 5   0  0.8329875E-09  0.3997474E+04  0.7818609E-02  0.8005056E-01
        1   -1    0    0  501    0  0.00000000000E+00  0.00000000000E+00  0.35460430732E+04  0.35460430732E+04  0.50400001928E-02 0.  1.
       -1   -1    0    0    0  501  0.00000000000E+00  0.00000000000E+00 -0.11265936475E+04  0.11265936475E+04  0.50400001928E-02 0. -1.
    10030    2    1    2    0    0  0.00000000000E+00  0.00000000000E+00  0.24194494258E+04  0.46726367207E+04  0.39974740024E+04 0.  0.
        5    1    3    3  502    0 -0.64637678362E+03 -0.16024360303E+04  0.23840584184E+04  0.29443778307E+04  0.46999998093E+01 0.  1.
       -5    1    3    3    0  502  0.64637678362E+03  0.16024360303E+04  0.35391007386E+02  0.17282588900E+04  0.46999998093E+01 0. -1.
</event>
<event>
 5   0  0.2746876E-08  0.3985597E+04  0.7818609E-02  0.8007458E-01
        2   -1    0    0  501    0  0.00000000000E+00  0.00000000000E+00  0.13334184665E+04  0.13334184665E+04  0.25500000920E-02 0. -1.
       -2   -1    0    0    0  501  0.00000000000E+00  0.00000000000E+00 -0.29782444453E+04  0.29782444453E+04  0.25500000920E-02 0.  1.
    10030    2    1    2    0    0  0.00000000000E+00  0.00000000000E+00 -0.16448259788E+04  0.43116629118E+04  0.39855971402E+04 0.  0.
        1    1    3    3  502    0  0.15256679334E+04 -0.83849239397E+03 -0.18715544126E+04  0.25560610433E+04  0.50400001928E-02 0.  1.
       -1    1    3    3    0  502 -0.15256679334E+04  0.83849239397E+03  0.22672843380E+03  0.17556018685E+04  0.50400001928E-02 0. -1.
</event>
<event>
 5   0  0.8329875E-09  0.3995887E+04  0.7818609E-02  0.8005377E-01
       -1   -1    0    0    0  501  0.00000000000E+00  0.00000000000E+00  0.26190741702E+04  0.26190741702E+04  0.50400001928E-02 0.  1.
        1   -1    0    0  501    0  0.00000000000E+00  0.00000000000E+00 -0.15241182524E+04  0.15241182524E+04  0.50400001928E-02 0. -1.
    10030    2    1    2    0    0  0.00000000000E+00  0.00000000000E+00  0.10949559178E+04  0.41431924226E+04  0.39958872593E+04 0.  0.
        2    1    3    3  502    0  0.15384522023E+03  0.12751570885E+04  0.21342815863E+04  0.24909540024E+04  0.25500000920E-02 0.  1.
       -2    1    3    3    0  502 -0.15384522023E+03 -0.12751570885E+04 -0.10393256685E+04  0.16522384203E+04  0.25500000920E-02 0. -1.
</event>
<event>
 5   0  0.8329875E-09  0.4004861E+04  0.7818609E-02  0.8003567E-01
        1   -1    0    0  501    0  0.00000000000E+00  0.00000000000E+00  0.15741553152E+04  0.15741553152E+04  0.50400001928E-02 0. -1.
       -1   -1    0    0    0  501  0.00000000000E+00  0.00000000000E+00 -0.25472253115E+04  0.25472253115E+04  0.50400001928E-02 0.  1.
    10030    2    1    2    0    0  0.00000000000E+00  0.00000000000E+00 -0.97306999635E+03  0.41213806267E+04  0.40048611777E+04 0.  0.
        4    1    3    3  502    0 -0.28756218835E+03  0.15660396502E+04  0.76310715396E+03  0.17656461535E+04  0.12699999809E+01 0. -1.
       -4    1    3    3    0  502  0.28756218835E+03 -0.15660396502E+04 -0.17361771503E+04  0.23557344732E+04  0.12699999809E+01 0.  1.
</event>
<event>
 5   0  0.8329875E-09  0.3996443E+04  0.7818609E-02  0.8005265E-01
        1   -1    0    0  501    0  0.00000000000E+00  0.00000000000E+00  0.20977292361E+04  0.20977292361E+04  0.50400001928E-02 0. -1.
       -1   -1    0    0    0  501  0.00000000000E+00  0.00000000000E+00 -0.19034336671E+04  0.19034336671E+04  0.50400001928E-02 0.  1.
    10030    2    1    2    0    0  0.00000000000E+00  0.00000000000E+00  0.19429556902E+03  0.40011629032E+04  0.39964426443E+04 0.  0.
        3    1    3    3  502    0 -0.51000918477E+02 -0.16966606937E+04 -0.95843608958E+03  0.19493225365E+04  0.10100000352E+00 0.  1.
       -3    1    3    3    0  502  0.51000918477E+02  0.16966606937E+04  0.11527316586E+04  0.20518403667E+04  0.10100000352E+00 0. -1.
</event>
<event>
 5   0  0.2746876E-08  0.3990830E+04  0.7818609E-02  0.8006399E-01
       -2   -1    0    0    0  501  0.00000000000E+00  0.00000000000E+00  0.23919347741E+04  0.23919347741E+04  0.25500000920E-02 0.  1.
        2   -1    0    0  501    0  0.00000000000E+00  0.00000000000E+00 -0.16646281361E+04  0.16646281361E+04  0.25500000920E-02 0. -1.
    10030    2    1    2    0    0  0.00000000000E+00  0.00000000000E+00  0.72730663801E+03  0.40565629101E+04  0.39908304522E+04 0.  0.
        1    1    3    3  502    0  0.36603717694E+03 -0.12370766926E+04 -0.11837011514E+04  0.17508541841E+04  0.50400001928E-02 0. -1.
       -1    1    3    3    0  502 -0.36603717694E+03  0.12370766926E+04  0.19110077894E+04  0.23057087260E+04  0.50400001928E-02 0.  1.
</event>
<event>
 5   0  0.8329875E-09  0.3924226E+04  0.7818609E-02  0.8020009E-01
        1   -1    0    0  501    0  0.00000000000E+00  0.00000000000E+00  0.14625401673E+04  0.14625401673E+04  0.50400001928E-02 0. -1.
       -1   -1    0    0    0  501  0.00000000000E+00  0.00000000000E+00 -0.26323299324E+04  0.26323299324E+04  0.50400001928E-02 0.  1.
    10030    2    1    2    0    0  0.00000000000E+00  0.00000000000E+00 -0.11697897651E+04  0.40948700997E+04  0.39242264256E+04 0.  0.
        4    1    3    3  502    0 -0.15523754181E+03  0.14707074660E+04  0.76067748197E+03  0.16630426902E+04  0.12699999809E+01 0. -1.
       -4    1    3    3    0  502  0.15523754181E+03 -0.14707074660E+04 -0.19304672471E+04  0.24318274096E+04  0.12699999809E+01 0.  1.
</event>
<event>
 5   0  0.8329875E-09  0.3994796E+04  0.7818609E-02  0.8005597E-01
       -1   -1    0    0    0  501  0.00000000000E+00  0.00000000000E+00  0.18416659093E+04  0.18416659093E+04  0.50400001928E-02 0.  1.
        1   -1    0    0  501    0  0.00000000000E+00  0.00000000000E+00 -0.21662992627E+04  0.21662992627E+04  0.50400001928E-02 0. -1.
    10030    2    1    2    0    0  0.00000000000E+00  0.00000000000E+00 -0.32463335339E+03  0.40079651720E+04  0.39947963660E+04 0.  0.
        4    1    3    3  502    0 -0.11352449355E+04 -0.14500363351E+04  0.61367426954E+03  0.19411296089E+04  0.12699999809E+01 0.  1.
       -4    1    3    3    0  502  0.11352449355E+04  0.14500363351E+04 -0.93830762293E+03  0.20668355631E+04  0.12699999809E+01 0. -1.
</event>
<event>
 5   0  0.8329875E-09  0.3995319E+04  0.7818609E-02  0.8005491E-01
        1   -1    0    0  501    0  0.00000000000E+00  0.00000000000E+00  0.11731722739E+04  0.11731722740E+04  0.50400001928E-02 0. -1.
       -1   -1    0    0    0  501  0.00000000000E+00  0.00000000000E+00 -0.34015842204E+04  0.34015842204E+04  0.50400001928E-02 0.  1.
    10030    2    1    2    0    0  0.00000000000E+00  0.00000000000E+00 -0.22284119465E+04  0.45747564943E+04  0.39953194089E+04 0.  0.
        5    1    3    3  502    0  0.19823275961E+04 -0.40907743092E+02 -0.83531192788E+03  0.21515260279E+04  0.46999998093E+01 0.  1.
       -5    1    3    3    0  502 -0.19823275961E+04  0.40907743092E+02 -0.13931000186E+04  0.24232304665E+04  0.46999998093E+01 0. -1.
</event>
<event>
 5   0  0.2599332E-08  0.4001162E+04  0.7818609E-02  0.8004312E-01
        2   -1    0    0  501    0  0.00000000000E+00  0.00000000000E+00  0.24265667562E+04  0.24265667562E+04  0.25500000920E-02 0.  1.
       -2   -1    0    0    0  501  0.00000000000E+00  0.00000000000E+00 -0.16493771077E+04  0.16493771077E+04  0.25500000920E-02 0. -1.
    10030    2    1    2    0    0  0.00000000000E+00  0.00000000000E+00  0.77718964845E+03  0.40759438639E+04  0.40011616603E+04 0.  0.
        2    1    3    3  502    0 -0.13922759719E+02 -0.14598383660E+04  0.17820056917E+04  0.23036636437E+04  0.25500000920E-02 0.  1.
       -2    1    3    3    0  502  0.13922759719E+02  0.14598383660E+04 -0.10048160433E+04  0.17722802202E+04  0.25500000920E-02 0. -1.
</event>
<event>
 5   0  0.2612363E-08  0.4000813E+04  0.7818609E-02  0.8004383E-01
        2   -1    0    0  501    0  0.00000000000E+00  0.00000000000E+00  0.17977675569E+04  0.17977675569E+04  0.25500000920E-02 0. -1.
       -2   -1    0    0    0  501  0.00000000000E+00  0.00000000000E+00 -0.22258864494E+04  0.22258864494E+04  0.25500000920E-02 0.  1.
    10030    2    1    2    0    0  0.00000000000E+00  0.00000000000E+00 -0.42811889252E+03  0.40236540063E+04  0.40008131394E+04 0.  0.
        4    1    3    3  502    0  0.95601144395E+03  0.64075670093E+03  0.14314655336E+04  0.18367422839E+04  0.12699999809E+01 0. -1.
       -4    1    3    3    0  502 -0.95601144395E+03 -0.64075670093E+03 -0.18595844261E+04  0.21869117224E+04  0.12699999809E+01 0.  1.
</event>
<event>
 5   0  0.2587493E-08  0.4000396E+04  0.7818609E-02  0.8004467E-01
        2   -1    0    0  501    0  0.00000000000E+00  0.00000000000E+00  0.18241382631E+04  0.18241382631E+04  0.25500000920E-02 0. -1.
       -2   -1    0    0    0  501  0.00000000000E+00  0.00000000000E+00 -0.21932508723E+04  0.21932508723E+04  0.25500000920E-02 0.  1.
    10030    2    1    2    0    0  0.00000000000E+00  0.00000000000E+00 -0.36911260924E+03  0.40173891354E+04  0.40003963987E+04 0.  0.
        5    1    3    3  502    0 -0.90065362264E+03 -0.63141814407E+03  0.14931401788E+04  0.18545499465E+04  0.46999998093E+01 0. -1.
       -5    1    3    3    0  502  0.90065362264E+03  0.63141814407E+03 -0.18622527880E+04  0.21628391889E+04  0.46999998093E+01 0.  1.
</event>
<event>
 5   0  0.2650452E-08  0.3999844E+04  0.7818609E-02  0.8004578E-01
        2   -1    0    0  501    0  0.00000000000E+00  0.00000000000E+00  0.27102417760E+04  0.27102417760E+04  0.25500000920E-02 0. -1.
       -2   -1    0    0    0  501  0.00000000000E+00  0.00000000000E+00 -0.14757677706E+04  0.14757677706E+04  0.25500000920E-02 0.  1.
    10030    2    1    2    0    0  0.00000000000E+00  0.00000000000E+00  0.12344740054E+04  0.41860095467E+04  0.39998437288E+04 0.  0.
        3    1    3    3  502    0  0.94429694780E+03  0.16255034973E+03  0.24543804838E+04  0.26347870713E+04  0.10100000352E+00 0. -1.
       -3    1    3    3    0  502 -0.94429694780E+03 -0.16255034973E+03 -0.12199064784E+04  0.15512224754E+04  0.10100000352E+00 0.  1.
</event>
<event>
 5   0  0.2587493E-08  0.4007391E+04  0.7818609E-02  0.8003057E-01
       -2   -1    0    0    0  501  0.00000000000E+00  0.00000000000E+00  0.16341407850E+04  0.16341407850E+04  0.25500000920E-02 0.  1.
        2   -1    0    0  501    0  0.00000000000E+00  0.00000000000E+00 -0.24568233839E+04  0.24568233839E+04  0.25500000920E-02 0. -1.
    10030    2    1    2    0    0  0.00000000000E+00  0.00000000000E+00 -0.82268259892E+03  0.40909641690E+04  0.40073908186E+04 0.  0.
        5    1    3    3  502    0 -0.80324186144E+01  0.19829534723E+04 -0.70474464984E+03  0.21044847599E+04  0.46999998093E+01 0.  1.
       -5    1    3    3    0  502  0.80324186144E+01 -0.19829534723E+04 -0.11793794908E+03  0.19864794091E+04  0.46999998093E+01 0. -1.
</event>
<event>
 5   0  0.2599332E-08  0.3977250E+04  0.7818609E-02  0.8009152E-01
        2   -1    0    0  501    0  0.00000000000E+00  0.00000000000E+00  0.22160363863E+04  0.22160363863E+04  0.25500000920E-02 0. -1.
       -2   -1    0    0    0  501  0.00000000000E+00  0.00000000000E+00 -0.17845508195E+04  0.17845508195E+04  0.25500000920E-02 0.  1.
    10030    2    1    2    0    0  0.00000000000E+00  0.00000000000E+00  0.43148556685E+03  0.40005872058E+04  0.39772500797E+04 0.  0.
        2    1    3    3  502    0 -0.19140053806E+04 -0.43109738932E+03  0.54225181353E+03  0.20355094166E+04  0.25500000920E-02 0.  1.
       -2    1    3    3    0  502  0.19140053806E+04  0.43109738932E+03 -0.11076624667E+03  0.19650777891E+04  0.25500000920E-02 0. -1.
</event>
<event>
 5   0  0.8329875E-09  0.3977911E+04  0.7818609E-02  0.8009018E-01
        1   -1    0    0  501    0  0.00000000000E+00  0.00000000000E+00  0.27278613424E+04  0.27278613424E+04  0.50400001928E-02 0.  1.
       -1   -1    0    0    0  501  0.00000000000E+00  0.00000000000E+00 -0.14501994733E+04  0.14501994734E+04  0.50400001928E-02 0. -1.
    10030    2    1    2    0    0  0.00000000000E+00  0.00000000000E+00  0.12776618690E+04  0.41780608157E+04  0.39779105481E+04 0.  0.
        1    1    3    3  502    0  0.45587055716E+03  0.74196146143E+03  0.25169929598E+04  0.26633772423E+04  0.50400001928E-02 0.  1.
       -1    1    3    3    0  502 -0.45587055716E+03 -0.74196146143E+03 -0.12393310908E+04  0.15146835734E+04  0.50400001928E-02 0. -1.
</event>
<event>
 5   0  0.8329875E-09  0.4014926E+04  0.7818609E-02  0.8001542E-01
        1   -1    0    0  501    0  0.00000000000E+00  0.00000000000E+00  0.26838923200E+04  0.26838923200E+04  0.50400001928E-02 0.  1.
       -1   -1    0    0    0  501  0.00000000000E+00  0.00000000000E+00 -0.15015163132E+04  0.15015163132E+04  0.50400001928E-02 0. -1.
    10030    2    1    2    0    0  0.00000000000E+00  0.00000000000E+00  0.11823760068E+04  0.41854086331E+04  0.40149262017E+04 0.  0.
        4    1    3    3  502    0  0.77317138860E+03  0.66524770289E+03  0.23936403416E+04  0.26018962701E+04  0.12699999809E+01 0.  1.
       -4    1    3    3    0  502 -0.77317138860E+03 -0.66524770289E+03 -0.12112643348E+04  0.15835123631E+04  0.12699999809E+01 0. -1.
</event>
<event>
 5   0  0.2612363E-08  0.3999273E+04  0.7818609E-02  0.8004693E-01
       -2   -1    0    0    0  501  0.00000000000E+00  0.00000000000E+00  0.14536434474E+04  0.14536434474E+04  0.25500000920E-02 0. -1.
        2   -1    0    0  501    0  0.00000000000E+00  0.00000000000E+00 -0.27507058478E+04  0.27507058478E+04  0.25500000920E-02 0.  1.
    10030    2    1    2    0    0  0.00000000000E+00  0.00000000000E+00 -0.12970624004E+04  0.42043492952E+04  0.39992726996E+04 0.  0.
        4    1    3    3  502    0  0.50848526928E+03  0.65558871418E+03 -0.25612196629E+04  0.26922484294E+04  0.12699999809E+01 0.  1.
       -4    1    3    3    0  502 -0.50848526928E+03 -0.65558871418E+03  0.12641572624E+04  0.15121008658E+04  0.12699999809E+01 0. -1.
</event>
<event>
 5   0  0.2612363E-08  0.4000925E+04  0.7818609E-02  0.8004360E-01
       -2   -1    0    0    0  501  0.00000000000E+00  0.00000000000E+00  0.12749614087E+04  0.12749614087E+04  0.25500000920E-02 0.  1.
        2   -1    0    0  501    0  0.00000000000E+00  0.00000000000E+00 -0.31388017939E+04  0.31388017939E+04  0.25500000920E-02 0. -1.
    10030    2    1    2    0    0  0.00000000000E+00  0.00000000000E+00 -0.18638403852E+04  0.44137632026E+04  0.40009254713E+04 0.  0.
        4    1    3    3  502    0 -0.18791687780E+04 -0.48045592986E+02 -0.16868295699E+04  0.25256641276E+04  0.12699999809E+01 0.  1.
       -4    1    3    3    0  502  0.18791687780E+04  0.48045592986E+02 -0.17701081531E+03  0.18880990749E+04  0.12699999809E+01 0. -1.
</event>
<event>
 5   0  0.8329875E-09  0.3992139E+04  0.7818609E-02  0.8006134E-01
       -1   -1    0    0    0  501  0.00000000000E+00  0.00000000000E+00  0.16245277666E+04  0.16245277666E+04  0.50400001928E-02 0. -1.
        1   -1    0    0  501    0  0.00000000000E+00  0.00000000000E+00 -0.24525860299E+04  0.24525860299E+04  0.50400001928E-02 0.  1.
    10030    2    1    2    0    0  0.00000000000E+00  0.00000000000E+00 -0.82805826323E+03  0.40771137965E+04  0.39921393290E+04 0.  0.
        2    1    3    3  502    0 -0.18788355768E+03  0.19751040920E+04 -0.63768294994E+03  0.20839807941E+04  0.25500000920E-02 0.  1.
       -2    1    3    3    0  502  0.18788355768E+03 -0.19751040920E+04 -0.19037531328E+03  0.19931330024E+04  0.25500000920E-02 0. -1.
</event>
<event>
 5   0  0.8329875E-09  0.4005899E+04  0.7818609E-02  0.8003358E-01
       -1   -1    0    0    0  501  0.00000000000E+00  0.00000000000E+00  0.17702948478E+04  0.17702948478E+04  0.50400001928E-02 0. -1.
        1   -1    0    0  501    0  0.00000000000E+00  0.00000000000E+00 -0.22661802967E+04  0.22661802967E+04  0.50400001928E-02 0.  1.
    10030    2    1    2    0    0  0.00000000000E+00  0.00000000000E+00 -0.49588544890E+03  0.40364751446E+04  0.40058993016E+04 0.  0.
        2    1    3    3  502    0  0.17340864912E+02 -0.90123738880E+03 -0.20502474796E+04  0.22396527106E+04  0.25500000920E-02 0.  1.
       -2    1    3    3    0  502 -0.17340864912E+02  0.90123738880E+03  0.15543620307E+04  0.17968224339E+04  0.25500000920E-02 0. -1.
</event>
<event>
 5   0  0.2599332E-08  0.3996813E+04  0.7818609E-02  0.8005190E-01
       -2   -1    0    0    0  501  0.00000000000E+00  0.00000000000E+00  0.13003528490E+04  0.13003528490E+04  0.25500000920E-02 0.  1.
        2   -1    0    0  501    0  0.00000000000E+00  0.00000000000E+00 -0.30711877783E+04  0.30711877783E+04  0.25500000920E-02 0. -1.
    10030    2    1    2    0    0  0.00000000000E+00  0.00000000000E+00 -0.17708349293E+04  0.43715406273E+04  0.39968126187E+04 0.  0.
        2    1    3    3  502    0  0.80652302145E+03  0.10051041707E+04  0.78517337480E+03  0.15090430764E+04  0.25500000920E-02 0.  1.
       -2    1    3    3    0  502 -0.80652302145E+03 -0.10051041707E+04 -0.25560083041E+04  0.28624975508E+04  0.25500000920E-02 0. -1.
</event>
<event>
 5   0  0.2650452E-08  0.3999883E+04  0.7818609E-02  0.8004570E-01
       -2   -1    0    0    0  501  0.00000000000E+00  0.00000000000E+00  0.20952418885E+04  0.20952418885E+04  0.25500000920E-02 0. -1.
        2   -1    0    0  501    0  0.00000000000E+00  0.00000000000E+00 -0.19089758117E+04  0.19089758117E+04  0.25500000920E-02 0.  1.
    10030    2    1    2    0    0  0.00000000000E+00  0.00000000000E+00  0.18626607687E+03  0.40042177002E+04  0.39998830407E+04 0.  0.
        3    1    3    3  502    0  0.11104199267E+04 -0.57646797252E+03  0.16550861549E+04  0.20747669574E+04  0.10100000352E+00 0. -1.
       -3    1    3    3    0  502 -0.11104199267E+04  0.57646797252E+03 -0.14688200780E+04  0.19294507428E+04  0.10100000352E+00 0.  1.
</event>
<event>
 5   0  0.2599332E-08  0.4005719E+04  0.7818609E-02  0.8003394E-01
        2   -1    0    0  501    0  0.00000000000E+00  0.00000000000E+00  0.17778944055E+04  0.17778944055E+04  0.25500000920E-02 0. -1.
       -2   -1    0    0    0  501  0.00000000000E+00  0.00000000000E+00 -0.22562909617E+04  0.22562909617E+04  0.25500000920E-02 0.  1.
    10030    2    1    2    0    0  0.00000000000E+00  0.00000000000E+00 -0.47839655623E+03  0.40341853672E+04  0.40057194500E+04 0.  0.
        2    1    3    3  502    0  0.12603357029E+04 -0.42976770333E+02  0.13278649754E+04  0.18312614449E+04  0.25500000920E-02 0. -1.
       -2    1    3    3    0  502 -0.12603357029E+04  0.42976770333E+02 -0.18062615316E+04  0.22029239223E+04  0.25500000920E-02 0.  1.
</event>
<event>
 5   0  0.2746876E-08  0.4008071E+04  0.7818609E-02  0.8002920E-01
        2   -1    0    0  501    0  0.00000000000E+00  0.00000000000E+00  0.14228674513E+04  0.14228674513E+04  0.25500000920E-02 0. -1.
       -2   -1    0    0    0  501  0.00000000000E+00  0.00000000000E+00 -0.28225808844E+04  0.28225808844E+04  0.25500000920E-02 0.  1.
    10030    2    1    2    0    0  0.00000000000E+00  0.00000000000E+00 -0.13997134331E+04  0.42454483356E+04  0.40080710917E+04 0.  0.
        1    1    3    3  502    0 -0.13852570702E+04  0.13493199213E+04 -0.12568892049E+04  0.23063763513E+04  0.50400001928E-02 0. -1.
       -1    1    3    3    0  502  0.13852570702E+04 -0.13493199213E+04 -0.14282422819E+03  0.19390719844E+04  0.50400001928E-02 0.  1.
</event>
<event>
 5   0  0.8329875E-09  0.3911316E+04  0.7818609E-02  0.8022680E-01
       -1   -1    0    0    0  501  0.00000000000E+00  0.00000000000E+00  0.17267672056E+04  0.17267672056E+04  0.50400001928E-02 0. -1.
        1   -1    0    0  501    0  0.00000000000E+00  0.00000000000E+00 -0.22148892567E+04  0.22148892567E+04  0.50400001928E-02 0.  1.
    10030    2    1    2    0    0  0.00000000000E+00  0.00000000000E+00 -0.48812205105E+03  0.39416564623E+04  0.39113159589E+04 0.  0.
        5    1    3    3  502    0 -0.64928595913E+03  0.13627972265E+04  0.10088803951E+04  0.18156679979E+04  0.46999998093E+01 0. -1.
       -5    1    3    3    0  502  0.64928595913E+03 -0.13627972265E+04 -0.14970024461E+04  0.21259884644E+04  0.46999998093E+01 0.  1.
</event>
<event>
 5   0  0.2587493E-08  0.4008117E+04  0.7818609E-02  0.8002911E-01
        2   -1    0    0  501    0  0.00000000000E+00  0.00000000000E+00  0.27073154595E+04  0.27073154595E+04  0.25500000920E-02 0.  1.
       -2   -1    0    0    0  501  0.00000000000E+00  0.00000000000E+00 -0.14834806623E+04  0.14834806623E+04  0.25500000920E-02 0. -1.
    10030    2    1    2    0    0  0.00000000000E+00  0.00000000000E+00  0.12238347972E+04  0.41907961218E+04  0.40081168301E+04 0.  0.
        5    1    3    3  502    0  0.17437084099E+04 -0.48384746987E+03  0.15123292686E+04  0.23583446100E+04  0.46999998093E+01 0.  1.
       -5    1    3    3    0  502 -0.17437084099E+04  0.48384746987E+03 -0.28849447143E+03  0.18324515117E+04  0.46999998093E+01 0. -1.
</event>
<event>
 5   0  0.2612363E-08  0.3988257E+04  0.7818609E-02  0.8006920E-01
        2   -1    0    0  501    0  0.00000000000E+00  0.00000000000E+00  0.12950060521E+04  0.12950060521E+04  0.25500000920E-02 0. -1.
       -2   -1    0    0    0  501  0.00000000000E+00  0.00000000000E+00 -0.30706790265E+04  0.30706790265E+04  0.25500000920E-02 0.  1.
    10030    2    1    2    0    0  0.00000000000E+00  0.00000000000E+00 -0.17756729744E+04  0.43656850787E+04  0.39882567237E+04 0.  0.
        4    1    3    3  502    0 -0.50987184335E+03 -0.12737999008E+03 -0.29935087663E+04  0.30392912505E+04  0.12699999809E+01 0.  1.
       -4    1    3    3    0  502  0.50987184335E+03  0.12737999008E+03  0.12178357919E+04  0.13263938282E+04  0.12699999809E+01 0. -1.
</event>
<event>
 5   0  0.2599332E-08  0.4000798E+04  0.7818609E-02  0.8004386E-01
       -2   -1    0    0    0  501  0.00000000000E+00  0.00000000000E+00  0.18644946333E+04  0.18644946333E+04  0.25500000920E-02 0. -1.
        2   -1    0    0  501    0  0.00000000000E+00  0.00000000000E+00 -0.21462091243E+04  0.21462091243E+04  0.25500000920E-02 0.  1.
    10030    2    1    2    0    0  0.00000000000E+00  0.00000000000E+00 -0.28171449102E+03  0.40107037575E+04  0.40007976175E+04 0.  0.
        2    1    3    3  502    0  0.95776109061E+03  0.14051829404E+04  0.91519785175E+03  0.19311738686E+04  0.25500000920E-02 0. -1.
       -2    1    3    3    0  502 -0.95776109061E+03 -0.14051829404E+04 -0.11969123428E+04  0.20795298890E+04  0.25500000920E-02 0.  1.
</event>
<event>
 5   0  0.8329875E-09  0.3999154E+04  0.7818609E-02  0.8004717E-01
        1   -1    0    0  501    0  0.00000000000E+00  0.00000000000E+00  0.17429743543E+04  0.17429743543E+04  0.50400001928E-02 0. -1.
       -1   -1    0    0    0  501  0.00000000000E+00  0.00000000000E+00 -0.22939575315E+04  0.22939575315E+04  0.50400001928E-02 0.  1.
    10030    2    1    2    0    0  0.00000000000E+00  0.00000000000E+00 -0.55098317716E+03  0.40369318858E+04  0.39991544843E+04 0.  0.
        5    1    3    3  502    0  0.71793064411E+03  0.66955568277E+03  0.14829621620E+04  0.17784622813E+04  0.46999998093E+01 0. -1.
       -5    1    3    3    0  502 -0.71793064411E+03 -0.66955568277E+03 -0.20339453391E+04  0.22584696045E+04  0.46999998093E+01 0.  1.
</event>
<event>
 5   0  0.8329875E-09  0.4012333E+04  0.7818609E-02  0.8002063E-01
        1   -1    0    0  501    0  0.00000000000E+00  0.00000000000E+00  0.16584424376E+04  0.16584424376E+04  0.50400001928E-02 0.  1.
       -1   -1    0    0    0  501  0.00000000000E+00  0.00000000000E+00 -0.24267978904E+04  0.24267978904E+04  0.50400001928E-02 0. -1.
    10030    2    1    2    0    0  0.00000000000E+00  0.00000000000E+00 -0.76835545282E+03  0.40852403280E+04  0.40123332907E+04 0.  0.
        5    1    3    3  502    0  0.12312944079E+04  0.42783052584E+03  0.11685101552E+04  0.17505893153E+04  0.46999998093E+01 0.  1.
       -5    1    3    3    0  502 -0.12312944079E+04 -0.42783052584E+03 -0.19368656080E+04  0.23346510128E+04  0.46999998093E+01 0. -1.
</event>
<event>
 5   0  0.2746876E-08  0.4004660E+04  0.7818609E-02  0.8003607E-01
       -2   -1    0    0    0  501  0.00000000000E+00  0.00000000000E+00  0.17206670808E+04  0.17206670808E+04  0.25500000920E-02 0. -1.
        2   -1    0    0  501    0  0.00000000000E+00  0.00000000000E+00 -0.23300988831E+04  0.23300988831E+04  0.25500000920E-02 0.  1.
    10030    2    1    2    0    0  0.00000000000E+00  0.00000000000E+00 -0.60943180223E+03  0.40507659639E+04  0.40046595077E+04 0.  0.
        1    1    3    3  502    0 -0.37177135436E+03 -0.69333573839E+03 -0.21672180086E+04  0.23055936942E+04  0.50400001928E-02 0.  1.
       -1    1    3    3    0  502  0.37177135436E+03  0.69333573839E+03  0.15577862063E+04  0.17451722697E+04  0.50400001928E-02 0. -1.
</event>
<event>
 5   0  0.2587493E-08  0.4002122E+04  0.7818609E-02  0.8004119E-01
        2   -1    0    0  501    0  0.00000000000E+00  0.00000000000E+00  0.26416382917E+04  0.26416382917E+04  0.25500000920E-02 0.  1.
       -2   -1    0    0    0  501  0.00000000000E+00  0.00000000000E+00 -0.15158185953E+04  0.15158185953E+04  0.25500000920E-02 0. -1.
    10030    2    1    2    0    0  0.00000000000E+00  0.00000000000E+00  0.11258196963E+04  0.41574568870E+04  0.40021216596E+04 0.  0.
        5    1    3    3  502    0  0.15768688313E+04 -0.86861223079E+03  0.14704425688E+04  0.23244840195E+04  0.46999998093E+01 0. -1.
       -5    1    3    3    0  502 -0.15768688313E+04  0.86861223079E+03 -0.34462287246E+03  0.18329728675E+04  0.46999998093E+01 0.  1.
</event>
<event>
 5   0  0.2587493E-08  0.4002297E+04  0.7818609E-02  0.8004083E-01
        2   -1    0    0  501    0  0.00000000000E+00  0.00000000000E+00  0.28078107876E+04  0.28078107876E+04  0.25500000920E-02 0.  1.
       -2   -1    0    0    0  501  0.00000000000E+00  0.00000000000E+00 -0.14262343272E+04  0.14262343272E+04  0.25500000920E-02 0. -1.
    10030    2    1    2    0    0  0.00000000000E+00  0.00000000000E+00  0.13815764604E+04  0.42340451149E+04  0.40022974051E+04 0.  0.
        5    1    3    3  502    0  0.12891553291E+04 -0.10906449177E+04 -0.44523789157E+03  0.17463352110E+04  0.46999998093E+01 0. -1.
       -5    1    3    3    0  502 -0.12891553291E+04  0.10906449177E+04  0.18268143520E+04  0.24877099039E+04  0.46999998093E+01 0.  1.
</event>
<event>
 5   0  0.8329875E-09  0.3996914E+04  0.7818609E-02  0.8005169E-01
        1   -1    0    0  501    0  0.00000000000E+00  0.00000000000E+00  0.21676478611E+04  0.21676478611E+04  0.50400001928E-02 0.  1.
       -1   -1    0    0    0  501  0.00000000000E+00  0.00000000000E+00 -0.18424717669E+04  0.18424717669E+04  0.50400001928E-02 0. -1.
    10030    2    1    2    0    0  0.00000000000E+00  0.00000000000E+00  0.32517609424E+03  0.40101196280E+04  0.39969138017E+04 0.  0.
        4    1    3    3  502    0 -0.15929270017E+04  0.52479569968E+03  0.12529175275E+04  0.20934734063E+04  0.12699999809E+01 0.  1.
       -4    1    3    3    0  502  0.15929270017E+04 -0.52479569968E+03 -0.92774143330E+03  0.19166462217E+04  0.12699999809E+01 0. -1.
</event>
<event>
 5   0  0.8329875E-09  0.4001101E+04  0.7818609E-02  0.8004325E-01
        1   -1    0    0  501    0  0.00000000000E+00  0.00000000000E+00  0.17498841429E+04  0.17498841429E+04  0.50400001928E-02 0. -1.
       -1   -1    0    0    0  501  0.00000000000E+00  0.00000000000E+00 -0.22871239797E+04  0.22871239797E+04  0.50400001928E-02 0.  1.
    10030    2    1    2    0    0  0.00000000000E+00  0.00000000000E+00 -0.53723983680E+03  0.40370081226E+04  0.40011008410E+04 0.  0.
        4    1    3    3  502    0 -0.13036224187E+04 -0.19838749982E+03  0.12493454792E+04  0.18164951830E+04  0.12699999809E+01 0. -1.
       -4    1    3    3    0  502  0.13036224187E+04  0.19838749982E+03 -0.17865853160E+04  0.22205129396E+04  0.12699999809E+01 0.  1.
</event>
<event>
 5   0  0.8329875E-09  0.3924080E+04  0.7818609E-02  0.8020040E-01
       -1   -1    0    0    0  501  0.00000000000E+00  0.00000000000E+00  0.26475913038E+04  0.26475913038E+04  0.50400001928E-02 0. -1.
        1   -1    0    0  501    0  0.00000000000E+00  0.00000000000E+00 -0.14540009464E+04  0.14540009464E+04  0.50400001928E-02 0.  1.
    10030    2    1    2    0    0  0.00000000000E+00  0.00000000000E+00  0.11935903574E+04  0.41015922502E+04  0.39240796431E+04 0.  0.
        2    1    3    3  502    0  0.97477266415E+03  0.39225037999E+03 -0.11351334618E+04  0.15467934844E+04  0.25500000920E-02 0.  1.
       -2    1    3    3    0  502 -0.97477266415E+03 -0.39225037999E+03  0.23287238192E+04  0.25547987658E+04  0.25500000920E-02 0. -1.
</event>
<event>
 5   0  0.2746876E-08  0.4007996E+04  0.7818609E-02  0.8002936E-01
       -2   -1    0    0    0  501  0.00000000000E+00  0.00000000000E+00  0.13829241164E+04  0.13829241164E+04  0.25500000920E-02 0.  1.
        2   -1    0    0  501    0  0.00000000000E+00  0.00000000000E+00 -0.29039969285E+04  0.29039969285E+04  0.25500000920E-02 0. -1.
    10030    2    1    2    0    0  0.00000000000E+00  0.00000000000E+00 -0.15210728121E+04  0.42869210448E+04  0.40079957017E+04 0.  0.
        1    1    3    3  502    0 -0.25810146401E+03  0.11791319924E+04 -0.24715626472E+04  0.27505618590E+04  0.50400001928E-02 0. -1.
       -1    1    3    3    0  502  0.25810146401E+03 -0.11791319924E+04  0.95048983508E+03  0.15363591858E+04  0.50400001928E-02 0.  1.
</event>
<event>
 5   0  0.2587493E-08  0.4014268E+04  0.7818609E-02  0.8001674E-01
       -2   -1    0    0    0  501  0.00000000000E+00  0.00000000000E+00  0.14354462977E+04  0.14354462977E+04  0.25500000920E-02 0. -1.
        2   -1    0    0  501    0  0.00000000000E+00  0.00000000000E+00 -0.28065046384E+04  0.28065046384E+04  0.25500000920E-02 0.  1.
    10030    2    1    2    0    0  0.00000000000E+00  0.00000000000E+00 -0.13710583407E+04  0.42419509362E+04  0.40142678998E+04 0.  0.
        5    1    3    3  502    0  0.54074539524E+03  0.14314801074E+04 -0.20580529679E+04  0.25645945077E+04  0.46999998093E+01 0.  1.
       -5    1    3    3    0  502 -0.54074539524E+03 -0.14314801074E+04  0.68699462718E+03  0.16773564285E+04  0.46999998093E+01 0. -1.
</event>
<event>
 5   0  0.2650452E-08  0.3997198E+04  0.7818609E-02  0.8005112E-01
       -2   -1    0    0    0  501  0.00000000000E+00  0.00000000000E+00  0.21474810845E+04  0.21474810845E+04  0.25500000920E-02 0. -1.
        2   -1    0    0  501    0  0.00000000000E+00  0.00000000000E+00 -0.18600386405E+04  0.18600386405E+04  0.25500000920E-02 0.  1.
    10030    2    1    2    0    0  0.00000000000E+00  0.00000000000E+00  0.28744244403E+03  0.40075197251E+04  0.39971979170E+04 0.  0.
        3    1    3    3  502    0 -0.18576360860E+04  0.27015808970E+03  0.83149598900E+03  0.20530910383E+04  0.10100000352E+00 0. -1.
       -3    1    3    3    0  502  0.18576360860E+04 -0.27015808970E+03 -0.54405354497E+03  0.19544286868E+04  0.10100000352E+00 0.  1.
</event>
<event>
 5   0  0.8329875E-09  0.4001234E+04  0.7818609E-02  0.8004298E-01
       -1   -1    0    0    0  501  0.00000000000E+00  0.00000000000E+00  0.22656884624E+04  0.22656884624E+04  0.50400001928E-02 0.  1.
        1   -1    0    0  501    0  0.00000000000E+00  0.00000000000E+00 -0.17665576060E+04  0.17665576060E+04  0.50400001928E-02 0. -1.
    10030    2    1    2    0    0  0.00000000000E+00  0.00000000000E+00  0.49913085633E+03  0.40322460684E+04  0.40012344026E+04 0.  0.
        1    1    3    3  502    0 -0.98267681880E+03  0.53930126416E+03 -0.14203746799E+04  0.18094097975E+04  0.50400001928E-02 0. -1.
       -1    1    3    3    0  502  0.98267681880E+03 -0.53930126416E+03  0.19195055363E+04  0.22228362710E+04  0.50400001928E-02 0.  1.
</event>
<event>
 5   0  0.2746876E-08  0.4000150E+04  0.7818609E-02  0.8004516E-01
       -2   -1    0    0    0  501  0.00000000000E+00  0.00000000000E+00  0.17434044774E+04  0.17434044774E+04  0.25500000920E-02 0.  1.
        2   -1    0    0  501    0  0.00000000000E+00  0.00000000000E+00 -0.22945336683E+04  0.22945336683E+04  0.25500000920E-02 0. -1.
    10030    2    1    2    0    0  0.00000000000E+00  0.00000000000E+00 -0.55112919088E+03  0.40379381457E+04  0.40001501326E+04 0.  0.
        1    1    3    3  502    0  0.51910760624E+03  0.14182635874E+04 -0.15991935834E+04  0.21996282476E+04  0.50400001928E-02 0. -1.
       -1    1    3    3    0  502 -0.51910760624E+03 -0.14182635874E+04  0.10480643925E+04  0.18383098981E+04  0.50400001928E-02 0.  1.
</event>
<event>
 5   0  0.8329875E-09  0.4001371E+04  0.7818609E-02  0.8004270E-01
        1   -1    0    0  501    0  0.00000000000E+00  0.00000000000E+00  0.20361321328E+04  0.20361321328E+04  0.50400001928E-02 0.  1.
       -1   -1    0    0    0  501  0.00000000000E+00  0.00000000000E+00 -0.19658560400E+04  0.19658560400E+04  0.50400001928E-02 0. -1.
    10030    2    1    2    0    0  0.00000000000E+00  0.00000000000E+00  0.70276092764E+02  0.40019881728E+04  0.40013710907E+04 0.  0.
        4    1    3    3  502    0 -0.19051456440E+04  0.48797692746E+03  0.40267210780E+03  0.20074480929E+04  0.12699999809E+01 0.  1.
       -4    1    3    3    0  502  0.19051456440E+04 -0.48797692746E+03 -0.33239601503E+03  0.19945400799E+04  0.12699999809E+01 0. -1.
</event>
<event>
 5   0  0.2650452E-08  0.4003948E+04  0.7818609E-02  0.8003751E-01
        2   -1    0    0  501    0  0.00000000000E+00  0.00000000000E+00  0.13836132888E+04  0.13836132888E+04  0.25500000920E-02 0.  1.
       -2   -1    0    0    0  501  0.00000000000E+00  0.00000000000E+00 -0.28966907399E+04  0.28966907399E+04  0.25500000920E-02 0. -1.
    10030    2    1    2    0    0  0.00000000000E+00  0.00000000000E+00 -0.15130774511E+04  0.42803040287E+04  0.40039479523E+04 0.  0.
        3    1    3    3  502    0 -0.13983857860E+04 -0.76630403627E+03  0.53746022635E+03  0.16827264149E+04  0.10100000352E+00 0.  1.
       -3    1    3    3    0  502  0.13983857860E+04  0.76630403627E+03 -0.20505376775E+04  0.25975776138E+04  0.10100000352E+00 0. -1.
</event>
<event>
 5   0  0.2612363E-08  0.4002753E+04  0.7818609E-02  0.8003991E-01
       -2   -1    0    0    0  501  0.00000000000E+00  0.00000000000E+00  0.16703031550E+04  0.16703031550E+04  0.25500000920E-02 0. -1.
        2   -1    0    0  501    0  0.00000000000E+00  0.00000000000E+00 -0.23980727997E+04  0.23980727997E+04  0.25500000920E-02 0.  1.
    10030    2    1    2    0    0  0.00000000000E+00  0.00000000000E+00 -0.72776964468E+03  0.40683759547E+04  0.40027533340E+04 0.  0.
        4    1    3    3  502    0  0.16907949023E+04 -0.82992654122E+03  0.32392321251E+03  0.19111497393E+04  0.12699999809E+01 0. -1.
       -4    1    3    3    0  502 -0.16907949023E+04  0.82992654122E+03 -0.10516928572E+04  0.21572262154E+04  0.12699999809E+01 0.  1.
</event>
<event>
 5   0  0.8329875E-09  0.4021418E+04  0.7818609E-02  0.8000240E-01
       -1   -1    0    0    0  501  0.00000000000E+00  0.00000000000E+00  0.15818349171E+04  0.15818349171E+04  0.50400001928E-02 0.  1.
        1   -1    0    0  501    0  0.00000000000E+00  0.00000000000E+00 -0.25558610364E+04  0.25558610364E+04  0.50400001928E-02 0. -1.
    10030    2    1    2    0    0  0.00000000000E+00  0.00000000000E+00 -0.97402611935E+03  0.41376959535E+04  0.40214177751E+04 0.  0.
        1    1    3    3  502    0 -0.19915521198E+04 -0.22389851140E+03 -0.31939201578E+03  0.20293894770E+04  0.50400001928E-02 0. -1.
       -1    1    3    3    0  502  0.19915521198E+04  0.22389851140E+03 -0.65463410357E+03  0.21083064765E+04  0.50400001928E-02 0.  1.
</event>
<event>
 5   0  0.2746876E-08  0.3996162E+04  0.7818609E-02  0.8005321E-01
       -2   -1    0    0    0  501  0.00000000000E+00  0.00000000000E+00  0.14935425256E+04  0.14935425256E+04  0.25500000920E-02 0.  1.
        2   -1    0    0  501    0  0.00000000000E+00  0.00000000000E+00 -0.26730595655E+04  0.26730595655E+04  0.25500000920E-02 0. -1.
    10030    2    1    2    0    0  0.00000000000E+00  0.00000000000E+00 -0.11795170398E+04  0.41666020911E+04  0.39961622262E+04 0.  0.
        1    1    3    3  502    0 -0.89147016509E+03 -0.15406681094E+04  0.35667381987E+03  0.18153769560E+04  0.50400001928E-02 0.  1.
       -1    1    3    3    0  502  0.89147016509E+03  0.15406681094E+04 -0.15361908597E+04  0.23512251351E+04  0.50400001928E-02 0. -1.
</event>
<event>
 5   0  0.8329875E-09  0.3971525E+04  0.7818609E-02  0.8010316E-01
        1   -1    0    0  501    0  0.00000000000E+00  0.00000000000E+00  0.12544972826E+04  0.12544972826E+04  0.50400001928E-02 0.  1.
       -1   -1    0    0    0  501  0.00000000000E+00  0.00000000000E+00 -0.31432934303E+04  0.31432934303E+04  0.50400001928E-02 0. -1.
    10030    2    1    2    0    0  0.00000000000E+00  0.00000000000E+00 -0.18887961477E+04  0.43977907129E+04  0.39715251814E+04 0.  0.
        5    1    3    3  502    0  0.40135339644E+03  0.80819830153E+03 -0.29031407114E+04  0.30401508390E+04  0.46999998093E+01 0. -1.
       -5    1    3    3    0  502 -0.40135339644E+03 -0.80819830153E+03  0.10143445637E+04  0.13576398739E+04  0.46999998093E+01 0.  1.
</event>
<event>
 5   0  0.8329875E-09  0.4000348E+04  0.7818609E-02  0.8004476E-01
       -1   -1    0    0    0  501  0.00000000000E+00  0.00000000000E+00  0.33947991107E+04  0.33947991107E+04  0.50400001928E-02 0.  1.
        1   -1    0    0  501    0  0.00000000000E+00  0.00000000000E+00 -0.11784782564E+04  0.11784782564E+04  0.50400001928E-02 0. -1.
    10030    2    1    2    0    0  0.00000000000E+00  0.00000000000E+00  0.22163208543E+04  0.45732773672E+04  0.40003484533E+04 0.  0.
        5    1    3    3  502    0  0.92629309393E+03  0.11634593258E+04 -0.42094389822E+03  0.15455977336E+04  0.46999998093E+01 0. -1.
       -5    1    3    3    0  502 -0.92629309393E+03 -0.11634593258E+04  0.26372647525E+04  0.30276796336E+04  0.46999998093E+01 0.  1.
</event>
<event>
 5   0  0.8329875E-09  0.4006083E+04  0.7818609E-02  0.8003321E-01
        1   -1    0    0  501    0  0.00000000000E+00  0.00000000000E+00  0.13415628356E+04  0.13415628356E+04  0.50400001928E-02 0. -1.
       -1   -1    0    0    0  501  0.00000000000E+00  0.00000000000E+00 -0.29906719514E+04  0.29906719514E+04  0.50400001928E-02 0.  1.
    10030    2    1    2    0    0  0.00000000000E+00  0.00000000000E+00 -0.16491091158E+04  0.43322347870E+04  0.40060825471E+04 0.  0.
        1    1    3    3  502    0  0.11124998810E+03  0.17016278426E+04 -0.19609457373E+04  0.25986962230E+04  0.50400001928E-02 0.  1.
       -1    1    3    3    0  502 -0.11124998810E+03 -0.17016278426E+04  0.31183662143E+03  0.17335385641E+04  0.50400001928E-02 0. -1.
</event>
<event>
 5   0  0.8329875E-09  0.3998062E+04  0.7818609E-02  0.8004938E-01
       -1   -1    0    0    0  501  0.00000000000E+00  0.00000000000E+00  0.24093552306E+04  0.24093552306E+04  0.50400001928E-02 0.  1.
        1   -1    0    0  501    0  0.00000000000E+00  0.00000000000E+00 -0.16585870758E+04  0.16585870758E+04  0.50400001928E-02 0. -1.
    10030    2    1    2    0    0  0.00000000000E+00  0.00000000000E+00  0.75076815482E+03  0.40679423064E+04  0.39980622539E+04 0.  0.
        3    1    3    3  502    0 -0.12556831182E+03  0.19708921138E+04  0.69054351795E+03  0.20921361059E+04  0.10100000352E+00 0.  1.
       -3    1    3    3    0  502  0.12556831182E+03 -0.19708921138E+04  0.60224636869E+02  0.19758062006E+04  0.10100000352E+00 0. -1.
</event>
<event>
 5   0  0.8329875E-09  0.3999232E+04  0.7818609E-02  0.8004701E-01
        1   -1    0    0  501    0  0.00000000000E+00  0.00000000000E+00  0.21929310049E+04  0.21929310049E+04  0.50400001928E-02 0. -1.
       -1   -1    0    0    0  501  0.00000000000E+00  0.00000000000E+00 -0.18233427637E+04  0.18233427637E+04  0.50400001928E-02 0.  1.
    10030    2    1    2    0    0  0.00000000000E+00  0.00000000000E+00  0.36958824125E+03  0.40162737686E+04  0.39992323658E+04 0.  0.
        3    1    3    3  502    0  0.32522742961E+02 -0.31787146524E+03 -0.17975382819E+04  0.18257173610E+04  0.10100000352E+00 0.  1.
       -3    1    3    3    0  502 -0.32522742961E+02  0.31787146524E+03  0.21671265231E+04  0.21905564076E+04  0.10100000352E+00 0. -1.
</event>
<event>
 5   0  0.8329875E-09  0.3879298E+04  0.7818609E-02  0.8029349E-01
        1   -1    0    0  501    0  0.00000000000E+00  0.00000000000E+00  0.19405800281E+04  0.19405800281E+04  0.50400001928E-02 0. -1.
       -1   -1    0    0    0  501  0.00000000000E+00  0.00000000000E+00 -0.19387188047E+04  0.19387188047E+04  0.50400001928E-02 0.  1.
    10030    2    1    2    0    0  0.00000000000E+00  0.00000000000E+00  0.18612233805E+01  0.38792988328E+04  0.38792983863E+04 0.  0.
        4    1    3    3  502    0 -0.76766855426E+03  0.15426753269E+04  0.89147841420E+03  0.19400766865E+04  0.12699999809E+01 0. -1.
       -4    1    3    3    0  502  0.76766855426E+03 -0.15426753269E+04 -0.88961719082E+03  0.19392221463E+04  0.12699999809E+01 0.  1.
</event>
<event>
 5   0  0.8329875E-09  0.4031616E+04  0.7818609E-02  0.7998199E-01
       -1   -1    0    0    0  501  0.00000000000E+00  0.00000000000E+00  0.20628762295E+04  0.20628762295E+04  0.50400001928E-02 0. -1.
        1   -1    0    0  501    0  0.00000000000E+00  0.00000000000E+00 -0.19698141577E+04  0.19698141577E+04  0.50400001928E-02 0.  1.
    10030    2    1    2    0    0  0.00000000000E+00  0.00000000000E+00  0.93062071779E+02  0.40326903871E+04  0.40316164512E+04 0.  0.
        3    1    3    3  502    0  0.36592920720E+03  0.19300188082E+04 -0.40592341197E+03  0.20059039387E+04  0.10100000352E+00 0. -1.
       -3    1    3    3    0  502 -0.36592920720E+03 -0.19300188082E+04  0.49898548374E+03  0.20267864485E+04  0.10100000352E+00 0.  1.
</event>
<event>
 5   0  0.8329875E-09  0.4014253E+04  0.7818609E-02  0.8001677E-01
        1   -1    0    0  501    0  0.00000000000E+00  0.00000000000E+00  0.15924313458E+04  0.15924313458E+04  0.50400001928E-02 0.  1.
       -1   -1    0    0    0  501  0.00000000000E+00  0.00000000000E+00 -0.25298151377E+04  0.25298151378E+04  0.50400001928E-02 0. -1.
    10030    2    1    2    0    0  0.00000000000E+00  0.00000000000E+00 -0.93738379195E+03  0.41222464836E+04  0.40142530685E+04 0.  0.
        1    1    3    3  502    0  0.25832452724E+03  0.15223875089E+03 -0.25066855759E+04  0.25245555599E+04  0.50400001928E-02 0. -1.
       -1    1    3    3    0  502 -0.25832452724E+03 -0.15223875089E+03  0.15693017839E+04  0.15976909237E+04  0.50400001928E-02 0.  1.
</event>
<event>
 5   0  0.8329875E-09  0.3966647E+04  0.7818609E-02  0.8011309E-01
        1   -1    0    0  501    0  0.00000000000E+00  0.00000000000E+00  0.18075771880E+04  0.18075771880E+04  0.50400001928E-02 0.  1.
       -1   -1    0    0    0  501  0.00000000000E+00  0.00000000000E+00 -0.21761575712E+04  0.21761575712E+04  0.50400001928E-02 0. -1.
    10030    2    1    2    0    0  0.00000000000E+00  0.00000000000E+00 -0.36858038322E+03  0.39837347592E+04  0.39666473416E+04 0.  0.
        5    1    3    3  502    0  0.93951332115E+03  0.12027497036E+04  0.10877592955E+04  0.18741756868E+04  0.46999998093E+01 0.  1.
       -5    1    3    3    0  502 -0.93951332115E+03 -0.12027497036E+04 -0.14563396788E+04  0.21095590724E+04  0.46999998093E+01 0. -1.
</event>
<event>
 5   0  0.2650452E-08  0.3983628E+04  0.7818609E-02  0.8007857E-01
       -2   -1    0    0    0  501  0.00000000000E+00  0.00000000000E+00  0.28796278485E+04  0.28796278485E+04  0.25500000920E-02 0.  1.
        2   -1    0    0  501    0  0.00000000000E+00  0.00000000000E+00 -0.13777209402E+04  0.13777209402E+04  0.25500000920E-02 0. -1.
    10030    2    1    2    0    0  0.00000000000E+00  0.00000000000E+00  0.15019069083E+04  0.42573487887E+04  0.39836282893E+04 0.  0.
        3    1    3    3  502    0  0.11324489866E+04  0.16349740149E+04  0.86676370222E+03  0.21695299174E+04  0.10100000352E+00 0.  1.
       -3    1    3    3    0  502 -0.11324489866E+04 -0.16349740149E+04  0.63514320607E+03  0.20878188713E+04  0.10100000352E+00 0. -1.
</event>
<event>
 5   0  0.2599332E-08  0.3994432E+04  0.7818609E-02  0.8005671E-01
        2   -1    0    0  501    0  0.00000000000E+00  0.00000000000E+00  0.21893855738E+04  0.21893855738E+04  0.25500000920E-02 0.  1.
       -2   -1    0    0    0  501  0.00000000000E+00  0.00000000000E+00 -0.18219138178E+04  0.18219138178E+04  0.25500000920E-02 0. -1.
    10030    2    1    2    0    0  0.00000000000E+00  0.00000000000E+00  0.36747175601E+03  0.40112993916E+04  0.39944320394E+04 0.  0.
        2    1    3    3  502    0 -0.14138636146E+04  0.14074039975E+04  0.27940355701E+03  0.20144137312E+04  0.25500000920E-02 0. -1.
       -2    1    3    3    0  502  0.14138636146E+04 -0.14074039975E+04  0.88068198994E+02  0.19968856604E+04  0.25500000920E-02 0.  1.
</event>
<event>
 5   0  0.8329875E-09  0.4003987E+04  0.7818609E-02  0.8003743E-01
       -1   -1    0    0    0  501  0.00000000000E+00  0.00000000000E+00  0.15086861393E+04  0.15086861393E+04  0.50400001928E-02 0. -1.
        1   -1    0    0  501    0  0.00000000000E+00  0.00000000000E+00 -0.26566013053E+04  0.26566013053E+04  0.50400001928E-02 0.  1.
    10030    2    1    2    0    0  0.00000000000E+00  0.00000000000E+00 -0.11479151660E+04  0.41652874446E+04  0.40039867966E+04 0.  0.
        5    1    3    3  502    0  0.99880409673E+03  0.12197084950E+04  0.70971240622E+03  0.17288760007E+04  0.46999998093E+01 0. -1.
       -5    1    3    3    0  502 -0.99880409673E+03 -0.12197084950E+04 -0.18576275723E+04  0.24364114438E+04  0.46999998093E+01 0.  1.
</event>
<event>
 5   0  0.2650452E-08  0.3998039E+04  0.7818609E-02  0.8004942E-01
        2   -1    0    0  501    0  0.00000000000E+00  0.00000000000E+00  0.21710463273E+04  0.21710463273E+04  0.25500000920E-02 0.  1.
       -2   -1    0    0    0  501  0.00000000000E+00  0.00000000000E+00 -0.18406234910E+04  0.18406234910E+04  0.25500000920E-02 0. -1.
    10030    2    1    2    0    0  0.00000000000E+00  0.00000000000E+00  0.33042283621E+03  0.40116698183E+04  0.39980389543E+04 0.  0.
        3    1    3    3  502    0 -0.31056129395E+03 -0.18032437549E+04 -0.64248172217E+03  0.19393089311E+04  0.10100000352E+00 0. -1.
       -3    1    3    3    0  502  0.31056129395E+03  0.18032437549E+04  0.97290455838E+03  0.20723608872E+04  0.10100000352E+00 0.  1.
</event>
<event>
 5   0  0.2746876E-08  0.3957928E+04  0.7818609E-02  0.8013088E-01
       -2   -1    0    0    0  501  0.00000000000E+00  0.00000000000E+00  0.30257710971E+04  0.30257710971E+04  0.25500000920E-02 0.  1.
        2   -1    0    0  501    0  0.00000000000E+00  0.00000000000E+00 -0.12943144758E+04  0.12943144758E+04  0.25500000920E-02 0. -1.
    10030    2    1    2    0    0  0.00000000000E+00  0.00000000000E+00  0.17314566214E+04  0.43200855729E+04  0.39579284134E+04 0.  0.
        1    1    3    3  502    0  0.67994972427E+03 -0.17965992906E+04  0.13848503415E+04  0.23681028497E+04  0.50400001928E-02 0.  1.
       -1    1    3    3    0  502 -0.67994972427E+03  0.17965992906E+04  0.34660627989E+03  0.19519827232E+04  0.50400001928E-02 0. -1.
</event>
<event>
 5   0  0.2612363E-08  0.4017787E+04  0.7818609E-02  0.8000968E-01
        2   -1    0    0  501    0  0.00000000000E+00  0.00000000000E+00  0.21554219700E+04  0.21554219700E+04  0.25500000920E-02 0. -1.
       -2   -1    0    0    0  501  0.00000000000E+00  0.00000000000E+00 -0.18723260039E+04  0.18723260039E+04  0.25500000920E-02 0.  1.
    10030    2    1    2    0    0  0.00000000000E+00  0.00000000000E+00  0.28309596610E+03  0.40277479738E+04  0.40177867557E+04 0.  0.
        4    1    3    3  502    0 -0.12749655510E+04 -0.99765459102E+03  0.13339502702E+04  0.20976836691E+04  0.12699999809E+01 0. -1.
       -4    1    3    3    0  502  0.12749655510E+04  0.99765459102E+03 -0.10508543041E+04  0.19300643048E+04  0.12699999809E+01 0.  1.
</event>
<event>
 5   0  0.2599332E-08  0.4001749E+04  0.7818609E-02  0.8004194E-01
        2   -1    0    0  501    0  0.00000000000E+00  0.00000000000E+00  0.33378820179E+04  0.33378820179E+04  0.25500000920E-02 0.  1.
       -2   -1    0    0    0  501  0.00000000000E+00  0.00000000000E+00 -0.11994129575E+04  0.11994129575E+04  0.25500000920E-02 0. -1.
    10030    2    1    2    0    0  0.00000000000E+00  0.00000000000E+00  0.21384690604E+04  0.45372949754E+04  0.40017490891E+04 0.  0.
        2    1    3    3  502    0  0.42069116278E+03  0.12978535412E+04 -0.59022409735E+03  0.14865292981E+04  0.25500000920E-02 0. -1.
       -2    1    3    3    0  502 -0.42069116278E+03 -0.12978535412E+04  0.27286931578E+04  0.30507656774E+04  0.25500000920E-02 0.  1.
</event>
<event>
 5   0  0.8329875E-09  0.3944628E+04  0.7818609E-02  0.8015811E-01
       -1   -1    0    0    0  501  0.00000000000E+00  0.00000000000E+00  0.20312628635E+04  0.20312628635E+04  0.50400001928E-02 0. -1.
        1   -1    0    0  501    0  0.00000000000E+00  0.00000000000E+00 -0.19150762192E+04  0.19150762193E+04  0.50400001928E-02 0.  1.
    10030    2    1    2    0    0  0.00000000000E+00  0.00000000000E+00  0.11618664426E+03  0.39463390828E+04  0.39446283500E+04 0.  0.
        5    1    3    3  502    0 -0.17874824348E+04  0.31536348801E+03 -0.71389769020E+03  0.19504408698E+04  0.46999998093E+01 0. -1.
       -5    1    3    3    0  502  0.17874824348E+04 -0.31536348801E+03  0.83008433446E+03  0.19958982130E+04  0.46999998093E+01 0.  1.
</event>
<event>
 5   0  0.2599332E-08  0.3997080E+04  0.7818609E-02  0.8005136E-01
        2   -1    0    0  501    0  0.00000000000E+00  0.00000000000E+00  0.21928975923E+04  0.21928975923E+04  0.25500000920E-02 0. -1.
       -2   -1    0    0    0  501  0.00000000000E+00  0.00000000000E+00 -0.18214088388E+04  0.18214088388E+04  0.25500000920E-02 0.  1.
    10030    2    1    2    0    0  0.00000000000E+00  0.00000000000E+00  0.37148875351E+03  0.40143064310E+04  0.39970804631E+04 0.  0.
        2    1    3    3  502    0  0.16221605801E+04 -0.33145873918E+03  0.13098953964E+04  0.21111835052E+04  0.25500000920E-02 0.  1.
       -2    1    3    3    0  502 -0.16221605801E+04  0.33145873918E+03 -0.93840664286E+03  0.19031229258E+04  0.25500000920E-02 0. -1.
</event>
<event>
 5   0  0.8329875E-09  0.3987504E+04  0.7818609E-02  0.8007072E-01
       -1   -1    0    0    0  501  0.00000000000E+00  0.00000000000E+00  0.18401142286E+04  0.18401142286E+04  0.50400001928E-02 0. -1.
        1   -1    0    0  501    0  0.00000000000E+00  0.00000000000E+00 -0.21602175188E+04  0.21602175188E+04  0.50400001928E-02 0.  1.
    10030    2    1    2    0    0  0.00000000000E+00  0.00000000000E+00 -0.32010329021E+03  0.40003317473E+04  0.39875039777E+04 0.  0.
        5    1    3    3  502    0  0.17633145273E+02  0.16738358331E+04  0.92647801511E+03  0.19132226547E+04  0.46999998093E+01 0. -1.
       -5    1    3    3    0  502 -0.17633145273E+02 -0.16738358331E+04 -0.12465813053E+04  0.20871090927E+04  0.46999998093E+01 0.  1.
</event>
<event>
 5   0  0.8329875E-09  0.4006864E+04  0.7818609E-02  0.8003163E-01
        1   -1    0    0  501    0  0.00000000000E+00  0.00000000000E+00  0.30866433482E+04  0.30866433482E+04  0.50400001928E-02 0. -1.
       -1   -1    0    0    0  501  0.00000000000E+00  0.00000000000E+00 -0.13003577664E+04  0.13003577664E+04  0.50400001928E-02 0.  1.
    10030    2    1    2    0    0  0.00000000000E+00  0.00000000000E+00  0.17862855817E+04  0.43870011146E+04  0.40068644350E+04 0.  0.
        4    1    3    3  502    0 -0.54513791830E+02 -0.50621150063E+03 -0.12283430852E+04  0.13296804822E+04  0.12699999809E+01 0.  1.
       -4    1    3    3    0  502  0.54513791830E+02  0.50621150063E+03  0.30146286669E+04  0.30573206324E+04  0.12699999809E+01 0. -1.
</event>
<event>
 5   0  0.8329875E-09  0.4011260E+04  0.7818609E-02  0.8002279E-01
       -1   -1    0    0    0  501  0.00000000000E+00  0.00000000000E+00  0.26516908339E+04  0.26516908339E+04  0.50400001928E-02 0.  1.
        1   -1    0    0  501    0  0.00000000000E+00  0.00000000000E+00 -0.15169758619E+04  0.15169758619E+04  0.50400001928E-02 0. -1.
    10030    2    1    2    0    0  0.00000000000E+00  0.00000000000E+00  0.11347149720E+04  0.41686666957E+04  0.40112596466E+04 0.  0.
        2    1    3    3  502    0  0.10107943899E+04  0.98366397522E+03 -0.91451857362E+03  0.16809652990E+04  0.25500000920E-02 0. -1.
       -2    1    3    3    0  502 -0.10107943899E+04 -0.98366397522E+03  0.20492335456E+04  0.24877013967E+04  0.25500000920E-02 0.  1.
</event>
<event>
 5   0  0.8329875E-09  0.4000745E+04  0.7818609E-02  0.8004396E-01
       -1   -1    0    0    0  501  0.00000000000E+00  0.00000000000E+00  0.25445741993E+04  0.25445741993E+04  0.50400001928E-02 0. -1.
        1   -1    0    0  501    0  0.00000000000E+00  0.00000000000E+00 -0.15725576435E+04  0.15725576435E+04  0.50400001928E-02 0.  1.
    10030    2    1    2    0    0  0.00000000000E+00  0.00000000000E+00  0.97201655584E+03  0.41171318428E+04  0.40007447339E+04 0.  0.
        4    1    3    3  502    0 -0.27233585019E+03  0.33538429375E+03 -0.15239730080E+04  0.15840280243E+04  0.12699999809E+01 0.  1.
       -4    1    3    3    0  502  0.27233585019E+03 -0.33538429375E+03  0.24959895638E+04  0.25331038185E+04  0.12699999809E+01 0. -1.
</event>
<event>
 5   0  0.2746876E-08  0.4017202E+04  0.7818609E-02  0.8001085E-01
        2   -1    0    0  501    0  0.00000000000E+00  0.00000000000E+00  0.24992468407E+04  0.24992468407E+04  0.25500000920E-02 0. -1.
       -2   -1    0    0    0  501  0.00000000000E+00  0.00000000000E+00 -0.16142774995E+04  0.16142774995E+04  0.25500000920E-02 0.  1.
    10030    2    1    2    0    0  0.00000000000E+00  0.00000000000E+00  0.88496934112E+03  0.41135243402E+04  0.40172019818E+04 0.  0.
        1    1    3    3  502    0  0.24027333496E+02  0.10590581082E+04 -0.13049791831E+04  0.16808188652E+04  0.50400001928E-02 0.  1.
       -1    1    3    3    0  502 -0.24027333496E+02 -0.10590581082E+04  0.21899485242E+04  0.24327054750E+04  0.50400001928E-02 0. -1.
</event>
<event>
 5   0  0.2612363E-08  0.4007221E+04  0.7818609E-02  0.8003091E-01
       -2   -1    0    0    0  501  0.00000000000E+00  0.00000000000E+00  0.16554428253E+04  0.16554428253E+04  0.25500000920E-02 0.  1.
        2   -1    0    0  501    0  0.00000000000E+00  0.00000000000E+00 -0.24250038193E+04  0.24250038193E+04  0.25500000920E-02 0. -1.
    10030    2    1    2    0    0  0.00000000000E+00  0.00000000000E+00 -0.76956099407E+03  0.40804466446E+04  0.40072210690E+04 0.  0.
        4    1    3    3  502    0 -0.12756740091E+04 -0.13950474922E+04 -0.10609568827E+04  0.21677483255E+04  0.12699999809E+01 0. -1.
       -4    1    3    3    0  502  0.12756740091E+04  0.13950474922E+04  0.29139588866E+03  0.19126983191E+04  0.12699999809E+01 0.  1.
</event>
<event>
 5   0  0.8329875E-09  0.4001259E+04  0.7818609E-02  0.8004293E-01
       -1   -1    0    0    0  501  0.00000000000E+00  0.00000000000E+00  0.27321503029E+04  0.27321503029E+04  0.50400001928E-02 0.  1.
        1   -1    0    0  501    0  0.00000000000E+00  0.00000000000E+00 -0.14649700141E+04  0.14649700141E+04  0.50400001928E-02 0. -1.
    10030    2    1    2    0    0  0.00000000000E+00  0.00000000000E+00  0.12671802888E+04  0.41971203170E+04  0.40012589358E+04 0.  0.
        3    1    3    3  502    0 -0.35980742049E+03 -0.19239728924E+04  0.10678417204E+04  0.22296679171E+04  0.10100000352E+00 0.  1.
       -3    1    3    3    0  502  0.35980742049E+03  0.19239728924E+04  0.19933856844E+03  0.19674523999E+04  0.10100000352E+00 0. -1.
</event>
<event>
 5   0  0.2650452E-08  0.4009661E+04  0.7818609E-02  0.8002601E-01
       -2   -1    0    0    0  501  0.00000000000E+00  0.00000000000E+00  0.20981907639E+04  0.20981907639E+04  0.25500000920E-02 0. -1.
        2   -1    0    0  501    0  0.00000000000E+00  0.00000000000E+00 -0.19156239366E+04  0.19156239366E+04  0.25500000920E-02 0.  1.
    10030    2    1    2    0    0  0.00000000000E+00  0.00000000000E+00  0.18256682728E+03  0.40138147005E+04  0.40096605596E+04 0.  0.
        3    1    3    3  502    0 -0.63786006812E+03 -0.83795173428E+02  0.19920548252E+04  0.20933632113E+04  0.10100000352E+00 0. -1.
       -3    1    3    3    0  502  0.63786006812E+03  0.83795173428E+02 -0.18094879979E+04  0.19204514892E+04  0.10100000352E+00 0.  1.
</event>
<event>
 5   0  0.8329875E-09  0.3998693E+04  0.7818609E-02  0.8004810E-01
       -1   -1    0    0    0  501  0.00000000000E+00  0.00000000000E+00  0.18227774900E+04  0.18227774900E+04  0.50400001928E-02 0. -1.
        1   -1    0    0  501    0  0.00000000000E+00  0.00000000000E+00 -0.21930196777E+04  0.21930196777E+04  0.50400001928E-02 0.  1.
    10030    2    1    2    0    0  0.00000000000E+00  0.00000000000E+00 -0.37024218777E+03  0.40157971677E+04  0.39986932384E+04 0.  0.
        3    1    3    3  502    0 -0.10382678736E+04 -0.16070025487E+04 -0.76806023315E+03  0.20616434951E+04  0.10100000352E+00 0.  1.
       -3    1    3    3    0  502  0.10382678736E+04  0.16070025487E+04  0.39781804538E+03  0.19541536726E+04  0.10100000352E+00 0. -1.
</event>
<event>
 5   0  0.8329875E-09  0.3997256E+04  0.7818609E-02  0.8005100E-01
       -1   -1    0    0    0  501  0.00000000000E+00  0.00000000000E+00  0.17942118474E+04  0.17942118474E+04  0.50400001928E-02 0. -1.
        1   -1    0    0  501    0  0.00000000000E+00  0.00000000000E+00 -0.22263340231E+04  0.22263340231E+04  0.50400001928E-02 0.  1.
    10030    2    1    2    0    0  0.00000000000E+00  0.00000000000E+00 -0.43212217577E+03  0.40205458705E+04  0.39972564994E+04 0.  0.
        2    1    3    3  502    0  0.19898360407E+04  0.10576583347E+03 -0.37149624652E+03  0.20269788705E+04  0.25500000920E-02 0.  1.
       -2    1    3    3    0  502 -0.19898360407E+04 -0.10576583347E+03 -0.60625929242E+02  0.19935670000E+04  0.25500000920E-02 0. -1.
</event>
<event>
 5   0  0.2599332E-08  0.3983600E+04  0.7818609E-02  0.8007863E-01
        2   -1    0    0  501    0  0.00000000000E+00  0.00000000000E+00  0.17676264912E+04  0.17676264912E+04  0.25500000920E-02 0.  1.
       -2   -1    0    0    0  501  0.00000000000E+00  0.00000000000E+00 -0.22444030437E+04  0.22444030437E+04  0.25500000920E-02 0. -1.
    10030    2    1    2    0    0  0.00000000000E+00  0.00000000000E+00 -0.47677655253E+03  0.40120295348E+04  0.39835995164E+04 0.  0.
        2    1    3    3  502    0  0.17467925277E+04 -0.74972180937E+03  0.36075174883E+03  0.19348149138E+04  0.25500000920E-02 0.  1.
       -2    1    3    3    0  502 -0.17467925277E+04  0.74972180937E+03 -0.83752830136E+03  0.20772146211E+04  0.25500000920E-02 0. -1.
</event>
<event>
 5   0  0.8329875E-09  0.4000292E+04  0.7818609E-02  0.8004488E-01
        1   -1    0    0  501    0  0.00000000000E+00  0.00000000000E+00  0.27047149593E+04  0.27047149593E+04  0.50400001928E-02 0. -1.
       -1   -1    0    0    0  501  0.00000000000E+00  0.00000000000E+00 -0.14791151327E+04  0.14791151327E+04  0.50400001928E-02 0.  1.
    10030    2    1    2    0    0  0.00000000000E+00  0.00000000000E+00  0.12255998266E+04  0.41838300920E+04  0.40002924023E+04 0.  0.
        1    1    3    3  502    0  0.69229080746E+03 -0.18743577160E+04  0.70693743798E+03  0.21194914369E+04  0.50400001928E-02 0. -1.
       -1    1    3    3    0  502 -0.69229080746E+03  0.18743577160E+04  0.51866238864E+03  0.20643386552E+04  0.50400001928E-02 0.  1.
</event>
<event>
 5   0  0.2612363E-08  0.4004311E+04  0.7818609E-02  0.8003677E-01
       -2   -1    0    0    0  501  0.00000000000E+00  0.00000000000E+00  0.19275541372E+04  0.19275541373E+04  0.25500000920E-02 0.  1.
        2   -1    0    0  501    0  0.00000000000E+00  0.00000000000E+00 -0.20796439438E+04  0.20796439438E+04  0.25500000920E-02 0. -1.
    10030    2    1    2    0    0  0.00000000000E+00  0.00000000000E+00 -0.15208980655E+03  0.40071980811E+04  0.40043108210E+04 0.  0.
        4    1    3    3  502    0 -0.12830595431E+04  0.13593014602E+04  0.64188608425E+03  0.19763505784E+04  0.12699999809E+01 0.  1.
       -4    1    3    3    0  502  0.12830595431E+04 -0.13593014602E+04 -0.79397589080E+03  0.20308475026E+04  0.12699999809E+01 0. -1.
</event>
<event>
 5   0  0.8329875E-09  0.3992019E+04  0.7818609E-02  0.8006159E-01
        1   -1    0    0  501    0  0.00000000000E+00  0.00000000000E+00  0.12795528683E+04  0.12795528683E+04  0.50400001928E-02 0. -1.
       -1   -1    0    0    0  501  0.00000000000E+00  0.00000000000E+00 -0.31136297003E+04  0.31136297003E+04  0.50400001928E-02 0.  1.
    10030    2    1    2    0    0  0.00000000000E+00  0.00000000000E+00 -0.18340768319E+04  0.43931825686E+04  0.39920189448E+04 0.  0.
        1    1    3    3  502    0 -0.18645073047E+04  0.67809742312E+03 -0.67630932251E+03  0.20960911011E+04  0.50400001928E-02 0. -1.
       -1    1    3    3    0  502  0.18645073047E+04 -0.67809742312E+03 -0.11577675094E+04  0.22970914675E+04  0.50400001928E-02 0.  1.
</event>
<event>
 5   0  0.2612363E-08  0.3999419E+04  0.7818609E-02  0.8004664E-01
       -2   -1    0    0    0  501  0.00000000000E+00  0.00000000000E+00  0.27531985832E+04  0.27531985832E+04  0.25500000920E-02 0. -1.
        2   -1    0    0  501    0  0.00000000000E+00  0.00000000000E+00 -0.14524332720E+04  0.14524332720E+04  0.25500000920E-02 0.  1.
    10030    2    1    2    0    0  0.00000000000E+00  0.00000000000E+00  0.13007653112E+04  0.42056318552E+04  0.39994185711E+04 0.  0.
        4    1    3    3  502    0 -0.34867544936E+03 -0.19485432019E+04  0.94862657615E+03  0.21950601752E+04  0.12699999809E+01 0. -1.
       -4    1    3    3    0  502  0.34867544936E+03  0.19485432019E+04  0.35213873502E+03  0.20105716800E+04  0.12699999809E+01 0.  1.
</event>
<event>
 5   0  0.2587493E-08  0.3995926E+04  0.7818609E-02  0.8005369E-01
       -2   -1    0    0    0  501  0.00000000000E+00  0.00000000000E+00  0.25356524306E+04  0.25356524306E+04  0.25500000920E-02 0. -1.
        2   -1    0    0  501    0  0.00000000000E+00  0.00000000000E+00 -0.15742911839E+04  0.15742911839E+04  0.25500000920E-02 0.  1.
    10030    2    1    2    0    0  0.00000000000E+00  0.00000000000E+00  0.96136124675E+03  0.41099436145E+04  0.39959255583E+04 0.  0.
        5    1    3    3  502    0 -0.15492196264E+04 -0.40409774532E+03  0.17099640339E+04  0.23425147866E+04  0.46999998093E+01 0. -1.
       -5    1    3    3    0  502  0.15492196264E+04  0.40409774532E+03 -0.74860278711E+03  0.17674288278E+04  0.46999998093E+01 0.  1.
</event>
<event>
 5   0  0.8329875E-09  0.4004361E+04  0.7818609E-02  0.8003667E-01
       -1   -1    0    0    0  501  0.00000000000E+00  0.00000000000E+00  0.22121624313E+04  0.22121624314E+04  0.50400001928E-02 0. -1.
        1   -1    0    0  501    0  0.00000000000E+00  0.00000000000E+00 -0.18121307741E+04  0.18121307741E+04  0.50400001928E-02 0.  1.
    10030    2    1    2    0    0  0.00000000000E+00  0.00000000000E+00  0.40003165727E+03  0.40242932054E+04  0.40043614318E+04 0.  0.
        4    1    3    3  502    0 -0.36193169443E+03 -0.18846166714E+04 -0.37374752818E+03  0.19551121137E+04  0.12699999809E+01 0.  1.
       -4    1    3    3    0  502  0.36193169443E+03  0.18846166714E+04  0.77377918544E+03  0.20691810917E+04  0.12699999809E+01 0. -1.
</event>
<event>
 5   0  0.2587493E-08  0.4000854E+04  0.7818609E-02  0.8004374E-01
       -2   -1    0    0    0  501  0.00000000000E+00  0.00000000000E+00  0.18491466631E+04  0.18491466631E+04  0.25500000920E-02 0.  1.
        2   -1    0    0  501    0  0.00000000000E+00  0.00000000000E+00 -0.21640833462E+04  0.21640833462E+04  0.25500000920E-02 0. -1.
    10030    2    1    2    0    0  0.00000000000E+00  0.00000000000E+00 -0.31493668303E+03  0.40132300093E+04  0.40008536580E+04 0.  0.
        5    1    3    3  502    0  0.19393151988E+04 -0.42288819081E+03 -0.40705029467E+03  0.20262008525E+04  0.46999998093E+01 0.  1.
       -5    1    3    3    0  502 -0.19393151988E+04  0.42288819081E+03  0.92113611635E+02  0.19870291568E+04  0.46999998093E+01 0. -1.
</event>
<event>
 5   0  0.8329875E-09  0.4037927E+04  0.7818609E-02  0.7996939E-01
        1   -1    0    0  501    0  0.00000000000E+00  0.00000000000E+00  0.22308188841E+04  0.22308188841E+04  0.50400001928E-02 0. -1.
       -1   -1    0    0    0  501  0.00000000000E+00  0.00000000000E+00 -0.18272275428E+04  0.18272275428E+04  0.50400001928E-02 0.  1.
    10030    2    1    2    0    0  0.00000000000E+00  0.00000000000E+00  0.40359134132E+03  0.40580464269E+04  0.40379270464E+04 0.  0.
        2    1    3    3  502    0 -0.15878659289E+03  0.31889218287E+03  0.21989841960E+04  0.22276527783E+04  0.25500000920E-02 0. -1.
       -2    1    3    3    0  502  0.15878659289E+03 -0.31889218287E+03 -0.17953928547E+04  0.18303936486E+04  0.25500000920E-02 0.  1.
</event>
<event>
 5   0  0.2599332E-08  0.3912291E+04  0.7818609E-02  0.8022478E-01
       -2   -1    0    0    0  501  0.00000000000E+00  0.00000000000E+00  0.27729217586E+04  0.27729217586E+04  0.25500000920E-02 0. -1.
        2   -1    0    0  501    0  0.00000000000E+00  0.00000000000E+00 -0.13799543563E+04  0.13799543563E+04  0.25500000920E-02 0.  1.
    10030    2    1    2    0    0  0.00000000000E+00  0.00000000000E+00  0.13929674023E+04  0.41528761149E+04  0.39122911244E+04 0.  0.
        2    1    3    3  502    0 -0.19943171847E+03 -0.69814149748E+03  0.26245890021E+04  0.27231676391E+04  0.25500000920E-02 0. -1.
       -2    1    3    3    0  502  0.19943171847E+03  0.69814149748E+03 -0.12316215998E+04  0.14297084758E+04  0.25500000920E-02 0.  1.
</event>
<event>
 5   0  0.8329875E-09  0.4004750E+04  0.7818609E-02  0.8003589E-01
        1   -1    0    0  501    0  0.00000000000E+00  0.00000000000E+00  0.29482794790E+04  0.29482794790E+04  0.50400001928E-02 0.  1.
       -1   -1    0    0    0  501  0.00000000000E+00  0.00000000000E+00 -0.13599478664E+04  0.13599478664E+04  0.50400001928E-02 0. -1.
    10030    2    1    2    0    0  0.00000000000E+00  0.00000000000E+00  0.15883316126E+04  0.43082273454E+04  0.40047503728E+04 0.  0.
        5    1    3    3  502    0  0.55003848327E+03  0.19189339253E+04  0.96301364928E+03  0.22163634904E+04  0.46999998093E+01 0. -1.
       -5    1    3    3    0  502 -0.55003848327E+03 -0.19189339253E+04  0.62531796334E+03  0.20918638550E+04  0.46999998093E+01 0.  1.
</event>
</LesHouchesEvents>
