<LesHouchesEvents version="3.0">
<header>
<!--
#*********************************************************************
#                                                                    *
#                        MadGraph5_aMC@NLO                           *
#                                                                    *
#                           Going Beyond                             *
#                                                                    *
#                   http://madgraph.hep.uiuc.edu                     *
#                   http://madgraph.phys.ucl.ac.be                   *
#                   http://amcatnlo.cern.ch                          *
#                                                                    *
#                     The MadGraph5_aMC@NLO team                     *
#                                                                    *
#....................................................................*
#                                                                    *
# This file contains all the information necessary to reproduce      *
# the events generated:                                              *
#                                                                    *
# 1. software version                                                *
# 2. proc_card          : code generation info including model       *
# 3. param_card         : model primary parameters in the LH format  *
# 4. run_card           : running parameters (collider and cuts)     *
# 5. pythia_card        : present only if pythia has been run        *
# 6. pgs_card           : present only if pgs has been run           *
# 7. delphes_cards      : present only if delphes has been run       *
#                                                                    *
#                                                                    *
#*********************************************************************
-->
<MGVersion>
#5.2.2.3
</MGVersion>
<MG5ProcCard>
#************************************************************
#*                     MadGraph5_aMC@NLO                    *
#*                                                          *
#*                *                       *                 *
#*                  *        * *        *                   *
#*                    * * * * 5 * * * *                     *
#*                  *        * *        *                   *
#*                *                       *                 *
#*                                                          *
#*                                                          *
#*         VERSION 2.2.3                 2015-02-10         *
#*                                                          *
#*    The MadGraph5_aMC@NLO Development Team - Find us at   *
#*    https://server06.fynu.ucl.ac.be/projects/madgraph     *
#*                                                          *
#************************************************************
#*                                                          *
#*               Command File for MadGraph5_aMC@NLO         *
#*                                                          *
#*     run as ./bin/mg5_aMC  filename                       *
#*                                                          *
#************************************************************
set group_subprocesses Auto
set ignore_six_quark_processes False
set loop_optimized_output True
set gauge unitary
set complex_mass_scheme False
import model sm
define p = g u c d s u~ c~ d~ s~
define j = g u c d s u~ c~ d~ s~
define l+ = e+ mu+
define l- = e- mu-
define vl = ve vm vt
define vl~ = ve~ vm~ vt~
import model Zprime_UFO
generate p p > zph, zph > j j
add process p p > zph, zph > b b~
output Dijet_signal
</MG5ProcCard>
<MGProcCard>
#*********************************************************************
#                        MadGraph/MadEvent                           *
#                   http://madgraph.hep.uiuc.edu                     *
#                                                                    *
#                          proc_card.dat                             *
#*********************************************************************
#                                                                    *
#            This Files is generated by MADGRAPH 5                   *
#                                                                    *
# WARNING: This Files is generated for MADEVENT (compatibility issue)*
#          This files is NOT a valid MG4 proc_card.dat               *
#          Running this in MG4 will NEVER reproduce the result of MG5*
#                                                                    *
#*********************************************************************
#*********************************************************************
# Process(es) requested : mg2 input                                  *
#*********************************************************************
# Begin PROCESS # This is TAG. Do not modify this line
p p > zph , zph > j j           #Process
# Be carefull the coupling are here in MG5 convention
          
end_coup           # End the couplings input

done               # this tells MG there are no more procs
# End PROCESS  # This is TAG. Do not modify this line
#*********************************************************************
# Model information                                                  *
#*********************************************************************
# Begin MODEL  # This is TAG. Do not modify this line
Zprime_UFO
# End   MODEL  # This is TAG. Do not modify this line
#*********************************************************************
# Start multiparticle definitions                                    *
#*********************************************************************
# Begin MULTIPARTICLES # This is TAG. Do not modify this line

# End  MULTIPARTICLES # This is TAG. Do not modify this line
</MGProcCard>
<MGRunCard>
#*********************************************************************
#                       MadGraph5_aMC@NLO                            *
#                                                                    *
#                     run_card.dat MadEvent                          *
#                                                                    *
#  This file is used to set the parameters of the run.               *
#                                                                    *
#  Some notation/conventions:                                        *
#                                                                    *
#   Lines starting with a '# ' are info or comments                  *
#                                                                    *
#   mind the format:   value    = variable     ! comment             *
#*********************************************************************
#
#*******************                                                 
# Running parameters
#*******************                                                 
#                                                                    
#*********************************************************************
# Tag name for the run (one word)                                    *
#*********************************************************************
  tag_1     = run_tag ! name of the run 
#*********************************************************************
# Run to generate the grid pack                                      *
#*********************************************************************
  .false.     = gridpack  !True = setting up the grid pack
#*********************************************************************
# Number of events and rnd seed                                      *
# Warning: Do not generate more than 1M events in a single run       *
# If you want to run Pythia, avoid more than 50k events in a run.    *
#*********************************************************************
  2000 = nevents ! Number of unweighted events requested 
 2262 = iseed   ! rnd seed (0=assigned automatically=default))
#*********************************************************************
# Collider type and energy                                           *
# lpp: 0=No PDF, 1=proton, -1=antiproton, 2=photon from proton,      *
#                                         3=photon from electron     *
#*********************************************************************
        1     = lpp1    ! beam 1 type 
        1     = lpp2    ! beam 2 type
     4000     = ebeam1  ! beam 1 total energy in GeV
     4000     = ebeam2  ! beam 2 total energy in GeV
#*********************************************************************
# Beam polarization from -100 (left-handed) to 100 (right-handed)    *
#*********************************************************************
        0     = polbeam1 ! beam polarization for beam 1
        0     = polbeam2 ! beam polarization for beam 2
#*********************************************************************
# PDF CHOICE: this automatically fixes also alpha_s and its evol.    *
#*********************************************************************
 'nn23lo1'    = pdlabel     ! PDF set                                     
 230000    = lhaid     ! if pdlabel=lhapdf, this is the lhapdf number
#*********************************************************************
# Renormalization and factorization scales                           *
#*********************************************************************
 F        = fixed_ren_scale  ! if .true. use fixed ren scale
 F        = fixed_fac_scale  ! if .true. use fixed fac scale
 91.1880  = scale            ! fixed ren scale
 91.1880  = dsqrt_q2fact1    ! fixed fact scale for pdf1
 91.1880  = dsqrt_q2fact2    ! fixed fact scale for pdf2
 1        = scalefact        ! scale factor for event-by-event scales
#*********************************************************************
# Matching - Warning! ickkw > 1 is still beta
#*********************************************************************
 0        = ickkw            ! 0 no matching, 1 MLM, 2 CKKW matching
 1        = highestmult      ! for ickkw=2, highest mult group
 1        = ktscheme         ! for ickkw=1, 1 Durham kT, 2 Pythia pTE
 1        = alpsfact         ! scale factor for QCD emission vx
 F        = chcluster        ! cluster only according to channel diag
 T        = pdfwgt           ! for ickkw=1, perform pdf reweighting
 5        = asrwgtflavor     ! highest quark flavor for a_s reweight
 T        = clusinfo         ! include clustering tag in output
 3.0      = lhe_version       ! Change the way clustering information pass to shower.        
#*********************************************************************
#**********************************************************
#
#**********************************************************
# Automatic ptj and mjj cuts if xqcut > 0
# (turn off for VBF and single top processes)
#**********************************************************
   T  = auto_ptj_mjj  ! Automatic setting of ptj and mjj
#**********************************************************
#                                                                    
#**********************************
# BW cutoff (M+/-bwcutoff*Gamma)
#**********************************
  15  = bwcutoff      ! (M+/-bwcutoff*Gamma)
#**********************************************************
# Apply pt/E/eta/dr/mij cuts on decay products or not
# (note that etmiss/ptll/ptheavy/ht/sorted cuts always apply)
#**********************************************************
   T  = cut_decays    ! Cut decay products 
#*************************************************************
# Number of helicities to sum per event (0 = all helicities)
# 0 gives more stable result, but longer run time (needed for
# long decay chains e.g.).
# Use >=2 if most helicities contribute, e.g. pure QCD.
#*************************************************************
   0  = nhel          ! Number of helicities used per event
#*******************                                                 
# Standard Cuts
#*******************                                                 
#                                                                    
#*********************************************************************
# Minimum and maximum pt's (for max, -1 means no cut)                *
#*********************************************************************
 20  = ptj       ! minimum pt for the jets 
  0  = ptb       ! minimum pt for the b 
 10  = pta       ! minimum pt for the photons 
 10  = ptl       ! minimum pt for the charged leptons 
  0  = misset    ! minimum missing Et (sum of neutrino's momenta)
  0  = ptheavy   ! minimum pt for one heavy final state
 1.0 = ptonium   ! minimum pt for the quarkonium states
 -1  = ptjmax    ! maximum pt for the jets
 -1  = ptbmax    ! maximum pt for the b
 -1  = ptamax    ! maximum pt for the photons
 -1  = ptlmax    ! maximum pt for the charged leptons
 -1  = missetmax ! maximum missing Et (sum of neutrino's momenta)
#*********************************************************************
# Minimum and maximum E's (in the center of mass frame)              *
#*********************************************************************
  0  = ej     ! minimum E for the jets 
  0  = eb     ! minimum E for the b 
  0  = ea     ! minimum E for the photons 
  0  = el     ! minimum E for the charged leptons 
 -1   = ejmax ! maximum E for the jets
 -1   = ebmax ! maximum E for the b
 -1   = eamax ! maximum E for the photons
 -1   = elmax ! maximum E for the charged leptons
#*********************************************************************
# Maximum and minimum absolute rapidity (for max, -1 means no cut)   *
#*********************************************************************
   5  = etaj    ! max rap for the jets 
  -1  = etab    ! max rap for the b
 2.5  = etaa    ! max rap for the photons 
 2.5  = etal    ! max rap for the charged leptons 
 0.6  = etaonium ! max rap for the quarkonium states
   0  = etajmin ! min rap for the jets
   0  = etabmin ! min rap for the b
   0  = etaamin ! min rap for the photons
   0  = etalmin ! main rap for the charged leptons
#*********************************************************************
# Minimum and maximum DeltaR distance                                *
#*********************************************************************
 0.4 = drjj    ! min distance between jets 
 0   = drbb    ! min distance between b's 
 0.4 = drll    ! min distance between leptons 
 0.4 = draa    ! min distance between gammas 
 0   = drbj    ! min distance between b and jet 
 0.4 = draj    ! min distance between gamma and jet 
 0.4 = drjl    ! min distance between jet and lepton 
 0   = drab    ! min distance between gamma and b 
 0   = drbl    ! min distance between b and lepton 
 0.4 = dral    ! min distance between gamma and lepton 
 -1  = drjjmax ! max distance between jets
 -1  = drbbmax ! max distance between b's
 -1  = drllmax ! max distance between leptons
 -1  = draamax ! max distance between gammas
 -1  = drbjmax ! max distance between b and jet
 -1  = drajmax ! max distance between gamma and jet
 -1  = drjlmax ! max distance between jet and lepton
 -1  = drabmax ! max distance between gamma and b
 -1  = drblmax ! max distance between b and lepton
 -1  = dralmax ! maxdistance between gamma and lepton
#*********************************************************************
# Minimum and maximum invariant mass for pairs                       *
# WARNING: for four lepton final state mmll cut require to have      *
#          different lepton masses for each flavor!                  *           
#*********************************************************************
 0   = mmjj    ! min invariant mass of a jet pair 
 0   = mmbb    ! min invariant mass of a b pair 
 0   = mmaa    ! min invariant mass of gamma gamma pair
 0   = mmll    ! min invariant mass of l+l- (same flavour) lepton pair
 -1  = mmjjmax ! max invariant mass of a jet pair
 -1  = mmbbmax ! max invariant mass of a b pair
 -1  = mmaamax ! max invariant mass of gamma gamma pair
 -1  = mmllmax ! max invariant mass of l+l- (same flavour) lepton pair
#*********************************************************************
# Minimum and maximum invariant mass for all letpons                 *
#*********************************************************************
 0   = mmnl    ! min invariant mass for all letpons (l+- and vl) 
 -1  = mmnlmax ! max invariant mass for all letpons (l+- and vl) 
#*********************************************************************
# Minimum and maximum pt for 4-momenta sum of leptons                *
#*********************************************************************
 0   = ptllmin  ! Minimum pt for 4-momenta sum of leptons(l and vl)
 -1  = ptllmax  ! Maximum pt for 4-momenta sum of leptons(l and vl)
#*********************************************************************
# Inclusive cuts                                                     *
#*********************************************************************
 0  = xptj ! minimum pt for at least one jet  
 0  = xptb ! minimum pt for at least one b 
 0  = xpta ! minimum pt for at least one photon 
 0  = xptl ! minimum pt for at least one charged lepton 
#*********************************************************************
# Control the pt's of the jets sorted by pt                          *
#*********************************************************************
 0   = ptj1min ! minimum pt for the leading jet in pt
 0   = ptj2min ! minimum pt for the second jet in pt
 0   = ptj3min ! minimum pt for the third jet in pt
 0   = ptj4min ! minimum pt for the fourth jet in pt
 -1  = ptj1max ! maximum pt for the leading jet in pt 
 -1  = ptj2max ! maximum pt for the second jet in pt
 -1  = ptj3max ! maximum pt for the third jet in pt
 -1  = ptj4max ! maximum pt for the fourth jet in pt
 0   = cutuse  ! reject event if fails any (0) / all (1) jet pt cuts
#*********************************************************************
# Control the pt's of leptons sorted by pt                           *
#*********************************************************************
 0   = ptl1min ! minimum pt for the leading lepton in pt
 0   = ptl2min ! minimum pt for the second lepton in pt
 0   = ptl3min ! minimum pt for the third lepton in pt
 0   = ptl4min ! minimum pt for the fourth lepton in pt
 -1  = ptl1max ! maximum pt for the leading lepton in pt 
 -1  = ptl2max ! maximum pt for the second lepton in pt
 -1  = ptl3max ! maximum pt for the third lepton in pt
 -1  = ptl4max ! maximum pt for the fourth lepton in pt
#*********************************************************************
# Control the Ht(k)=Sum of k leading jets                            *
#*********************************************************************
 0   = htjmin ! minimum jet HT=Sum(jet pt)
 -1  = htjmax ! maximum jet HT=Sum(jet pt)
 0   = ihtmin  !inclusive Ht for all partons (including b)
 -1  = ihtmax  !inclusive Ht for all partons (including b)
 0   = ht2min ! minimum Ht for the two leading jets
 0   = ht3min ! minimum Ht for the three leading jets
 0   = ht4min ! minimum Ht for the four leading jets
 -1  = ht2max ! maximum Ht for the two leading jets
 -1  = ht3max ! maximum Ht for the three leading jets
 -1  = ht4max ! maximum Ht for the four leading jets
#***********************************************************************
# Photon-isolation cuts, according to hep-ph/9801442                   *
# When ptgmin=0, all the other parameters are ignored                  *
# When ptgmin>0, pta and draj are not going to be used                 *
#***********************************************************************
   0 = ptgmin ! Min photon transverse momentum
 0.4 = R0gamma ! Radius of isolation code
 1.0 = xn ! n parameter of eq.(3.4) in hep-ph/9801442
 1.0 = epsgamma ! epsilon_gamma parameter of eq.(3.4) in hep-ph/9801442
 .true. = isoEM ! isolate photons from EM energy (photons and leptons)
#*********************************************************************
# WBF cuts                                                           *
#*********************************************************************
 0   = xetamin ! minimum rapidity for two jets in the WBF case  
 0   = deltaeta ! minimum rapidity for two jets in the WBF case 
#*********************************************************************
# KT DURHAM CUT                                                      *
#*********************************************************************
 -1    =  ktdurham        
 0.4  =  dparameter 
#*********************************************************************
# maximal pdg code for quark to be considered as a light jet         *
# (otherwise b cuts are applied)                                     *
#*********************************************************************
 4 = maxjetflavor    ! Maximum jet pdg code
#*********************************************************************
# Jet measure cuts                                                   *
#*********************************************************************
 0   = xqcut   ! minimum kt jet measure between partons
#*********************************************************************
#
#*********************************************************************
# Store info for systematics studies                                 *
# WARNING: If use_syst is T, matched Pythia output is                *
#          meaningful ONLY if plotted taking matchscale              *
#          reweighting into account!                                 *
#*********************************************************************
   F  = use_syst      ! Enable systematics studies
#
#**************************************
# Parameter of the systematics study
#  will be used by SysCalc (if installed)
#**************************************                                  
#
0.5 1 2 = sys_scalefact  # factorization/renormalization scale factor
0.5 1 2 = sys_alpsfact  # \alpha_s emission scale factors
30 50 = sys_matchscale # variation of merging scale
# PDF sets and number of members (0 or none for all members).
CT10nlo.LHgrid = sys_pdf # matching scales
# MSTW2008nlo68cl.LHgrid 1  = sys_pdf
</MGRunCard>
<slha>
######################################################################
## PARAM_CARD AUTOMATICALY GENERATED BY MG5 FOLLOWING UFO MODEL   ####
######################################################################
##                                                                  ##
##  Width set on Auto will be computed following the information    ##
##        present in the decay.py files of the model.               ##
##        See  arXiv:1402.1178 for more details.                    ##
##                                                                  ##
######################################################################

###################################
## INFORMATION FOR CKMBLOCK
###################################
Block ckmblock 
    1 2.277360e-01 # cabi 

###################################
## INFORMATION FOR FRBLOCK
###################################
Block frblock 
    1 1.200000e+00 # gz 

###################################
## INFORMATION FOR MASS
###################################
Block mass 
    1 5.040000e-03 # MD 
    2 2.550000e-03 # MU 
    3 1.010000e-01 # MS 
    4 1.270000e+00 # MC 
    5 4.700000e+00 # MB 
    6 1.720000e+02 # MT 
   11 5.110000e-04 # Me 
   13 1.056600e-01 # MM 
   15 1.777000e+00 # MTA 
   23 9.118760e+01 # MZ 
   25 1.200000e+02 # MH 
  10030 2.100000e+03 # MZph 
  10031 3.000000e+02 # MZpl 
## Dependent parameters, given by model restrictions.
## Those values should be edited following the 
## analytical expression. MG5 ignores those values 
## but they are important for interfacing the output of MG5
## to external program such as Pythia.
  12 0.000000 # ve : 0.0 
  14 0.000000 # vm : 0.0 
  16 0.000000 # vt : 0.0 
  21 0.000000 # g : 0.0 
  22 0.000000 # a : 0.0 
  24 79.824360 # w+ : cmath.sqrt(MZ__exp__2/2. + cmath.sqrt(MZ__exp__4/4. - (aEW*cmath.pi*MZ__exp__2)/(Gf*sqrt__2))) 

###################################
## INFORMATION FOR SMINPUTS
###################################
Block sminputs 
    1 1.279000e+02 # aEWM1 
    2 1.166370e-05 # Gf 
    3 1.184000e-01 # aS 

###################################
## INFORMATION FOR YUKAWA
###################################
Block yukawa 
    1 5.040000e-03 # ymdo 
    2 2.550000e-03 # ymup 
    3 1.010000e-01 # yms 
    4 1.270000e+00 # ymc 
    5 4.700000e+00 # ymb 
    6 1.720000e+02 # ymt 
   11 5.110000e-04 # yme 
   13 1.056600e-01 # ymm 
   15 1.777000e+00 # ymtau 

###################################
## INFORMATION FOR DECAY
###################################
DECAY   6 1.508336e+00 # WT 
DECAY  23 2.495200e+00 # WZ 
DECAY  24 2.085000e+00 # WW 
DECAY  25 5.753088e-03 # WH 
## Dependent parameters, given by model restrictions.
## Those values should be edited following the 
## analytical expression. MG5 ignores those values 
## but they are important for interfacing the output of MG5
## to external program such as Pythia.
DECAY  1 0.000000 # d : 0.0 
DECAY  2 0.000000 # u : 0.0 
DECAY  3 0.000000 # s : 0.0 
DECAY  4 0.000000 # c : 0.0 
DECAY  5 0.000000 # b : 0.0 
DECAY  11 0.000000 # e- : 0.0 
DECAY  12 0.000000 # ve : 0.0 
DECAY  13 0.000000 # mu- : 0.0 
DECAY  14 0.000000 # vm : 0.0 
DECAY  15 0.000000 # ta- : 0.0 
DECAY  16 0.000000 # vt : 0.0 
DECAY  21 0.000000 # g : 0.0 
DECAY  22 0.000000 # a : 0.0 
DECAY  10030 0.308725 # zph : (gz__exp__2*MZph*(5 + cmath.sqrt(1 - (4*MT__exp__2)/MZph__exp__2)))/(144.*cmath.pi) 
DECAY  10031 0.132629 # zpl : (5*gz__exp__2*MZpl)/(144.*cmath.pi) 
#===========================================================
# QUANTUM NUMBERS OF NEW STATE(S) (NON SM PDG CODE)
#===========================================================

Block QNUMBERS 10030  # zph 
        1 0  # 3 times electric charge
        2 3  # number of spin states (2S+1)
        3 1  # colour rep (1: singlet, 3: triplet, 8: octet)
        4 0  # Particle/Antiparticle distinction (0=own anti)
Block QNUMBERS 10031  # zpl 
        1 0  # 3 times electric charge
        2 3  # number of spin states (2S+1)
        3 1  # colour rep (1: singlet, 3: triplet, 8: octet)
        4 0  # Particle/Antiparticle distinction (0=own anti)
</slha>
## END BANNER##
<MGGenerationInfo>
#  Number of Events        :         3968
#  Integrated weight (pb)  :  0.36921E-01
#  Max wgt                 :  0.13493E-04
#  Average wgt             :  0.93047E-05
</MGGenerationInfo>
</header>
<init>
     2212     2212  0.40000000000E+04  0.40000000000E+04 0 0  247000  247000 2   1
  0.36944325838E-01  0.83309599856E-04  0.13492520000E-04   0
</init>
<event>
 5   0  0.1235817E-04  0.2107191E+04  0.7818609E-02  0.8558082E-01
        2   -1    0    0  501    0  0.00000000000E+00  0.00000000000E+00  0.17056881978E+04  0.17056881978E+04  0.25500000920E-02 0.  1.
       -2   -1    0    0    0  501  0.00000000000E+00  0.00000000000E+00 -0.65080078160E+03  0.65080078160E+03  0.25500000920E-02 0. -1.
    10030    2    1    2    0    0  0.00000000000E+00  0.00000000000E+00  0.10548874162E+04  0.23564889794E+04  0.21071907482E+04 0.  0.
        1    1    3    3  502    0  0.46686015935E+01  0.46331614210E+03 -0.53074994499E+03  0.70454179968E+03  0.50400001928E-02 0. -1.
       -1    1    3    3    0  502 -0.46686015935E+01 -0.46331614210E+03  0.15856373612E+04  0.16519471797E+04  0.50400001928E-02 0.  1.
</event>
<event>
 5   0  0.1235817E-04  0.2073916E+04  0.7818609E-02  0.8572821E-01
       -2   -1    0    0    0  501  0.00000000000E+00  0.00000000000E+00  0.59831395073E+03  0.59831395074E+03  0.25500000920E-02 0. -1.
        2   -1    0    0  501    0  0.00000000000E+00  0.00000000000E+00 -0.17971871302E+04  0.17971871302E+04  0.25500000920E-02 0.  1.
    10030    2    1    2    0    0  0.00000000000E+00  0.00000000000E+00 -0.11988731795E+04  0.23955010810E+04  0.20739162298E+04 0.  0.
        1    1    3    3  502    0 -0.56728296590E+03 -0.47682122077E+03  0.23837229788E+03  0.77845346193E+03  0.50400001928E-02 0. -1.
       -1    1    3    3    0  502  0.56728296590E+03  0.47682122077E+03 -0.14372454774E+04  0.16170476190E+04  0.50400001928E-02 0.  1.
</event>
<event>
 5   0  0.1281470E-04  0.1956451E+04  0.7818609E-02  0.8627256E-01
       -2   -1    0    0    0  501  0.00000000000E+00  0.00000000000E+00  0.52514168915E+03  0.52514168916E+03  0.25500000920E-02 0. -1.
        2   -1    0    0  501    0  0.00000000000E+00  0.00000000000E+00 -0.18222227927E+04  0.18222227927E+04  0.25500000920E-02 0.  1.
    10030    2    1    2    0    0  0.00000000000E+00  0.00000000000E+00 -0.12970811036E+04  0.23473644819E+04  0.19564510271E+04 0.  0.
        3    1    3    3  502    0  0.46878636241E+03 -0.56028143909E+03  0.13202543131E+03  0.74236559004E+03  0.10100000352E+00 0. -1.
       -3    1    3    3    0  502 -0.46878636241E+03  0.56028143909E+03 -0.14291065349E+04  0.16049988918E+04  0.10100000352E+00 0.  1.
</event>
<event>
 5   0  0.1235817E-04  0.2013341E+04  0.7818609E-02  0.8600409E-01
       -2   -1    0    0    0  501  0.00000000000E+00  0.00000000000E+00  0.55576190027E+03  0.55576190027E+03  0.25500000920E-02 0.  1.
        2   -1    0    0  501    0  0.00000000000E+00  0.00000000000E+00 -0.18234169934E+04  0.18234169935E+04  0.25500000920E-02 0. -1.
    10030    2    1    2    0    0  0.00000000000E+00  0.00000000000E+00 -0.12676550932E+04  0.23791788937E+04  0.20133411964E+04 0.  0.
        1    1    3    3  502    0 -0.24482853991E+02 -0.35947596654E+03  0.47695374321E+03  0.59775183299E+03  0.50400001928E-02 0.  1.
       -1    1    3    3    0  502  0.24482853991E+02  0.35947596654E+03 -0.17446088364E+04  0.17814270607E+04  0.50400001928E-02 0. -1.
</event>
<event>
 5   0  0.1281470E-04  0.2107895E+04  0.7818609E-02  0.8557773E-01
        2   -1    0    0  501    0  0.00000000000E+00  0.00000000000E+00  0.19653554682E+04  0.19653554682E+04  0.25500000920E-02 0.  1.
       -2   -1    0    0    0  501  0.00000000000E+00  0.00000000000E+00 -0.56519316417E+03  0.56519316417E+03  0.25500000920E-02 0. -1.
    10030    2    1    2    0    0  0.00000000000E+00  0.00000000000E+00  0.14001623040E+04  0.25305486324E+04  0.21078951357E+04 0.  0.
        3    1    3    3  502    0 -0.11192585560E+03 -0.92963406907E+03  0.12808829557E+04  0.15866341910E+04  0.10100000352E+00 0.  1.
       -3    1    3    3    0  502  0.11192585560E+03  0.92963406907E+03  0.11927934830E+03  0.94391444138E+03  0.10100000352E+00 0. -1.
</event>
<event>
 5   0  0.6052292E-05  0.2119702E+04  0.7818609E-02  0.8552614E-01
        1   -1    0    0  501    0  0.00000000000E+00  0.00000000000E+00  0.97755030522E+03  0.97755030524E+03  0.50400001928E-02 0. -1.
       -1   -1    0    0    0  501  0.00000000000E+00  0.00000000000E+00 -0.11490811365E+04  0.11490811365E+04  0.50400001928E-02 0.  1.
    10030    2    1    2    0    0  0.00000000000E+00  0.00000000000E+00 -0.17153083130E+03  0.21266314418E+04  0.21197024468E+04 0.  0.
        1    1    3    3  502    0 -0.97436887196E+03  0.41618383073E+03 -0.11194546838E+03  0.10654273638E+04  0.50400001928E-02 0.  1.
       -1    1    3    3    0  502  0.97436887196E+03 -0.41618383073E+03 -0.59585362914E+02  0.10612040780E+04  0.50400001928E-02 0. -1.
</event>
<event>
 5   0  0.6221148E-05  0.2087994E+04  0.7818609E-02  0.8566550E-01
       -1   -1    0    0    0  501  0.00000000000E+00  0.00000000000E+00  0.53481359802E+03  0.53481359804E+03  0.50400001928E-02 0. -1.
        1   -1    0    0  501    0  0.00000000000E+00  0.00000000000E+00 -0.20379625664E+04  0.20379625664E+04  0.50400001928E-02 0.  1.
    10030    2    1    2    0    0  0.00000000000E+00  0.00000000000E+00 -0.15031489684E+04  0.25727761645E+04  0.20879943418E+04 0.  0.
        3    1    3    3  502    0 -0.74777505067E+02  0.70348779772E+02 -0.20317271705E+04  0.20343195255E+04  0.10100000352E+00 0.  1.
       -3    1    3    3    0  502  0.74777505067E+02 -0.70348779772E+02  0.52857820214E+03  0.53845663898E+03  0.10100000352E+00 0. -1.
</event>
<event>
 5   0  0.1235817E-04  0.2109453E+04  0.7818609E-02  0.8557091E-01
       -2   -1    0    0    0  501  0.00000000000E+00  0.00000000000E+00  0.69815356379E+03  0.69815356379E+03  0.25500000920E-02 0. -1.
        2   -1    0    0  501    0  0.00000000000E+00  0.00000000000E+00 -0.15934141106E+04  0.15934141106E+04  0.25500000920E-02 0.  1.
    10030    2    1    2    0    0  0.00000000000E+00  0.00000000000E+00 -0.89526054676E+03  0.22915676743E+04  0.21094527630E+04 0.  0.
        1    1    3    3  502    0  0.58611982495E+02 -0.19998709010E+03 -0.15708256263E+04  0.15845893314E+04  0.50400001928E-02 0.  1.
       -1    1    3    3    0  502 -0.58611982495E+02  0.19998709010E+03  0.67556507957E+03  0.70697834299E+03  0.50400001928E-02 0. -1.
</event>
<event>
 5   0  0.5933905E-05  0.2084192E+04  0.7818609E-02  0.8568239E-01
       -1   -1    0    0    0  501  0.00000000000E+00  0.00000000000E+00  0.44373241973E+03  0.44373241976E+03  0.50400001928E-02 0.  1.
        1   -1    0    0  501    0  0.00000000000E+00  0.00000000000E+00 -0.24473389859E+04  0.24473389859E+04  0.50400001928E-02 0. -1.
    10030    2    1    2    0    0  0.00000000000E+00  0.00000000000E+00 -0.20036065662E+04  0.28910714057E+04  0.20841915940E+04 0.  0.
        2    1    3    3  502    0  0.61366679917E+03  0.60076448276E+03 -0.18296740575E+03  0.87805579306E+03  0.25500000920E-02 0.  1.
       -2    1    3    3    0  502 -0.61366679917E+03 -0.60076448276E+03 -0.18206391604E+04  0.20130156126E+04  0.25500000920E-02 0. -1.
</event>
<event>
 5   0  0.1235817E-04  0.2137548E+04  0.7818609E-02  0.8544881E-01
        2   -1    0    0  501    0  0.00000000000E+00  0.00000000000E+00  0.10263180688E+04  0.10263180688E+04  0.25500000920E-02 0.  1.
       -2   -1    0    0    0  501  0.00000000000E+00  0.00000000000E+00 -0.11129861415E+04  0.11129861415E+04  0.25500000920E-02 0. -1.
    10030    2    1    2    0    0  0.00000000000E+00  0.00000000000E+00 -0.86668072699E+02  0.21393042103E+04  0.21375479291E+04 0.  0.
        1    1    3    3  502    0  0.93332229381E+03  0.43621514480E+03  0.24133530081E+03  0.10581195037E+04  0.50400001928E-02 0.  1.
       -1    1    3    3    0  502 -0.93332229381E+03 -0.43621514480E+03 -0.32800337351E+03  0.10811847066E+04  0.50400001928E-02 0. -1.
</event>
<event>
 5   0  0.4615125E-05  0.2111142E+04  0.7818609E-02  0.8556351E-01
       -4   -1    0    0    0  501  0.00000000000E+00  0.00000000000E+00  0.17855736855E+04  0.17855741371E+04  0.12699999809E+01 0.  1.
        4   -1    0    0  501    0  0.00000000000E+00  0.00000000000E+00 -0.62401654885E+03  0.62401784121E+03  0.12699999809E+01 0. -1.
    10030    2    1    2    0    0  0.00000000000E+00  0.00000000000E+00  0.11615571366E+04  0.24095919783E+04  0.21111415207E+04 0.  0.
        2    1    3    3  502    0  0.13373894826E+03  0.37059163095E+03 -0.53695084659E+03  0.66598834440E+03  0.25500000920E-02 0. -1.
       -2    1    3    3    0  502 -0.13373894826E+03 -0.37059163095E+03  0.16985079832E+04  0.17436036339E+04  0.25500000920E-02 0.  1.
</event>
<event>
 5   0  0.1325673E-04  0.2111275E+04  0.7818609E-02  0.8556293E-01
       -2   -1    0    0    0  501  0.00000000000E+00  0.00000000000E+00  0.74097594677E+03  0.74097594678E+03  0.25500000920E-02 0.  1.
        2   -1    0    0  501    0  0.00000000000E+00  0.00000000000E+00 -0.15039223734E+04  0.15039223734E+04  0.25500000920E-02 0. -1.
    10030    2    1    2    0    0  0.00000000000E+00  0.00000000000E+00 -0.76294642662E+03  0.22448983202E+04  0.21112747851E+04 0.  0.
        5    1    3    3  502    0 -0.90792218794E+03  0.21944898206E+03 -0.90439991094E+03  0.13001699289E+04  0.46999998093E+01 0.  1.
       -5    1    3    3    0  502  0.90792218794E+03 -0.21944898206E+03  0.14145348432E+03  0.94472839129E+03  0.46999998093E+01 0. -1.
</event>
<event>
 5   0  0.5846187E-05  0.2094572E+04  0.7818609E-02  0.8563638E-01
       -1   -1    0    0    0  501  0.00000000000E+00  0.00000000000E+00  0.38502557584E+03  0.38502557588E+03  0.50400001928E-02 0. -1.
        1   -1    0    0  501    0  0.00000000000E+00  0.00000000000E+00 -0.28486635362E+04  0.28486635362E+04  0.50400001928E-02 0.  1.
    10030    2    1    2    0    0  0.00000000000E+00  0.00000000000E+00 -0.24636379604E+04  0.32336891121E+04  0.20945723367E+04 0.  0.
        5    1    3    3  502    0  0.33461480440E+03  0.53616632610E+03  0.57400010560E+02  0.63463237215E+03  0.46999998093E+01 0. -1.
       -5    1    3    3    0  502 -0.33461480440E+03 -0.53616632610E+03 -0.25210379709E+04  0.25990567399E+04  0.46999998093E+01 0.  1.
</event>
<event>
 5   0  0.6052292E-05  0.1768988E+04  0.7818609E-02  0.8722967E-01
       -1   -1    0    0    0  501  0.00000000000E+00  0.00000000000E+00  0.11532579125E+04  0.11532579125E+04  0.50400001928E-02 0. -1.
        1   -1    0    0  501    0  0.00000000000E+00  0.00000000000E+00 -0.67836517157E+03  0.67836517159E+03  0.50400001928E-02 0.  1.
    10030    2    1    2    0    0  0.00000000000E+00  0.00000000000E+00  0.47489274095E+03  0.18316230841E+04  0.17689884134E+04 0.  0.
        1    1    3    3  502    0 -0.60870732731E+03  0.45791119100E+03 -0.22805257387E+03  0.79511964234E+03  0.50400001928E-02 0.  1.
       -1    1    3    3    0  502  0.60870732731E+03 -0.45791119100E+03  0.70294531482E+03  0.10365034418E+04  0.50400001928E-02 0. -1.
</event>
<event>
 5   0  0.6221148E-05  0.1919280E+04  0.7818609E-02  0.8645318E-01
        1   -1    0    0  501    0  0.00000000000E+00  0.00000000000E+00  0.84087331056E+03  0.84087331057E+03  0.50400001928E-02 0. -1.
       -1   -1    0    0    0  501  0.00000000000E+00  0.00000000000E+00 -0.10951820237E+04  0.10951820237E+04  0.50400001928E-02 0.  1.
    10030    2    1    2    0    0  0.00000000000E+00  0.00000000000E+00 -0.25430871316E+03  0.19360553343E+04  0.19192804214E+04 0.  0.
        3    1    3    3  502    0  0.91190988590E+03  0.16292051580E+03  0.12560822279E+03  0.93482627814E+03  0.10100000352E+00 0. -1.
       -3    1    3    3    0  502 -0.91190988590E+03 -0.16292051580E+03 -0.37991693594E+03  0.10012290562E+04  0.10100000352E+00 0.  1.
</event>
<event>
 5   0  0.6221148E-05  0.2056807E+04  0.7818609E-02  0.8580513E-01
       -1   -1    0    0    0  501  0.00000000000E+00  0.00000000000E+00  0.80436999822E+03  0.80436999824E+03  0.50400001928E-02 0. -1.
        1   -1    0    0  501    0  0.00000000000E+00  0.00000000000E+00 -0.13148347298E+04  0.13148347298E+04  0.50400001928E-02 0.  1.
    10030    2    1    2    0    0  0.00000000000E+00  0.00000000000E+00 -0.51046473161E+03  0.21192047281E+04  0.20568068546E+04 0.  0.
        3    1    3    3  502    0 -0.30628598222E+03  0.11015174165E+03  0.74989798043E+03  0.81749097875E+03  0.10100000352E+00 0. -1.
       -3    1    3    3    0  502  0.30628598222E+03 -0.11015174165E+03 -0.12603627120E+04  0.13017137493E+04  0.10100000352E+00 0.  1.
</event>
<event>
 5   0  0.1235817E-04  0.2064975E+04  0.7818609E-02  0.8576831E-01
       -2   -1    0    0    0  501  0.00000000000E+00  0.00000000000E+00  0.69689243113E+03  0.69689243114E+03  0.25500000920E-02 0.  1.
        2   -1    0    0  501    0  0.00000000000E+00  0.00000000000E+00 -0.15296912401E+04  0.15296912401E+04  0.25500000920E-02 0. -1.
    10030    2    1    2    0    0  0.00000000000E+00  0.00000000000E+00 -0.83279880894E+03  0.22265836712E+04  0.20649748155E+04 0.  0.
        1    1    3    3  502    0 -0.93731946562E+03 -0.35260548569E+03 -0.14547478179E+03  0.10119591500E+04  0.50400001928E-02 0.  1.
       -1    1    3    3    0  502  0.93731946562E+03  0.35260548569E+03 -0.68732402715E+03  0.12146245212E+04  0.50400001928E-02 0. -1.
</event>
<event>
 5   0  0.6263616E-05  0.2108149E+04  0.7818609E-02  0.8557662E-01
       -1   -1    0    0    0  501  0.00000000000E+00  0.00000000000E+00  0.54210426417E+03  0.54210426419E+03  0.50400001928E-02 0. -1.
        1   -1    0    0  501    0  0.00000000000E+00  0.00000000000E+00 -0.20495564236E+04  0.20495564236E+04  0.50400001928E-02 0.  1.
    10030    2    1    2    0    0  0.00000000000E+00  0.00000000000E+00 -0.15074521594E+04  0.25916606878E+04  0.21081492138E+04 0.  0.
        4    1    3    3  502    0 -0.30619519052E+03 -0.15986949438E+03  0.47055075402E+03  0.58372371456E+03  0.12699999809E+01 0. -1.
       -4    1    3    3    0  502  0.30619519052E+03  0.15986949438E+03 -0.19780029134E+04  0.20079369732E+04  0.12699999809E+01 0.  1.
</event>
<event>
 5   0  0.6052292E-05  0.1645448E+04  0.7818609E-02  0.8793104E-01
        1   -1    0    0  501    0  0.00000000000E+00  0.00000000000E+00  0.90367409332E+03  0.90367409333E+03  0.50400001928E-02 0. -1.
       -1   -1    0    0    0  501  0.00000000000E+00  0.00000000000E+00 -0.74902497511E+03  0.74902497512E+03  0.50400001928E-02 0.  1.
    10030    2    1    2    0    0  0.00000000000E+00  0.00000000000E+00  0.15464911821E+03  0.16526990685E+04  0.16454476172E+04 0.  0.
        1    1    3    3  502    0 -0.60280609775E+03 -0.33210880781E+03 -0.37544246974E+03  0.78398246142E+03  0.50400001928E-02 0.  1.
       -1    1    3    3    0  502  0.60280609775E+03  0.33210880781E+03  0.53009158795E+03  0.86871660704E+03  0.50400001928E-02 0. -1.
</event>
<event>
 5   0  0.1349252E-04  0.2104131E+04  0.7818609E-02  0.8559426E-01
       -2   -1    0    0    0  501  0.00000000000E+00  0.00000000000E+00  0.98928191795E+03  0.98928191795E+03  0.25500000920E-02 0. -1.
        2   -1    0    0  501    0  0.00000000000E+00  0.00000000000E+00 -0.11188331154E+04  0.11188331154E+04  0.25500000920E-02 0.  1.
    10030    2    1    2    0    0  0.00000000000E+00  0.00000000000E+00 -0.12955119745E+03  0.21081150334E+04  0.21041305761E+04 0.  0.
        2    1    3    3  502    0  0.10212275457E+04 -0.25328610374E+01 -0.31809674158E+03  0.10696250056E+04  0.25500000920E-02 0. -1.
       -2    1    3    3    0  502 -0.10212275457E+04  0.25328610374E+01  0.18854554413E+03  0.10384900278E+04  0.25500000920E-02 0.  1.
</event>
<event>
 5   0  0.6221148E-05  0.2053605E+04  0.7818609E-02  0.8581961E-01
       -1   -1    0    0    0  501  0.00000000000E+00  0.00000000000E+00  0.70227254080E+03  0.70227254082E+03  0.50400001928E-02 0. -1.
        1   -1    0    0  501    0  0.00000000000E+00  0.00000000000E+00 -0.15013027351E+04  0.15013027351E+04  0.50400001928E-02 0.  1.
    10030    2    1    2    0    0  0.00000000000E+00  0.00000000000E+00 -0.79903019427E+03  0.22035752759E+04  0.20536053041E+04 0.  0.
        3    1    3    3  502    0 -0.77463825105E+03 -0.32882632786E+03  0.23177954658E+03  0.87287624684E+03  0.10100000352E+00 0. -1.
       -3    1    3    3    0  502  0.77463825105E+03  0.32882632786E+03 -0.10308097408E+04  0.13306990290E+04  0.10100000352E+00 0.  1.
</event>
<event>
 5   0  0.1281470E-04  0.2109527E+04  0.7818609E-02  0.8557058E-01
        2   -1    0    0  501    0  0.00000000000E+00  0.00000000000E+00  0.11798847981E+04  0.11798847981E+04  0.25500000920E-02 0.  1.
       -2   -1    0    0    0  501  0.00000000000E+00  0.00000000000E+00 -0.94291099965E+03  0.94291099966E+03  0.25500000920E-02 0. -1.
    10030    2    1    2    0    0  0.00000000000E+00  0.00000000000E+00  0.23697379846E+03  0.21227957978E+04  0.21095272973E+04 0.  0.
        3    1    3    3  502    0  0.12506776468E+03  0.23569746801E+03  0.11453616838E+04  0.11760308836E+04  0.10100000352E+00 0.  1.
       -3    1    3    3    0  502 -0.12506776468E+03 -0.23569746801E+03 -0.90838788538E+03  0.94676491417E+03  0.10100000352E+00 0. -1.
</event>
<event>
 5   0  0.6052292E-05  0.2101916E+04  0.7818609E-02  0.8560400E-01
        1   -1    0    0  501    0  0.00000000000E+00  0.00000000000E+00  0.11705865230E+04  0.11705865230E+04  0.50400001928E-02 0. -1.
       -1   -1    0    0    0  501  0.00000000000E+00  0.00000000000E+00 -0.94355471075E+03  0.94355471077E+03  0.50400001928E-02 0.  1.
    10030    2    1    2    0    0  0.00000000000E+00  0.00000000000E+00  0.22703181221E+03  0.21141412337E+04  0.21019157244E+04 0.  0.
        1    1    3    3  502    0 -0.84663941041E+02  0.40634621418E+03 -0.85761904039E+03  0.95278310604E+03  0.50400001928E-02 0.  1.
       -1    1    3    3    0  502  0.84663941041E+02 -0.40634621418E+03  0.10846508526E+04  0.11613581277E+04  0.50400001928E-02 0. -1.
</event>
<event>
 5   0  0.1349252E-04  0.2094720E+04  0.7818609E-02  0.8563573E-01
        2   -1    0    0  501    0  0.00000000000E+00  0.00000000000E+00  0.58227542463E+03  0.58227542464E+03  0.25500000920E-02 0.  1.
       -2   -1    0    0    0  501  0.00000000000E+00  0.00000000000E+00 -0.18839237807E+04  0.18839237807E+04  0.25500000920E-02 0. -1.
    10030    2    1    2    0    0  0.00000000000E+00  0.00000000000E+00 -0.13016483560E+04  0.24661992053E+04  0.20947195701E+04 0.  0.
        2    1    3    3  502    0  0.81382712113E+03 -0.18339975232E+03  0.94733420255E+02  0.83959780441E+03  0.25500000920E-02 0.  1.
       -2    1    3    3    0  502 -0.81382712113E+03  0.18339975232E+03 -0.13963817763E+04  0.16266014009E+04  0.25500000920E-02 0. -1.
</event>
<event>
 5   0  0.5933905E-05  0.2020859E+04  0.7818609E-02  0.8596930E-01
       -1   -1    0    0    0  501  0.00000000000E+00  0.00000000000E+00  0.96370108452E+03  0.96370108453E+03  0.50400001928E-02 0. -1.
        1   -1    0    0  501    0  0.00000000000E+00  0.00000000000E+00 -0.10594234032E+04  0.10594234032E+04  0.50400001928E-02 0.  1.
    10030    2    1    2    0    0  0.00000000000E+00  0.00000000000E+00 -0.95722318679E+02  0.20231244877E+04  0.20208587112E+04 0.  0.
        2    1    3    3  502    0  0.96609270679E+03 -0.27299531641E+03 -0.16247061272E+03  0.10169848873E+04  0.25500000920E-02 0.  1.
       -2    1    3    3    0  502 -0.96609270679E+03  0.27299531641E+03  0.66748294039E+02  0.10061396005E+04  0.25500000920E-02 0. -1.
</event>
<event>
 5   0  0.1281470E-04  0.2091195E+04  0.7818609E-02  0.8565132E-01
       -2   -1    0    0    0  501  0.00000000000E+00  0.00000000000E+00  0.64718557939E+03  0.64718557939E+03  0.25500000920E-02 0. -1.
        2   -1    0    0  501    0  0.00000000000E+00  0.00000000000E+00 -0.16892741811E+04  0.16892741811E+04  0.25500000920E-02 0.  1.
    10030    2    1    2    0    0  0.00000000000E+00  0.00000000000E+00 -0.10420886018E+04  0.23364597605E+04  0.20911947682E+04 0.  0.
        3    1    3    3  502    0  0.20705059435E+03 -0.70179033862E+03 -0.13555700962E+04  0.15404382247E+04  0.10100000352E+00 0.  1.
       -3    1    3    3    0  502 -0.20705059435E+03  0.70179033862E+03  0.31348149447E+03  0.79602153588E+03  0.10100000352E+00 0. -1.
</event>
<event>
 5   0  0.1325673E-04  0.2097784E+04  0.7818609E-02  0.8562220E-01
        2   -1    0    0  501    0  0.00000000000E+00  0.00000000000E+00  0.15820391486E+04  0.15820391486E+04  0.25500000920E-02 0. -1.
       -2   -1    0    0    0  501  0.00000000000E+00  0.00000000000E+00 -0.69541516651E+03  0.69541516652E+03  0.25500000920E-02 0.  1.
    10030    2    1    2    0    0  0.00000000000E+00  0.00000000000E+00  0.88662398206E+03  0.22774543151E+04  0.20977836094E+04 0.  0.
        5    1    3    3  502    0  0.57434371667E+03 -0.83416021331E+03  0.73955257654E+03  0.12540550506E+04  0.46999998093E+01 0. -1.
       -5    1    3    3    0  502 -0.57434371667E+03  0.83416021331E+03  0.14707140552E+03  0.10233992645E+04  0.46999998093E+01 0.  1.
</event>
<event>
 5   0  0.5933905E-05  0.2097200E+04  0.7818609E-02  0.8562478E-01
        1   -1    0    0  501    0  0.00000000000E+00  0.00000000000E+00  0.91435045796E+03  0.91435045797E+03  0.50400001928E-02 0.  1.
       -1   -1    0    0    0  501  0.00000000000E+00  0.00000000000E+00 -0.12025604894E+04  0.12025604894E+04  0.50400001928E-02 0. -1.
    10030    2    1    2    0    0  0.00000000000E+00  0.00000000000E+00 -0.28821003140E+03  0.21169109473E+04  0.20971997847E+04 0.  0.
        2    1    3    3  502    0  0.23890119588E+03  0.87264376273E+03  0.39095330135E+03  0.98560915269E+03  0.25500000920E-02 0. -1.
       -2    1    3    3    0  502 -0.23890119588E+03 -0.87264376273E+03 -0.67916333275E+03  0.11313017947E+04  0.25500000920E-02 0.  1.
</event>
<event>
 5   0  0.1281470E-04  0.2018682E+04  0.7818609E-02  0.8597936E-01
       -2   -1    0    0    0  501  0.00000000000E+00  0.00000000000E+00  0.18049347729E+04  0.18049347729E+04  0.25500000920E-02 0. -1.
        2   -1    0    0  501    0  0.00000000000E+00  0.00000000000E+00 -0.56443570144E+03  0.56443570144E+03  0.25500000920E-02 0.  1.
    10030    2    1    2    0    0  0.00000000000E+00  0.00000000000E+00  0.12404990715E+04  0.23693704744E+04  0.20186823669E+04 0.  0.
        3    1    3    3  502    0  0.28358430486E+03 -0.85160917457E+03  0.78412990591E+02  0.90100324721E+03  0.10100000352E+00 0. -1.
       -3    1    3    3    0  502 -0.28358430486E+03  0.85160917457E+03  0.11620860809E+04  0.14683672271E+04  0.10100000352E+00 0.  1.
</event>
<event>
 5   0  0.1235817E-04  0.2086155E+04  0.7818609E-02  0.8567367E-01
        2   -1    0    0  501    0  0.00000000000E+00  0.00000000000E+00  0.13423155643E+04  0.13423155643E+04  0.25500000920E-02 0. -1.
       -2   -1    0    0    0  501  0.00000000000E+00  0.00000000000E+00 -0.81054769336E+03  0.81054769336E+03  0.25500000920E-02 0.  1.
    10030    2    1    2    0    0  0.00000000000E+00  0.00000000000E+00  0.53176787090E+03  0.21528632576E+04  0.20861551087E+04 0.  0.
        1    1    3    3  502    0  0.52434626285E+03 -0.72103291843E+03  0.82466215955E+03  0.12144526134E+04  0.50400001928E-02 0. -1.
       -1    1    3    3    0  502 -0.52434626285E+03  0.72103291843E+03 -0.29289428864E+03  0.93841064421E+03  0.50400001928E-02 0.  1.
</event>
<event>
 5   0  0.5846187E-05  0.2185734E+04  0.7818609E-02  0.8524390E-01
       -1   -1    0    0    0  501  0.00000000000E+00  0.00000000000E+00  0.81064614576E+03  0.81064614577E+03  0.50400001928E-02 0.  1.
        1   -1    0    0  501    0  0.00000000000E+00  0.00000000000E+00 -0.14733407647E+04  0.14733407648E+04  0.50400001928E-02 0. -1.
    10030    2    1    2    0    0  0.00000000000E+00  0.00000000000E+00 -0.66269461899E+03  0.22839869105E+04  0.21857337554E+04 0.  0.
        5    1    3    3  502    0  0.89507478545E+03  0.61876449690E+03 -0.43743720900E+03  0.11727752453E+04  0.46999998093E+01 0.  1.
       -5    1    3    3    0  502 -0.89507478545E+03 -0.61876449690E+03 -0.22525740999E+03  0.11112116652E+04  0.46999998093E+01 0. -1.
</event>
<event>
 5   0  0.1281470E-04  0.2120388E+04  0.7818609E-02  0.8552315E-01
       -2   -1    0    0    0  501  0.00000000000E+00  0.00000000000E+00  0.10038154134E+04  0.10038154134E+04  0.25500000920E-02 0. -1.
        2   -1    0    0  501    0  0.00000000000E+00  0.00000000000E+00 -0.11197391678E+04  0.11197391678E+04  0.25500000920E-02 0.  1.
    10030    2    1    2    0    0  0.00000000000E+00  0.00000000000E+00 -0.11592375443E+03  0.21235545812E+04  0.21203881112E+04 0.  0.
        3    1    3    3  502    0 -0.91218351468E+03  0.22213569876E+03 -0.55123002876E+03  0.10887045457E+04  0.10100000352E+00 0. -1.
       -3    1    3    3    0  502  0.91218351468E+03 -0.22213569876E+03  0.43530627433E+03  0.10348500354E+04  0.10100000352E+00 0.  1.
</event>
<event>
 5   0  0.6263616E-05  0.2085677E+04  0.7818609E-02  0.8567579E-01
        1   -1    0    0  501    0  0.00000000000E+00  0.00000000000E+00  0.13325401560E+04  0.13325401560E+04  0.50400001928E-02 0. -1.
       -1   -1    0    0    0  501  0.00000000000E+00  0.00000000000E+00 -0.81611929570E+03  0.81611929571E+03  0.50400001928E-02 0.  1.
    10030    2    1    2    0    0  0.00000000000E+00  0.00000000000E+00  0.51642086028E+03  0.21486594517E+04  0.20856766131E+04 0.  0.
        4    1    3    3  502    0  0.53319800942E+03 -0.91441660782E+02  0.11766757787E+04  0.12950788376E+04  0.12699999809E+01 0. -1.
       -4    1    3    3    0  502 -0.53319800942E+03  0.91441660782E+02 -0.66025491841E+03  0.85358061409E+03  0.12699999809E+01 0.  1.
</event>
<event>
 5   0  0.6052292E-05  0.2134907E+04  0.7818609E-02  0.8546021E-01
        1   -1    0    0  501    0  0.00000000000E+00  0.00000000000E+00  0.60430055769E+03  0.60430055771E+03  0.50400001928E-02 0.  1.
       -1   -1    0    0    0  501  0.00000000000E+00  0.00000000000E+00 -0.18855793893E+04  0.18855793893E+04  0.50400001928E-02 0. -1.
    10030    2    1    2    0    0  0.00000000000E+00  0.00000000000E+00 -0.12812788316E+04  0.24898799470E+04  0.21349067207E+04 0.  0.
        1    1    3    3  502    0  0.11486645591E+03  0.10210077311E+04 -0.30301333401E+03  0.10711994074E+04  0.50400001928E-02 0. -1.
       -1    1    3    3    0  502 -0.11486645591E+03 -0.10210077311E+04 -0.97826549756E+03  0.14186805396E+04  0.50400001928E-02 0.  1.
</event>
<event>
 5   0  0.6221148E-05  0.2113491E+04  0.7818609E-02  0.8555324E-01
       -1   -1    0    0    0  501  0.00000000000E+00  0.00000000000E+00  0.70788079888E+03  0.70788079890E+03  0.50400001928E-02 0. -1.
        1   -1    0    0  501    0  0.00000000000E+00  0.00000000000E+00 -0.15775413746E+04  0.15775413746E+04  0.50400001928E-02 0.  1.
    10030    2    1    2    0    0  0.00000000000E+00  0.00000000000E+00 -0.86966057570E+03  0.22854221735E+04  0.21134911862E+04 0.  0.
        3    1    3    3  502    0 -0.53955325619E+03 -0.85665611164E+03 -0.10731561978E+03  0.10180835242E+04  0.10100000352E+00 0. -1.
       -3    1    3    3    0  502  0.53955325619E+03  0.85665611164E+03 -0.76234495592E+03  0.12673386493E+04  0.10100000352E+00 0.  1.
</event>
<event>
 5   0  0.1252477E-04  0.2072958E+04  0.7818609E-02  0.8573250E-01
       -2   -1    0    0    0  501  0.00000000000E+00  0.00000000000E+00  0.88339955170E+03  0.88339955171E+03  0.25500000920E-02 0. -1.
        2   -1    0    0  501    0  0.00000000000E+00  0.00000000000E+00 -0.12160850096E+04  0.12160850097E+04  0.25500000920E-02 0.  1.
    10030    2    1    2    0    0  0.00000000000E+00  0.00000000000E+00 -0.33268545795E+03  0.20994845614E+04  0.20729582267E+04 0.  0.
        4    1    3    3  502    0  0.51492383995E+03 -0.42737338551E+03 -0.96798418076E+03  0.11767708183E+04  0.12699999809E+01 0.  1.
       -4    1    3    3    0  502 -0.51492383995E+03  0.42737338551E+03  0.63529872281E+03  0.92271374310E+03  0.12699999809E+01 0. -1.
</event>
<event>
 5   0  0.1252477E-04  0.2108959E+04  0.7818609E-02  0.8557307E-01
       -2   -1    0    0    0  501  0.00000000000E+00  0.00000000000E+00  0.94215774571E+03  0.94215774571E+03  0.25500000920E-02 0.  1.
        2   -1    0    0  501    0  0.00000000000E+00  0.00000000000E+00 -0.11801921465E+04  0.11801921465E+04  0.25500000920E-02 0. -1.
    10030    2    1    2    0    0  0.00000000000E+00  0.00000000000E+00 -0.23803440077E+03  0.21223498922E+04  0.21089591482E+04 0.  0.
        4    1    3    3  502    0  0.21728088066E+02 -0.39353865654E+02  0.94119223757E+03  0.94226603330E+03  0.12699999809E+01 0.  1.
       -4    1    3    3    0  502 -0.21728088066E+02  0.39353865654E+02 -0.11792266383E+04  0.11800838589E+04  0.12699999809E+01 0. -1.
</event>
<event>
 5   0  0.4615125E-05  0.2086516E+04  0.7818609E-02  0.8567206E-01
        4   -1    0    0  501    0  0.00000000000E+00  0.00000000000E+00  0.88618221766E+03  0.88618312768E+03  0.12699999809E+01 0. -1.
       -4   -1    0    0    0  501  0.00000000000E+00  0.00000000000E+00 -0.12281738993E+04  0.12281745559E+04  0.12699999809E+01 0.  1.
    10030    2    1    2    0    0  0.00000000000E+00  0.00000000000E+00 -0.34199168163E+03  0.21143576836E+04  0.20865162602E+04 0.  0.
        5    1    3    3  502    0  0.79310436404E+03  0.49084911747E+03  0.30259243798E+03  0.98057720853E+03  0.46999998093E+01 0. -1.
       -5    1    3    3    0  502 -0.79310436404E+03 -0.49084911747E+03 -0.64458411961E+03  0.11337804751E+04  0.46999998093E+01 0.  1.
</event>
<event>
 5   0  0.6221148E-05  0.2167769E+04  0.7818609E-02  0.8531964E-01
       -1   -1    0    0    0  501  0.00000000000E+00  0.00000000000E+00  0.77567220252E+03  0.77567220254E+03  0.50400001928E-02 0.  1.
        1   -1    0    0  501    0  0.00000000000E+00  0.00000000000E+00 -0.15145643386E+04  0.15145643386E+04  0.50400001928E-02 0. -1.
    10030    2    1    2    0    0  0.00000000000E+00  0.00000000000E+00 -0.73889213606E+03  0.22902365411E+04  0.21677688589E+04 0.  0.
        3    1    3    3  502    0  0.11251734644E+03  0.32899598853E+03  0.71515117743E+03  0.79519791907E+03  0.10100000352E+00 0.  1.
       -3    1    3    3    0  502 -0.11251734644E+03 -0.32899598853E+03 -0.14540433135E+04  0.14950386221E+04  0.10100000352E+00 0. -1.
</event>
<event>
 5   0  0.5846187E-05  0.1501511E+04  0.7818609E-02  0.8883449E-01
        1   -1    0    0  501    0  0.00000000000E+00  0.00000000000E+00  0.12363011644E+04  0.12363011644E+04  0.50400001928E-02 0. -1.
       -1   -1    0    0    0  501  0.00000000000E+00  0.00000000000E+00 -0.45590320369E+03  0.45590320372E+03  0.50400001928E-02 0.  1.
    10030    2    1    2    0    0  0.00000000000E+00  0.00000000000E+00  0.78039796072E+03  0.16922043681E+04  0.15015107880E+04 0.  0.
        5    1    3    3  502    0  0.36732935549E+03 -0.56313998801E+02 -0.34495609458E+03  0.50706894902E+03  0.46999998093E+01 0.  1.
       -5    1    3    3    0  502 -0.36732935549E+03  0.56313998801E+02  0.11253540553E+04  0.11851354191E+04  0.46999998093E+01 0. -1.
</event>
<event>
 5   0  0.1349252E-04  0.2163105E+04  0.7818609E-02  0.8533943E-01
       -2   -1    0    0    0  501  0.00000000000E+00  0.00000000000E+00  0.16233151903E+04  0.16233151903E+04  0.25500000920E-02 0.  1.
        2   -1    0    0  501    0  0.00000000000E+00  0.00000000000E+00 -0.72059712305E+03  0.72059712306E+03  0.25500000920E-02 0. -1.
    10030    2    1    2    0    0  0.00000000000E+00  0.00000000000E+00  0.90271806727E+03  0.23439123134E+04  0.21631054121E+04 0.  0.
        2    1    3    3  502    0  0.10680436241E+04 -0.16596586649E+03  0.40947025386E+03  0.11558234037E+04  0.25500000920E-02 0.  1.
       -2    1    3    3    0  502 -0.10680436241E+04  0.16596586649E+03  0.49324781341E+03  0.11880889097E+04  0.25500000920E-02 0. -1.
</event>
<event>
 5   0  0.1281470E-04  0.2093904E+04  0.7818609E-02  0.8563933E-01
        2   -1    0    0  501    0  0.00000000000E+00  0.00000000000E+00  0.15924388049E+04  0.15924388049E+04  0.25500000920E-02 0. -1.
       -2   -1    0    0    0  501  0.00000000000E+00  0.00000000000E+00 -0.68832096054E+03  0.68832096054E+03  0.25500000920E-02 0.  1.
    10030    2    1    2    0    0  0.00000000000E+00  0.00000000000E+00  0.90411784440E+03  0.22807597655E+04  0.20939044943E+04 0.  0.
        3    1    3    3  502    0  0.47393266635E+03  0.93345495213E+03  0.43833808333E+03  0.11349407938E+04  0.10100000352E+00 0. -1.
       -3    1    3    3    0  502 -0.47393266635E+03 -0.93345495213E+03  0.46577976107E+03  0.11458189717E+04  0.10100000352E+00 0.  1.
</event>
<event>
 5   0  0.1235817E-04  0.2113163E+04  0.7818609E-02  0.8555467E-01
       -2   -1    0    0    0  501  0.00000000000E+00  0.00000000000E+00  0.91172732056E+03  0.91172732057E+03  0.25500000920E-02 0. -1.
        2   -1    0    0  501    0  0.00000000000E+00  0.00000000000E+00 -0.12244500183E+04  0.12244500183E+04  0.25500000920E-02 0.  1.
    10030    2    1    2    0    0  0.00000000000E+00  0.00000000000E+00 -0.31272269773E+03  0.21361773389E+04  0.21131630646E+04 0.  0.
        1    1    3    3  502    0 -0.33548226470E+03  0.95177842713E+03 -0.47271369622E+03  0.11144006294E+04  0.50400001928E-02 0.  1.
       -1    1    3    3    0  502  0.33548226470E+03 -0.95177842713E+03  0.15999099849E+03  0.10217767094E+04  0.50400001928E-02 0. -1.
</event>
<event>
 5   0  0.1349252E-04  0.1968591E+04  0.7818609E-02  0.8621448E-01
       -2   -1    0    0    0  501  0.00000000000E+00  0.00000000000E+00  0.69061650502E+03  0.69061650502E+03  0.25500000920E-02 0. -1.
        2   -1    0    0  501    0  0.00000000000E+00  0.00000000000E+00 -0.14028590323E+04  0.14028590323E+04  0.25500000920E-02 0.  1.
    10030    2    1    2    0    0  0.00000000000E+00  0.00000000000E+00 -0.71224252727E+03  0.20934755373E+04  0.19685909701E+04 0.  0.
        2    1    3    3  502    0 -0.96659835007E+03 -0.16043610803E+03 -0.25644418143E+03  0.10128256184E+04  0.25500000920E-02 0. -1.
       -2    1    3    3    0  502  0.96659835007E+03  0.16043610803E+03 -0.45579834585E+03  0.10806499189E+04  0.25500000920E-02 0.  1.
</event>
<event>
 5   0  0.1281470E-04  0.2111942E+04  0.7818609E-02  0.8556001E-01
        2   -1    0    0  501    0  0.00000000000E+00  0.00000000000E+00  0.11643364314E+04  0.11643364314E+04  0.25500000920E-02 0. -1.
       -2   -1    0    0    0  501  0.00000000000E+00  0.00000000000E+00 -0.95769138332E+03  0.95769138332E+03  0.25500000920E-02 0.  1.
    10030    2    1    2    0    0  0.00000000000E+00  0.00000000000E+00  0.20664504809E+03  0.21220278147E+04  0.21119422034E+04 0.  0.
        3    1    3    3  502    0 -0.43192896249E+02  0.10296490058E+03  0.11583882772E+04  0.11637571946E+04  0.10100000352E+00 0. -1.
       -3    1    3    3    0  502  0.43192896249E+02 -0.10296490058E+03 -0.95174322911E+03  0.95827062013E+03  0.10100000352E+00 0.  1.
</event>
<event>
 5   0  0.6221148E-05  0.2083220E+04  0.7818609E-02  0.8568671E-01
        1   -1    0    0  501    0  0.00000000000E+00  0.00000000000E+00  0.14630385563E+04  0.14630385563E+04  0.50400001928E-02 0. -1.
       -1   -1    0    0    0  501  0.00000000000E+00  0.00000000000E+00 -0.74157406797E+03  0.74157406798E+03  0.50400001928E-02 0.  1.
    10030    2    1    2    0    0  0.00000000000E+00  0.00000000000E+00  0.72146448837E+03  0.22046126243E+04  0.20832200593E+04 0.  0.
        3    1    3    3  502    0  0.10489688298E+03 -0.50905666083E+03 -0.59453559687E+03  0.78969274160E+03  0.10100000352E+00 0.  1.
       -3    1    3    3    0  502 -0.10489688298E+03  0.50905666083E+03  0.13160000852E+04  0.14149198827E+04  0.10100000352E+00 0. -1.
</event>
<event>
 5   0  0.1325673E-04  0.1994691E+04  0.7818609E-02  0.8609107E-01
        2   -1    0    0  501    0  0.00000000000E+00  0.00000000000E+00  0.10801624478E+04  0.10801624478E+04  0.25500000920E-02 0.  1.
       -2   -1    0    0    0  501  0.00000000000E+00  0.00000000000E+00 -0.92087788595E+03  0.92087788595E+03  0.25500000920E-02 0. -1.
    10030    2    1    2    0    0  0.00000000000E+00  0.00000000000E+00  0.15928456184E+03  0.20010403337E+04  0.19946906641E+04 0.  0.
        5    1    3    3  502    0 -0.61219320031E+03  0.77863769961E+03 -0.37427272786E+02  0.99120132794E+03  0.46999998093E+01 0. -1.
       -5    1    3    3    0  502  0.61219320031E+03 -0.77863769961E+03  0.19671183463E+03  0.10098390058E+04  0.46999998093E+01 0.  1.
</event>
<event>
 5   0  0.5846187E-05  0.2111859E+04  0.7818609E-02  0.8556037E-01
        1   -1    0    0  501    0  0.00000000000E+00  0.00000000000E+00  0.59257735796E+03  0.59257735798E+03  0.50400001928E-02 0. -1.
       -1   -1    0    0    0  501  0.00000000000E+00  0.00000000000E+00 -0.18815894776E+04  0.18815894776E+04  0.50400001928E-02 0.  1.
    10030    2    1    2    0    0  0.00000000000E+00  0.00000000000E+00 -0.12890121196E+04  0.24741668356E+04  0.21118592012E+04 0.  0.
        5    1    3    3  502    0 -0.36698077755E+01  0.58662194886E+03  0.38408400739E+03  0.70119996656E+03  0.46999998093E+01 0. -1.
       -5    1    3    3    0  502  0.36698077755E+01 -0.58662194886E+03 -0.16730961270E+04  0.17729668690E+04  0.46999998093E+01 0.  1.
</event>
<event>
 5   0  0.6221148E-05  0.2100238E+04  0.7818609E-02  0.8561138E-01
        1   -1    0    0  501    0  0.00000000000E+00  0.00000000000E+00  0.23274765689E+04  0.23274765689E+04  0.50400001928E-02 0. -1.
       -1   -1    0    0    0  501  0.00000000000E+00  0.00000000000E+00 -0.47379652127E+03  0.47379652130E+03  0.50400001928E-02 0.  1.
    10030    2    1    2    0    0  0.00000000000E+00  0.00000000000E+00  0.18536800476E+04  0.28012730902E+04  0.21002383691E+04 0.  0.
        3    1    3    3  502    0 -0.23403576994E+03  0.98906538442E+03  0.12790389451E+04  0.16336963333E+04  0.10100000352E+00 0.  1.
       -3    1    3    3    0  502  0.23403576994E+03 -0.98906538442E+03  0.57464110253E+03  0.11675767569E+04  0.10100000352E+00 0. -1.
</event>
<event>
 5   0  0.1281470E-04  0.2082844E+04  0.7818609E-02  0.8568839E-01
       -2   -1    0    0    0  501  0.00000000000E+00  0.00000000000E+00  0.89035595797E+03  0.89035595797E+03  0.25500000920E-02 0.  1.
        2   -1    0    0  501    0  0.00000000000E+00  0.00000000000E+00 -0.12181189071E+04  0.12181189071E+04  0.25500000920E-02 0. -1.
    10030    2    1    2    0    0  0.00000000000E+00  0.00000000000E+00 -0.32776294912E+03  0.21084748651E+04  0.20828436585E+04 0.  0.
        3    1    3    3  502    0  0.52324371736E+03 -0.33609494644E+03 -0.10095148156E+04  0.11856913485E+04  0.10100000352E+00 0. -1.
       -3    1    3    3    0  502 -0.52324371736E+03  0.33609494644E+03  0.68175186648E+03  0.92278351656E+03  0.10100000352E+00 0.  1.
</event>
<event>
 5   0  0.6052292E-05  0.2082931E+04  0.7818609E-02  0.8568800E-01
        1   -1    0    0  501    0  0.00000000000E+00  0.00000000000E+00  0.57745991119E+03  0.57745991121E+03  0.50400001928E-02 0. -1.
       -1   -1    0    0    0  501  0.00000000000E+00  0.00000000000E+00 -0.18783123116E+04  0.18783123116E+04  0.50400001928E-02 0.  1.
    10030    2    1    2    0    0  0.00000000000E+00  0.00000000000E+00 -0.13008524004E+04  0.24557722228E+04  0.20829306860E+04 0.  0.
        1    1    3    3  502    0 -0.29351032420E+03  0.12498963905E+03  0.51843614449E+03  0.60872551796E+03  0.50400001928E-02 0. -1.
       -1    1    3    3    0  502  0.29351032420E+03 -0.12498963905E+03 -0.18192885449E+04  0.18470467049E+04  0.50400001928E-02 0.  1.
</event>
<event>
 5   0  0.6221148E-05  0.2014304E+04  0.7818609E-02  0.8599962E-01
        1   -1    0    0  501    0  0.00000000000E+00  0.00000000000E+00  0.11241343566E+04  0.11241343566E+04  0.50400001928E-02 0.  1.
       -1   -1    0    0    0  501  0.00000000000E+00  0.00000000000E+00 -0.90234351696E+03  0.90234351698E+03  0.50400001928E-02 0. -1.
    10030    2    1    2    0    0  0.00000000000E+00  0.00000000000E+00  0.22179083966E+03  0.20264778736E+04  0.20143041964E+04 0.  0.
        3    1    3    3  502    0 -0.12406827547E+03  0.29554478725E+03  0.10714514485E+04  0.11183683986E+04  0.10100000352E+00 0.  1.
       -3    1    3    3    0  502  0.12406827547E+03 -0.29554478725E+03 -0.84966060883E+03  0.90810947504E+03  0.10100000352E+00 0. -1.
</event>
<event>
 5   0  0.5933905E-05  0.2097948E+04  0.7818609E-02  0.8562148E-01
       -1   -1    0    0    0  501  0.00000000000E+00  0.00000000000E+00  0.84019894894E+03  0.84019894896E+03  0.50400001928E-02 0. -1.
        1   -1    0    0  501    0  0.00000000000E+00  0.00000000000E+00 -0.13096258453E+04  0.13096258453E+04  0.50400001928E-02 0.  1.
    10030    2    1    2    0    0  0.00000000000E+00  0.00000000000E+00 -0.46942689634E+03  0.21498247942E+04  0.20979478151E+04 0.  0.
        2    1    3    3  502    0  0.18638388724E+03 -0.19664261590E+03 -0.12731517709E+04  0.13016615165E+04  0.25500000920E-02 0.  1.
       -2    1    3    3    0  502 -0.18638388724E+03  0.19664261590E+03  0.80372487453E+03  0.84816327777E+03  0.25500000920E-02 0. -1.
</event>
<event>
 5   0  0.5846187E-05  0.2261777E+04  0.7818609E-02  0.8493146E-01
        1   -1    0    0  501    0  0.00000000000E+00  0.00000000000E+00  0.12839409927E+04  0.12839409927E+04  0.50400001928E-02 0.  1.
       -1   -1    0    0    0  501  0.00000000000E+00  0.00000000000E+00 -0.99608028927E+03  0.99608028929E+03  0.50400001928E-02 0. -1.
    10030    2    1    2    0    0  0.00000000000E+00  0.00000000000E+00  0.28786070339E+03  0.22800212820E+04  0.22617765720E+04 0.  0.
        5    1    3    3  502    0 -0.26981206319E+03 -0.30588018723E+03 -0.91934093607E+03  0.10057689024E+04  0.46999998093E+01 0. -1.
       -5    1    3    3    0  502  0.26981206319E+03  0.30588018723E+03  0.12072016395E+04  0.12742523795E+04  0.46999998093E+01 0.  1.
</event>
<event>
 5   0  0.1252477E-04  0.2125444E+04  0.7818609E-02  0.8550117E-01
        2   -1    0    0  501    0  0.00000000000E+00  0.00000000000E+00  0.13062181652E+04  0.13062181652E+04  0.25500000920E-02 0. -1.
       -2   -1    0    0    0  501  0.00000000000E+00  0.00000000000E+00 -0.86461697324E+03  0.86461697324E+03  0.25500000920E-02 0.  1.
    10030    2    1    2    0    0  0.00000000000E+00  0.00000000000E+00  0.44160119201E+03  0.21708351385E+04  0.21254443267E+04 0.  0.
        4    1    3    3  502    0  0.96719923018E+03  0.29549855377E+03 -0.11264205900E+03  0.10175871425E+04  0.12699999809E+01 0.  1.
       -4    1    3    3    0  502 -0.96719923018E+03 -0.29549855377E+03  0.55424325101E+03  0.11532479960E+04  0.12699999809E+01 0. -1.
</event>
<event>
 5   0  0.1235817E-04  0.2084384E+04  0.7818609E-02  0.8568154E-01
       -2   -1    0    0    0  501  0.00000000000E+00  0.00000000000E+00  0.45702530195E+03  0.45702530196E+03  0.25500000920E-02 0.  1.
        2   -1    0    0  501    0  0.00000000000E+00  0.00000000000E+00 -0.23765960984E+04  0.23765960984E+04  0.25500000920E-02 0. -1.
    10030    2    1    2    0    0  0.00000000000E+00  0.00000000000E+00 -0.19195707964E+04  0.28336214003E+04  0.20843843690E+04 0.  0.
        1    1    3    3  502    0  0.45152415374E+03  0.47081212690E+03 -0.20647337748E+04  0.21653322334E+04  0.50400001928E-02 0. -1.
       -1    1    3    3    0  502 -0.45152415374E+03 -0.47081212690E+03  0.14516297841E+03  0.66828916688E+03  0.50400001928E-02 0.  1.
</event>
<event>
 5   0  0.6263616E-05  0.2068460E+04  0.7818609E-02  0.8575266E-01
       -1   -1    0    0    0  501  0.00000000000E+00  0.00000000000E+00  0.89366301392E+03  0.89366301393E+03  0.50400001928E-02 0.  1.
        1   -1    0    0  501    0  0.00000000000E+00  0.00000000000E+00 -0.11969067900E+04  0.11969067900E+04  0.50400001928E-02 0. -1.
    10030    2    1    2    0    0  0.00000000000E+00  0.00000000000E+00 -0.30324377606E+03  0.20905698039E+04  0.20684596485E+04 0.  0.
        4    1    3    3  502    0 -0.38990304182E+03 -0.45187246987E+03 -0.10052903300E+04  0.11691122152E+04  0.12699999809E+01 0. -1.
       -4    1    3    3    0  502  0.38990304182E+03  0.45187246987E+03  0.70204655398E+03  0.92145758877E+03  0.12699999809E+01 0.  1.
</event>
<event>
 5   0  0.1349252E-04  0.2032996E+04  0.7818609E-02  0.8591348E-01
        2   -1    0    0  501    0  0.00000000000E+00  0.00000000000E+00  0.12327192017E+04  0.12327192017E+04  0.25500000920E-02 0.  1.
       -2   -1    0    0    0  501  0.00000000000E+00  0.00000000000E+00 -0.83820229259E+03  0.83820229259E+03  0.25500000920E-02 0. -1.
    10030    2    1    2    0    0  0.00000000000E+00  0.00000000000E+00  0.39451690908E+03  0.20709214943E+04  0.20329958790E+04 0.  0.
        2    1    3    3  502    0 -0.92219602739E+03  0.29174992574E+03 -0.12114992230E+03  0.97480297280E+03  0.25500000920E-02 0. -1.
       -2    1    3    3    0  502  0.92219602739E+03 -0.29174992574E+03  0.51566683139E+03  0.10961185215E+04  0.25500000920E-02 0.  1.
</event>
<event>
 5   0  0.5846187E-05  0.2106172E+04  0.7818609E-02  0.8558529E-01
        1   -1    0    0  501    0  0.00000000000E+00  0.00000000000E+00  0.11236023119E+04  0.11236023119E+04  0.50400001928E-02 0. -1.
       -1   -1    0    0    0  501  0.00000000000E+00  0.00000000000E+00 -0.98699554354E+03  0.98699554355E+03  0.50400001928E-02 0.  1.
    10030    2    1    2    0    0  0.00000000000E+00  0.00000000000E+00  0.13660676838E+03  0.21105978555E+04  0.21061723335E+04 0.  0.
        5    1    3    3  502    0 -0.11747882962E+03  0.61855351000E+03 -0.77760221878E+03  0.10005483600E+04  0.46999998093E+01 0.  1.
       -5    1    3    3    0  502  0.11747882962E+03 -0.61855351000E+03  0.91420898716E+03  0.11100494954E+04  0.46999998093E+01 0. -1.
</event>
<event>
 5   0  0.1349252E-04  0.2150757E+04  0.7818609E-02  0.8539208E-01
        2   -1    0    0  501    0  0.00000000000E+00  0.00000000000E+00  0.20771276892E+04  0.20771276892E+04  0.25500000920E-02 0.  1.
       -2   -1    0    0    0  501  0.00000000000E+00  0.00000000000E+00 -0.55674887497E+03  0.55674887497E+03  0.25500000920E-02 0. -1.
    10030    2    1    2    0    0  0.00000000000E+00  0.00000000000E+00  0.15203788142E+04  0.26338765642E+04  0.21507566149E+04 0.  0.
        2    1    3    3  502    0 -0.11343206803E+03 -0.27032961914E+03 -0.50686767775E+03  0.58554229548E+03  0.25500000920E-02 0. -1.
       -2    1    3    3    0  502  0.11343206803E+03  0.27032961914E+03  0.20272464920E+04  0.20483342687E+04  0.25500000920E-02 0.  1.
</event>
<event>
 5   0  0.6263616E-05  0.2042218E+04  0.7818609E-02  0.8587133E-01
       -1   -1    0    0    0  501  0.00000000000E+00  0.00000000000E+00  0.43515282904E+03  0.43515282907E+03  0.50400001928E-02 0.  1.
        1   -1    0    0  501    0  0.00000000000E+00  0.00000000000E+00 -0.23960857939E+04  0.23960857939E+04  0.50400001928E-02 0. -1.
    10030    2    1    2    0    0  0.00000000000E+00  0.00000000000E+00 -0.19609329649E+04  0.28312386230E+04  0.20422179236E+04 0.  0.
        4    1    3    3  502    0 -0.10012220056E+03  0.27825495808E+03  0.37448638915E+03  0.47717077163E+03  0.12699999809E+01 0.  1.
       -4    1    3    3    0  502  0.10012220056E+03 -0.27825495808E+03 -0.23354193540E+04  0.23540678514E+04  0.12699999809E+01 0. -1.
</event>
<event>
 5   0  0.5933905E-05  0.2063366E+04  0.7818609E-02  0.8577555E-01
        1   -1    0    0  501    0  0.00000000000E+00  0.00000000000E+00  0.84000527222E+03  0.84000527224E+03  0.50400001928E-02 0.  1.
       -1   -1    0    0    0  501  0.00000000000E+00  0.00000000000E+00 -0.12670986144E+04  0.12670986145E+04  0.50400001928E-02 0. -1.
    10030    2    1    2    0    0  0.00000000000E+00  0.00000000000E+00 -0.42709334222E+03  0.21071038867E+04  0.20633657132E+04 0.  0.
        2    1    3    3  502    0 -0.92175112954E+03  0.94566507947E+02  0.24972319976E+03  0.95965079364E+03  0.25500000920E-02 0.  1.
       -2    1    3    3    0  502  0.92175112954E+03 -0.94566507947E+02 -0.67681654198E+03  0.11474530930E+04  0.25500000920E-02 0. -1.
</event>
<event>
 5   0  0.5933905E-05  0.2089379E+04  0.7818609E-02  0.8565936E-01
        1   -1    0    0  501    0  0.00000000000E+00  0.00000000000E+00  0.11869482759E+04  0.11869482759E+04  0.50400001928E-02 0.  1.
       -1   -1    0    0    0  501  0.00000000000E+00  0.00000000000E+00 -0.91948081115E+03  0.91948081117E+03  0.50400001928E-02 0. -1.
    10030    2    1    2    0    0  0.00000000000E+00  0.00000000000E+00  0.26746746470E+03  0.21064290870E+04  0.20893790116E+04 0.  0.
        2    1    3    3  502    0  0.36010456183E+03 -0.37277033200E+03  0.10481874974E+04  0.11693288868E+04  0.25500000920E-02 0.  1.
       -2    1    3    3    0  502 -0.36010456183E+03  0.37277033200E+03 -0.78072003266E+03  0.93710020023E+03  0.25500000920E-02 0. -1.
</event>
<event>
 5   0  0.1252477E-04  0.2090259E+04  0.7818609E-02  0.8565546E-01
       -2   -1    0    0    0  501  0.00000000000E+00  0.00000000000E+00  0.93134387154E+03  0.93134387154E+03  0.25500000920E-02 0.  1.
        2   -1    0    0  501    0  0.00000000000E+00  0.00000000000E+00 -0.11728169071E+04  0.11728169071E+04  0.25500000920E-02 0. -1.
    10030    2    1    2    0    0  0.00000000000E+00  0.00000000000E+00 -0.24147303552E+03  0.21041607786E+04  0.20902591598E+04 0.  0.
        4    1    3    3  502    0 -0.39607354233E+03 -0.12145687767E+03 -0.10866324959E+04  0.11629264027E+04  0.12699999809E+01 0. -1.
       -4    1    3    3    0  502  0.39607354233E+03  0.12145687767E+03  0.84515946036E+03  0.94123437591E+03  0.12699999809E+01 0.  1.
</event>
<event>
 5   0  0.5846187E-05  0.2122807E+04  0.7818609E-02  0.8551263E-01
       -1   -1    0    0    0  501  0.00000000000E+00  0.00000000000E+00  0.13426493305E+04  0.13426493305E+04  0.50400001928E-02 0. -1.
        1   -1    0    0  501    0  0.00000000000E+00  0.00000000000E+00 -0.83907068027E+03  0.83907068029E+03  0.50400001928E-02 0.  1.
    10030    2    1    2    0    0  0.00000000000E+00  0.00000000000E+00  0.50357865025E+03  0.21817200108E+04  0.21228072801E+04 0.  0.
        5    1    3    3  502    0 -0.57506612249E+03  0.74762287477E+03  0.75203615970E+03  0.12063256126E+04  0.46999998093E+01 0. -1.
       -5    1    3    3    0  502  0.57506612249E+03 -0.74762287477E+03 -0.24845750944E+03  0.97539439823E+03  0.46999998093E+01 0.  1.
</event>
<event>
 5   0  0.1325673E-04  0.2179621E+04  0.7818609E-02  0.8526959E-01
        2   -1    0    0  501    0  0.00000000000E+00  0.00000000000E+00  0.23028101345E+04  0.23028101345E+04  0.25500000920E-02 0.  1.
       -2   -1    0    0    0  501  0.00000000000E+00  0.00000000000E+00 -0.51575541436E+03  0.51575541437E+03  0.25500000920E-02 0. -1.
    10030    2    1    2    0    0  0.00000000000E+00  0.00000000000E+00  0.17870547202E+04  0.28185655489E+04  0.21796208800E+04 0.  0.
        5    1    3    3  502    0  0.45163897828E+03 -0.57164530432E+03 -0.15456522445E+03  0.74476077989E+03  0.46999998093E+01 0. -1.
       -5    1    3    3    0  502 -0.45163897828E+03  0.57164530432E+03  0.19416199446E+04  0.20738047690E+04  0.46999998093E+01 0.  1.
</event>
<event>
 5   0  0.1325673E-04  0.1942581E+04  0.7818609E-02  0.8633947E-01
       -2   -1    0    0    0  501  0.00000000000E+00  0.00000000000E+00  0.99856139525E+03  0.99856139525E+03  0.25500000920E-02 0.  1.
        2   -1    0    0  501    0  0.00000000000E+00  0.00000000000E+00 -0.94476407288E+03  0.94476407288E+03  0.25500000920E-02 0. -1.
    10030    2    1    2    0    0  0.00000000000E+00  0.00000000000E+00  0.53797322368E+02  0.19433254681E+04  0.19425806864E+04 0.  0.
        5    1    3    3  502    0  0.89686968753E+03  0.34380120677E+03  0.17120490995E+03  0.97565758203E+03  0.46999998093E+01 0.  1.
       -5    1    3    3    0  502 -0.89686968753E+03 -0.34380120677E+03 -0.11740758758E+03  0.96766788610E+03  0.46999998093E+01 0. -1.
</event>
<event>
 5   0  0.1252477E-04  0.1806833E+04  0.7818609E-02  0.8702674E-01
       -2   -1    0    0    0  501  0.00000000000E+00  0.00000000000E+00  0.52124688407E+03  0.52124688408E+03  0.25500000920E-02 0. -1.
        2   -1    0    0  501    0  0.00000000000E+00  0.00000000000E+00 -0.15657866183E+04  0.15657866183E+04  0.25500000920E-02 0.  1.
    10030    2    1    2    0    0  0.00000000000E+00  0.00000000000E+00 -0.10445397342E+04  0.20870335024E+04  0.18068330260E+04 0.  0.
        4    1    3    3  502    0  0.10898480313E+03 -0.42865873088E+02 -0.15569805509E+04  0.15613792682E+04  0.12699999809E+01 0.  1.
       -4    1    3    3    0  502 -0.10898480313E+03  0.42865873088E+02  0.51244081669E+03  0.52565423417E+03  0.12699999809E+01 0. -1.
</event>
<event>
 5   0  0.6263616E-05  0.2137435E+04  0.7818609E-02  0.8544930E-01
        1   -1    0    0  501    0  0.00000000000E+00  0.00000000000E+00  0.15587690267E+04  0.15587690267E+04  0.50400001928E-02 0.  1.
       -1   -1    0    0    0  501  0.00000000000E+00  0.00000000000E+00 -0.73273008613E+03  0.73273008615E+03  0.50400001928E-02 0. -1.
    10030    2    1    2    0    0  0.00000000000E+00  0.00000000000E+00  0.82603894056E+03  0.22914991128E+04  0.21374348769E+04 0.  0.
        4    1    3    3  502    0  0.86375485158E+03 -0.44686291507E+03  0.88812885553E+03  0.13170168509E+04  0.12699999809E+01 0.  1.
       -4    1    3    3    0  502 -0.86375485158E+03  0.44686291507E+03 -0.62089914976E+02  0.97448226199E+03  0.12699999809E+01 0. -1.
</event>
<event>
 5   0  0.5933905E-05  0.2154338E+04  0.7818609E-02  0.8537678E-01
        1   -1    0    0  501    0  0.00000000000E+00  0.00000000000E+00  0.93558802250E+03  0.93558802252E+03  0.50400001928E-02 0.  1.
       -1   -1    0    0    0  501  0.00000000000E+00  0.00000000000E+00 -0.12401754888E+04  0.12401754888E+04  0.50400001928E-02 0. -1.
    10030    2    1    2    0    0  0.00000000000E+00  0.00000000000E+00 -0.30458746629E+03  0.21757635113E+04  0.21543382586E+04 0.  0.
        2    1    3    3  502    0  0.80368457564E+03  0.11145606419E+03  0.56324509877E+03  0.98771270755E+03  0.25500000920E-02 0.  1.
       -2    1    3    3    0  502 -0.80368457564E+03 -0.11145606419E+03 -0.86783256506E+03  0.11880508038E+04  0.25500000920E-02 0. -1.
</event>
<event>
 5   0  0.1349252E-04  0.2104484E+04  0.7818609E-02  0.8559271E-01
       -2   -1    0    0    0  501  0.00000000000E+00  0.00000000000E+00  0.78653534624E+03  0.78653534624E+03  0.25500000920E-02 0.  1.
        2   -1    0    0  501    0  0.00000000000E+00  0.00000000000E+00 -0.14077090204E+04  0.14077090204E+04  0.25500000920E-02 0. -1.
    10030    2    1    2    0    0  0.00000000000E+00  0.00000000000E+00 -0.62117367416E+03  0.21942443666E+04  0.21044836913E+04 0.  0.
        2    1    3    3  502    0 -0.14792622862E+03  0.10128187908E+04 -0.56497863206E+03  0.11691385405E+04  0.25500000920E-02 0. -1.
       -2    1    3    3    0  502  0.14792622862E+03 -0.10128187908E+04 -0.56195042100E+02  0.10251058262E+04  0.25500000920E-02 0.  1.
</event>
<event>
 5   0  0.5933905E-05  0.2091862E+04  0.7818609E-02  0.8564837E-01
        1   -1    0    0  501    0  0.00000000000E+00  0.00000000000E+00  0.21817879678E+04  0.21817879678E+04  0.50400001928E-02 0. -1.
       -1   -1    0    0    0  501  0.00000000000E+00  0.00000000000E+00 -0.50141076696E+03  0.50141076699E+03  0.50400001928E-02 0.  1.
    10030    2    1    2    0    0  0.00000000000E+00  0.00000000000E+00  0.16803772008E+04  0.26831987348E+04  0.20918623074E+04 0.  0.
        2    1    3    3  502    0  0.10981373341E+03  0.65963088885E+03 -0.19139577544E+03  0.69556042759E+03  0.25500000920E-02 0.  1.
       -2    1    3    3    0  502 -0.10981373341E+03 -0.65963088885E+03  0.18717729762E+04  0.19876383072E+04  0.25500000920E-02 0. -1.
</event>
<event>
 5   0  0.1281470E-04  0.2074137E+04  0.7818609E-02  0.8572722E-01
        2   -1    0    0  501    0  0.00000000000E+00  0.00000000000E+00  0.16292051813E+04  0.16292051814E+04  0.25500000920E-02 0.  1.
       -2   -1    0    0    0  501  0.00000000000E+00  0.00000000000E+00 -0.66014490247E+03  0.66014490248E+03  0.25500000920E-02 0. -1.
    10030    2    1    2    0    0  0.00000000000E+00  0.00000000000E+00  0.96906027888E+03  0.22893500838E+04  0.20741374068E+04 0.  0.
        3    1    3    3  502    0  0.78999486515E+03  0.23647862142E+03 -0.20960900268E+03  0.85085249577E+03  0.10100000352E+00 0. -1.
       -3    1    3    3    0  502 -0.78999486515E+03 -0.23647862142E+03  0.11786692816E+04  0.14384975881E+04  0.10100000352E+00 0.  1.
</event>
<event>
 5   0  0.1325673E-04  0.2141432E+04  0.7818609E-02  0.8543209E-01
        2   -1    0    0  501    0  0.00000000000E+00  0.00000000000E+00  0.75277175959E+03  0.75277175959E+03  0.25500000920E-02 0. -1.
       -2   -1    0    0    0  501  0.00000000000E+00  0.00000000000E+00 -0.15229491326E+04  0.15229491326E+04  0.25500000920E-02 0.  1.
    10030    2    1    2    0    0  0.00000000000E+00  0.00000000000E+00 -0.77017737302E+03  0.22757208922E+04  0.21414323228E+04 0.  0.
        5    1    3    3  502    0  0.50778959250E+03 -0.82431098815E+03 -0.87100638527E+03  0.13023106728E+04  0.46999998093E+01 0.  1.
       -5    1    3    3    0  502 -0.50778959250E+03  0.82431098815E+03  0.10082901225E+03  0.97341021935E+03  0.46999998093E+01 0. -1.
</event>
<event>
 5   0  0.5846187E-05  0.2092196E+04  0.7818609E-02  0.8564689E-01
       -1   -1    0    0    0  501  0.00000000000E+00  0.00000000000E+00  0.73618169081E+03  0.73618169083E+03  0.50400001928E-02 0. -1.
        1   -1    0    0  501    0  0.00000000000E+00  0.00000000000E+00 -0.14864822331E+04  0.14864822331E+04  0.50400001928E-02 0.  1.
    10030    2    1    2    0    0  0.00000000000E+00  0.00000000000E+00 -0.75030054226E+03  0.22226639239E+04  0.20921959791E+04 0.  0.
        5    1    3    3  502    0  0.36200119174E+03  0.96558626102E+03 -0.56188760943E+03  0.11743685392E+04  0.46999998093E+01 0.  1.
       -5    1    3    3    0  502 -0.36200119174E+03 -0.96558626102E+03 -0.18841293284E+03  0.10482953847E+04  0.46999998093E+01 0. -1.
</event>
<event>
 5   0  0.6221148E-05  0.2039885E+04  0.7818609E-02  0.8588197E-01
       -1   -1    0    0    0  501  0.00000000000E+00  0.00000000000E+00  0.93295083057E+03  0.93295083058E+03  0.50400001928E-02 0. -1.
        1   -1    0    0  501    0  0.00000000000E+00  0.00000000000E+00 -0.11150459619E+04  0.11150459619E+04  0.50400001928E-02 0.  1.
    10030    2    1    2    0    0  0.00000000000E+00  0.00000000000E+00 -0.18209513129E+03  0.20479967924E+04  0.20398853460E+04 0.  0.
        3    1    3    3  502    0  0.86342864241E+03 -0.33082779751E+02  0.45302943897E+03  0.97562245445E+03  0.10100000352E+00 0. -1.
       -3    1    3    3    0  502 -0.86342864241E+03  0.33082779751E+02 -0.63512457026E+03  0.10723743380E+04  0.10100000352E+00 0.  1.
</event>
<event>
 5   0  0.1281470E-04  0.2025014E+04  0.7818609E-02  0.8595014E-01
       -2   -1    0    0    0  501  0.00000000000E+00  0.00000000000E+00  0.88370302912E+03  0.88370302913E+03  0.25500000920E-02 0. -1.
        2   -1    0    0  501    0  0.00000000000E+00  0.00000000000E+00 -0.11600853401E+04  0.11600853401E+04  0.25500000920E-02 0.  1.
    10030    2    1    2    0    0  0.00000000000E+00  0.00000000000E+00 -0.27638231101E+03  0.20437883693E+04  0.20250144978E+04 0.  0.
        3    1    3    3  502    0  0.11435077871E+03 -0.93376902454E+03 -0.51605529249E+03  0.10729929016E+04  0.10100000352E+00 0.  1.
       -3    1    3    3    0  502 -0.11435077871E+03  0.93376902454E+03  0.23967298148E+03  0.97079546766E+03  0.10100000352E+00 0. -1.
</event>
<event>
 5   0  0.1235817E-04  0.2075155E+04  0.7818609E-02  0.8572267E-01
       -2   -1    0    0    0  501  0.00000000000E+00  0.00000000000E+00  0.57631835103E+03  0.57631835104E+03  0.25500000920E-02 0. -1.
        2   -1    0    0  501    0  0.00000000000E+00  0.00000000000E+00 -0.18680084139E+04  0.18680084139E+04  0.25500000920E-02 0.  1.
    10030    2    1    2    0    0  0.00000000000E+00  0.00000000000E+00 -0.12916900629E+04  0.24443267650E+04  0.20751554437E+04 0.  0.
        1    1    3    3  502    0  0.65897626267E+03 -0.26601291463E+02 -0.15893501359E+04  0.17207530904E+04  0.50400001928E-02 0.  1.
       -1    1    3    3    0  502 -0.65897626267E+03  0.26601291463E+02  0.29766007302E+03  0.72357367459E+03  0.50400001928E-02 0. -1.
</event>
<event>
 5   0  0.1235817E-04  0.2121575E+04  0.7818609E-02  0.8551799E-01
        2   -1    0    0  501    0  0.00000000000E+00  0.00000000000E+00  0.17719942327E+04  0.17719942327E+04  0.25500000920E-02 0.  1.
       -2   -1    0    0    0  501  0.00000000000E+00  0.00000000000E+00 -0.63503038257E+03  0.63503038258E+03  0.25500000920E-02 0. -1.
    10030    2    1    2    0    0  0.00000000000E+00  0.00000000000E+00  0.11369638501E+04  0.24070246153E+04  0.21215750522E+04 0.  0.
        1    1    3    3  502    0  0.96578008850E+03 -0.40665780364E+03  0.38147642586E+03  0.11151798116E+04  0.50400001928E-02 0. -1.
       -1    1    3    3    0  502 -0.96578008850E+03  0.40665780364E+03  0.75548742425E+03  0.12918448037E+04  0.50400001928E-02 0.  1.
</event>
<event>
 5   0  0.1349252E-04  0.1974345E+04  0.7818609E-02  0.8618710E-01
        2   -1    0    0  501    0  0.00000000000E+00  0.00000000000E+00  0.11385428672E+04  0.11385428672E+04  0.25500000920E-02 0. -1.
       -2   -1    0    0    0  501  0.00000000000E+00  0.00000000000E+00 -0.85592678507E+03  0.85592678507E+03  0.25500000920E-02 0.  1.
    10030    2    1    2    0    0  0.00000000000E+00  0.00000000000E+00  0.28261608209E+03  0.19944696522E+04  0.19743447885E+04 0.  0.
        2    1    3    3  502    0  0.80754369175E+03  0.30801411652E+03 -0.34053380476E+03  0.92895790122E+03  0.25500000920E-02 0.  1.
       -2    1    3    3    0  502 -0.80754369175E+03 -0.30801411652E+03  0.62314988685E+03  0.10655117510E+04  0.25500000920E-02 0. -1.
</event>
<event>
 5   0  0.6052292E-05  0.2111712E+04  0.7818609E-02  0.8556102E-01
       -1   -1    0    0    0  501  0.00000000000E+00  0.00000000000E+00  0.80458377810E+03  0.80458377812E+03  0.50400001928E-02 0.  1.
        1   -1    0    0  501    0  0.00000000000E+00  0.00000000000E+00 -0.13856001143E+04  0.13856001143E+04  0.50400001928E-02 0. -1.
    10030    2    1    2    0    0  0.00000000000E+00  0.00000000000E+00 -0.58101633617E+03  0.21901838924E+04  0.21117115096E+04 0.  0.
        1    1    3    3  502    0  0.25701494926E+03  0.73469502721E+03  0.44944458817E+03  0.89879580829E+03  0.50400001928E-02 0.  1.
       -1    1    3    3    0  502 -0.25701494926E+03 -0.73469502721E+03 -0.10304609243E+04  0.12913880841E+04  0.50400001928E-02 0. -1.
</event>
<event>
 5   0  0.1235817E-04  0.2126086E+04  0.7818609E-02  0.8549838E-01
       -2   -1    0    0    0  501  0.00000000000E+00  0.00000000000E+00  0.51381942994E+03  0.51381942994E+03  0.25500000920E-02 0. -1.
        2   -1    0    0  501    0  0.00000000000E+00  0.00000000000E+00 -0.21993342611E+04  0.21993342611E+04  0.25500000920E-02 0.  1.
    10030    2    1    2    0    0  0.00000000000E+00  0.00000000000E+00 -0.16855148312E+04  0.27131536911E+04  0.21260862413E+04 0.  0.
        1    1    3    3  502    0  0.33862952640E+03 -0.92105346076E+03 -0.13643343458E+04  0.16806003811E+04  0.50400001928E-02 0.  1.
       -1    1    3    3    0  502 -0.33862952640E+03  0.92105346076E+03 -0.32118048537E+03  0.10325533100E+04  0.50400001928E-02 0. -1.
</event>
<event>
 5   0  0.1252477E-04  0.1629123E+04  0.7818609E-02  0.8802854E-01
        2   -1    0    0  501    0  0.00000000000E+00  0.00000000000E+00  0.95993494236E+03  0.95993494237E+03  0.25500000920E-02 0. -1.
       -2   -1    0    0    0  501  0.00000000000E+00  0.00000000000E+00 -0.69120345587E+03  0.69120345588E+03  0.25500000920E-02 0.  1.
    10030    2    1    2    0    0  0.00000000000E+00  0.00000000000E+00  0.26873148649E+03  0.16511383982E+04  0.16291228923E+04 0.  0.
        4    1    3    3  502    0 -0.15006097750E+03 -0.11057019165E+03  0.93802823062E+03  0.95636950944E+03  0.12699999809E+01 0. -1.
       -4    1    3    3    0  502  0.15006097750E+03  0.11057019165E+03 -0.66929674413E+03  0.69476888880E+03  0.12699999809E+01 0.  1.
</event>
<event>
 5   0  0.1281470E-04  0.2132199E+04  0.7818609E-02  0.8547191E-01
        2   -1    0    0  501    0  0.00000000000E+00  0.00000000000E+00  0.15590067432E+04  0.15590067432E+04  0.25500000920E-02 0.  1.
       -2   -1    0    0    0  501  0.00000000000E+00  0.00000000000E+00 -0.72903330558E+03  0.72903330559E+03  0.25500000920E-02 0. -1.
    10030    2    1    2    0    0  0.00000000000E+00  0.00000000000E+00  0.82997343760E+03  0.22880400488E+04  0.21321987144E+04 0.  0.
        3    1    3    3  502    0 -0.30158992713E+03  0.10133737791E+04  0.26830308178E+03  0.10908113742E+04  0.10100000352E+00 0.  1.
       -3    1    3    3    0  502  0.30158992713E+03 -0.10133737791E+04  0.56167035583E+03  0.11972286745E+04  0.10100000352E+00 0. -1.
</event>
<event>
 5   0  0.5846187E-05  0.2136149E+04  0.7818609E-02  0.8545485E-01
        1   -1    0    0  501    0  0.00000000000E+00  0.00000000000E+00  0.94694238648E+03  0.94694238649E+03  0.50400001928E-02 0. -1.
       -1   -1    0    0    0  501  0.00000000000E+00  0.00000000000E+00 -0.12047012195E+04  0.12047012196E+04  0.50400001928E-02 0.  1.
    10030    2    1    2    0    0  0.00000000000E+00  0.00000000000E+00 -0.25775883306E+03  0.21516436060E+04  0.21361485415E+04 0.  0.
        5    1    3    3  502    0  0.52531125746E+03  0.89615803297E+03 -0.37909515469E+03  0.11057967099E+04  0.46999998093E+01 0.  1.
       -5    1    3    3    0  502 -0.52531125746E+03 -0.89615803297E+03  0.12133632163E+03  0.10458468962E+04  0.46999998093E+01 0. -1.
</event>
<event>
 5   0  0.5933905E-05  0.2138832E+04  0.7818609E-02  0.8544328E-01
       -1   -1    0    0    0  501  0.00000000000E+00  0.00000000000E+00  0.14774494531E+04  0.14774494531E+04  0.50400001928E-02 0.  1.
        1   -1    0    0  501    0  0.00000000000E+00  0.00000000000E+00 -0.77407086689E+03  0.77407086690E+03  0.50400001928E-02 0. -1.
    10030    2    1    2    0    0  0.00000000000E+00  0.00000000000E+00  0.70337858622E+03  0.22515203200E+04  0.21388319981E+04 0.  0.
        2    1    3    3  502    0 -0.13920038090E+03 -0.73976176971E+03 -0.44795533411E+03  0.87594988632E+03  0.25500000920E-02 0. -1.
       -2    1    3    3    0  502  0.13920038090E+03  0.73976176971E+03  0.11513339203E+04  0.13755704337E+04  0.25500000920E-02 0.  1.
</event>
<event>
 5   0  0.1235817E-04  0.2104304E+04  0.7818609E-02  0.8559350E-01
       -2   -1    0    0    0  501  0.00000000000E+00  0.00000000000E+00  0.76065780315E+03  0.76065780315E+03  0.25500000920E-02 0.  1.
        2   -1    0    0  501    0  0.00000000000E+00  0.00000000000E+00 -0.14553505933E+04  0.14553505933E+04  0.25500000920E-02 0. -1.
    10030    2    1    2    0    0  0.00000000000E+00  0.00000000000E+00 -0.69469279017E+03  0.22160083965E+04  0.21043039563E+04 0.  0.
        1    1    3    3  502    0 -0.73949685529E+03  0.36386974316E+03  0.34141146321E+03  0.89208664165E+03  0.50400001928E-02 0.  1.
       -1    1    3    3    0  502  0.73949685529E+03 -0.36386974316E+03 -0.10361042534E+04  0.13239217548E+04  0.50400001928E-02 0. -1.
</event>
<event>
 5   0  0.1252477E-04  0.2096315E+04  0.7818609E-02  0.8562869E-01
        2   -1    0    0  501    0  0.00000000000E+00  0.00000000000E+00  0.17330580654E+04  0.17330580654E+04  0.25500000920E-02 0.  1.
       -2   -1    0    0    0  501  0.00000000000E+00  0.00000000000E+00 -0.63392780394E+03  0.63392780394E+03  0.25500000920E-02 0. -1.
    10030    2    1    2    0    0  0.00000000000E+00  0.00000000000E+00  0.10991302615E+04  0.23669858693E+04  0.20963145694E+04 0.  0.
        4    1    3    3  502    0  0.40684495357E+03 -0.38012098218E+00 -0.54113516173E+03  0.67701686604E+03  0.12699999809E+01 0. -1.
       -4    1    3    3    0  502 -0.40684495357E+03  0.38012098218E+00  0.16402654232E+04  0.16899690033E+04  0.12699999809E+01 0.  1.
</event>
<event>
 5   0  0.1281470E-04  0.2098576E+04  0.7818609E-02  0.8561871E-01
        2   -1    0    0  501    0  0.00000000000E+00  0.00000000000E+00  0.97148130093E+03  0.97148130093E+03  0.25500000920E-02 0. -1.
       -2   -1    0    0    0  501  0.00000000000E+00  0.00000000000E+00 -0.11333261196E+04  0.11333261197E+04  0.25500000920E-02 0.  1.
    10030    2    1    2    0    0  0.00000000000E+00  0.00000000000E+00 -0.16184481872E+03  0.21048074206E+04  0.20985758343E+04 0.  0.
        3    1    3    3  502    0  0.23684751073E+03 -0.32129227241E+03  0.89236093744E+03  0.97756509784E+03  0.10100000352E+00 0. -1.
       -3    1    3    3    0  502 -0.23684751073E+03  0.32129227241E+03 -0.10542057562E+04  0.11272423227E+04  0.10100000352E+00 0.  1.
</event>
<event>
 5   0  0.6052292E-05  0.2104684E+04  0.7818609E-02  0.8559183E-01
        1   -1    0    0  501    0  0.00000000000E+00  0.00000000000E+00  0.17509783231E+04  0.17509783231E+04  0.50400001928E-02 0. -1.
       -1   -1    0    0    0  501  0.00000000000E+00  0.00000000000E+00 -0.63246005722E+03  0.63246005724E+03  0.50400001928E-02 0.  1.
    10030    2    1    2    0    0  0.00000000000E+00  0.00000000000E+00  0.11185182659E+04  0.23834383804E+04  0.21046841573E+04 0.  0.
        1    1    3    3  502    0 -0.10078068095E+04  0.12036812702E+03  0.87403149605E+03  0.13394379819E+04  0.50400001928E-02 0. -1.
       -1    1    3    3    0  502  0.10078068095E+04 -0.12036812702E+03  0.24448676984E+03  0.10440003984E+04  0.50400001928E-02 0.  1.
</event>
<event>
 5   0  0.1349252E-04  0.2068653E+04  0.7818609E-02  0.8575179E-01
       -2   -1    0    0    0  501  0.00000000000E+00  0.00000000000E+00  0.67044708480E+03  0.67044708480E+03  0.25500000920E-02 0.  1.
        2   -1    0    0  501    0  0.00000000000E+00  0.00000000000E+00 -0.15956985677E+04  0.15956985677E+04  0.25500000920E-02 0. -1.
    10030    2    1    2    0    0  0.00000000000E+00  0.00000000000E+00 -0.92525148288E+03  0.22661456525E+04  0.20686531395E+04 0.  0.
        2    1    3    3  502    0 -0.22876117691E+03  0.25444771046E+03  0.60665321836E+03  0.69649367605E+03  0.25500000920E-02 0.  1.
       -2    1    3    3    0  502  0.22876117691E+03 -0.25444771046E+03 -0.15319047012E+04  0.15696519764E+04  0.25500000920E-02 0. -1.
</event>
<event>
 5   0  0.6052292E-05  0.2073319E+04  0.7818609E-02  0.8573089E-01
        1   -1    0    0  501    0  0.00000000000E+00  0.00000000000E+00  0.14086479292E+04  0.14086479292E+04  0.50400001928E-02 0. -1.
       -1   -1    0    0    0  501  0.00000000000E+00  0.00000000000E+00 -0.76290360942E+03  0.76290360943E+03  0.50400001928E-02 0.  1.
    10030    2    1    2    0    0  0.00000000000E+00  0.00000000000E+00  0.64574431979E+03  0.21715515386E+04  0.20733186823E+04 0.  0.
        1    1    3    3  502    0  0.22574821624E+03  0.43578607507E+03 -0.63351257838E+03  0.80138002680E+03  0.50400001928E-02 0.  1.
       -1    1    3    3    0  502 -0.22574821624E+03 -0.43578607507E+03  0.12792568982E+04  0.13701715119E+04  0.50400001928E-02 0. -1.
</event>
<event>
 5   0  0.5933905E-05  0.2099803E+04  0.7818609E-02  0.8561330E-01
       -1   -1    0    0    0  501  0.00000000000E+00  0.00000000000E+00  0.58985880569E+03  0.58985880571E+03  0.50400001928E-02 0. -1.
        1   -1    0    0  501    0  0.00000000000E+00  0.00000000000E+00 -0.18687414607E+04  0.18687414607E+04  0.50400001928E-02 0.  1.
    10030    2    1    2    0    0  0.00000000000E+00  0.00000000000E+00 -0.12788826550E+04  0.24586002664E+04  0.20998034253E+04 0.  0.
        2    1    3    3  502    0 -0.51208936922E+03 -0.17070142124E+03  0.41494083893E+03  0.68084535476E+03  0.25500000920E-02 0. -1.
       -2    1    3    3    0  502  0.51208936922E+03  0.17070142124E+03 -0.16938234940E+04  0.17777549117E+04  0.25500000920E-02 0.  1.
</event>
<event>
 5   0  0.1325673E-04  0.2064353E+04  0.7818609E-02  0.8577111E-01
       -2   -1    0    0    0  501  0.00000000000E+00  0.00000000000E+00  0.96940239911E+03  0.96940239911E+03  0.25500000920E-02 0.  1.
        2   -1    0    0  501    0  0.00000000000E+00  0.00000000000E+00 -0.10990160351E+04  0.10990160351E+04  0.25500000920E-02 0. -1.
    10030    2    1    2    0    0  0.00000000000E+00  0.00000000000E+00 -0.12961363597E+03  0.20684184342E+04  0.20643534398E+04 0.  0.
        5    1    3    3  502    0 -0.75558424268E+03  0.68487140203E+03 -0.22452681438E+03  0.10442177768E+04  0.46999998093E+01 0. -1.
       -5    1    3    3    0  502  0.75558424268E+03 -0.68487140203E+03  0.94913178412E+02  0.10242006574E+04  0.46999998093E+01 0.  1.
</event>
<event>
 5   0  0.6052292E-05  0.1504598E+04  0.7818609E-02  0.8881401E-01
        1   -1    0    0  501    0  0.00000000000E+00  0.00000000000E+00  0.10129844315E+04  0.10129844315E+04  0.50400001928E-02 0.  1.
       -1   -1    0    0    0  501  0.00000000000E+00  0.00000000000E+00 -0.55869909367E+03  0.55869909369E+03  0.50400001928E-02 0. -1.
    10030    2    1    2    0    0  0.00000000000E+00  0.00000000000E+00  0.45428533784E+03  0.15716835252E+04  0.15045975991E+04 0.  0.
        1    1    3    3  502    0  0.55737000289E+03  0.40522702970E+03  0.54239907440E+03  0.87696466386E+03  0.50400001928E-02 0.  1.
       -1    1    3    3    0  502 -0.55737000289E+03 -0.40522702970E+03 -0.88113736563E+02  0.69471886135E+03  0.50400001928E-02 0. -1.
</event>
<event>
 5   0  0.1252477E-04  0.2095618E+04  0.7818609E-02  0.8563176E-01
        2   -1    0    0  501    0  0.00000000000E+00  0.00000000000E+00  0.14316852881E+04  0.14316852881E+04  0.25500000920E-02 0. -1.
       -2   -1    0    0    0  501  0.00000000000E+00  0.00000000000E+00 -0.76686133880E+03  0.76686133880E+03  0.25500000920E-02 0.  1.
    10030    2    1    2    0    0  0.00000000000E+00  0.00000000000E+00  0.66482394929E+03  0.21985466269E+04  0.20956183782E+04 0.  0.
        4    1    3    3  502    0 -0.59677114829E+03  0.29041664717E+03  0.11830534235E+04  0.13565008839E+04  0.12699999809E+01 0. -1.
       -4    1    3    3    0  502  0.59677114829E+03 -0.29041664717E+03 -0.51822947421E+03  0.84204574295E+03  0.12699999809E+01 0.  1.
</event>
<event>
 5   0  0.5846187E-05  0.2131536E+04  0.7818609E-02  0.8547477E-01
        1   -1    0    0  501    0  0.00000000000E+00  0.00000000000E+00  0.10018083466E+04  0.10018083466E+04  0.50400001928E-02 0. -1.
       -1   -1    0    0    0  501  0.00000000000E+00  0.00000000000E+00 -0.11338114775E+04  0.11338114775E+04  0.50400001928E-02 0.  1.
    10030    2    1    2    0    0  0.00000000000E+00  0.00000000000E+00 -0.13200313086E+03  0.21356198241E+04  0.21315363488E+04 0.  0.
        5    1    3    3  502    0 -0.84684877647E+03 -0.61648158631E+03 -0.26294189968E+03  0.10799828374E+04  0.46999998093E+01 0. -1.
       -5    1    3    3    0  502  0.84684877647E+03  0.61648158631E+03  0.13093876882E+03  0.10556369867E+04  0.46999998093E+01 0.  1.
</event>
<event>
 5   0  0.1281470E-04  0.2045593E+04  0.7818609E-02  0.8585596E-01
       -2   -1    0    0    0  501  0.00000000000E+00  0.00000000000E+00  0.59275487614E+03  0.59275487614E+03  0.25500000920E-02 0. -1.
        2   -1    0    0  501    0  0.00000000000E+00  0.00000000000E+00 -0.17648313315E+04  0.17648313315E+04  0.25500000920E-02 0.  1.
    10030    2    1    2    0    0  0.00000000000E+00  0.00000000000E+00 -0.11720764553E+04  0.23575862076E+04  0.20455927036E+04 0.  0.
        3    1    3    3  502    0  0.51865290745E+03  0.10882908372E+03  0.42218134600E+03  0.67755568552E+03  0.10100000352E+00 0. -1.
       -3    1    3    3    0  502 -0.51865290745E+03 -0.10882908372E+03 -0.15942578013E+04  0.16800305221E+04  0.10100000352E+00 0.  1.
</event>
<event>
 5   0  0.1281470E-04  0.2100250E+04  0.7818609E-02  0.8561133E-01
       -2   -1    0    0    0  501  0.00000000000E+00  0.00000000000E+00  0.69168880276E+03  0.69168880276E+03  0.25500000920E-02 0. -1.
        2   -1    0    0  501    0  0.00000000000E+00  0.00000000000E+00 -0.15943050508E+04  0.15943050508E+04  0.25500000920E-02 0.  1.
    10030    2    1    2    0    0  0.00000000000E+00  0.00000000000E+00 -0.90261624800E+03  0.22859938535E+04  0.21002504154E+04 0.  0.
        3    1    3    3  502    0 -0.32897400416E+03  0.73035718261E+03 -0.11904192661E+04  0.14348322372E+04  0.10100000352E+00 0.  1.
       -3    1    3    3    0  502  0.32897400416E+03 -0.73035718261E+03  0.28780301814E+03  0.85116161630E+03  0.10100000352E+00 0. -1.
</event>
<event>
 5   0  0.6221148E-05  0.2179749E+04  0.7818609E-02  0.8526905E-01
        1   -1    0    0  501    0  0.00000000000E+00  0.00000000000E+00  0.16584821119E+04  0.16584821119E+04  0.50400001928E-02 0.  1.
       -1   -1    0    0    0  501  0.00000000000E+00  0.00000000000E+00 -0.71621307797E+03  0.71621307799E+03  0.50400001928E-02 0. -1.
    10030    2    1    2    0    0  0.00000000000E+00  0.00000000000E+00  0.94226903391E+03  0.23746951899E+04  0.21797491398E+04 0.  0.
        3    1    3    3  502    0  0.56421076036E+03 -0.79890350633E+03 -0.52753478799E+02  0.97947104820E+03  0.10100000352E+00 0. -1.
       -3    1    3    3    0  502 -0.56421076036E+03  0.79890350633E+03  0.99502251271E+03  0.13952241417E+04  0.10100000352E+00 0.  1.
</event>
<event>
 5   0  0.1349252E-04  0.1844934E+04  0.7818609E-02  0.8682762E-01
       -2   -1    0    0    0  501  0.00000000000E+00  0.00000000000E+00  0.74330501535E+03  0.74330501536E+03  0.25500000920E-02 0. -1.
        2   -1    0    0  501    0  0.00000000000E+00  0.00000000000E+00 -0.11448137260E+04  0.11448137260E+04  0.25500000920E-02 0.  1.
    10030    2    1    2    0    0  0.00000000000E+00  0.00000000000E+00 -0.40150871065E+03  0.18881187414E+04  0.18449344532E+04 0.  0.
        2    1    3    3  502    0  0.42732391627E+03  0.81594452434E+03 -0.25268243103E+03  0.95510188314E+03  0.25500000920E-02 0.  1.
       -2    1    3    3    0  502 -0.42732391627E+03 -0.81594452434E+03 -0.14882627962E+03  0.93301685822E+03  0.25500000920E-02 0. -1.
</event>
<event>
 5   0  0.1252477E-04  0.2093073E+04  0.7818609E-02  0.8564301E-01
       -2   -1    0    0    0  501  0.00000000000E+00  0.00000000000E+00  0.87615037562E+03  0.87615037562E+03  0.25500000920E-02 0. -1.
        2   -1    0    0  501    0  0.00000000000E+00  0.00000000000E+00 -0.12500582881E+04  0.12500582881E+04  0.25500000920E-02 0.  1.
    10030    2    1    2    0    0  0.00000000000E+00  0.00000000000E+00 -0.37390791247E+03  0.21262086637E+04  0.20930733754E+04 0.  0.
        4    1    3    3  502    0 -0.18565561070E+02 -0.40373680441E+03 -0.11675804029E+04  0.12355540043E+04  0.12699999809E+01 0.  1.
       -4    1    3    3    0  502  0.18565561070E+02  0.40373680441E+03  0.79367249047E+03  0.89065465941E+03  0.12699999809E+01 0. -1.
</event>
<event>
 5   0  0.1252477E-04  0.2082454E+04  0.7818609E-02  0.8569012E-01
       -2   -1    0    0    0  501  0.00000000000E+00  0.00000000000E+00  0.93099579198E+03  0.93099579198E+03  0.25500000920E-02 0.  1.
        2   -1    0    0  501    0  0.00000000000E+00  0.00000000000E+00 -0.11645102961E+04  0.11645102961E+04  0.25500000920E-02 0. -1.
    10030    2    1    2    0    0  0.00000000000E+00  0.00000000000E+00 -0.23351450411E+03  0.20955060881E+04  0.20824544993E+04 0.  0.
        4    1    3    3  502    0  0.47752426186E+03  0.84752322962E+03 -0.49033533393E+03  0.10893830355E+04  0.12699999809E+01 0. -1.
       -4    1    3    3    0  502 -0.47752426186E+03 -0.84752322962E+03  0.25682082982E+03  0.10061230526E+04  0.12699999809E+01 0.  1.
</event>
<event>
 5   0  0.6263616E-05  0.2084777E+04  0.7818609E-02  0.8567979E-01
       -1   -1    0    0    0  501  0.00000000000E+00  0.00000000000E+00  0.17132262871E+04  0.17132262871E+04  0.50400001928E-02 0.  1.
        1   -1    0    0  501    0  0.00000000000E+00  0.00000000000E+00 -0.63422655023E+03  0.63422655025E+03  0.50400001928E-02 0. -1.
    10030    2    1    2    0    0  0.00000000000E+00  0.00000000000E+00  0.10789997369E+04  0.23474528374E+04  0.20847768205E+04 0.  0.
        4    1    3    3  502    0 -0.77048215760E+03  0.73098878793E+02 -0.24675405066E+03  0.81232713588E+03  0.12699999809E+01 0. -1.
       -4    1    3    3    0  502  0.77048215760E+03 -0.73098878793E+02  0.13257537875E+04  0.15351257015E+04  0.12699999809E+01 0.  1.
</event>
<event>
 5   0  0.6221148E-05  0.2096635E+04  0.7818609E-02  0.8562727E-01
        1   -1    0    0  501    0  0.00000000000E+00  0.00000000000E+00  0.12744045617E+04  0.12744045617E+04  0.50400001928E-02 0.  1.
       -1   -1    0    0    0  501  0.00000000000E+00  0.00000000000E+00 -0.86233974154E+03  0.86233974155E+03  0.50400001928E-02 0. -1.
    10030    2    1    2    0    0  0.00000000000E+00  0.00000000000E+00  0.41206482020E+03  0.21367443033E+04  0.20966351141E+04 0.  0.
        3    1    3    3  502    0  0.40206874986E+03  0.91574754142E+03  0.52623537307E+03  0.11301223462E+04  0.10100000352E+00 0.  1.
       -3    1    3    3    0  502 -0.40206874986E+03 -0.91574754142E+03 -0.11417055287E+03  0.10066219571E+04  0.10100000352E+00 0. -1.
</event>
<event>
 5   0  0.6052292E-05  0.2177648E+04  0.7818609E-02  0.8527789E-01
       -1   -1    0    0    0  501  0.00000000000E+00  0.00000000000E+00  0.14221725617E+04  0.14221725617E+04  0.50400001928E-02 0. -1.
        1   -1    0    0  501    0  0.00000000000E+00  0.00000000000E+00 -0.83361038992E+03  0.83361038993E+03  0.50400001928E-02 0.  1.
    10030    2    1    2    0    0  0.00000000000E+00  0.00000000000E+00  0.58856217178E+03  0.22557829516E+04  0.21776481109E+04 0.  0.
        1    1    3    3  502    0  0.12081878541E+03 -0.95978689507E+03  0.81196199292E+03  0.12629609419E+04  0.50400001928E-02 0. -1.
       -1    1    3    3    0  502 -0.12081878541E+03  0.95978689507E+03 -0.22339982115E+03  0.99282200971E+03  0.50400001928E-02 0.  1.
</event>
<event>
 5   0  0.6263616E-05  0.2100289E+04  0.7818609E-02  0.8561116E-01
        1   -1    0    0  501    0  0.00000000000E+00  0.00000000000E+00  0.14431688095E+04  0.14431688095E+04  0.50400001928E-02 0. -1.
       -1   -1    0    0    0  501  0.00000000000E+00  0.00000000000E+00 -0.76415393940E+03  0.76415393942E+03  0.50400001928E-02 0.  1.
    10030    2    1    2    0    0  0.00000000000E+00  0.00000000000E+00  0.67901487007E+03  0.22073227489E+04  0.21002886764E+04 0.  0.
        4    1    3    3  502    0 -0.37995170256E+03  0.94099614323E+03  0.55622337511E+02  0.10163328663E+04  0.12699999809E+01 0.  1.
       -4    1    3    3    0  502  0.37995170256E+03 -0.94099614323E+03  0.62339253256E+03  0.11909898826E+04  0.12699999809E+01 0. -1.
</event>
<event>
 5   0  0.6052292E-05  0.2132152E+04  0.7818609E-02  0.8547211E-01
       -1   -1    0    0    0  501  0.00000000000E+00  0.00000000000E+00  0.53403712263E+03  0.53403712266E+03  0.50400001928E-02 0.  1.
        1   -1    0    0  501    0  0.00000000000E+00  0.00000000000E+00 -0.21281637111E+04  0.21281637111E+04  0.50400001928E-02 0. -1.
    10030    2    1    2    0    0  0.00000000000E+00  0.00000000000E+00 -0.15941265885E+04  0.26622008338E+04  0.21321523630E+04 0.  0.
        1    1    3    3  502    0  0.73962554596E+03  0.43850607558E+03 -0.15839622025E+04  0.18022956987E+04  0.50400001928E-02 0.  1.
       -1    1    3    3    0  502 -0.73962554596E+03 -0.43850607558E+03 -0.10164385972E+02  0.85990513507E+03  0.50400001928E-02 0. -1.
</event>
<event>
 5   0  0.1349252E-04  0.2043181E+04  0.7818609E-02  0.8586694E-01
        2   -1    0    0  501    0  0.00000000000E+00  0.00000000000E+00  0.10446814136E+04  0.10446814136E+04  0.25500000920E-02 0. -1.
       -2   -1    0    0    0  501  0.00000000000E+00  0.00000000000E+00 -0.99901027060E+03  0.99901027060E+03  0.25500000920E-02 0.  1.
    10030    2    1    2    0    0  0.00000000000E+00  0.00000000000E+00  0.45671143010E+02  0.20436916842E+04  0.20431813054E+04 0.  0.
        2    1    3    3  502    0  0.13470684640E+03 -0.56307788355E+03  0.86473746725E+03  0.10406601389E+04  0.25500000920E-02 0. -1.
       -2    1    3    3    0  502 -0.13470684640E+03  0.56307788355E+03 -0.81906632424E+03  0.10030315453E+04  0.25500000920E-02 0.  1.
</event>
<event>
 5   0  0.6263616E-05  0.2072291E+04  0.7818609E-02  0.8573549E-01
       -1   -1    0    0    0  501  0.00000000000E+00  0.00000000000E+00  0.12617711303E+04  0.12617711303E+04  0.50400001928E-02 0. -1.
        1   -1    0    0  501    0  0.00000000000E+00  0.00000000000E+00 -0.85086535386E+03  0.85086535387E+03  0.50400001928E-02 0.  1.
    10030    2    1    2    0    0  0.00000000000E+00  0.00000000000E+00  0.41090577644E+03  0.21126364842E+04  0.20722908476E+04 0.  0.
        4    1    3    3  502    0  0.73104303193E+03 -0.16535529875E+03  0.93480407952E+03  0.11981763515E+04  0.12699999809E+01 0. -1.
       -4    1    3    3    0  502 -0.73104303193E+03  0.16535529875E+03 -0.52389830308E+03  0.91446013266E+03  0.12699999809E+01 0.  1.
</event>
<event>
 5   0  0.1252477E-04  0.2121238E+04  0.7818609E-02  0.8551945E-01
        2   -1    0    0  501    0  0.00000000000E+00  0.00000000000E+00  0.19053707449E+04  0.19053707449E+04  0.25500000920E-02 0.  1.
       -2   -1    0    0    0  501  0.00000000000E+00  0.00000000000E+00 -0.59039054720E+03  0.59039054721E+03  0.25500000920E-02 0. -1.
    10030    2    1    2    0    0  0.00000000000E+00  0.00000000000E+00  0.13149801977E+04  0.24957612921E+04  0.21212382013E+04 0.  0.
        4    1    3    3  502    0  0.10133985206E+04 -0.25557153098E+03  0.44499859581E+03  0.11359219745E+04  0.12699999809E+01 0.  1.
       -4    1    3    3    0  502 -0.10133985206E+04  0.25557153098E+03  0.86998160185E+03  0.13598393175E+04  0.12699999809E+01 0. -1.
</event>
<event>
 5   0  0.6052292E-05  0.2096056E+04  0.7818609E-02  0.8562983E-01
        1   -1    0    0  501    0  0.00000000000E+00  0.00000000000E+00  0.18518102277E+04  0.18518102277E+04  0.50400001928E-02 0.  1.
       -1   -1    0    0    0  501  0.00000000000E+00  0.00000000000E+00 -0.59312929562E+03  0.59312929564E+03  0.50400001928E-02 0. -1.
    10030    2    1    2    0    0  0.00000000000E+00  0.00000000000E+00  0.12586809321E+04  0.24449395234E+04  0.20960561977E+04 0.  0.
        1    1    3    3  502    0 -0.38217255372E+03 -0.47740760096E+03  0.16221161408E+04  0.17335612630E+04  0.50400001928E-02 0.  1.
       -1    1    3    3    0  502  0.38217255372E+03  0.47740760096E+03 -0.36343520876E+03  0.71137826033E+03  0.50400001928E-02 0. -1.
</event>
<event>
 5   0  0.6221148E-05  0.2085521E+04  0.7818609E-02  0.8567648E-01
       -1   -1    0    0    0  501  0.00000000000E+00  0.00000000000E+00  0.11450804837E+04  0.11450804837E+04  0.50400001928E-02 0. -1.
        1   -1    0    0  501    0  0.00000000000E+00  0.00000000000E+00 -0.94958368499E+03  0.94958368500E+03  0.50400001928E-02 0.  1.
    10030    2    1    2    0    0  0.00000000000E+00  0.00000000000E+00  0.19549679869E+03  0.20946641687E+04  0.20855212733E+04 0.  0.
        3    1    3    3  502    0 -0.67899865272E+03  0.68246361038E+03  0.50019691001E+03  0.10848929481E+04  0.10100000352E+00 0. -1.
       -3    1    3    3    0  502  0.67899865272E+03 -0.68246361038E+03 -0.30470011131E+03  0.10097712206E+04  0.10100000352E+00 0.  1.
</event>
<event>
 5   0  0.1349252E-04  0.2077679E+04  0.7818609E-02  0.8571140E-01
        2   -1    0    0  501    0  0.00000000000E+00  0.00000000000E+00  0.26099114748E+04  0.26099114748E+04  0.25500000920E-02 0.  1.
       -2   -1    0    0    0  501  0.00000000000E+00  0.00000000000E+00 -0.41349579835E+03  0.41349579835E+03  0.25500000920E-02 0. -1.
    10030    2    1    2    0    0  0.00000000000E+00  0.00000000000E+00  0.21964156764E+04  0.30234072731E+04  0.20776789250E+04 0.  0.
        2    1    3    3  502    0  0.10169097306E+04  0.11682469883E+03  0.13562069261E+04  0.16991323188E+04  0.25500000920E-02 0.  1.
       -2    1    3    3    0  502 -0.10169097306E+04 -0.11682469883E+03  0.84020875030E+03  0.13242749543E+04  0.25500000920E-02 0. -1.
</event>
<event>
 5   0  0.1235817E-04  0.2130322E+04  0.7818609E-02  0.8548003E-01
        2   -1    0    0  501    0  0.00000000000E+00  0.00000000000E+00  0.11470834898E+04  0.11470834898E+04  0.25500000920E-02 0. -1.
       -2   -1    0    0    0  501  0.00000000000E+00  0.00000000000E+00 -0.98908937102E+03  0.98908937102E+03  0.25500000920E-02 0.  1.
    10030    2    1    2    0    0  0.00000000000E+00  0.00000000000E+00  0.15799411882E+03  0.21361728609E+04  0.21303221235E+04 0.  0.
        1    1    3    3  502    0 -0.44635844974E+03  0.93482343440E+03  0.32754342543E+03  0.10864692424E+04  0.50400001928E-02 0. -1.
       -1    1    3    3    0  502  0.44635844974E+03 -0.93482343440E+03 -0.16954930661E+03  0.10497036184E+04  0.50400001928E-02 0.  1.
</event>
<event>
 5   0  0.1325673E-04  0.2124752E+04  0.7818609E-02  0.8550418E-01
        2   -1    0    0  501    0  0.00000000000E+00  0.00000000000E+00  0.11170037369E+04  0.11170037369E+04  0.25500000920E-02 0.  1.
       -2   -1    0    0    0  501  0.00000000000E+00  0.00000000000E+00 -0.10104196425E+04  0.10104196426E+04  0.25500000920E-02 0. -1.
    10030    2    1    2    0    0  0.00000000000E+00  0.00000000000E+00  0.10658409432E+03  0.21274233794E+04  0.21247517658E+04 0.  0.
        5    1    3    3  502    0  0.14663370296E+03  0.38069439899E+03 -0.92885455709E+03  0.10145060604E+04  0.46999998093E+01 0. -1.
       -5    1    3    3    0  502 -0.14663370296E+03 -0.38069439899E+03  0.10354386514E+04  0.11129173191E+04  0.46999998093E+01 0.  1.
</event>
<event>
 5   0  0.6263616E-05  0.2125454E+04  0.7818609E-02  0.8550113E-01
        1   -1    0    0  501    0  0.00000000000E+00  0.00000000000E+00  0.10858773896E+04  0.10858773896E+04  0.50400001928E-02 0. -1.
       -1   -1    0    0    0  501  0.00000000000E+00  0.00000000000E+00 -0.10400703171E+04  0.10400703171E+04  0.50400001928E-02 0.  1.
    10030    2    1    2    0    0  0.00000000000E+00  0.00000000000E+00  0.45807072497E+02  0.21259477068E+04  0.21254541548E+04 0.  0.
        4    1    3    3  502    0  0.99910699090E+03 -0.17231458197E+03 -0.29572990298E+03  0.10561083670E+04  0.12699999809E+01 0.  1.
       -4    1    3    3    0  502 -0.99910699090E+03  0.17231458197E+03  0.34153697548E+03  0.10698393398E+04  0.12699999809E+01 0. -1.
</event>
<event>
 5   0  0.6052292E-05  0.2108202E+04  0.7818609E-02  0.8557639E-01
        1   -1    0    0  501    0  0.00000000000E+00  0.00000000000E+00  0.65391315298E+03  0.65391315300E+03  0.50400001928E-02 0.  1.
       -1   -1    0    0    0  501  0.00000000000E+00  0.00000000000E+00 -0.16991999022E+04  0.16991999022E+04  0.50400001928E-02 0. -1.
    10030    2    1    2    0    0  0.00000000000E+00  0.00000000000E+00 -0.10452867492E+04  0.23531130552E+04  0.21082022347E+04 0.  0.
        1    1    3    3  502    0  0.87748899341E+03  0.58380127224E+03 -0.54255713796E+03  0.11854025084E+04  0.50400001928E-02 0. -1.
       -1    1    3    3    0  502 -0.87748899341E+03 -0.58380127224E+03 -0.50272961129E+03  0.11677105468E+04  0.50400001928E-02 0.  1.
</event>
<event>
 5   0  0.6221148E-05  0.2058143E+04  0.7818609E-02  0.8579909E-01
       -1   -1    0    0    0  501  0.00000000000E+00  0.00000000000E+00  0.12218596206E+04  0.12218596206E+04  0.50400001928E-02 0.  1.
        1   -1    0    0  501    0  0.00000000000E+00  0.00000000000E+00 -0.86670180056E+03  0.86670180058E+03  0.50400001928E-02 0. -1.
    10030    2    1    2    0    0  0.00000000000E+00  0.00000000000E+00  0.35515782003E+03  0.20885614212E+04  0.20581427873E+04 0.  0.
        3    1    3    3  502    0 -0.43340891750E+03 -0.18873258532E+03 -0.75000110360E+03  0.88654663957E+03  0.10100000352E+00 0. -1.
       -3    1    3    3    0  502  0.43340891750E+03  0.18873258532E+03  0.11051589236E+04  0.12020147816E+04  0.10100000352E+00 0.  1.
</event>
<event>
 5   0  0.1281470E-04  0.2065748E+04  0.7818609E-02  0.8576484E-01
        2   -1    0    0  501    0  0.00000000000E+00  0.00000000000E+00  0.17927019738E+04  0.17927019738E+04  0.25500000920E-02 0.  1.
       -2   -1    0    0    0  501  0.00000000000E+00  0.00000000000E+00 -0.59509519734E+03  0.59509519734E+03  0.25500000920E-02 0. -1.
    10030    2    1    2    0    0  0.00000000000E+00  0.00000000000E+00  0.11976067765E+04  0.23877971712E+04  0.20657476466E+04 0.  0.
        3    1    3    3  502    0 -0.34502036865E+03 -0.91984996584E+03  0.23024477781E+03  0.10090469178E+04  0.10100000352E+00 0. -1.
       -3    1    3    3    0  502  0.34502036865E+03  0.91984996584E+03  0.96736199868E+03  0.13787502534E+04  0.10100000352E+00 0.  1.
</event>
<event>
 5   0  0.1349252E-04  0.2102043E+04  0.7818609E-02  0.8560344E-01
        2   -1    0    0  501    0  0.00000000000E+00  0.00000000000E+00  0.19851830914E+04  0.19851830914E+04  0.25500000920E-02 0. -1.
       -2   -1    0    0    0  501  0.00000000000E+00  0.00000000000E+00 -0.55644527702E+03  0.55644527703E+03  0.25500000920E-02 0.  1.
    10030    2    1    2    0    0  0.00000000000E+00  0.00000000000E+00  0.14287378144E+04  0.25416283684E+04  0.21020425830E+04 0.  0.
        2    1    3    3  502    0  0.77324659947E+03  0.41299303638E+03  0.14154228561E+04  0.16649010221E+04  0.25500000920E-02 0. -1.
       -2    1    3    3    0  502 -0.77324659947E+03 -0.41299303638E+03  0.13314958245E+02  0.87672734633E+03  0.25500000920E-02 0.  1.
</event>
<event>
 5   0  0.5933905E-05  0.2096489E+04  0.7818609E-02  0.8562792E-01
       -1   -1    0    0    0  501  0.00000000000E+00  0.00000000000E+00  0.97432311305E+03  0.97432311306E+03  0.50400001928E-02 0. -1.
        1   -1    0    0  501    0  0.00000000000E+00  0.00000000000E+00 -0.11277740077E+04  0.11277740077E+04  0.50400001928E-02 0.  1.
    10030    2    1    2    0    0  0.00000000000E+00  0.00000000000E+00 -0.15345089463E+03  0.21020971208E+04  0.20964887617E+04 0.  0.
        2    1    3    3  502    0 -0.49396016083E+03  0.20204289985E+03 -0.98135753808E+03  0.11170857583E+04  0.25500000920E-02 0.  1.
       -2    1    3    3    0  502  0.49396016083E+03 -0.20204289985E+03  0.82790664345E+03  0.98501136244E+03  0.25500000920E-02 0. -1.
</event>
<event>
 5   0  0.5933905E-05  0.2124928E+04  0.7818609E-02  0.8550341E-01
        1   -1    0    0  501    0  0.00000000000E+00  0.00000000000E+00  0.11459522485E+04  0.11459522485E+04  0.50400001928E-02 0.  1.
       -1   -1    0    0    0  501  0.00000000000E+00  0.00000000000E+00 -0.98505797671E+03  0.98505797673E+03  0.50400001928E-02 0. -1.
    10030    2    1    2    0    0  0.00000000000E+00  0.00000000000E+00  0.16089427176E+03  0.21310102252E+04  0.21249276725E+04 0.  0.
        2    1    3    3  502    0  0.10082888403E+04 -0.33679423717E+02 -0.25374647937E+03  0.10402730242E+04  0.25500000920E-02 0. -1.
       -2    1    3    3    0  502 -0.10082888403E+04  0.33679423717E+02  0.41464075113E+03  0.10907372010E+04  0.25500000920E-02 0.  1.
</event>
<event>
 5   0  0.1235817E-04  0.1943887E+04  0.7818609E-02  0.8633314E-01
        2   -1    0    0  501    0  0.00000000000E+00  0.00000000000E+00  0.17314827502E+04  0.17314827502E+04  0.25500000920E-02 0.  1.
       -2   -1    0    0    0  501  0.00000000000E+00  0.00000000000E+00 -0.54558667001E+03  0.54558667002E+03  0.25500000920E-02 0. -1.
    10030    2    1    2    0    0  0.00000000000E+00  0.00000000000E+00  0.11858960801E+04  0.22770694202E+04  0.19438867332E+04 0.  0.
        1    1    3    3  502    0 -0.68876853787E+03  0.66729493986E+03  0.77812294058E+03  0.12349736621E+04  0.50400001928E-02 0. -1.
       -1    1    3    3    0  502  0.68876853787E+03 -0.66729493986E+03  0.40777313956E+03  0.10420957580E+04  0.50400001928E-02 0.  1.
</event>
<event>
 5   0  0.6221148E-05  0.2022943E+04  0.7818609E-02  0.8595969E-01
       -1   -1    0    0    0  501  0.00000000000E+00  0.00000000000E+00  0.85541336660E+03  0.85541336661E+03  0.50400001928E-02 0. -1.
        1   -1    0    0  501    0  0.00000000000E+00  0.00000000000E+00 -0.11960001053E+04  0.11960001053E+04  0.50400001928E-02 0.  1.
    10030    2    1    2    0    0  0.00000000000E+00  0.00000000000E+00 -0.34058673867E+03  0.20514134719E+04  0.20229428826E+04 0.  0.
        3    1    3    3  502    0  0.51593130664E+03 -0.84478356671E+03  0.40551285190E+02  0.99070116820E+03  0.10100000352E+00 0. -1.
       -3    1    3    3    0  502 -0.51593130664E+03  0.84478356671E+03 -0.38113802386E+03  0.10607123037E+04  0.10100000352E+00 0.  1.
</event>
<event>
 5   0  0.1235817E-04  0.2147752E+04  0.7818609E-02  0.8540495E-01
        2   -1    0    0  501    0  0.00000000000E+00  0.00000000000E+00  0.16088248440E+04  0.16088248440E+04  0.25500000920E-02 0.  1.
       -2   -1    0    0    0  501  0.00000000000E+00  0.00000000000E+00 -0.71680259430E+03  0.71680259431E+03  0.25500000920E-02 0. -1.
    10030    2    1    2    0    0  0.00000000000E+00  0.00000000000E+00  0.89202224971E+03  0.23256274383E+04  0.21477521477E+04 0.  0.
        1    1    3    3  502    0 -0.72367357148E+03  0.57109614128E+03  0.10424033533E+04  0.13915670993E+04  0.50400001928E-02 0.  1.
       -1    1    3    3    0  502  0.72367357148E+03 -0.57109614128E+03 -0.15038110363E+03  0.93406033906E+03  0.50400001928E-02 0. -1.
</event>
<event>
 5   0  0.5933905E-05  0.2114973E+04  0.7818609E-02  0.8554676E-01
       -1   -1    0    0    0  501  0.00000000000E+00  0.00000000000E+00  0.66480151422E+03  0.66480151424E+03  0.50400001928E-02 0.  1.
        1   -1    0    0  501    0  0.00000000000E+00  0.00000000000E+00 -0.16821228423E+04  0.16821228423E+04  0.50400001928E-02 0. -1.
    10030    2    1    2    0    0  0.00000000000E+00  0.00000000000E+00 -0.10173213280E+04  0.23469243565E+04  0.21149731087E+04 0.  0.
        2    1    3    3  502    0  0.51024049773E+01  0.84061461833E+03 -0.12205981577E+04  0.14820657319E+04  0.25500000920E-02 0. -1.
       -2    1    3    3    0  502 -0.51024049773E+01 -0.84061461833E+03  0.20327682965E+03  0.86485862461E+03  0.25500000920E-02 0.  1.
</event>
<event>
 5   0  0.6263616E-05  0.1978838E+04  0.7818609E-02  0.8616579E-01
        1   -1    0    0  501    0  0.00000000000E+00  0.00000000000E+00  0.13206657221E+04  0.13206657222E+04  0.50400001928E-02 0.  1.
       -1   -1    0    0    0  501  0.00000000000E+00  0.00000000000E+00 -0.74125517001E+03  0.74125517003E+03  0.50400001928E-02 0. -1.
    10030    2    1    2    0    0  0.00000000000E+00  0.00000000000E+00  0.57941055214E+03  0.20619208922E+04  0.19788383405E+04 0.  0.
        4    1    3    3  502    0  0.30111366258E+03  0.91321658784E+02 -0.68773023602E+03  0.75629595635E+03  0.12699999809E+01 0. -1.
       -4    1    3    3    0  502 -0.30111366258E+03 -0.91321658784E+02  0.12671407882E+04  0.13056249358E+04  0.12699999809E+01 0.  1.
</event>
<event>
 5   0  0.1252477E-04  0.2094913E+04  0.7818609E-02  0.8563488E-01
       -2   -1    0    0    0  501  0.00000000000E+00  0.00000000000E+00  0.13526032215E+04  0.13526032215E+04  0.25500000920E-02 0. -1.
        2   -1    0    0  501    0  0.00000000000E+00  0.00000000000E+00 -0.81115082460E+03  0.81115082460E+03  0.25500000920E-02 0.  1.
    10030    2    1    2    0    0  0.00000000000E+00  0.00000000000E+00  0.54145239691E+03  0.21637540461E+04  0.20949130946E+04 0.  0.
        4    1    3    3  502    0 -0.17953282358E+03 -0.24494675657E+03 -0.76467904850E+03  0.82277980554E+03  0.12699999809E+01 0.  1.
       -4    1    3    3    0  502  0.17953282358E+03  0.24494675657E+03  0.13061314454E+04  0.13409742406E+04  0.12699999809E+01 0. -1.
</event>
<event>
 5   0  0.1349252E-04  0.2093625E+04  0.7818609E-02  0.8564057E-01
        2   -1    0    0  501    0  0.00000000000E+00  0.00000000000E+00  0.90490298828E+03  0.90490298828E+03  0.25500000920E-02 0.  1.
       -2   -1    0    0    0  501  0.00000000000E+00  0.00000000000E+00 -0.12109767864E+04  0.12109767864E+04  0.25500000920E-02 0. -1.
    10030    2    1    2    0    0  0.00000000000E+00  0.00000000000E+00 -0.30607379812E+03  0.21158797747E+04  0.20936250980E+04 0.  0.
        2    1    3    3  502    0 -0.33212690510E+03  0.73867749578E+03 -0.82330905220E+03  0.11548984887E+04  0.25500000920E-02 0. -1.
       -2    1    3    3    0  502  0.33212690510E+03 -0.73867749578E+03  0.51723525408E+03  0.96098128594E+03  0.25500000920E-02 0.  1.
</event>
<event>
 5   0  0.5846187E-05  0.2159462E+04  0.7818609E-02  0.8535493E-01
       -1   -1    0    0    0  501  0.00000000000E+00  0.00000000000E+00  0.14233053064E+04  0.14233053064E+04  0.50400001928E-02 0.  1.
        1   -1    0    0  501    0  0.00000000000E+00  0.00000000000E+00 -0.81909264469E+03  0.81909264470E+03  0.50400001928E-02 0. -1.
    10030    2    1    2    0    0  0.00000000000E+00  0.00000000000E+00  0.60421266166E+03  0.22423979511E+04  0.21594618845E+04 0.  0.
        5    1    3    3  502    0  0.92675783050E+03 -0.27378230748E+03  0.80222571190E+03  0.12559558157E+04  0.46999998093E+01 0.  1.
       -5    1    3    3    0  502 -0.92675783050E+03  0.27378230748E+03 -0.19801305023E+03  0.98644213532E+03  0.46999998093E+01 0. -1.
</event>
<event>
 5   0  0.1325673E-04  0.2164259E+04  0.7818609E-02  0.8533453E-01
        2   -1    0    0  501    0  0.00000000000E+00  0.00000000000E+00  0.19624017939E+04  0.19624017939E+04  0.25500000920E-02 0.  1.
       -2   -1    0    0    0  501  0.00000000000E+00  0.00000000000E+00 -0.59672007184E+03  0.59672007185E+03  0.25500000920E-02 0. -1.
    10030    2    1    2    0    0  0.00000000000E+00  0.00000000000E+00  0.13656817220E+04  0.25591218657E+04  0.21642592631E+04 0.  0.
        5    1    3    3  502    0 -0.32152241262E+03  0.90623556646E+03  0.95957637842E+02  0.96636924723E+03  0.46999998093E+01 0. -1.
       -5    1    3    3    0  502  0.32152241262E+03 -0.90623556646E+03  0.12697240842E+04  0.15927526185E+04  0.46999998093E+01 0.  1.
</event>
<event>
 5   0  0.1349252E-04  0.2092386E+04  0.7818609E-02  0.8564605E-01
       -2   -1    0    0    0  501  0.00000000000E+00  0.00000000000E+00  0.53815256153E+03  0.53815256153E+03  0.25500000920E-02 0.  1.
        2   -1    0    0  501    0  0.00000000000E+00  0.00000000000E+00 -0.20338470970E+04  0.20338470970E+04  0.25500000920E-02 0. -1.
    10030    2    1    2    0    0  0.00000000000E+00  0.00000000000E+00 -0.14956945354E+04  0.25719996585E+04  0.20923862215E+04 0.  0.
        2    1    3    3  502    0  0.41092731090E+03  0.43361500247E+03 -0.18035711413E+04  0.18999347586E+04  0.25500000920E-02 0. -1.
       -2    1    3    3    0  502 -0.41092731090E+03 -0.43361500247E+03  0.30787660587E+03  0.67206489989E+03  0.25500000920E-02 0.  1.
</event>
<event>
 5   0  0.1325673E-04  0.2113184E+04  0.7818609E-02  0.8555458E-01
       -2   -1    0    0    0  501  0.00000000000E+00  0.00000000000E+00  0.46183726096E+03  0.46183726097E+03  0.25500000920E-02 0.  1.
        2   -1    0    0  501    0  0.00000000000E+00  0.00000000000E+00 -0.24172728956E+04  0.24172728956E+04  0.25500000920E-02 0. -1.
    10030    2    1    2    0    0  0.00000000000E+00  0.00000000000E+00 -0.19554356346E+04  0.28791101565E+04  0.21131840366E+04 0.  0.
        5    1    3    3  502    0  0.52056674773E+03  0.89352574413E+03 -0.68238751415E+03  0.12389724790E+04  0.46999998093E+01 0.  1.
       -5    1    3    3    0  502 -0.52056674773E+03 -0.89352574413E+03 -0.12730481205E+04  0.16401376775E+04  0.46999998093E+01 0. -1.
</event>
<event>
 5   0  0.6221148E-05  0.2090028E+04  0.7818609E-02  0.8565649E-01
       -1   -1    0    0    0  501  0.00000000000E+00  0.00000000000E+00  0.83873295768E+03  0.83873295770E+03  0.50400001928E-02 0. -1.
        1   -1    0    0  501    0  0.00000000000E+00  0.00000000000E+00 -0.13020290740E+04  0.13020290740E+04  0.50400001928E-02 0.  1.
    10030    2    1    2    0    0  0.00000000000E+00  0.00000000000E+00 -0.46329611636E+03  0.21407620317E+04  0.20900284173E+04 0.  0.
        3    1    3    3  502    0 -0.97011786053E+03  0.32225370354E+03 -0.45389093450E+03  0.11184780299E+04  0.10100000352E+00 0.  1.
       -3    1    3    3    0  502  0.97011786053E+03 -0.32225370354E+03 -0.94051818555E+01  0.10222840018E+04  0.10100000352E+00 0. -1.
</event>
<event>
 5   0  0.1235817E-04  0.2130742E+04  0.7818609E-02  0.8547821E-01
        2   -1    0    0  501    0  0.00000000000E+00  0.00000000000E+00  0.13292228620E+04  0.13292228620E+04  0.25500000920E-02 0.  1.
       -2   -1    0    0    0  501  0.00000000000E+00  0.00000000000E+00 -0.85389397370E+03  0.85389397370E+03  0.25500000920E-02 0. -1.
    10030    2    1    2    0    0  0.00000000000E+00  0.00000000000E+00  0.47532888828E+03  0.21831168357E+04  0.21307420225E+04 0.  0.
        1    1    3    3  502    0 -0.30095875761E+03 -0.95213882619E+03 -0.14277222547E+03  0.10087261405E+04  0.50400001928E-02 0. -1.
       -1    1    3    3    0  502  0.30095875761E+03  0.95213882619E+03  0.61810111375E+03  0.11743906952E+04  0.50400001928E-02 0.  1.
</event>
<event>
 5   0  0.6221148E-05  0.2086544E+04  0.7818609E-02  0.8567194E-01
       -1   -1    0    0    0  501  0.00000000000E+00  0.00000000000E+00  0.62970276491E+03  0.62970276493E+03  0.50400001928E-02 0. -1.
        1   -1    0    0  501    0  0.00000000000E+00  0.00000000000E+00 -0.17284604568E+04  0.17284604568E+04  0.50400001928E-02 0.  1.
    10030    2    1    2    0    0  0.00000000000E+00  0.00000000000E+00 -0.10987576919E+04  0.23581632217E+04  0.20865438684E+04 0.  0.
        3    1    3    3  502    0 -0.88254459704E+03 -0.37640273803E+03 -0.10124098063E+04  0.13948252984E+04  0.10100000352E+00 0.  1.
       -3    1    3    3    0  502  0.88254459704E+03  0.37640273803E+03 -0.86347885563E+02  0.96333792332E+03  0.10100000352E+00 0. -1.
</event>
<event>
 5   0  0.1349252E-04  0.2118083E+04  0.7818609E-02  0.8553319E-01
       -2   -1    0    0    0  501  0.00000000000E+00  0.00000000000E+00  0.12253038006E+04  0.12253038006E+04  0.25500000920E-02 0. -1.
        2   -1    0    0  501    0  0.00000000000E+00  0.00000000000E+00 -0.91533959477E+03  0.91533959478E+03  0.25500000920E-02 0.  1.
    10030    2    1    2    0    0  0.00000000000E+00  0.00000000000E+00  0.30996420587E+03  0.21406433954E+04  0.21180831753E+04 0.  0.
        2    1    3    3  502    0  0.64365999880E+03 -0.81976287104E+02 -0.69092198714E+03  0.94783516395E+03  0.25500000920E-02 0.  1.
       -2    1    3    3    0  502 -0.64365999880E+03  0.81976287104E+02  0.10008861930E+04  0.11928082315E+04  0.25500000920E-02 0. -1.
</event>
<event>
 5   0  0.1281470E-04  0.2114465E+04  0.7818609E-02  0.8554898E-01
        2   -1    0    0  501    0  0.00000000000E+00  0.00000000000E+00  0.11634647687E+04  0.11634647687E+04  0.25500000920E-02 0. -1.
       -2   -1    0    0    0  501  0.00000000000E+00  0.00000000000E+00 -0.96070039367E+03  0.96070039367E+03  0.25500000920E-02 0.  1.
    10030    2    1    2    0    0  0.00000000000E+00  0.00000000000E+00  0.20276437502E+03  0.21241651624E+04  0.21144654751E+04 0.  0.
        3    1    3    3  502    0  0.82870289003E+03  0.13298171290E+03  0.74722200672E+03  0.11237318868E+04  0.10100000352E+00 0. -1.
       -3    1    3    3    0  502 -0.82870289003E+03 -0.13298171290E+03 -0.54445763169E+03  0.10004332755E+04  0.10100000352E+00 0.  1.
</event>
<event>
 5   0  0.1235817E-04  0.2329944E+04  0.7818609E-02  0.8466207E-01
       -2   -1    0    0    0  501  0.00000000000E+00  0.00000000000E+00  0.86271516513E+03  0.86271516514E+03  0.25500000920E-02 0. -1.
        2   -1    0    0  501    0  0.00000000000E+00  0.00000000000E+00 -0.15731267115E+04  0.15731267115E+04  0.25500000920E-02 0.  1.
    10030    2    1    2    0    0  0.00000000000E+00  0.00000000000E+00 -0.71041154637E+03  0.24358418766E+04  0.23299444377E+04 0.  0.
        1    1    3    3  502    0 -0.10325592814E+04  0.41387323112E+03 -0.71689323911E+03  0.13234068298E+04  0.50400001928E-02 0.  1.
       -1    1    3    3    0  502  0.10325592814E+04 -0.41387323112E+03  0.64816927388E+01  0.11124350468E+04  0.50400001928E-02 0. -1.
</event>
<event>
 5   0  0.1325673E-04  0.2071941E+04  0.7818609E-02  0.8573705E-01
       -2   -1    0    0    0  501  0.00000000000E+00  0.00000000000E+00  0.74405344105E+03  0.74405344106E+03  0.25500000920E-02 0.  1.
        2   -1    0    0  501    0  0.00000000000E+00  0.00000000000E+00 -0.14424167643E+04  0.14424167643E+04  0.25500000920E-02 0. -1.
    10030    2    1    2    0    0  0.00000000000E+00  0.00000000000E+00 -0.69836332327E+03  0.21864702054E+04  0.20719412703E+04 0.  0.
        5    1    3    3  502    0  0.90590185565E+03  0.41893394511E+03 -0.56260791929E+02  0.99967554193E+03  0.46999998093E+01 0.  1.
       -5    1    3    3    0  502 -0.90590185565E+03 -0.41893394511E+03 -0.64210253134E+03  0.11867946634E+04  0.46999998093E+01 0. -1.
</event>
<event>
 5   0  0.6263616E-05  0.2096572E+04  0.7818609E-02  0.8562755E-01
       -1   -1    0    0    0  501  0.00000000000E+00  0.00000000000E+00  0.13628130981E+04  0.13628130981E+04  0.50400001928E-02 0. -1.
        1   -1    0    0  501    0  0.00000000000E+00  0.00000000000E+00 -0.80634940080E+03  0.80634940082E+03  0.50400001928E-02 0.  1.
    10030    2    1    2    0    0  0.00000000000E+00  0.00000000000E+00  0.55646369730E+03  0.21691624989E+04  0.20965719879E+04 0.  0.
        4    1    3    3  502    0  0.26295760368E+03  0.34658950694E+03  0.12649995299E+04  0.13377206028E+04  0.12699999809E+01 0. -1.
       -4    1    3    3    0  502 -0.26295760368E+03 -0.34658950694E+03 -0.70853583260E+03  0.83144189612E+03  0.12699999809E+01 0.  1.
</event>
<event>
 5   0  0.5846187E-05  0.2170895E+04  0.7818609E-02  0.8530641E-01
       -1   -1    0    0    0  501  0.00000000000E+00  0.00000000000E+00  0.76744756903E+03  0.76744756905E+03  0.50400001928E-02 0.  1.
        1   -1    0    0  501    0  0.00000000000E+00  0.00000000000E+00 -0.15352134814E+04  0.15352134814E+04  0.50400001928E-02 0. -1.
    10030    2    1    2    0    0  0.00000000000E+00  0.00000000000E+00 -0.76776591239E+03  0.23026610505E+04  0.21708946122E+04 0.  0.
        5    1    3    3  502    0 -0.96677250254E+03  0.16861434275E+03 -0.87581523148E+03  0.13153532902E+04  0.46999998093E+01 0. -1.
       -5    1    3    3    0  502  0.96677250254E+03 -0.16861434275E+03  0.10804931908E+03  0.98730776033E+03  0.46999998093E+01 0.  1.
</event>
<event>
 5   0  0.1252477E-04  0.2102578E+04  0.7818609E-02  0.8560109E-01
       -2   -1    0    0    0  501  0.00000000000E+00  0.00000000000E+00  0.10595242560E+04  0.10595242560E+04  0.25500000920E-02 0. -1.
        2   -1    0    0  501    0  0.00000000000E+00  0.00000000000E+00 -0.10431173478E+04  0.10431173478E+04  0.25500000920E-02 0.  1.
    10030    2    1    2    0    0  0.00000000000E+00  0.00000000000E+00  0.16406908238E+02  0.21026416038E+04  0.21025775913E+04 0.  0.
        4    1    3    3  502    0 -0.99870195992E+03  0.26070758860E+03 -0.19138335133E+03  0.10497634265E+04  0.12699999809E+01 0. -1.
       -4    1    3    3    0  502  0.99870195992E+03 -0.26070758860E+03  0.20779025956E+03  0.10528781774E+04  0.12699999809E+01 0.  1.
</event>
<event>
 5   0  0.6263616E-05  0.2111696E+04  0.7818609E-02  0.8556109E-01
       -1   -1    0    0    0  501  0.00000000000E+00  0.00000000000E+00  0.98977017252E+03  0.98977017253E+03  0.50400001928E-02 0. -1.
        1   -1    0    0  501    0  0.00000000000E+00  0.00000000000E+00 -0.11263368506E+04  0.11263368506E+04  0.50400001928E-02 0.  1.
    10030    2    1    2    0    0  0.00000000000E+00  0.00000000000E+00 -0.13656667812E+03  0.21161070232E+04  0.21116956400E+04 0.  0.
        4    1    3    3  502    0  0.52494427368E+03  0.69022162408E+03 -0.67190422535E+03  0.10970092442E+04  0.12699999809E+01 0.  1.
       -4    1    3    3    0  502 -0.52494427368E+03 -0.69022162408E+03  0.53533754723E+03  0.10190977790E+04  0.12699999809E+01 0. -1.
</event>
<event>
 5   0  0.6052292E-05  0.2027369E+04  0.7818609E-02  0.8593931E-01
        1   -1    0    0  501    0  0.00000000000E+00  0.00000000000E+00  0.14151460487E+04  0.14151460487E+04  0.50400001928E-02 0.  1.
       -1   -1    0    0    0  501  0.00000000000E+00  0.00000000000E+00 -0.72611289205E+03  0.72611289207E+03  0.50400001928E-02 0. -1.
    10030    2    1    2    0    0  0.00000000000E+00  0.00000000000E+00  0.68903315663E+03  0.21412589408E+04  0.20273685310E+04 0.  0.
        1    1    3    3  502    0  0.43582785640E+03 -0.72949952495E+03 -0.23919682559E+03  0.88279703144E+03  0.50400001928E-02 0. -1.
       -1    1    3    3    0  502 -0.43582785640E+03  0.72949952495E+03  0.92822998222E+03  0.12584619093E+04  0.50400001928E-02 0.  1.
</event>
<event>
 5   0  0.1235817E-04  0.2080863E+04  0.7818609E-02  0.8569721E-01
       -2   -1    0    0    0  501  0.00000000000E+00  0.00000000000E+00  0.60873941558E+03  0.60873941559E+03  0.25500000920E-02 0.  1.
        2   -1    0    0  501    0  0.00000000000E+00  0.00000000000E+00 -0.17782608261E+04  0.17782608261E+04  0.25500000920E-02 0. -1.
    10030    2    1    2    0    0  0.00000000000E+00  0.00000000000E+00 -0.11695214105E+04  0.23870002417E+04  0.20808627596E+04 0.  0.
        1    1    3    3  502    0 -0.54599555860E+02 -0.41330189154E+03  0.50873928916E+03  0.65773492337E+03  0.50400001928E-02 0.  1.
       -1    1    3    3    0  502  0.54599555860E+02  0.41330189154E+03 -0.16782606997E+04  0.17292653184E+04  0.50400001928E-02 0. -1.
</event>
<event>
 5   0  0.5846187E-05  0.2100302E+04  0.7818609E-02  0.8561110E-01
        1   -1    0    0  501    0  0.00000000000E+00  0.00000000000E+00  0.11408270066E+04  0.11408270066E+04  0.50400001928E-02 0. -1.
       -1   -1    0    0    0  501  0.00000000000E+00  0.00000000000E+00 -0.96668248536E+03  0.96668248537E+03  0.50400001928E-02 0.  1.
    10030    2    1    2    0    0  0.00000000000E+00  0.00000000000E+00  0.17414452123E+03  0.21075094920E+04  0.21003023460E+04 0.  0.
        5    1    3    3  502    0 -0.25704538407E+03  0.36587397006E+03  0.10405219046E+04  0.11325387479E+04  0.46999998093E+01 0. -1.
       -5    1    3    3    0  502  0.25704538407E+03 -0.36587397006E+03 -0.86637738338E+03  0.97497074411E+03  0.46999998093E+01 0.  1.
</event>
<event>
 5   0  0.1252477E-04  0.2105973E+04  0.7818609E-02  0.8558617E-01
        2   -1    0    0  501    0  0.00000000000E+00  0.00000000000E+00  0.26867501641E+04  0.26867501641E+04  0.25500000920E-02 0.  1.
       -2   -1    0    0    0  501  0.00000000000E+00  0.00000000000E+00 -0.41268473781E+03  0.41268473782E+03  0.25500000920E-02 0. -1.
    10030    2    1    2    0    0  0.00000000000E+00  0.00000000000E+00  0.22740654263E+04  0.30994349019E+04  0.21059732069E+04 0.  0.
        4    1    3    3  502    0  0.19326841677E+03  0.50963142278E+03 -0.18892009536E+03  0.57686158074E+03  0.12699999809E+01 0. -1.
       -4    1    3    3    0  502 -0.19326841677E+03 -0.50963142278E+03  0.24629855217E+04  0.25225733212E+04  0.12699999809E+01 0.  1.
</event>
<event>
 5   0  0.1235817E-04  0.2106642E+04  0.7818609E-02  0.8558323E-01
        2   -1    0    0  501    0  0.00000000000E+00  0.00000000000E+00  0.22582656149E+04  0.22582656149E+04  0.25500000920E-02 0. -1.
       -2   -1    0    0    0  501  0.00000000000E+00  0.00000000000E+00 -0.49129956076E+03  0.49129956077E+03  0.25500000920E-02 0.  1.
    10030    2    1    2    0    0  0.00000000000E+00  0.00000000000E+00  0.17669660541E+04  0.27495651757E+04  0.21066417870E+04 0.  0.
        1    1    3    3  502    0 -0.90815515822E+03  0.17743246900E+03  0.22665162236E+03  0.95267992023E+03  0.50400001928E-02 0. -1.
       -1    1    3    3    0  502  0.90815515822E+03 -0.17743246900E+03  0.15403144318E+04  0.17968852554E+04  0.50400001928E-02 0.  1.
</event>
<event>
 5   0  0.1281470E-04  0.2131572E+04  0.7818609E-02  0.8547462E-01
       -2   -1    0    0    0  501  0.00000000000E+00  0.00000000000E+00  0.80341044442E+03  0.80341044443E+03  0.25500000920E-02 0. -1.
        2   -1    0    0  501    0  0.00000000000E+00  0.00000000000E+00 -0.14138474780E+04  0.14138474780E+04  0.25500000920E-02 0.  1.
    10030    2    1    2    0    0  0.00000000000E+00  0.00000000000E+00 -0.61043703360E+03  0.22172579225E+04  0.21315720308E+04 0.  0.
        3    1    3    3  502    0 -0.64053284819E+03  0.47763464643E+03 -0.10388959574E+04  0.13106189399E+04  0.10100000352E+00 0.  1.
       -3    1    3    3    0  502  0.64053284819E+03 -0.47763464643E+03  0.42845892382E+03  0.90663898255E+03  0.10100000352E+00 0. -1.
</event>
<event>
 5   0  0.1349252E-04  0.1855589E+04  0.7818609E-02  0.8677284E-01
        2   -1    0    0  501    0  0.00000000000E+00  0.00000000000E+00  0.72483159752E+03  0.72483159752E+03  0.25500000920E-02 0. -1.
       -2   -1    0    0    0  501  0.00000000000E+00  0.00000000000E+00 -0.11875897878E+04  0.11875897878E+04  0.25500000920E-02 0.  1.
    10030    2    1    2    0    0  0.00000000000E+00  0.00000000000E+00 -0.46275819029E+03  0.19124213853E+04  0.18555889664E+04 0.  0.
        2    1    3    3  502    0 -0.44810884161E+02 -0.47963275033E+03 -0.10486005828E+04  0.11539578731E+04  0.25500000920E-02 0.  1.
       -2    1    3    3    0  502  0.44810884161E+02  0.47963275033E+03  0.58584239253E+03  0.75846351226E+03  0.25500000920E-02 0. -1.
</event>
<event>
 5   0  0.1235817E-04  0.2145726E+04  0.7818609E-02  0.8541364E-01
       -2   -1    0    0    0  501  0.00000000000E+00  0.00000000000E+00  0.98608701866E+03  0.98608701866E+03  0.25500000920E-02 0.  1.
        2   -1    0    0  501    0  0.00000000000E+00  0.00000000000E+00 -0.11672751074E+04  0.11672751074E+04  0.25500000920E-02 0. -1.
    10030    2    1    2    0    0  0.00000000000E+00  0.00000000000E+00 -0.18118808876E+03  0.21533621261E+04  0.21457258265E+04 0.  0.
        1    1    3    3  502    0 -0.64022637121E+03  0.43575984561E+03 -0.83570413437E+03  0.11393760791E+04  0.50400001928E-02 0. -1.
       -1    1    3    3    0  502  0.64022637121E+03 -0.43575984561E+03  0.65451604561E+03  0.10139860470E+04  0.50400001928E-02 0.  1.
</event>
<event>
 5   0  0.1281470E-04  0.2095318E+04  0.7818609E-02  0.8563308E-01
       -2   -1    0    0    0  501  0.00000000000E+00  0.00000000000E+00  0.50045869558E+03  0.50045869559E+03  0.25500000920E-02 0. -1.
        2   -1    0    0  501    0  0.00000000000E+00  0.00000000000E+00 -0.21931674199E+04  0.21931674199E+04  0.25500000920E-02 0.  1.
    10030    2    1    2    0    0  0.00000000000E+00  0.00000000000E+00 -0.16927087244E+04  0.26936261155E+04  0.20953183111E+04 0.  0.
        3    1    3    3  502    0 -0.14407642804E+03 -0.45116527401E+03  0.35498153425E+03  0.59187838400E+03  0.10100000352E+00 0. -1.
       -3    1    3    3    0  502  0.14407642804E+03  0.45116527401E+03 -0.20476902586E+04  0.21017477315E+04  0.10100000352E+00 0.  1.
</event>
<event>
 5   0  0.1349252E-04  0.2090039E+04  0.7818609E-02  0.8565644E-01
        2   -1    0    0  501    0  0.00000000000E+00  0.00000000000E+00  0.10242998320E+04  0.10242998320E+04  0.25500000920E-02 0. -1.
       -2   -1    0    0    0  501  0.00000000000E+00  0.00000000000E+00 -0.10661584691E+04  0.10661584691E+04  0.25500000920E-02 0.  1.
    10030    2    1    2    0    0  0.00000000000E+00  0.00000000000E+00 -0.41858637140E+02  0.20904583010E+04  0.20900391774E+04 0.  0.
        2    1    3    3  502    0 -0.49773633417E+03  0.47374872091E+03  0.76655736277E+03  0.10294607809E+04  0.25500000920E-02 0. -1.
       -2    1    3    3    0  502  0.49773633417E+03 -0.47374872091E+03 -0.80841599991E+03  0.10609975202E+04  0.25500000920E-02 0.  1.
</event>
<event>
 5   0  0.6221148E-05  0.2103028E+04  0.7818609E-02  0.8559911E-01
       -1   -1    0    0    0  501  0.00000000000E+00  0.00000000000E+00  0.18455737281E+04  0.18455737281E+04  0.50400001928E-02 0. -1.
        1   -1    0    0  501    0  0.00000000000E+00  0.00000000000E+00 -0.59909899264E+03  0.59909899266E+03  0.50400001928E-02 0.  1.
    10030    2    1    2    0    0  0.00000000000E+00  0.00000000000E+00  0.12464747355E+04  0.24446727208E+04  0.21030276854E+04 0.  0.
        3    1    3    3  502    0 -0.38224591832E+02  0.57584611011E+03  0.16450214387E+04  0.17433173567E+04  0.10100000352E+00 0. -1.
       -3    1    3    3    0  502  0.38224591832E+02 -0.57584611011E+03 -0.39854670323E+03  0.70135536414E+03  0.10100000352E+00 0.  1.
</event>
<event>
 5   0  0.6052292E-05  0.2111783E+04  0.7818609E-02  0.8556070E-01
        1   -1    0    0  501    0  0.00000000000E+00  0.00000000000E+00  0.11551911342E+04  0.11551911342E+04  0.50400001928E-02 0. -1.
       -1   -1    0    0    0  501  0.00000000000E+00  0.00000000000E+00 -0.96512801485E+03  0.96512801486E+03  0.50400001928E-02 0.  1.
    10030    2    1    2    0    0  0.00000000000E+00  0.00000000000E+00  0.19006311934E+03  0.21203191491E+04  0.21117834417E+04 0.  0.
        1    1    3    3  502    0 -0.10228220039E+04  0.25852042090E+03  0.51155197022E+02  0.10562265448E+04  0.50400001928E-02 0. -1.
       -1    1    3    3    0  502  0.10228220039E+04 -0.25852042090E+03  0.13890792232E+03  0.10640926043E+04  0.50400001928E-02 0.  1.
</event>
<event>
 5   0  0.1252477E-04  0.1602982E+04  0.7818609E-02  0.8818718E-01
       -2   -1    0    0    0  501  0.00000000000E+00  0.00000000000E+00  0.12821110983E+04  0.12821110983E+04  0.25500000920E-02 0. -1.
        2   -1    0    0  501    0  0.00000000000E+00  0.00000000000E+00 -0.50103913921E+03  0.50103913922E+03  0.25500000920E-02 0.  1.
    10030    2    1    2    0    0  0.00000000000E+00  0.00000000000E+00  0.78107195909E+03  0.17831502375E+04  0.16029820225E+04 0.  0.
        4    1    3    3  502    0 -0.18880415898E+03  0.34021529937E+03  0.11700013611E+04  0.12330037543E+04  0.12699999809E+01 0. -1.
       -4    1    3    3    0  502  0.18880415898E+03 -0.34021529937E+03 -0.38892940197E+03  0.55014648321E+03  0.12699999809E+01 0.  1.
</event>
<event>
 5   0  0.1325673E-04  0.2141728E+04  0.7818609E-02  0.8543081E-01
       -2   -1    0    0    0  501  0.00000000000E+00  0.00000000000E+00  0.70941770074E+03  0.70941770074E+03  0.25500000920E-02 0. -1.
        2   -1    0    0  501    0  0.00000000000E+00  0.00000000000E+00 -0.16164662100E+04  0.16164662100E+04  0.25500000920E-02 0.  1.
    10030    2    1    2    0    0  0.00000000000E+00  0.00000000000E+00 -0.90704850927E+03  0.23258839107E+04  0.21417280332E+04 0.  0.
        5    1    3    3  502    0 -0.21926598565E+02 -0.26282666388E+03  0.67358402648E+03  0.72339212168E+03  0.46999998093E+01 0. -1.
       -5    1    3    3    0  502  0.21926598565E+02  0.26282666388E+03 -0.15806325357E+04  0.16024917891E+04  0.46999998093E+01 0.  1.
</event>
<event>
 5   0  0.1325673E-04  0.2091705E+04  0.7818609E-02  0.8564906E-01
        2   -1    0    0  501    0  0.00000000000E+00  0.00000000000E+00  0.10600355045E+04  0.10600355045E+04  0.25500000920E-02 0.  1.
       -2   -1    0    0    0  501  0.00000000000E+00  0.00000000000E+00 -0.10318590692E+04  0.10318590692E+04  0.25500000920E-02 0. -1.
    10030    2    1    2    0    0  0.00000000000E+00  0.00000000000E+00  0.28176435304E+02  0.20918945737E+04  0.20917048061E+04 0.  0.
        5    1    3    3  502    0 -0.92058763759E+03 -0.16837658432E+03 -0.45280838249E+03  0.10396584987E+04  0.46999998093E+01 0. -1.
       -5    1    3    3    0  502  0.92058763759E+03  0.16837658432E+03  0.48098481780E+03  0.10522360750E+04  0.46999998093E+01 0.  1.
</event>
<event>
 5   0  0.6263616E-05  0.2170416E+04  0.7818609E-02  0.8530843E-01
        1   -1    0    0  501    0  0.00000000000E+00  0.00000000000E+00  0.61918141955E+03  0.61918141957E+03  0.50400001928E-02 0.  1.
       -1   -1    0    0    0  501  0.00000000000E+00  0.00000000000E+00 -0.19019896470E+04  0.19019896470E+04  0.50400001928E-02 0. -1.
    10030    2    1    2    0    0  0.00000000000E+00  0.00000000000E+00 -0.12828082275E+04  0.25211710666E+04  0.21704162270E+04 0.  0.
        4    1    3    3  502    0  0.11049416577E+03 -0.63198822766E+03 -0.16580970752E+04  0.17778935863E+04  0.12699999809E+01 0. -1.
       -4    1    3    3    0  502 -0.11049416577E+03  0.63198822766E+03  0.37528884773E+03  0.74327748028E+03  0.12699999809E+01 0.  1.
</event>
<event>
 5   0  0.5846187E-05  0.2102816E+04  0.7818609E-02  0.8560004E-01
        1   -1    0    0  501    0  0.00000000000E+00  0.00000000000E+00  0.12367131099E+04  0.12367131099E+04  0.50400001928E-02 0. -1.
       -1   -1    0    0    0  501  0.00000000000E+00  0.00000000000E+00 -0.89386830602E+03  0.89386830604E+03  0.50400001928E-02 0.  1.
    10030    2    1    2    0    0  0.00000000000E+00  0.00000000000E+00  0.34284480386E+03  0.21305814159E+04  0.21028158765E+04 0.  0.
        5    1    3    3  502    0  0.31303069208E+02 -0.66614708045E+03 -0.65214775493E+03  0.93276502893E+03  0.46999998093E+01 0.  1.
       -5    1    3    3    0  502 -0.31303069208E+02  0.66614708045E+03  0.99499255880E+03  0.11978163870E+04  0.46999998093E+01 0. -1.
</event>
<event>
 5   0  0.1235817E-04  0.1913277E+04  0.7818609E-02  0.8648276E-01
       -2   -1    0    0    0  501  0.00000000000E+00  0.00000000000E+00  0.64625837098E+03  0.64625837099E+03  0.25500000920E-02 0.  1.
        2   -1    0    0  501    0  0.00000000000E+00  0.00000000000E+00 -0.14160849324E+04  0.14160849324E+04  0.25500000920E-02 0. -1.
    10030    2    1    2    0    0  0.00000000000E+00  0.00000000000E+00 -0.76982656139E+03  0.20623433034E+04  0.19132765002E+04 0.  0.
        1    1    3    3  502    0 -0.37545024339E+03 -0.53528656603E+03 -0.11376493855E+04  0.13121511793E+04  0.50400001928E-02 0. -1.
       -1    1    3    3    0  502  0.37545024339E+03  0.53528656603E+03  0.36782282410E+03  0.75019212405E+03  0.50400001928E-02 0.  1.
</event>
<event>
 5   0  0.1252477E-04  0.2113517E+04  0.7818609E-02  0.8555312E-01
       -2   -1    0    0    0  501  0.00000000000E+00  0.00000000000E+00  0.62233927073E+03  0.62233927074E+03  0.25500000920E-02 0. -1.
        2   -1    0    0  501    0  0.00000000000E+00  0.00000000000E+00 -0.17944208222E+04  0.17944208222E+04  0.25500000920E-02 0.  1.
    10030    2    1    2    0    0  0.00000000000E+00  0.00000000000E+00 -0.11720815515E+04  0.24167600929E+04  0.21135170176E+04 0.  0.
        4    1    3    3  502    0 -0.95673223003E+03  0.35688485246E+03 -0.89717096482E+03  0.13592721254E+04  0.12699999809E+01 0.  1.
       -4    1    3    3    0  502  0.95673223003E+03 -0.35688485246E+03 -0.27491058663E+03  0.10574879675E+04  0.12699999809E+01 0. -1.
</event>
<event>
 5   0  0.1349252E-04  0.2089528E+04  0.7818609E-02  0.8565870E-01
       -2   -1    0    0    0  501  0.00000000000E+00  0.00000000000E+00  0.13896683799E+04  0.13896683799E+04  0.25500000920E-02 0. -1.
        2   -1    0    0  501    0  0.00000000000E+00  0.00000000000E+00 -0.78546221327E+03  0.78546221327E+03  0.25500000920E-02 0.  1.
    10030    2    1    2    0    0  0.00000000000E+00  0.00000000000E+00  0.60420616667E+03  0.21751305932E+04  0.20895281778E+04 0.  0.
        2    1    3    3  502    0 -0.67071978316E+02  0.10422670670E+04  0.32989344571E+03  0.10952848829E+04  0.25500000920E-02 0.  1.
       -2    1    3    3    0  502  0.67071978316E+02 -0.10422670670E+04  0.27431272096E+03  0.10798457103E+04  0.25500000920E-02 0. -1.
</event>
<event>
 5   0  0.1349252E-04  0.2090901E+04  0.7818609E-02  0.8565262E-01
        2   -1    0    0  501    0  0.00000000000E+00  0.00000000000E+00  0.11482137446E+04  0.11482137446E+04  0.25500000920E-02 0.  1.
       -2   -1    0    0    0  501  0.00000000000E+00  0.00000000000E+00 -0.95188404414E+03  0.95188404415E+03  0.25500000920E-02 0. -1.
    10030    2    1    2    0    0  0.00000000000E+00  0.00000000000E+00  0.19632970044E+03  0.21000977887E+04  0.20909006124E+04 0.  0.
        2    1    3    3  502    0  0.20215771407E+03 -0.27039846350E+03  0.10919528847E+04  0.11429541429E+04  0.25500000920E-02 0.  1.
       -2    1    3    3    0  502 -0.20215771407E+03  0.27039846350E+03 -0.89562318429E+03  0.95714364578E+03  0.25500000920E-02 0. -1.
</event>
<event>
 5   0  0.4615125E-05  0.2096140E+04  0.7818609E-02  0.8562946E-01
       -4   -1    0    0    0  501  0.00000000000E+00  0.00000000000E+00  0.12523975222E+04  0.12523981662E+04  0.12699999809E+01 0. -1.
        4   -1    0    0  501    0  0.00000000000E+00  0.00000000000E+00 -0.87707683530E+03  0.87707775478E+03  0.12699999809E+01 0.  1.
    10030    2    1    2    0    0  0.00000000000E+00  0.00000000000E+00  0.37532068693E+03  0.21294759209E+04  0.20961398045E+04 0.  0.
        5    1    3    3  502    0  0.86473268855E+03 -0.31250774960E+03 -0.32333482627E+03  0.97467492841E+03  0.46999998093E+01 0.  1.
       -5    1    3    3    0  502 -0.86473268855E+03  0.31250774960E+03  0.69865551320E+03  0.11548009925E+04  0.46999998093E+01 0. -1.
</event>
<event>
 5   0  0.6221148E-05  0.2097397E+04  0.7818609E-02  0.8562391E-01
        1   -1    0    0  501    0  0.00000000000E+00  0.00000000000E+00  0.99140657664E+03  0.99140657666E+03  0.50400001928E-02 0. -1.
       -1   -1    0    0    0  501  0.00000000000E+00  0.00000000000E+00 -0.11093014901E+04  0.11093014902E+04  0.50400001928E-02 0.  1.
    10030    2    1    2    0    0  0.00000000000E+00  0.00000000000E+00 -0.11789491350E+03  0.21007080668E+04  0.20973972374E+04 0.  0.
        3    1    3    3  502    0  0.50825300278E+02 -0.82562464135E+03 -0.70458080474E+03  0.10865879533E+04  0.10100000352E+00 0.  1.
       -3    1    3    3    0  502 -0.50825300278E+02  0.82562464135E+03  0.58668589124E+03  0.10141201136E+04  0.10100000352E+00 0. -1.
</event>
<event>
 5   0  0.1325673E-04  0.2005191E+04  0.7818609E-02  0.8604197E-01
       -2   -1    0    0    0  501  0.00000000000E+00  0.00000000000E+00  0.40123577713E+03  0.40123577714E+03  0.25500000920E-02 0.  1.
        2   -1    0    0  501    0  0.00000000000E+00  0.00000000000E+00 -0.25052556158E+04  0.25052556158E+04  0.25500000920E-02 0. -1.
    10030    2    1    2    0    0  0.00000000000E+00  0.00000000000E+00 -0.21040198387E+04  0.29064913930E+04  0.20051914462E+04 0.  0.
        5    1    3    3  502    0  0.63970465210E+03 -0.45146753943E+03 -0.14433810665E+03  0.79617872372E+03  0.46999998093E+01 0.  1.
       -5    1    3    3    0  502 -0.63970465210E+03  0.45146753943E+03 -0.19596817320E+04  0.21103126692E+04  0.46999998093E+01 0. -1.
</event>
<event>
 5   0  0.1235817E-04  0.2119898E+04  0.7818609E-02  0.8552529E-01
       -2   -1    0    0    0  501  0.00000000000E+00  0.00000000000E+00  0.53331104904E+03  0.53331104905E+03  0.25500000920E-02 0.  1.
        2   -1    0    0  501    0  0.00000000000E+00  0.00000000000E+00 -0.21066345048E+04  0.21066345048E+04  0.25500000920E-02 0. -1.
    10030    2    1    2    0    0  0.00000000000E+00  0.00000000000E+00 -0.15733234558E+04  0.26399455539E+04  0.21198975992E+04 0.  0.
        1    1    3    3  502    0 -0.69418370030E+03  0.65371610513E+02 -0.17808330836E+04  0.19124672361E+04  0.50400001928E-02 0. -1.
       -1    1    3    3    0  502  0.69418370030E+03 -0.65371610513E+02  0.20750962784E+03  0.72747831782E+03  0.50400001928E-02 0.  1.
</event>
<event>
 5   0  0.6263616E-05  0.2089280E+04  0.7818609E-02  0.8565980E-01
        1   -1    0    0  501    0  0.00000000000E+00  0.00000000000E+00  0.83806739647E+03  0.83806739648E+03  0.50400001928E-02 0. -1.
       -1   -1    0    0    0  501  0.00000000000E+00  0.00000000000E+00 -0.13021304865E+04  0.13021304865E+04  0.50400001928E-02 0.  1.
    10030    2    1    2    0    0  0.00000000000E+00  0.00000000000E+00 -0.46406309001E+03  0.21401978830E+04  0.20892803610E+04 0.  0.
        4    1    3    3  502    0  0.20766599787E+03  0.24291487530E+03 -0.12508241948E+04  0.12910056478E+04  0.12699999809E+01 0.  1.
       -4    1    3    3    0  502 -0.20766599787E+03 -0.24291487530E+03  0.78676110483E+03  0.84919223518E+03  0.12699999809E+01 0. -1.
</event>
<event>
 5   0  0.6221148E-05  0.2104027E+04  0.7818609E-02  0.8559471E-01
       -1   -1    0    0    0  501  0.00000000000E+00  0.00000000000E+00  0.12837534575E+04  0.12837534575E+04  0.50400001928E-02 0. -1.
        1   -1    0    0  501    0  0.00000000000E+00  0.00000000000E+00 -0.86210688491E+03  0.86210688492E+03  0.50400001928E-02 0.  1.
    10030    2    1    2    0    0  0.00000000000E+00  0.00000000000E+00  0.42164657261E+03  0.21458603424E+04  0.21040272757E+04 0.  0.
        3    1    3    3  502    0  0.80688975586E+03 -0.51166590405E+03  0.65987230732E+03  0.11611651681E+04  0.10100000352E+00 0. -1.
       -3    1    3    3    0  502 -0.80688975586E+03  0.51166590405E+03 -0.23822573471E+03  0.98469517433E+03  0.10100000352E+00 0.  1.
</event>
<event>
 5   0  0.1325673E-04  0.2066137E+04  0.7818609E-02  0.8576309E-01
        2   -1    0    0  501    0  0.00000000000E+00  0.00000000000E+00  0.91348026116E+03  0.91348026117E+03  0.25500000920E-02 0. -1.
       -2   -1    0    0    0  501  0.00000000000E+00  0.00000000000E+00 -0.11683129239E+04  0.11683129239E+04  0.25500000920E-02 0.  1.
    10030    2    1    2    0    0  0.00000000000E+00  0.00000000000E+00 -0.25483266276E+03  0.20817931851E+04  0.20661372606E+04 0.  0.
        5    1    3    3  502    0  0.99825223251E+03  0.77070602097E+02 -0.38382707416E+03  0.10722838758E+04  0.46999998093E+01 0. -1.
       -5    1    3    3    0  502 -0.99825223251E+03 -0.77070602097E+02  0.12899441140E+03  0.10095093093E+04  0.46999998093E+01 0.  1.
</event>
<event>
 5   0  0.1325673E-04  0.2110813E+04  0.7818609E-02  0.8556495E-01
        2   -1    0    0  501    0  0.00000000000E+00  0.00000000000E+00  0.15117501279E+04  0.15117501279E+04  0.25500000920E-02 0. -1.
       -2   -1    0    0    0  501  0.00000000000E+00  0.00000000000E+00 -0.73681646108E+03  0.73681646109E+03  0.25500000920E-02 0.  1.
    10030    2    1    2    0    0  0.00000000000E+00  0.00000000000E+00  0.77493366681E+03  0.22485665890E+04  0.21108125253E+04 0.  0.
        5    1    3    3  502    0  0.17383688970E+03  0.10374552759E+04  0.29627913729E+03  0.10928568666E+04  0.46999998093E+01 0.  1.
       -5    1    3    3    0  502 -0.17383688970E+03 -0.10374552759E+04  0.47865452952E+03  0.11557097224E+04  0.46999998093E+01 0. -1.
</event>
<event>
 5   0  0.1349252E-04  0.2098303E+04  0.7818609E-02  0.8561991E-01
        2   -1    0    0  501    0  0.00000000000E+00  0.00000000000E+00  0.23745019432E+04  0.23745019432E+04  0.25500000920E-02 0. -1.
       -2   -1    0    0    0  501  0.00000000000E+00  0.00000000000E+00 -0.46355798327E+03  0.46355798328E+03  0.25500000920E-02 0.  1.
    10030    2    1    2    0    0  0.00000000000E+00  0.00000000000E+00  0.19109439599E+04  0.28380599264E+04  0.20983034405E+04 0.  0.
        2    1    3    3  502    0 -0.87923212772E+03  0.11983576378E+03  0.17125490820E+04  0.19287908396E+04  0.25500000920E-02 0. -1.
       -2    1    3    3    0  502  0.87923212772E+03 -0.11983576378E+03  0.19839487790E+03  0.90926908684E+03  0.25500000920E-02 0.  1.
</event>
<event>
 5   0  0.1252477E-04  0.2131032E+04  0.7818609E-02  0.8547695E-01
       -2   -1    0    0    0  501  0.00000000000E+00  0.00000000000E+00  0.57298759829E+03  0.57298759829E+03  0.25500000920E-02 0. -1.
        2   -1    0    0  501    0  0.00000000000E+00  0.00000000000E+00 -0.19814120964E+04  0.19814120964E+04  0.25500000920E-02 0.  1.
    10030    2    1    2    0    0  0.00000000000E+00  0.00000000000E+00 -0.14084244981E+04  0.25543996947E+04  0.21310321990E+04 0.  0.
        4    1    3    3  502    0  0.82432165649E+03  0.11042581946E+03  0.94160703550E+02  0.83699934645E+03  0.12699999809E+01 0. -1.
       -4    1    3    3    0  502 -0.82432165649E+03 -0.11042581946E+03 -0.15025852016E+04  0.17174003482E+04  0.12699999809E+01 0.  1.
</event>
<event>
 5   0  0.6052292E-05  0.2095205E+04  0.7818609E-02  0.8563359E-01
        1   -1    0    0  501    0  0.00000000000E+00  0.00000000000E+00  0.17879275921E+04  0.17879275921E+04  0.50400001928E-02 0.  1.
       -1   -1    0    0    0  501  0.00000000000E+00  0.00000000000E+00 -0.61382295467E+03  0.61382295469E+03  0.50400001928E-02 0. -1.
    10030    2    1    2    0    0  0.00000000000E+00  0.00000000000E+00  0.11741046374E+04  0.24017505468E+04  0.20952049994E+04 0.  0.
        1    1    3    3  502    0  0.70755393986E+02  0.10392269907E+04  0.71506950177E+03  0.12634569468E+04  0.50400001928E-02 0. -1.
       -1    1    3    3    0  502 -0.70755393986E+02 -0.10392269907E+04  0.45903513568E+03  0.11382936000E+04  0.50400001928E-02 0.  1.
</event>
<event>
 5   0  0.6052292E-05  0.2092954E+04  0.7818609E-02  0.8564354E-01
        1   -1    0    0  501    0  0.00000000000E+00  0.00000000000E+00  0.21832887615E+04  0.21832887615E+04  0.50400001928E-02 0. -1.
       -1   -1    0    0    0  501  0.00000000000E+00  0.00000000000E+00 -0.50158906066E+03  0.50158906068E+03  0.50400001928E-02 0.  1.
    10030    2    1    2    0    0  0.00000000000E+00  0.00000000000E+00  0.16816997009E+04  0.26848778222E+04  0.20929536632E+04 0.  0.
        1    1    3    3  502    0  0.14732921683E+03 -0.42981507803E+03 -0.36845113407E+03  0.58498131394E+03  0.50400001928E-02 0.  1.
       -1    1    3    3    0  502 -0.14732921683E+03  0.42981507803E+03  0.20501508349E+04  0.20998965083E+04  0.50400001928E-02 0. -1.
</event>
<event>
 5   0  0.6221148E-05  0.2113428E+04  0.7818609E-02  0.8555351E-01
        1   -1    0    0  501    0  0.00000000000E+00  0.00000000000E+00  0.10812791647E+04  0.10812791647E+04  0.50400001928E-02 0.  1.
       -1   -1    0    0    0  501  0.00000000000E+00  0.00000000000E+00 -0.10327065736E+04  0.10327065736E+04  0.50400001928E-02 0. -1.
    10030    2    1    2    0    0  0.00000000000E+00  0.00000000000E+00  0.48572591098E+02  0.21139857382E+04  0.21134276436E+04 0.  0.
        3    1    3    3  502    0 -0.28038015008E+02  0.93107301925E+02  0.10767946427E+04  0.10811761248E+04  0.10100000352E+00 0.  1.
       -3    1    3    3    0  502  0.28038015008E+02 -0.93107301925E+02 -0.10282220516E+04  0.10328096135E+04  0.10100000352E+00 0. -1.
</event>
<event>
 5   0  0.1235817E-04  0.2134754E+04  0.7818609E-02  0.8546087E-01
        2   -1    0    0  501    0  0.00000000000E+00  0.00000000000E+00  0.20989237699E+04  0.20989237699E+04  0.25500000920E-02 0.  1.
       -2   -1    0    0    0  501  0.00000000000E+00  0.00000000000E+00 -0.54279892441E+03  0.54279892441E+03  0.25500000920E-02 0. -1.
    10030    2    1    2    0    0  0.00000000000E+00  0.00000000000E+00  0.15561248455E+04  0.26417226943E+04  0.21347539106E+04 0.  0.
        1    1    3    3  502    0  0.58304260305E+03 -0.87673450683E+03  0.99485699844E+03  0.14485656767E+04  0.50400001928E-02 0.  1.
       -1    1    3    3    0  502 -0.58304260305E+03  0.87673450683E+03  0.56126784705E+03  0.11931570176E+04  0.50400001928E-02 0. -1.
</event>
<event>
 5   0  0.4615125E-05  0.2077601E+04  0.7818609E-02  0.8571175E-01
        3   -1    0    0  501    0  0.00000000000E+00  0.00000000000E+00  0.85335697119E+03  0.85335697716E+03  0.10100000352E+00 0. -1.
       -3   -1    0    0    0  501  0.00000000000E+00  0.00000000000E+00 -0.12645431526E+04  0.12645431566E+04  0.10100000352E+00 0.  1.
    10030    2    1    2    0    0  0.00000000000E+00  0.00000000000E+00 -0.41118618142E+03  0.21179001338E+04  0.20776012372E+04 0.  0.
        3    1    3    3  502    0 -0.47124647336E+03  0.74868862073E+03  0.34948587613E+03  0.95118256780E+03  0.10100000352E+00 0. -1.
       -3    1    3    3    0  502  0.47124647336E+03 -0.74868862073E+03 -0.76067205755E+03  0.11667175660E+04  0.10100000352E+00 0.  1.
</event>
<event>
 5   0  0.1252477E-04  0.2208605E+04  0.7818609E-02  0.8514855E-01
       -2   -1    0    0    0  501  0.00000000000E+00  0.00000000000E+00  0.91155262516E+03  0.91155262517E+03  0.25500000920E-02 0. -1.
        2   -1    0    0  501    0  0.00000000000E+00  0.00000000000E+00 -0.13378103331E+04  0.13378103331E+04  0.25500000920E-02 0.  1.
    10030    2    1    2    0    0  0.00000000000E+00  0.00000000000E+00 -0.42625770789E+03  0.22493629582E+04  0.22086054614E+04 0.  0.
        4    1    3    3  502    0  0.81361632228E+03 -0.52140722476E+03  0.33119252272E+03  0.10215317489E+04  0.12699999809E+01 0. -1.
       -4    1    3    3    0  502 -0.81361632228E+03  0.52140722476E+03 -0.75745023061E+03  0.12278312094E+04  0.12699999809E+01 0.  1.
</event>
<event>
 5   0  0.6263616E-05  0.2107545E+04  0.7818609E-02  0.8557927E-01
       -1   -1    0    0    0  501  0.00000000000E+00  0.00000000000E+00  0.47489210433E+03  0.47489210436E+03  0.50400001928E-02 0. -1.
        1   -1    0    0  501    0  0.00000000000E+00  0.00000000000E+00 -0.23382924367E+04  0.23382924367E+04  0.50400001928E-02 0.  1.
    10030    2    1    2    0    0  0.00000000000E+00  0.00000000000E+00 -0.18634003324E+04  0.28131845411E+04  0.21075451273E+04 0.  0.
        4    1    3    3  502    0 -0.10025839759E+04  0.17247197978E+03 -0.56489581834E+03  0.11636279951E+04  0.12699999809E+01 0. -1.
       -4    1    3    3    0  502  0.10025839759E+04 -0.17247197978E+03 -0.12985045140E+04  0.16495565460E+04  0.12699999809E+01 0.  1.
</event>
<event>
 5   0  0.5846187E-05  0.2092321E+04  0.7818609E-02  0.8564634E-01
        1   -1    0    0  501    0  0.00000000000E+00  0.00000000000E+00  0.45834633157E+03  0.45834633160E+03  0.50400001928E-02 0. -1.
       -1   -1    0    0    0  501  0.00000000000E+00  0.00000000000E+00 -0.23878267969E+04  0.23878267969E+04  0.50400001928E-02 0.  1.
    10030    2    1    2    0    0  0.00000000000E+00  0.00000000000E+00 -0.19294804653E+04  0.28461731285E+04  0.20923208672E+04 0.  0.
        5    1    3    3  502    0  0.58917868835E+03  0.33937073899E+03 -0.20462605827E+04  0.21562718956E+04  0.46999998093E+01 0.  1.
       -5    1    3    3    0  502 -0.58917868835E+03 -0.33937073899E+03  0.11678011743E+03  0.68990123287E+03  0.46999998093E+01 0. -1.
</event>
<event>
 5   0  0.1235817E-04  0.1920681E+04  0.7818609E-02  0.8644630E-01
       -2   -1    0    0    0  501  0.00000000000E+00  0.00000000000E+00  0.44975093216E+03  0.44975093217E+03  0.25500000920E-02 0. -1.
        2   -1    0    0  501    0  0.00000000000E+00  0.00000000000E+00 -0.20505876568E+04  0.20505876568E+04  0.25500000920E-02 0.  1.
    10030    2    1    2    0    0  0.00000000000E+00  0.00000000000E+00 -0.16008367247E+04  0.25003385890E+04  0.19206808274E+04 0.  0.
        1    1    3    3  502    0  0.42526070931E+03 -0.30464725705E+03  0.24799155315E+03  0.57892696653E+03  0.50400001928E-02 0. -1.
       -1    1    3    3    0  502 -0.42526070931E+03  0.30464725705E+03 -0.18488282778E+04  0.19214116225E+04  0.50400001928E-02 0.  1.
</event>
<event>
 5   0  0.6221148E-05  0.2160598E+04  0.7818609E-02  0.8535009E-01
       -1   -1    0    0    0  501  0.00000000000E+00  0.00000000000E+00  0.71477805894E+03  0.71477805895E+03  0.50400001928E-02 0.  1.
        1   -1    0    0  501    0  0.00000000000E+00  0.00000000000E+00 -0.16327390965E+04  0.16327390965E+04  0.50400001928E-02 0. -1.
    10030    2    1    2    0    0  0.00000000000E+00  0.00000000000E+00 -0.91796103755E+03  0.23475171554E+04  0.21605981414E+04 0.  0.
        3    1    3    3  502    0  0.42283449709E+03  0.99058257331E+03 -0.54990562798E+03  0.12093134649E+04  0.10100000352E+00 0.  1.
       -3    1    3    3    0  502 -0.42283449709E+03 -0.99058257331E+03 -0.36805540958E+03  0.11382036906E+04  0.10100000352E+00 0. -1.
</event>
<event>
 5   0  0.1349252E-04  0.2076858E+04  0.7818609E-02  0.8571507E-01
        2   -1    0    0  501    0  0.00000000000E+00  0.00000000000E+00  0.18984143604E+04  0.18984143604E+04  0.25500000920E-02 0. -1.
       -2   -1    0    0    0  501  0.00000000000E+00  0.00000000000E+00 -0.56801857978E+03  0.56801857979E+03  0.25500000920E-02 0.  1.
    10030    2    1    2    0    0  0.00000000000E+00  0.00000000000E+00  0.13303957806E+04  0.24664329402E+04  0.20768578467E+04 0.  0.
        2    1    3    3  502    0 -0.89129781430E+03  0.12335096775E+03  0.12808031652E+04  0.15652744178E+04  0.25500000920E-02 0. -1.
       -2    1    3    3    0  502  0.89129781430E+03 -0.12335096775E+03  0.49592615459E+02  0.90115852243E+03  0.25500000920E-02 0.  1.
</event>
<event>
 5   0  0.1349252E-04  0.2085497E+04  0.7818609E-02  0.8567659E-01
        2   -1    0    0  501    0  0.00000000000E+00  0.00000000000E+00  0.69462247368E+03  0.69462247368E+03  0.25500000920E-02 0. -1.
       -2   -1    0    0    0  501  0.00000000000E+00  0.00000000000E+00 -0.15653455234E+04  0.15653455234E+04  0.25500000920E-02 0.  1.
    10030    2    1    2    0    0  0.00000000000E+00  0.00000000000E+00 -0.87072304975E+03  0.22599679971E+04  0.20854967558E+04 0.  0.
        2    1    3    3  502    0  0.35955716769E+03  0.52675134243E+03  0.45862513136E+03  0.78554779913E+03  0.25500000920E-02 0. -1.
       -2    1    3    3    0  502 -0.35955716769E+03 -0.52675134243E+03 -0.13293481811E+04  0.14744201980E+04  0.25500000920E-02 0.  1.
</event>
<event>
 5   0  0.1252477E-04  0.2093112E+04  0.7818609E-02  0.8564284E-01
       -2   -1    0    0    0  501  0.00000000000E+00  0.00000000000E+00  0.76094213650E+03  0.76094213650E+03  0.25500000920E-02 0.  1.
        2   -1    0    0  501    0  0.00000000000E+00  0.00000000000E+00 -0.14393730601E+04  0.14393730601E+04  0.25500000920E-02 0. -1.
    10030    2    1    2    0    0  0.00000000000E+00  0.00000000000E+00 -0.67843092363E+03  0.22003151966E+04  0.20931121438E+04 0.  0.
        4    1    3    3  502    0 -0.88985120982E+03  0.21415371270E+03 -0.87273376369E+03  0.12646591728E+04  0.12699999809E+01 0. -1.
       -4    1    3    3    0  502  0.88985120982E+03 -0.21415371270E+03  0.19430284006E+03  0.93565602378E+03  0.12699999809E+01 0.  1.
</event>
<event>
 5   0  0.1281470E-04  0.2143954E+04  0.7818609E-02  0.8542125E-01
       -2   -1    0    0    0  501  0.00000000000E+00  0.00000000000E+00  0.63591817572E+03  0.63591817573E+03  0.25500000920E-02 0. -1.
        2   -1    0    0  501    0  0.00000000000E+00  0.00000000000E+00 -0.18070479003E+04  0.18070479003E+04  0.25500000920E-02 0.  1.
    10030    2    1    2    0    0  0.00000000000E+00  0.00000000000E+00 -0.11711297245E+04  0.24429660760E+04  0.21439539213E+04 0.  0.
        3    1    3    3  502    0 -0.77366675716E+03  0.21266238533E+03  0.22445882146E+03  0.83316703848E+03  0.10100000352E+00 0. -1.
       -3    1    3    3    0  502  0.77366675716E+03 -0.21266238533E+03 -0.13955885460E+04  0.16097990375E+04  0.10100000352E+00 0.  1.
</event>
<event>
 5   0  0.1235817E-04  0.2090415E+04  0.7818609E-02  0.8565477E-01
       -2   -1    0    0    0  501  0.00000000000E+00  0.00000000000E+00  0.94077956569E+03  0.94077956569E+03  0.25500000920E-02 0. -1.
        2   -1    0    0  501    0  0.00000000000E+00  0.00000000000E+00 -0.11612270143E+04  0.11612270143E+04  0.25500000920E-02 0.  1.
    10030    2    1    2    0    0  0.00000000000E+00  0.00000000000E+00 -0.22044744858E+03  0.21020065800E+04  0.20904149312E+04 0.  0.
        1    1    3    3  502    0 -0.46214437382E+03 -0.70296381086E+02 -0.10502549764E+04  0.11495888477E+04  0.50400001928E-02 0.  1.
       -1    1    3    3    0  502  0.46214437382E+03  0.70296381086E+02  0.82980752779E+03  0.95241773222E+03  0.50400001928E-02 0. -1.
</event>
<event>
 5   0  0.1325673E-04  0.1874351E+04  0.7818609E-02  0.8667730E-01
       -2   -1    0    0    0  501  0.00000000000E+00  0.00000000000E+00  0.94650326325E+03  0.94650326326E+03  0.25500000920E-02 0.  1.
        2   -1    0    0  501    0  0.00000000000E+00  0.00000000000E+00 -0.92793936602E+03  0.92793936603E+03  0.25500000920E-02 0. -1.
    10030    2    1    2    0    0  0.00000000000E+00  0.00000000000E+00  0.18563897232E+02  0.18744426293E+04  0.18743507015E+04 0.  0.
        5    1    3    3  502    0  0.26773975900E+03  0.34955882648E+03 -0.81804309689E+03  0.92902774452E+03  0.46999998093E+01 0. -1.
       -5    1    3    3    0  502 -0.26773975900E+03 -0.34955882648E+03  0.83660699412E+03  0.94541488476E+03  0.46999998093E+01 0.  1.
</event>
<event>
 5   0  0.6263616E-05  0.2092116E+04  0.7818609E-02  0.8564724E-01
       -1   -1    0    0    0  501  0.00000000000E+00  0.00000000000E+00  0.59804864247E+03  0.59804864249E+03  0.50400001928E-02 0. -1.
        1   -1    0    0  501    0  0.00000000000E+00  0.00000000000E+00 -0.18296795554E+04  0.18296795554E+04  0.50400001928E-02 0.  1.
    10030    2    1    2    0    0  0.00000000000E+00  0.00000000000E+00 -0.12316309129E+04  0.24277281979E+04  0.20921160334E+04 0.  0.
        4    1    3    3  502    0  0.44475603051E+03  0.94442068661E+03 -0.69363615460E+03  0.12533439623E+04  0.12699999809E+01 0. -1.
       -4    1    3    3    0  502 -0.44475603051E+03 -0.94442068661E+03 -0.53799475834E+03  0.11743842356E+04  0.12699999809E+01 0.  1.
</event>
<event>
 5   0  0.5846187E-05  0.2133795E+04  0.7818609E-02  0.8546501E-01
       -1   -1    0    0    0  501  0.00000000000E+00  0.00000000000E+00  0.63262579516E+03  0.63262579518E+03  0.50400001928E-02 0.  1.
        1   -1    0    0  501    0  0.00000000000E+00  0.00000000000E+00 -0.17992789618E+04  0.17992789618E+04  0.50400001928E-02 0. -1.
    10030    2    1    2    0    0  0.00000000000E+00  0.00000000000E+00 -0.11666531666E+04  0.24319047570E+04  0.21337950079E+04 0.  0.
        5    1    3    3  502    0 -0.72106069083E+02  0.48544606169E+03 -0.16629809101E+04  0.17338929498E+04  0.46999998093E+01 0. -1.
       -5    1    3    3    0  502  0.72106069083E+02 -0.48544606169E+03  0.49632774348E+03  0.69801180717E+03  0.46999998093E+01 0.  1.
</event>
<event>
 5   0  0.1252477E-04  0.2076534E+04  0.7818609E-02  0.8571652E-01
        2   -1    0    0  501    0  0.00000000000E+00  0.00000000000E+00  0.14215779001E+04  0.14215779001E+04  0.25500000920E-02 0. -1.
       -2   -1    0    0    0  501  0.00000000000E+00  0.00000000000E+00 -0.75831085010E+03  0.75831085011E+03  0.25500000920E-02 0.  1.
    10030    2    1    2    0    0  0.00000000000E+00  0.00000000000E+00  0.66326704998E+03  0.21798887502E+04  0.20765335980E+04 0.  0.
        4    1    3    3  502    0 -0.79271042073E+03  0.16193354270E+02  0.10353293670E+04  0.13040554233E+04  0.12699999809E+01 0. -1.
       -4    1    3    3    0  502  0.79271042073E+03 -0.16193354270E+02 -0.37206231705E+03  0.87583332691E+03  0.12699999809E+01 0.  1.
</event>
<event>
 5   0  0.1349252E-04  0.2089325E+04  0.7818609E-02  0.8565960E-01
       -2   -1    0    0    0  501  0.00000000000E+00  0.00000000000E+00  0.10672549495E+04  0.10672549495E+04  0.25500000920E-02 0.  1.
        2   -1    0    0  501    0  0.00000000000E+00  0.00000000000E+00 -0.10225486006E+04  0.10225486006E+04  0.25500000920E-02 0. -1.
    10030    2    1    2    0    0  0.00000000000E+00  0.00000000000E+00  0.44706348891E+02  0.20898035501E+04  0.20893253027E+04 0.  0.
        2    1    3    3  502    0 -0.25586724641E+03  0.86547942029E+03 -0.50388262152E+03  0.10336442188E+04  0.25500000920E-02 0. -1.
       -2    1    3    3    0  502  0.25586724641E+03 -0.86547942029E+03  0.54858897041E+03  0.10561593314E+04  0.25500000920E-02 0.  1.
</event>
<event>
 5   0  0.5846187E-05  0.2101906E+04  0.7818609E-02  0.8560404E-01
        1   -1    0    0  501    0  0.00000000000E+00  0.00000000000E+00  0.18445465253E+04  0.18445465253E+04  0.50400001928E-02 0. -1.
       -1   -1    0    0    0  501  0.00000000000E+00  0.00000000000E+00 -0.59879350118E+03  0.59879350120E+03  0.50400001928E-02 0.  1.
    10030    2    1    2    0    0  0.00000000000E+00  0.00000000000E+00  0.12457530241E+04  0.24433400265E+04  0.21019062510E+04 0.  0.
        5    1    3    3  502    0 -0.16987398274E+03  0.10343838945E+04  0.71043202525E+03  0.12663107690E+04  0.46999998093E+01 0. -1.
       -5    1    3    3    0  502  0.16987398274E+03 -0.10343838945E+04  0.53532099888E+03  0.11770292575E+04  0.46999998093E+01 0.  1.
</event>
<event>
 5   0  0.5933905E-05  0.2114684E+04  0.7818609E-02  0.8554803E-01
        1   -1    0    0  501    0  0.00000000000E+00  0.00000000000E+00  0.70956568668E+03  0.70956568670E+03  0.50400001928E-02 0.  1.
       -1   -1    0    0    0  501  0.00000000000E+00  0.00000000000E+00 -0.15755716824E+04  0.15755716824E+04  0.50400001928E-02 0. -1.
    10030    2    1    2    0    0  0.00000000000E+00  0.00000000000E+00 -0.86600599576E+03  0.22851373691E+04  0.21146835251E+04 0.  0.
        2    1    3    3  502    0  0.53180429048E+03  0.19305388311E+03 -0.13982475350E+04  0.15083705693E+04  0.25500000920E-02 0. -1.
       -2    1    3    3    0  502 -0.53180429048E+03 -0.19305388311E+03  0.53224153929E+03  0.77676679982E+03  0.25500000920E-02 0.  1.
</event>
<event>
 5   0  0.1325673E-04  0.2134434E+04  0.7818609E-02  0.8546225E-01
        2   -1    0    0  501    0  0.00000000000E+00  0.00000000000E+00  0.13258121112E+04  0.13258121112E+04  0.25500000920E-02 0.  1.
       -2   -1    0    0    0  501  0.00000000000E+00  0.00000000000E+00 -0.85906000957E+03  0.85906000958E+03  0.25500000920E-02 0. -1.
    10030    2    1    2    0    0  0.00000000000E+00  0.00000000000E+00  0.46675210159E+03  0.21848721207E+04  0.21344340373E+04 0.  0.
        5    1    3    3  502    0  0.37981240769E+03 -0.88300451298E+03  0.70798717187E+03  0.11938267716E+04  0.46999998093E+01 0.  1.
       -5    1    3    3    0  502 -0.37981240769E+03  0.88300451298E+03 -0.24123507028E+03  0.99104534917E+03  0.46999998093E+01 0. -1.
</event>
<event>
 5   0  0.5933905E-05  0.2095422E+04  0.7818609E-02  0.8563263E-01
        1   -1    0    0  501    0  0.00000000000E+00  0.00000000000E+00  0.17253233092E+04  0.17253233093E+04  0.50400001928E-02 0.  1.
       -1   -1    0    0    0  501  0.00000000000E+00  0.00000000000E+00 -0.63622778432E+03  0.63622778434E+03  0.50400001928E-02 0. -1.
    10030    2    1    2    0    0  0.00000000000E+00  0.00000000000E+00  0.10890955249E+04  0.23615510936E+04  0.20954222737E+04 0.  0.
        2    1    3    3  502    0 -0.76688700049E+03 -0.64398772579E+03  0.89166299874E+03  0.13408574741E+04  0.25500000920E-02 0. -1.
       -2    1    3    3    0  502  0.76688700049E+03  0.64398772579E+03  0.19743252618E+03  0.10206936195E+04  0.25500000920E-02 0.  1.
</event>
<event>
 5   0  0.6221148E-05  0.2176906E+04  0.7818609E-02  0.8528102E-01
        1   -1    0    0  501    0  0.00000000000E+00  0.00000000000E+00  0.15557145219E+04  0.15557145219E+04  0.50400001928E-02 0. -1.
       -1   -1    0    0    0  501  0.00000000000E+00  0.00000000000E+00 -0.76153417466E+03  0.76153417467E+03  0.50400001928E-02 0.  1.
    10030    2    1    2    0    0  0.00000000000E+00  0.00000000000E+00  0.79418034721E+03  0.23172486965E+04  0.21769058541E+04 0.  0.
        3    1    3    3  502    0 -0.61416653257E+03  0.19743413394E+02  0.13534190769E+04  0.14863827031E+04  0.10100000352E+00 0. -1.
       -3    1    3    3    0  502  0.61416653257E+03 -0.19743413394E+02 -0.55923872969E+03  0.83086599346E+03  0.10100000352E+00 0.  1.
</event>
<event>
 5   0  0.6052292E-05  0.2094372E+04  0.7818609E-02  0.8563727E-01
       -1   -1    0    0    0  501  0.00000000000E+00  0.00000000000E+00  0.11799726078E+04  0.11799726078E+04  0.50400001928E-02 0.  1.
        1   -1    0    0  501    0  0.00000000000E+00  0.00000000000E+00 -0.92934238857E+03  0.92934238859E+03  0.50400001928E-02 0. -1.
    10030    2    1    2    0    0  0.00000000000E+00  0.00000000000E+00  0.25063021919E+03  0.21093149964E+04  0.20943720412E+04 0.  0.
        1    1    3    3  502    0  0.13056404150E+03 -0.10379905850E+04  0.78865136782E+02  0.10491382813E+04  0.50400001928E-02 0. -1.
       -1    1    3    3    0  502 -0.13056404150E+03  0.10379905850E+04  0.17176508241E+03  0.10601767150E+04  0.50400001928E-02 0.  1.
</event>
<event>
 5   0  0.1235817E-04  0.2109777E+04  0.7818609E-02  0.8556949E-01
       -2   -1    0    0    0  501  0.00000000000E+00  0.00000000000E+00  0.42330185135E+03  0.42330185136E+03  0.25500000920E-02 0. -1.
        2   -1    0    0  501    0  0.00000000000E+00  0.00000000000E+00 -0.26288333312E+04  0.26288333312E+04  0.25500000920E-02 0.  1.
    10030    2    1    2    0    0  0.00000000000E+00  0.00000000000E+00 -0.22055314798E+04  0.30521351825E+04  0.21097772546E+04 0.  0.
        1    1    3    3  502    0 -0.70428681347E+03  0.76614457037E+03 -0.85306412865E+03  0.13456284130E+04  0.50400001928E-02 0. -1.
       -1    1    3    3    0  502  0.70428681347E+03 -0.76614457037E+03 -0.13524673512E+04  0.17065067695E+04  0.50400001928E-02 0.  1.
</event>
<event>
 5   0  0.4615125E-05  0.2096311E+04  0.7818609E-02  0.8562870E-01
       -3   -1    0    0    0  501  0.00000000000E+00  0.00000000000E+00  0.94855085919E+03  0.94855086457E+03  0.10100000352E+00 0.  1.
        3   -1    0    0  501    0  0.00000000000E+00  0.00000000000E+00 -0.11582195489E+04  0.11582195533E+04  0.10100000352E+00 0. -1.
    10030    2    1    2    0    0  0.00000000000E+00  0.00000000000E+00 -0.20966868971E+03  0.21067704179E+04  0.20963111969E+04 0.  0.
        5    1    3    3  502    0 -0.18854076708E+03  0.10310096649E+04 -0.11379615216E+03  0.10542771003E+04  0.46999998093E+01 0. -1.
       -5    1    3    3    0  502  0.18854076708E+03 -0.10310096649E+04 -0.95872537555E+02  0.10524933176E+04  0.46999998093E+01 0.  1.
</event>
<event>
 5   0  0.1281470E-04  0.1672386E+04  0.7818609E-02  0.8777272E-01
        2   -1    0    0  501    0  0.00000000000E+00  0.00000000000E+00  0.63449786591E+03  0.63449786591E+03  0.25500000920E-02 0.  1.
       -2   -1    0    0    0  501  0.00000000000E+00  0.00000000000E+00 -0.11020036160E+04  0.11020036160E+04  0.25500000920E-02 0. -1.
    10030    2    1    2    0    0  0.00000000000E+00  0.00000000000E+00 -0.46750575008E+03  0.17365014819E+04  0.16723862503E+04 0.  0.
        3    1    3    3  502    0 -0.24394151817E+03 -0.57881385270E+03  0.33939252861E+03  0.71394694414E+03  0.10100000352E+00 0.  1.
       -3    1    3    3    0  502  0.24394151817E+03  0.57881385270E+03 -0.80689827869E+03  0.10225545378E+04  0.10100000352E+00 0. -1.
</event>
<event>
 5   0  0.1325673E-04  0.2132468E+04  0.7818609E-02  0.8547074E-01
       -2   -1    0    0    0  501  0.00000000000E+00  0.00000000000E+00  0.15314992788E+04  0.15314992788E+04  0.25500000920E-02 0.  1.
        2   -1    0    0  501    0  0.00000000000E+00  0.00000000000E+00 -0.74231525826E+03  0.74231525827E+03  0.25500000920E-02 0. -1.
    10030    2    1    2    0    0  0.00000000000E+00  0.00000000000E+00  0.78918402052E+03  0.22738145371E+04  0.21324683188E+04 0.  0.
        5    1    3    3  502    0  0.79523206389E+03  0.48236974696E+03  0.95045029992E+03  0.13298317453E+04  0.46999998093E+01 0.  1.
       -5    1    3    3    0  502 -0.79523206389E+03 -0.48236974696E+03 -0.16126627940E+03  0.94398279174E+03  0.46999998093E+01 0. -1.
</event>
<event>
 5   0  0.1252477E-04  0.2166966E+04  0.7818609E-02  0.8532305E-01
        2   -1    0    0  501    0  0.00000000000E+00  0.00000000000E+00  0.11866096764E+04  0.11866096764E+04  0.25500000920E-02 0. -1.
       -2   -1    0    0    0  501  0.00000000000E+00  0.00000000000E+00 -0.98931877212E+03  0.98931877212E+03  0.25500000920E-02 0.  1.
    10030    2    1    2    0    0  0.00000000000E+00  0.00000000000E+00  0.19729090427E+03  0.21759284485E+04  0.21669658309E+04 0.  0.
        4    1    3    3  502    0 -0.28568316340E+03  0.17413242398E+03  0.11334399698E+04  0.11817887920E+04  0.12699999809E+01 0. -1.
       -4    1    3    3    0  502  0.28568316340E+03 -0.17413242398E+03 -0.93614906550E+03  0.99413965652E+03  0.12699999809E+01 0.  1.
</event>
<event>
 5   0  0.1235817E-04  0.2087521E+04  0.7818609E-02  0.8566761E-01
       -2   -1    0    0    0  501  0.00000000000E+00  0.00000000000E+00  0.11999290017E+04  0.11999290017E+04  0.25500000920E-02 0. -1.
        2   -1    0    0  501    0  0.00000000000E+00  0.00000000000E+00 -0.90791664630E+03  0.90791664630E+03  0.25500000920E-02 0.  1.
    10030    2    1    2    0    0  0.00000000000E+00  0.00000000000E+00  0.29201235543E+03  0.21078456480E+04  0.20875205532E+04 0.  0.
        1    1    3    3  502    0 -0.93678230368E+03  0.96398733524E+02  0.60047926103E+03  0.11168836749E+04  0.50400001928E-02 0. -1.
       -1    1    3    3    0  502  0.93678230368E+03 -0.96398733524E+02 -0.30846690560E+03  0.99096197313E+03  0.50400001928E-02 0.  1.
</event>
<event>
 5   0  0.5933905E-05  0.2057371E+04  0.7818609E-02  0.8580258E-01
        1   -1    0    0  501    0  0.00000000000E+00  0.00000000000E+00  0.54229993328E+03  0.54229993331E+03  0.50400001928E-02 0. -1.
       -1   -1    0    0    0  501  0.00000000000E+00  0.00000000000E+00 -0.19513079378E+04  0.19513079378E+04  0.50400001928E-02 0.  1.
    10030    2    1    2    0    0  0.00000000000E+00  0.00000000000E+00 -0.14090080045E+04  0.24936078711E+04  0.20573712981E+04 0.  0.
        2    1    3    3  502    0  0.54281417161E+03  0.65889706385E+03 -0.14001340527E+04  0.16398682664E+04  0.25500000920E-02 0.  1.
       -2    1    3    3    0  502 -0.54281417161E+03 -0.65889706385E+03 -0.88739518395E+01  0.85373960472E+03  0.25500000920E-02 0. -1.
</event>
<event>
 5   0  0.6221148E-05  0.2115565E+04  0.7818609E-02  0.8554418E-01
       -1   -1    0    0    0  501  0.00000000000E+00  0.00000000000E+00  0.21471455135E+04  0.21471455135E+04  0.50400001928E-02 0. -1.
        1   -1    0    0  501    0  0.00000000000E+00  0.00000000000E+00 -0.52111246550E+03  0.52111246553E+03  0.50400001928E-02 0.  1.
    10030    2    1    2    0    0  0.00000000000E+00  0.00000000000E+00  0.16260330480E+04  0.26682579790E+04  0.21155654491E+04 0.  0.
        3    1    3    3  502    0 -0.57229034588E+03 -0.60615329916E+03 -0.82175845565E+01  0.83366995926E+03  0.10100000352E+00 0.  1.
       -3    1    3    3    0  502  0.57229034588E+03  0.60615329916E+03  0.16342506325E+04  0.18345880197E+04  0.10100000352E+00 0. -1.
</event>
<event>
 5   0  0.1281470E-04  0.2122150E+04  0.7818609E-02  0.8551548E-01
        2   -1    0    0  501    0  0.00000000000E+00  0.00000000000E+00  0.14263616130E+04  0.14263616130E+04  0.25500000920E-02 0.  1.
       -2   -1    0    0    0  501  0.00000000000E+00  0.00000000000E+00 -0.78933710778E+03  0.78933710779E+03  0.25500000920E-02 0. -1.
    10030    2    1    2    0    0  0.00000000000E+00  0.00000000000E+00  0.63702450521E+03  0.22156987208E+04  0.21221499949E+04 0.  0.
        3    1    3    3  502    0 -0.68410949738E+03 -0.78368704926E+03  0.10022931511E+03  0.10450919201E+04  0.10100000352E+00 0.  1.
       -3    1    3    3    0  502  0.68410949738E+03  0.78368704926E+03  0.53679519010E+03  0.11706068007E+04  0.10100000352E+00 0. -1.
</event>
<event>
 5   0  0.1281470E-04  0.1636505E+04  0.7818609E-02  0.8798430E-01
        2   -1    0    0  501    0  0.00000000000E+00  0.00000000000E+00  0.45032034070E+03  0.45032034071E+03  0.25500000920E-02 0. -1.
       -2   -1    0    0    0  501  0.00000000000E+00  0.00000000000E+00 -0.14868018946E+04  0.14868018946E+04  0.25500000920E-02 0.  1.
    10030    2    1    2    0    0  0.00000000000E+00  0.00000000000E+00 -0.10364815539E+04  0.19371222353E+04  0.16365049780E+04 0.  0.
        3    1    3    3  502    0 -0.74535666513E+03 -0.97063337491E+02 -0.90099587044E+03  0.11733590322E+04  0.10100000352E+00 0.  1.
       -3    1    3    3    0  502  0.74535666513E+03  0.97063337491E+02 -0.13548568343E+03  0.76376320307E+03  0.10100000352E+00 0. -1.
</event>
<event>
 5   0  0.5933905E-05  0.2136274E+04  0.7818609E-02  0.8545431E-01
        1   -1    0    0  501    0  0.00000000000E+00  0.00000000000E+00  0.16267907800E+04  0.16267907800E+04  0.50400001928E-02 0.  1.
       -1   -1    0    0    0  501  0.00000000000E+00  0.00000000000E+00 -0.70132941546E+03  0.70132941548E+03  0.50400001928E-02 0. -1.
    10030    2    1    2    0    0  0.00000000000E+00  0.00000000000E+00  0.92546136450E+03  0.23281201955E+04  0.21362736031E+04 0.  0.
        2    1    3    3  502    0 -0.81810076893E+03 -0.33123397068E+02 -0.28482281083E+03  0.86689679959E+03  0.25500000920E-02 0. -1.
       -2    1    3    3    0  502  0.81810076893E+03  0.33123397068E+02  0.12102841753E+04  0.14612233959E+04  0.25500000920E-02 0.  1.
</event>
<event>
 5   0  0.6052292E-05  0.2112294E+04  0.7818609E-02  0.8555847E-01
       -1   -1    0    0    0  501  0.00000000000E+00  0.00000000000E+00  0.63784853630E+03  0.63784853632E+03  0.50400001928E-02 0.  1.
        1   -1    0    0  501    0  0.00000000000E+00  0.00000000000E+00 -0.17487644983E+04  0.17487644983E+04  0.50400001928E-02 0. -1.
    10030    2    1    2    0    0  0.00000000000E+00  0.00000000000E+00 -0.11109159620E+04  0.23866130347E+04  0.21122943693E+04 0.  0.
        1    1    3    3  502    0 -0.23667636952E+03  0.29957570102E+03 -0.16680681720E+04  0.17112021304E+04  0.50400001928E-02 0. -1.
       -1    1    3    3    0  502  0.23667636952E+03 -0.29957570102E+03  0.55715220997E+03  0.67541090429E+03  0.50400001928E-02 0.  1.
</event>
<event>
 5   0  0.1325673E-04  0.2259943E+04  0.7818609E-02  0.8493885E-01
        2   -1    0    0  501    0  0.00000000000E+00  0.00000000000E+00  0.14611627151E+04  0.14611627151E+04  0.25500000920E-02 0. -1.
       -2   -1    0    0    0  501  0.00000000000E+00  0.00000000000E+00 -0.87384916935E+03  0.87384916936E+03  0.25500000920E-02 0.  1.
    10030    2    1    2    0    0  0.00000000000E+00  0.00000000000E+00  0.58731354573E+03  0.23350118844E+04  0.22599432071E+04 0.  0.
        5    1    3    3  502    0 -0.59670406226E+03 -0.95273939443E+02  0.12801928953E+04  0.14156443059E+04  0.46999998093E+01 0. -1.
       -5    1    3    3    0  502  0.59670406226E+03  0.95273939443E+02 -0.69287934960E+03  0.91936757859E+03  0.46999998093E+01 0.  1.
</event>
<event>
 5   0  0.6263616E-05  0.2083848E+04  0.7818609E-02  0.8568392E-01
       -1   -1    0    0    0  501  0.00000000000E+00  0.00000000000E+00  0.10763685160E+04  0.10763685160E+04  0.50400001928E-02 0.  1.
        1   -1    0    0  501    0  0.00000000000E+00  0.00000000000E+00 -0.10085816559E+04  0.10085816559E+04  0.50400001928E-02 0. -1.
    10030    2    1    2    0    0  0.00000000000E+00  0.00000000000E+00  0.67786860049E+02  0.20849501719E+04  0.20838479217E+04 0.  0.
        4    1    3    3  502    0 -0.78618536896E+03 -0.40379032684E+03 -0.51818631820E+03  0.10245256149E+04  0.12699999809E+01 0. -1.
       -4    1    3    3    0  502  0.78618536896E+03  0.40379032684E+03  0.58597317825E+03  0.10604245569E+04  0.12699999809E+01 0.  1.
</event>
<event>
 5   0  0.6052292E-05  0.2127253E+04  0.7818609E-02  0.8549332E-01
        1   -1    0    0  501    0  0.00000000000E+00  0.00000000000E+00  0.74377749649E+03  0.74377749650E+03  0.50400001928E-02 0.  1.
       -1   -1    0    0    0  501  0.00000000000E+00  0.00000000000E+00 -0.15210215243E+04  0.15210215243E+04  0.50400001928E-02 0. -1.
    10030    2    1    2    0    0  0.00000000000E+00  0.00000000000E+00 -0.77724402784E+03  0.22647990208E+04  0.21272532350E+04 0.  0.
        1    1    3    3  502    0 -0.99674384122E+02 -0.51407039016E+03  0.59703490670E+03  0.79413728582E+03  0.50400001928E-02 0.  1.
       -1    1    3    3    0  502  0.99674384122E+02  0.51407039016E+03 -0.13742789345E+04  0.14706617350E+04  0.50400001928E-02 0. -1.
</event>
<event>
 5   0  0.1252477E-04  0.1930705E+04  0.7818609E-02  0.8639722E-01
       -2   -1    0    0    0  501  0.00000000000E+00  0.00000000000E+00  0.11272118773E+04  0.11272118773E+04  0.25500000920E-02 0. -1.
        2   -1    0    0  501    0  0.00000000000E+00  0.00000000000E+00 -0.82673472945E+03  0.82673472945E+03  0.25500000920E-02 0.  1.
    10030    2    1    2    0    0  0.00000000000E+00  0.00000000000E+00  0.30047714789E+03  0.19539466068E+04  0.19307047485E+04 0.  0.
        4    1    3    3  502    0  0.24170438377E+03 -0.38084374980E+03 -0.71352305192E+03  0.84414437711E+03  0.12699999809E+01 0.  1.
       -4    1    3    3    0  502 -0.24170438377E+03  0.38084374980E+03  0.10140001998E+04  0.11098022297E+04  0.12699999809E+01 0. -1.
</event>
<event>
 5   0  0.6052292E-05  0.2029551E+04  0.7818609E-02  0.8592928E-01
        1   -1    0    0  501    0  0.00000000000E+00  0.00000000000E+00  0.13860341262E+04  0.13860341262E+04  0.50400001928E-02 0. -1.
       -1   -1    0    0    0  501  0.00000000000E+00  0.00000000000E+00 -0.74296117621E+03  0.74296117623E+03  0.50400001928E-02 0.  1.
    10030    2    1    2    0    0  0.00000000000E+00  0.00000000000E+00  0.64307294994E+03  0.21289953024E+04  0.20295512259E+04 0.  0.
        1    1    3    3  502    0 -0.32889905059E+03 -0.61334802409E+03  0.10962335538E+04  0.12984985131E+04  0.50400001928E-02 0. -1.
       -1    1    3    3    0  502  0.32889905059E+03  0.61334802409E+03 -0.45316060382E+03  0.83049678928E+03  0.50400001928E-02 0.  1.
</event>
<event>
 5   0  0.6052292E-05  0.2158827E+04  0.7818609E-02  0.8535763E-01
        1   -1    0    0  501    0  0.00000000000E+00  0.00000000000E+00  0.91951943447E+03  0.91951943448E+03  0.50400001928E-02 0.  1.
       -1   -1    0    0    0  501  0.00000000000E+00  0.00000000000E+00 -0.12671112471E+04  0.12671112471E+04  0.50400001928E-02 0. -1.
    10030    2    1    2    0    0  0.00000000000E+00  0.00000000000E+00 -0.34759181264E+03  0.21866306816E+04  0.21588269198E+04 0.  0.
        1    1    3    3  502    0  0.52604306161E+03 -0.31013941855E+01  0.78089436666E+03  0.94155559221E+03  0.50400001928E-02 0.  1.
       -1    1    3    3    0  502 -0.52604306161E+03  0.31013941855E+01 -0.11284861793E+04  0.12450750894E+04  0.50400001928E-02 0. -1.
</event>
<event>
 5   0  0.6052292E-05  0.2136896E+04  0.7818609E-02  0.8545162E-01
       -1   -1    0    0    0  501  0.00000000000E+00  0.00000000000E+00  0.94895950565E+03  0.94895950567E+03  0.50400001928E-02 0. -1.
        1   -1    0    0  501    0  0.00000000000E+00  0.00000000000E+00 -0.12029823662E+04  0.12029823662E+04  0.50400001928E-02 0.  1.
    10030    2    1    2    0    0  0.00000000000E+00  0.00000000000E+00 -0.25402286052E+03  0.21519418719E+04  0.21368963957E+04 0.  0.
        1    1    3    3  502    0 -0.10455385324E+04 -0.21753375844E+03 -0.93463323398E+02  0.10720107983E+04  0.50400001928E-02 0.  1.
       -1    1    3    3    0  502  0.10455385324E+04  0.21753375844E+03 -0.16055953712E+03  0.10799310736E+04  0.50400001928E-02 0. -1.
</event>
<event>
 5   0  0.5846187E-05  0.2114016E+04  0.7818609E-02  0.8555094E-01
       -1   -1    0    0    0  501  0.00000000000E+00  0.00000000000E+00  0.38607766520E+03  0.38607766523E+03  0.50400001928E-02 0. -1.
        1   -1    0    0  501    0  0.00000000000E+00  0.00000000000E+00 -0.28938892082E+04  0.28938892082E+04  0.50400001928E-02 0.  1.
    10030    2    1    2    0    0  0.00000000000E+00  0.00000000000E+00 -0.25078115430E+04  0.32799668734E+04  0.21140160727E+04 0.  0.
        5    1    3    3  502    0  0.73426472841E+03  0.56167903413E+03 -0.20490055936E+04  0.22479043666E+04  0.46999998093E+01 0.  1.
       -5    1    3    3    0  502 -0.73426472841E+03 -0.56167903413E+03 -0.45880594937E+03  0.10320625068E+04  0.46999998093E+01 0. -1.
</event>
<event>
 5   0  0.5846187E-05  0.2170490E+04  0.7818609E-02  0.8530812E-01
       -1   -1    0    0    0  501  0.00000000000E+00  0.00000000000E+00  0.18040738554E+04  0.18040738554E+04  0.50400001928E-02 0. -1.
        1   -1    0    0  501    0  0.00000000000E+00  0.00000000000E+00 -0.65283195262E+03  0.65283195263E+03  0.50400001928E-02 0.  1.
    10030    2    1    2    0    0  0.00000000000E+00  0.00000000000E+00  0.11512419028E+04  0.24569058080E+04  0.21704903204E+04 0.  0.
        5    1    3    3  502    0  0.25924941869E+02  0.20933959247E+03  0.17806334819E+04  0.17930903085E+04  0.46999998093E+01 0. -1.
       -5    1    3    3    0  502 -0.25924941869E+02 -0.20933959247E+03 -0.62939157911E+03  0.66381549955E+03  0.46999998093E+01 0.  1.
</event>
<event>
 5   0  0.5933905E-05  0.2083482E+04  0.7818609E-02  0.8568555E-01
       -1   -1    0    0    0  501  0.00000000000E+00  0.00000000000E+00  0.11127120361E+04  0.11127120361E+04  0.50400001928E-02 0. -1.
        1   -1    0    0  501    0  0.00000000000E+00  0.00000000000E+00 -0.97529620746E+03  0.97529620747E+03  0.50400001928E-02 0.  1.
    10030    2    1    2    0    0  0.00000000000E+00  0.00000000000E+00  0.13741582862E+03  0.20880082436E+04  0.20834815370E+04 0.  0.
        2    1    3    3  502    0  0.67295033535E+03  0.54074539414E+03 -0.51561641304E+03  0.10055486167E+04  0.25500000920E-02 0.  1.
       -2    1    3    3    0  502 -0.67295033535E+03 -0.54074539414E+03  0.65303224165E+03  0.10824596269E+04  0.25500000920E-02 0. -1.
</event>
<event>
 5   0  0.5933905E-05  0.1960216E+04  0.7818609E-02  0.8625450E-01
        1   -1    0    0  501    0  0.00000000000E+00  0.00000000000E+00  0.12339181741E+04  0.12339181741E+04  0.50400001928E-02 0.  1.
       -1   -1    0    0    0  501  0.00000000000E+00  0.00000000000E+00 -0.77850488789E+03  0.77850488791E+03  0.50400001928E-02 0. -1.
    10030    2    1    2    0    0  0.00000000000E+00  0.00000000000E+00  0.45541328619E+03  0.20124230620E+04  0.19602156308E+04 0.  0.
        2    1    3    3  502    0  0.96819575098E+03 -0.26410595808E+02  0.38173861785E+03  0.10410691159E+04  0.25500000920E-02 0.  1.
       -2    1    3    3    0  502 -0.96819575098E+03  0.26410595808E+02  0.73674668347E+02  0.97135394607E+03  0.25500000920E-02 0. -1.
</event>
<event>
 5   0  0.5933905E-05  0.1504986E+04  0.7818609E-02  0.8881144E-01
        1   -1    0    0  501    0  0.00000000000E+00  0.00000000000E+00  0.58440994844E+03  0.58440994846E+03  0.50400001928E-02 0.  1.
       -1   -1    0    0    0  501  0.00000000000E+00  0.00000000000E+00 -0.96891848756E+03  0.96891848757E+03  0.50400001928E-02 0. -1.
    10030    2    1    2    0    0  0.00000000000E+00  0.00000000000E+00 -0.38450853911E+03  0.15533284360E+04  0.15049858516E+04 0.  0.
        2    1    3    3  502    0  0.25080557690E+02 -0.73412976711E+03 -0.23698810186E+02  0.73494025807E+03  0.25500000920E-02 0.  1.
       -2    1    3    3    0  502 -0.25080557690E+02  0.73412976711E+03 -0.36080972893E+03  0.81838817796E+03  0.25500000920E-02 0. -1.
</event>
<event>
 5   0  0.1325673E-04  0.2080002E+04  0.7818609E-02  0.8570104E-01
       -2   -1    0    0    0  501  0.00000000000E+00  0.00000000000E+00  0.10522840688E+04  0.10522840688E+04  0.25500000920E-02 0.  1.
        2   -1    0    0  501    0  0.00000000000E+00  0.00000000000E+00 -0.10278609306E+04  0.10278609306E+04  0.25500000920E-02 0. -1.
    10030    2    1    2    0    0  0.00000000000E+00  0.00000000000E+00  0.24423138183E+02  0.20801449995E+04  0.20800016176E+04 0.  0.
        5    1    3    3  502    0 -0.28376086646E+03  0.95657089033E+03 -0.28111990900E+03  0.10366284729E+04  0.46999998093E+01 0. -1.
       -5    1    3    3    0  502  0.28376086646E+03 -0.95657089033E+03  0.30554304718E+03  0.10435165266E+04  0.46999998093E+01 0.  1.
</event>
<event>
 5   0  0.6052292E-05  0.2081731E+04  0.7818609E-02  0.8569334E-01
       -1   -1    0    0    0  501  0.00000000000E+00  0.00000000000E+00  0.52984062421E+03  0.52984062423E+03  0.50400001928E-02 0.  1.
        1   -1    0    0  501    0  0.00000000000E+00  0.00000000000E+00 -0.20447679756E+04  0.20447679756E+04  0.50400001928E-02 0. -1.
    10030    2    1    2    0    0  0.00000000000E+00  0.00000000000E+00 -0.15149273514E+04  0.25746085999E+04  0.20817311456E+04 0.  0.
        1    1    3    3  502    0 -0.16541860135E+03 -0.75420319008E+03 -0.16207345092E+04  0.17952621299E+04  0.50400001928E-02 0. -1.
       -1    1    3    3    0  502  0.16541860135E+03  0.75420319008E+03  0.10580715780E+03  0.77934646998E+03  0.50400001928E-02 0.  1.
</event>
<event>
 5   0  0.4615125E-05  0.2120226E+04  0.7818609E-02  0.8552385E-01
        3   -1    0    0  501    0  0.00000000000E+00  0.00000000000E+00  0.83094723967E+03  0.83094724581E+03  0.10100000352E+00 0.  1.
       -3   -1    0    0    0  501  0.00000000000E+00  0.00000000000E+00 -0.13524805088E+04  0.13524805126E+04  0.10100000352E+00 0. -1.
    10030    2    1    2    0    0  0.00000000000E+00  0.00000000000E+00 -0.52153326912E+03  0.21834277584E+04  0.21202263618E+04 0.  0.
        4    1    3    3  502    0  0.14163066517E+03 -0.40648344036E+03  0.73689983474E+03  0.85341139666E+03  0.12699999809E+01 0.  1.
       -4    1    3    3    0  502 -0.14163066517E+03  0.40648344036E+03 -0.12584331039E+04  0.13300163617E+04  0.12699999809E+01 0. -1.
</event>
<event>
 5   0  0.1281470E-04  0.2087888E+04  0.7818609E-02  0.8566598E-01
       -2   -1    0    0    0  501  0.00000000000E+00  0.00000000000E+00  0.14876684760E+04  0.14876684760E+04  0.25500000920E-02 0.  1.
        2   -1    0    0  501    0  0.00000000000E+00  0.00000000000E+00 -0.73256853980E+03  0.73256853981E+03  0.25500000920E-02 0. -1.
    10030    2    1    2    0    0  0.00000000000E+00  0.00000000000E+00  0.75509993619E+03  0.22202370158E+04  0.20878880460E+04 0.  0.
        3    1    3    3  502    0 -0.48000058549E+03 -0.62221680770E+03  0.11083270474E+04  0.13586549128E+04  0.10100000352E+00 0.  1.
       -3    1    3    3    0  502  0.48000058549E+03  0.62221680770E+03 -0.35322711124E+03  0.86158210298E+03  0.10100000352E+00 0. -1.
</event>
<event>
 5   0  0.6263616E-05  0.2090216E+04  0.7818609E-02  0.8565565E-01
        1   -1    0    0  501    0  0.00000000000E+00  0.00000000000E+00  0.22935433444E+04  0.22935433444E+04  0.50400001928E-02 0. -1.
       -1   -1    0    0    0  501  0.00000000000E+00  0.00000000000E+00 -0.47622867118E+03  0.47622867120E+03  0.50400001928E-02 0.  1.
    10030    2    1    2    0    0  0.00000000000E+00  0.00000000000E+00  0.18173146733E+04  0.27697720156E+04  0.20902163517E+04 0.  0.
        4    1    3    3  502    0 -0.55187266011E+03  0.72633606537E+03  0.23282136691E+03  0.94145361788E+03  0.12699999809E+01 0.  1.
       -4    1    3    3    0  502  0.55187266011E+03 -0.72633606537E+03  0.15844933064E+04  0.18283183978E+04  0.12699999809E+01 0. -1.
</event>
<event>
 5   0  0.1252477E-04  0.2061105E+04  0.7818609E-02  0.8578573E-01
        2   -1    0    0  501    0  0.00000000000E+00  0.00000000000E+00  0.57355950196E+03  0.57355950196E+03  0.25500000920E-02 0.  1.
       -2   -1    0    0    0  501  0.00000000000E+00  0.00000000000E+00 -0.18516622016E+04  0.18516622016E+04  0.25500000920E-02 0. -1.
    10030    2    1    2    0    0  0.00000000000E+00  0.00000000000E+00 -0.12781026997E+04  0.24252217036E+04  0.20611049951E+04 0.  0.
        4    1    3    3  502    0 -0.39181654342E+03  0.60657502210E+03  0.22608124223E+03  0.75668210110E+03  0.12699999809E+01 0.  1.
       -4    1    3    3    0  502  0.39181654342E+03 -0.60657502210E+03 -0.15041839419E+04  0.16685396025E+04  0.12699999809E+01 0. -1.
</event>
<event>
 5   0  0.1235817E-04  0.2128282E+04  0.7818609E-02  0.8548886E-01
        2   -1    0    0  501    0  0.00000000000E+00  0.00000000000E+00  0.18406153016E+04  0.18406153016E+04  0.25500000920E-02 0.  1.
       -2   -1    0    0    0  501  0.00000000000E+00  0.00000000000E+00 -0.61522719864E+03  0.61522719865E+03  0.25500000920E-02 0. -1.
    10030    2    1    2    0    0  0.00000000000E+00  0.00000000000E+00  0.12253881030E+04  0.24558425003E+04  0.21282824961E+04 0.  0.
        1    1    3    3  502    0  0.10609597271E+04  0.80548000415E+02  0.63176228388E+03  0.12374356979E+04  0.50400001928E-02 0. -1.
       -1    1    3    3    0  502 -0.10609597271E+04 -0.80548000415E+02  0.59362581910E+03  0.12184068024E+04  0.50400001928E-02 0.  1.
</event>
<event>
 5   0  0.6221148E-05  0.2095190E+04  0.7818609E-02  0.8563365E-01
        1   -1    0    0  501    0  0.00000000000E+00  0.00000000000E+00  0.14232490682E+04  0.14232490682E+04  0.50400001928E-02 0.  1.
       -1   -1    0    0    0  501  0.00000000000E+00  0.00000000000E+00 -0.77109173695E+03  0.77109173696E+03  0.50400001928E-02 0. -1.
    10030    2    1    2    0    0  0.00000000000E+00  0.00000000000E+00  0.65215733128E+03  0.21943408052E+04  0.20951902979E+04 0.  0.
        3    1    3    3  502    0 -0.48934529349E+03 -0.14285492338E+02  0.12960787597E+04  0.13854540964E+04  0.10100000352E+00 0.  1.
       -3    1    3    3    0  502  0.48934529349E+03  0.14285492338E+02 -0.64392142843E+03  0.80888670884E+03  0.10100000352E+00 0. -1.
</event>
<event>
 5   0  0.1281470E-04  0.2149809E+04  0.7818609E-02  0.8539614E-01
       -2   -1    0    0    0  501  0.00000000000E+00  0.00000000000E+00  0.58818896734E+03  0.58818896735E+03  0.25500000920E-02 0.  1.
        2   -1    0    0  501    0  0.00000000000E+00  0.00000000000E+00 -0.19643689221E+04  0.19643689221E+04  0.25500000920E-02 0. -1.
    10030    2    1    2    0    0  0.00000000000E+00  0.00000000000E+00 -0.13761799548E+04  0.25525578895E+04  0.21498094127E+04 0.  0.
        3    1    3    3  502    0 -0.54427982209E+02  0.11467812694E+03 -0.19554381832E+04  0.19595540249E+04  0.10100000352E+00 0. -1.
       -3    1    3    3    0  502  0.54427982209E+02 -0.11467812694E+03  0.57925822839E+03  0.59300386458E+03  0.10100000352E+00 0.  1.
</event>
<event>
 5   0  0.6263616E-05  0.1519800E+04  0.7818609E-02  0.8871392E-01
        1   -1    0    0  501    0  0.00000000000E+00  0.00000000000E+00  0.61291309769E+03  0.61291309771E+03  0.50400001928E-02 0. -1.
       -1   -1    0    0    0  501  0.00000000000E+00  0.00000000000E+00 -0.94213672763E+03  0.94213672764E+03  0.50400001928E-02 0.  1.
    10030    2    1    2    0    0  0.00000000000E+00  0.00000000000E+00 -0.32922362994E+03  0.15550498253E+04  0.15197999081E+04 0.  0.
        4    1    3    3  502    0  0.31832350740E+03  0.15462431739E+03 -0.85267277298E+03  0.92319608187E+03  0.12699999809E+01 0.  1.
       -4    1    3    3    0  502 -0.31832350740E+03 -0.15462431739E+03  0.52344914305E+03  0.63185374348E+03  0.12699999809E+01 0. -1.
</event>
<event>
 5   0  0.1349252E-04  0.2052291E+04  0.7818609E-02  0.8582556E-01
        2   -1    0    0  501    0  0.00000000000E+00  0.00000000000E+00  0.45578410287E+03  0.45578410288E+03  0.25500000920E-02 0.  1.
       -2   -1    0    0    0  501  0.00000000000E+00  0.00000000000E+00 -0.23102481997E+04  0.23102481997E+04  0.25500000920E-02 0. -1.
    10030    2    1    2    0    0  0.00000000000E+00  0.00000000000E+00 -0.18544640968E+04  0.27660323025E+04  0.20522908206E+04 0.  0.
        2    1    3    3  502    0  0.10134394694E+03 -0.90116501358E+02 -0.22981168983E+04  0.23021148663E+04  0.25500000920E-02 0. -1.
       -2    1    3    3    0  502 -0.10134394694E+03  0.90116501358E+02  0.44365280149E+03  0.46391743626E+03  0.25500000920E-02 0.  1.
</event>
<event>
 5   0  0.6263616E-05  0.2097415E+04  0.7818609E-02  0.8562383E-01
        1   -1    0    0  501    0  0.00000000000E+00  0.00000000000E+00  0.18484230648E+04  0.18484230648E+04  0.50400001928E-02 0. -1.
       -1   -1    0    0    0  501  0.00000000000E+00  0.00000000000E+00 -0.59498704834E+03  0.59498704836E+03  0.50400001928E-02 0.  1.
    10030    2    1    2    0    0  0.00000000000E+00  0.00000000000E+00  0.12534360165E+04  0.24434101132E+04  0.20974153460E+04 0.  0.
        4    1    3    3  502    0 -0.29664346460E+03 -0.10029646393E+04  0.71582627345E+03  0.12674163796E+04  0.12699999809E+01 0.  1.
       -4    1    3    3    0  502  0.29664346460E+03  0.10029646393E+04  0.53760974305E+03  0.11759937336E+04  0.12699999809E+01 0. -1.
</event>
<event>
 5   0  0.6263616E-05  0.2081190E+04  0.7818609E-02  0.8569575E-01
        1   -1    0    0  501    0  0.00000000000E+00  0.00000000000E+00  0.11090863502E+04  0.11090863502E+04  0.50400001928E-02 0.  1.
       -1   -1    0    0    0  501  0.00000000000E+00  0.00000000000E+00 -0.97633297364E+03  0.97633297366E+03  0.50400001928E-02 0. -1.
    10030    2    1    2    0    0  0.00000000000E+00  0.00000000000E+00  0.13275337652E+03  0.20854193238E+04  0.20811896351E+04 0.  0.
        4    1    3    3  502    0  0.63547657177E+03  0.79711002935E+03  0.27565778001E+03  0.10560320529E+04  0.12699999809E+01 0.  1.
       -4    1    3    3    0  502 -0.63547657177E+03 -0.79711002935E+03 -0.14290440349E+03  0.10293872709E+04  0.12699999809E+01 0. -1.
</event>
<event>
 5   0  0.5933905E-05  0.2111181E+04  0.7818609E-02  0.8556334E-01
       -1   -1    0    0    0  501  0.00000000000E+00  0.00000000000E+00  0.12378816379E+04  0.12378816379E+04  0.50400001928E-02 0. -1.
        1   -1    0    0  501    0  0.00000000000E+00  0.00000000000E+00 -0.90014360048E+03  0.90014360050E+03  0.50400001928E-02 0.  1.
    10030    2    1    2    0    0  0.00000000000E+00  0.00000000000E+00  0.33773803743E+03  0.21380252384E+04  0.21111809345E+04 0.  0.
        2    1    3    3  502    0  0.18150495022E+03  0.66996950478E+02 -0.88203409528E+03  0.90300430983E+03  0.25500000920E-02 0.  1.
       -2    1    3    3    0  502 -0.18150495022E+03 -0.66996950478E+02  0.12197721327E+04  0.12350209286E+04  0.25500000920E-02 0. -1.
</event>
<event>
 5   0  0.1349252E-04  0.2112581E+04  0.7818609E-02  0.8555722E-01
        2   -1    0    0  501    0  0.00000000000E+00  0.00000000000E+00  0.13804199231E+04  0.13804199231E+04  0.25500000920E-02 0.  1.
       -2   -1    0    0    0  501  0.00000000000E+00  0.00000000000E+00 -0.80826793897E+03  0.80826793897E+03  0.25500000920E-02 0. -1.
    10030    2    1    2    0    0  0.00000000000E+00  0.00000000000E+00  0.57215198413E+03  0.21886878621E+04  0.21125805700E+04 0.  0.
        2    1    3    3  502    0  0.48671786140E+03 -0.82405779759E+03 -0.17699812198E+03  0.97329022679E+03  0.25500000920E-02 0. -1.
       -2    1    3    3    0  502 -0.48671786140E+03  0.82405779759E+03  0.74915010611E+03  0.12153976353E+04  0.25500000920E-02 0.  1.
</event>
<event>
 5   0  0.1235817E-04  0.2075042E+04  0.7818609E-02  0.8572318E-01
       -2   -1    0    0    0  501  0.00000000000E+00  0.00000000000E+00  0.92840578036E+03  0.92840578036E+03  0.25500000920E-02 0.  1.
        2   -1    0    0  501    0  0.00000000000E+00  0.00000000000E+00 -0.11594602517E+04  0.11594602517E+04  0.25500000920E-02 0. -1.
    10030    2    1    2    0    0  0.00000000000E+00  0.00000000000E+00 -0.23105447130E+03  0.20878660320E+04  0.20750417825E+04 0.  0.
        1    1    3    3  502    0 -0.10089644000E+03 -0.38718585725E+03 -0.10787085386E+04  0.11505238333E+04  0.50400001928E-02 0. -1.
       -1    1    3    3    0  502  0.10089644000E+03  0.38718585725E+03  0.84765406732E+03  0.93734219874E+03  0.50400001928E-02 0.  1.
</event>
<event>
 5   0  0.1325673E-04  0.2042759E+04  0.7818609E-02  0.8586886E-01
       -2   -1    0    0    0  501  0.00000000000E+00  0.00000000000E+00  0.95772289776E+03  0.95772289777E+03  0.25500000920E-02 0.  1.
        2   -1    0    0  501    0  0.00000000000E+00  0.00000000000E+00 -0.10892668411E+04  0.10892668411E+04  0.25500000920E-02 0. -1.
    10030    2    1    2    0    0  0.00000000000E+00  0.00000000000E+00 -0.13154394334E+03  0.20469897389E+04  0.20427587185E+04 0.  0.
        5    1    3    3  502    0  0.43554987433E+03  0.34176004199E+03 -0.92585624300E+03  0.10787657262E+04  0.46999998093E+01 0. -1.
       -5    1    3    3    0  502 -0.43554987433E+03 -0.34176004199E+03  0.79431229966E+03  0.96822401267E+03  0.46999998093E+01 0.  1.
</event>
<event>
 5   0  0.1235817E-04  0.2084799E+04  0.7818609E-02  0.8567969E-01
       -2   -1    0    0    0  501  0.00000000000E+00  0.00000000000E+00  0.61031470243E+03  0.61031470244E+03  0.25500000920E-02 0.  1.
        2   -1    0    0  501    0  0.00000000000E+00  0.00000000000E+00 -0.17803880588E+04  0.17803880588E+04  0.25500000920E-02 0. -1.
    10030    2    1    2    0    0  0.00000000000E+00  0.00000000000E+00 -0.11700733564E+04  0.23907027613E+04  0.20847992789E+04 0.  0.
        1    1    3    3  502    0 -0.56599066781E+03  0.55492218231E+03 -0.13613595769E+04  0.15753044030E+04  0.50400001928E-02 0. -1.
       -1    1    3    3    0  502  0.56599066781E+03 -0.55492218231E+03  0.19128622051E+03  0.81539835826E+03  0.50400001928E-02 0.  1.
</event>
<event>
 5   0  0.6052292E-05  0.2067713E+04  0.7818609E-02  0.8575601E-01
       -1   -1    0    0    0  501  0.00000000000E+00  0.00000000000E+00  0.72564050599E+03  0.72564050600E+03  0.50400001928E-02 0. -1.
        1   -1    0    0  501    0  0.00000000000E+00  0.00000000000E+00 -0.14729867911E+04  0.14729867911E+04  0.50400001928E-02 0.  1.
    10030    2    1    2    0    0  0.00000000000E+00  0.00000000000E+00 -0.74734628515E+03  0.21986272971E+04  0.20677126304E+04 0.  0.
        1    1    3    3  502    0  0.56397567511E+03 -0.21783130490E+03 -0.12654250450E+04  0.14024334508E+04  0.50400001928E-02 0.  1.
       -1    1    3    3    0  502 -0.56397567511E+03  0.21783130490E+03  0.51807875983E+03  0.79619384632E+03  0.50400001928E-02 0. -1.
</event>
<event>
 5   0  0.1325673E-04  0.2097866E+04  0.7818609E-02  0.8562184E-01
        2   -1    0    0  501    0  0.00000000000E+00  0.00000000000E+00  0.11281431610E+04  0.11281431610E+04  0.25500000920E-02 0.  1.
       -2   -1    0    0    0  501  0.00000000000E+00  0.00000000000E+00 -0.97528477983E+03  0.97528477984E+03  0.25500000920E-02 0. -1.
    10030    2    1    2    0    0  0.00000000000E+00  0.00000000000E+00  0.15285838115E+03  0.21034279408E+04  0.20978663965E+04 0.  0.
        5    1    3    3  502    0 -0.69575728144E+03  0.78235352322E+03  0.12357243396E+02  0.10470577928E+04  0.46999998093E+01 0.  1.
       -5    1    3    3    0  502  0.69575728144E+03 -0.78235352322E+03  0.14050113775E+03  0.10563701480E+04  0.46999998093E+01 0. -1.
</event>
<event>
 5   0  0.4615125E-05  0.2114045E+04  0.7818609E-02  0.8555081E-01
       -3   -1    0    0    0  501  0.00000000000E+00  0.00000000000E+00  0.10321208349E+04  0.10321208398E+04  0.10100000352E+00 0.  1.
        3   -1    0    0  501    0  0.00000000000E+00  0.00000000000E+00 -0.10825253721E+04  0.10825253769E+04  0.10100000352E+00 0. -1.
    10030    2    1    2    0    0  0.00000000000E+00  0.00000000000E+00 -0.50404537258E+02  0.21146462167E+04  0.21140454121E+04 0.  0.
        3    1    3    3  502    0  0.41000752827E+02 -0.48213441918E+03 -0.96523651581E+03  0.10797296891E+04  0.10100000352E+00 0. -1.
       -3    1    3    3    0  502 -0.41000752827E+02  0.48213441918E+03  0.91483197855E+03  0.10349165276E+04  0.10100000352E+00 0.  1.
</event>
<event>
 5   0  0.1252477E-04  0.2077960E+04  0.7818609E-02  0.8571015E-01
       -2   -1    0    0    0  501  0.00000000000E+00  0.00000000000E+00  0.83023161311E+03  0.83023161311E+03  0.25500000920E-02 0. -1.
        2   -1    0    0  501    0  0.00000000000E+00  0.00000000000E+00 -0.13002151411E+04  0.13002151411E+04  0.25500000920E-02 0.  1.
    10030    2    1    2    0    0  0.00000000000E+00  0.00000000000E+00 -0.46998352798E+03  0.21304467542E+04  0.20779602633E+04 0.  0.
        4    1    3    3  502    0  0.45152284212E+03  0.46400265195E+03 -0.10681093825E+04  0.12490118509E+04  0.12699999809E+01 0.  1.
       -4    1    3    3    0  502 -0.45152284212E+03 -0.46400265195E+03  0.59812585449E+03  0.88143490326E+03  0.12699999809E+01 0. -1.
</event>
<event>
 5   0  0.1252477E-04  0.2136404E+04  0.7818609E-02  0.8545375E-01
        2   -1    0    0  501    0  0.00000000000E+00  0.00000000000E+00  0.14447465442E+04  0.14447465442E+04  0.25500000920E-02 0.  1.
       -2   -1    0    0    0  501  0.00000000000E+00  0.00000000000E+00 -0.78979627663E+03  0.78979627664E+03  0.25500000920E-02 0. -1.
    10030    2    1    2    0    0  0.00000000000E+00  0.00000000000E+00  0.65495026757E+03  0.22345428208E+04  0.21364039331E+04 0.  0.
        4    1    3    3  502    0  0.18443593866E+03  0.72917190683E+03  0.11208340178E+04  0.13498069468E+04  0.12699999809E+01 0.  1.
       -4    1    3    3    0  502 -0.18443593866E+03 -0.72917190683E+03 -0.46588375026E+03  0.88473587405E+03  0.12699999809E+01 0. -1.
</event>
<event>
 5   0  0.5933905E-05  0.2118236E+04  0.7818609E-02  0.8553252E-01
        1   -1    0    0  501    0  0.00000000000E+00  0.00000000000E+00  0.13048235743E+04  0.13048235743E+04  0.50400001928E-02 0. -1.
       -1   -1    0    0    0  501  0.00000000000E+00  0.00000000000E+00 -0.85968052334E+03  0.85968052336E+03  0.50400001928E-02 0.  1.
    10030    2    1    2    0    0  0.00000000000E+00  0.00000000000E+00  0.44514305098E+03  0.21645040977E+04  0.21182364488E+04 0.  0.
        2    1    3    3  502    0 -0.87954646901E+02  0.98386226225E+03 -0.16788792057E+03  0.10019517578E+04  0.25500000920E-02 0.  1.
       -2    1    3    3    0  502  0.87954646901E+02 -0.98386226225E+03  0.61303097155E+03  0.11625523399E+04  0.25500000920E-02 0. -1.
</event>
<event>
 5   0  0.6052292E-05  0.2066612E+04  0.7818609E-02  0.8576095E-01
        1   -1    0    0  501    0  0.00000000000E+00  0.00000000000E+00  0.14346753398E+04  0.14346753398E+04  0.50400001928E-02 0. -1.
       -1   -1    0    0    0  501  0.00000000000E+00  0.00000000000E+00 -0.74422489521E+03  0.74422489522E+03  0.50400001928E-02 0.  1.
    10030    2    1    2    0    0  0.00000000000E+00  0.00000000000E+00  0.69045044460E+03  0.21789002350E+04  0.20666118208E+04 0.  0.
        1    1    3    3  502    0  0.49133286482E+03 -0.12202867528E+03  0.12949589443E+04  0.13904019739E+04  0.50400001928E-02 0. -1.
       -1    1    3    3    0  502 -0.49133286482E+03  0.12202867528E+03 -0.60450849966E+03  0.78849826115E+03  0.50400001928E-02 0.  1.
</event>
<event>
 5   0  0.5846187E-05  0.2085799E+04  0.7818609E-02  0.8567525E-01
        1   -1    0    0  501    0  0.00000000000E+00  0.00000000000E+00  0.51125121634E+03  0.51125121636E+03  0.50400001928E-02 0. -1.
       -1   -1    0    0    0  501  0.00000000000E+00  0.00000000000E+00 -0.21274065014E+04  0.21274065014E+04  0.50400001928E-02 0.  1.
    10030    2    1    2    0    0  0.00000000000E+00  0.00000000000E+00 -0.16161552851E+04  0.26386577178E+04  0.20857988029E+04 0.  0.
        5    1    3    3  502    0 -0.81171301037E+03  0.10040986994E+03 -0.16266174033E+04  0.18206774618E+04  0.46999998093E+01 0.  1.
       -5    1    3    3    0  502  0.81171301037E+03 -0.10040986994E+03  0.10462118270E+02  0.81798025594E+03  0.46999998093E+01 0. -1.
</event>
<event>
 5   0  0.1252477E-04  0.2106063E+04  0.7818609E-02  0.8558577E-01
        2   -1    0    0  501    0  0.00000000000E+00  0.00000000000E+00  0.20345735069E+04  0.20345735069E+04  0.25500000920E-02 0. -1.
       -2   -1    0    0    0  501  0.00000000000E+00  0.00000000000E+00 -0.54501622908E+03  0.54501622908E+03  0.25500000920E-02 0.  1.
    10030    2    1    2    0    0  0.00000000000E+00  0.00000000000E+00  0.14895572778E+04  0.25795897359E+04  0.21060632284E+04 0.  0.
        4    1    3    3  502    0  0.81223092437E+03 -0.27144064508E+03  0.14953114311E+04  0.17231822269E+04  0.12699999809E+01 0. -1.
       -4    1    3    3    0  502 -0.81223092437E+03  0.27144064508E+03 -0.57541533239E+01  0.85640750901E+03  0.12699999809E+01 0.  1.
</event>
<event>
 5   0  0.1325673E-04  0.2081688E+04  0.7818609E-02  0.8569353E-01
        2   -1    0    0  501    0  0.00000000000E+00  0.00000000000E+00  0.90450523081E+03  0.90450523081E+03  0.25500000920E-02 0. -1.
       -2   -1    0    0    0  501  0.00000000000E+00  0.00000000000E+00 -0.11977339107E+04  0.11977339107E+04  0.25500000920E-02 0.  1.
    10030    2    1    2    0    0  0.00000000000E+00  0.00000000000E+00 -0.29322867993E+03  0.21022391416E+04  0.20816883411E+04 0.  0.
        5    1    3    3  502    0  0.14719158258E+03 -0.88108825371E+03 -0.68607197459E+03  0.11263652681E+04  0.46999998093E+01 0.  1.
       -5    1    3    3    0  502 -0.14719158258E+03  0.88108825371E+03  0.39284329465E+03  0.97587387349E+03  0.46999998093E+01 0. -1.
</event>
<event>
 5   0  0.1235817E-04  0.2167789E+04  0.7818609E-02  0.8531956E-01
       -2   -1    0    0    0  501  0.00000000000E+00  0.00000000000E+00  0.53233136254E+03  0.53233136255E+03  0.25500000920E-02 0. -1.
        2   -1    0    0  501    0  0.00000000000E+00  0.00000000000E+00 -0.22069467501E+04  0.22069467501E+04  0.25500000920E-02 0.  1.
    10030    2    1    2    0    0  0.00000000000E+00  0.00000000000E+00 -0.16746153875E+04  0.27392781126E+04  0.21677887079E+04 0.  0.
        1    1    3    3  502    0  0.52713082961E+03 -0.79736796286E+03 -0.19154023201E+03  0.97485908737E+03  0.50400001928E-02 0. -1.
       -1    1    3    3    0  502 -0.52713082961E+03  0.79736796286E+03 -0.14830751555E+04  0.17644190253E+04  0.50400001928E-02 0.  1.
</event>
<event>
 5   0  0.1235817E-04  0.2057307E+04  0.7818609E-02  0.8580287E-01
        2   -1    0    0  501    0  0.00000000000E+00  0.00000000000E+00  0.14931718891E+04  0.14931718891E+04  0.25500000920E-02 0. -1.
       -2   -1    0    0    0  501  0.00000000000E+00  0.00000000000E+00 -0.70864422176E+03  0.70864422177E+03  0.25500000920E-02 0.  1.
    10030    2    1    2    0    0  0.00000000000E+00  0.00000000000E+00  0.78452766736E+03  0.22018161109E+04  0.20573066192E+04 0.  0.
        1    1    3    3  502    0 -0.39060096216E+02 -0.91813258889E+03  0.88693626273E+03  0.12771644671E+04  0.50400001928E-02 0. -1.
       -1    1    3    3    0  502  0.39060096216E+02  0.91813258889E+03 -0.10240859536E+03  0.92465164378E+03  0.50400001928E-02 0.  1.
</event>
<event>
 5   0  0.5846187E-05  0.2083721E+04  0.7818609E-02  0.8568448E-01
        1   -1    0    0  501    0  0.00000000000E+00  0.00000000000E+00  0.19907113705E+04  0.19907113705E+04  0.50400001928E-02 0.  1.
       -1   -1    0    0    0  501  0.00000000000E+00  0.00000000000E+00 -0.54526910055E+03  0.54526910057E+03  0.50400001928E-02 0. -1.
    10030    2    1    2    0    0  0.00000000000E+00  0.00000000000E+00  0.14454422699E+04  0.25359804711E+04  0.20837210931E+04 0.  0.
        5    1    3    3  502    0 -0.17683575611E+03 -0.50050427157E+03  0.18137764992E+04  0.18898631404E+04  0.46999998093E+01 0.  1.
       -5    1    3    3    0  502  0.17683575611E+03  0.50050427157E+03 -0.36833422927E+03  0.64611733063E+03  0.46999998093E+01 0. -1.
</event>
<event>
 5   0  0.5846187E-05  0.2088881E+04  0.7818609E-02  0.8566157E-01
        1   -1    0    0  501    0  0.00000000000E+00  0.00000000000E+00  0.10955405301E+04  0.10955405301E+04  0.50400001928E-02 0. -1.
       -1   -1    0    0    0  501  0.00000000000E+00  0.00000000000E+00 -0.99572401472E+03  0.99572401473E+03  0.50400001928E-02 0.  1.
    10030    2    1    2    0    0  0.00000000000E+00  0.00000000000E+00  0.99816515407E+02  0.20912645449E+04  0.20888810545E+04 0.  0.
        5    1    3    3  502    0 -0.10241021389E+04 -0.17348875584E+03  0.15935081296E+03  0.10508559896E+04  0.46999998093E+01 0. -1.
       -5    1    3    3    0  502  0.10241021389E+04  0.17348875584E+03 -0.59534297551E+02  0.10404085553E+04  0.46999998093E+01 0.  1.
</event>
<event>
 5   0  0.1252477E-04  0.2131906E+04  0.7818609E-02  0.8547317E-01
       -2   -1    0    0    0  501  0.00000000000E+00  0.00000000000E+00  0.12562103657E+04  0.12562103657E+04  0.25500000920E-02 0. -1.
        2   -1    0    0  501    0  0.00000000000E+00  0.00000000000E+00 -0.90451102028E+03  0.90451102029E+03  0.25500000920E-02 0.  1.
    10030    2    1    2    0    0  0.00000000000E+00  0.00000000000E+00  0.35169934542E+03  0.21607213860E+04  0.21319063015E+04 0.  0.
        4    1    3    3  502    0  0.55456963472E+03 -0.61855835853E+03 -0.50107938804E+03  0.97017734909E+03  0.12699999809E+01 0.  1.
       -4    1    3    3    0  502 -0.55456963472E+03  0.61855835853E+03  0.85277873346E+03  0.11905440369E+04  0.12699999809E+01 0. -1.
</event>
<event>
 5   0  0.6263616E-05  0.2086977E+04  0.7818609E-02  0.8567002E-01
       -1   -1    0    0    0  501  0.00000000000E+00  0.00000000000E+00  0.93196683419E+03  0.93196683421E+03  0.50400001928E-02 0. -1.
        1   -1    0    0  501    0  0.00000000000E+00  0.00000000000E+00 -0.11683551354E+04  0.11683551354E+04  0.50400001928E-02 0.  1.
    10030    2    1    2    0    0  0.00000000000E+00  0.00000000000E+00 -0.23638830120E+03  0.21003219696E+04  0.20869769877E+04 0.  0.
        4    1    3    3  502    0 -0.47095787403E+03 -0.18104361505E+03 -0.10374287175E+04  0.11536195501E+04  0.12699999809E+01 0.  1.
       -4    1    3    3    0  502  0.47095787403E+03  0.18104361505E+03  0.80104041628E+03  0.94670241949E+03  0.12699999809E+01 0. -1.
</event>
<event>
 5   0  0.1252477E-04  0.2067122E+04  0.7818609E-02  0.8575866E-01
        2   -1    0    0  501    0  0.00000000000E+00  0.00000000000E+00  0.13805524045E+04  0.13805524045E+04  0.25500000920E-02 0. -1.
       -2   -1    0    0    0  501  0.00000000000E+00  0.00000000000E+00 -0.77378333574E+03  0.77378333574E+03  0.25500000920E-02 0.  1.
    10030    2    1    2    0    0  0.00000000000E+00  0.00000000000E+00  0.60676906876E+03  0.21543357402E+04  0.20671221006E+04 0.  0.
        4    1    3    3  502    0  0.10197842317E+04  0.12449671520E+02  0.47818687315E+03  0.11264009819E+04  0.12699999809E+01 0.  1.
       -4    1    3    3    0  502 -0.10197842317E+04 -0.12449671520E+02  0.12858219561E+03  0.10279347583E+04  0.12699999809E+01 0. -1.
</event>
<event>
 5   0  0.6221148E-05  0.2112116E+04  0.7818609E-02  0.8555925E-01
       -1   -1    0    0    0  501  0.00000000000E+00  0.00000000000E+00  0.11594267809E+04  0.11594267809E+04  0.50400001928E-02 0.  1.
        1   -1    0    0  501    0  0.00000000000E+00  0.00000000000E+00 -0.96190527877E+03  0.96190527878E+03  0.50400001928E-02 0. -1.
    10030    2    1    2    0    0  0.00000000000E+00  0.00000000000E+00  0.19752150209E+03  0.21213320597E+04  0.21121162287E+04 0.  0.
        3    1    3    3  502    0  0.67899301506E+03 -0.51219702373E+03 -0.52997503690E+03  0.10021231738E+04  0.10100000352E+00 0.  1.
       -3    1    3    3    0  502 -0.67899301506E+03  0.51219702373E+03  0.72749653899E+03  0.11192088858E+04  0.10100000352E+00 0. -1.
</event>
<event>
 5   0  0.6263616E-05  0.1955833E+04  0.7818609E-02  0.8627553E-01
        1   -1    0    0  501    0  0.00000000000E+00  0.00000000000E+00  0.82093591676E+03  0.82093591678E+03  0.50400001928E-02 0.  1.
       -1   -1    0    0    0  501  0.00000000000E+00  0.00000000000E+00 -0.11649154519E+04  0.11649154519E+04  0.50400001928E-02 0. -1.
    10030    2    1    2    0    0  0.00000000000E+00  0.00000000000E+00 -0.34397953514E+03  0.19858513687E+04  0.19558332592E+04 0.  0.
        4    1    3    3  502    0  0.71259810389E+03  0.29561294538E+03  0.43817967705E+03  0.88723509479E+03  0.12699999809E+01 0.  1.
       -4    1    3    3    0  502 -0.71259810389E+03 -0.29561294538E+03 -0.78215921219E+03  0.10986162739E+04  0.12699999809E+01 0. -1.
</event>
<event>
 5   0  0.5933905E-05  0.2049042E+04  0.7818609E-02  0.8584029E-01
       -1   -1    0    0    0  501  0.00000000000E+00  0.00000000000E+00  0.81239108823E+03  0.81239108824E+03  0.50400001928E-02 0. -1.
        1   -1    0    0  501    0  0.00000000000E+00  0.00000000000E+00 -0.12920417428E+04  0.12920417428E+04  0.50400001928E-02 0.  1.
    10030    2    1    2    0    0  0.00000000000E+00  0.00000000000E+00 -0.47965065455E+03  0.21044328310E+04  0.20490419200E+04 0.  0.
        2    1    3    3  502    0  0.34384931361E+03 -0.88093254536E+03  0.16499842652E+03  0.95994738434E+03  0.25500000920E-02 0.  1.
       -2    1    3    3    0  502 -0.34384931361E+03  0.88093254536E+03 -0.64464908106E+03  0.11444854467E+04  0.25500000920E-02 0. -1.
</event>
<event>
 5   0  0.1235817E-04  0.2090347E+04  0.7818609E-02  0.8565508E-01
       -2   -1    0    0    0  501  0.00000000000E+00  0.00000000000E+00  0.81528613822E+03  0.81528613823E+03  0.25500000920E-02 0. -1.
        2   -1    0    0  501    0  0.00000000000E+00  0.00000000000E+00 -0.13398820849E+04  0.13398820849E+04  0.25500000920E-02 0.  1.
    10030    2    1    2    0    0  0.00000000000E+00  0.00000000000E+00 -0.52459594666E+03  0.21551682231E+04  0.20903466609E+04 0.  0.
        1    1    3    3  502    0  0.88784077174E+03  0.49062289193E+03 -0.26651148719E+01  0.10143861005E+04  0.50400001928E-02 0. -1.
       -1    1    3    3    0  502 -0.88784077174E+03 -0.49062289193E+03 -0.52193083179E+03  0.11407821226E+04  0.50400001928E-02 0.  1.
</event>
<event>
 5   0  0.6052292E-05  0.1960753E+04  0.7818609E-02  0.8625193E-01
       -1   -1    0    0    0  501  0.00000000000E+00  0.00000000000E+00  0.72349046049E+03  0.72349046051E+03  0.50400001928E-02 0.  1.
        1   -1    0    0  501    0  0.00000000000E+00  0.00000000000E+00 -0.13284731419E+04  0.13284731419E+04  0.50400001928E-02 0. -1.
    10030    2    1    2    0    0  0.00000000000E+00  0.00000000000E+00 -0.60498268139E+03  0.20519636024E+04  0.19607525547E+04 0.  0.
        1    1    3    3  502    0 -0.63824592502E+01  0.19325358138E+03  0.70333749115E+03  0.72943218259E+03  0.50400001928E-02 0.  1.
       -1    1    3    3    0  502  0.63824592502E+01 -0.19325358138E+03 -0.13083201725E+04  0.13225314198E+04  0.50400001928E-02 0. -1.
</event>
<event>
 5   0  0.1235817E-04  0.2091414E+04  0.7818609E-02  0.8565035E-01
       -2   -1    0    0    0  501  0.00000000000E+00  0.00000000000E+00  0.54512169846E+03  0.54512169847E+03  0.25500000920E-02 0.  1.
        2   -1    0    0  501    0  0.00000000000E+00  0.00000000000E+00 -0.20059792855E+04  0.20059792855E+04  0.25500000920E-02 0. -1.
    10030    2    1    2    0    0  0.00000000000E+00  0.00000000000E+00 -0.14608575871E+04  0.25511009840E+04  0.20914137183E+04 0.  0.
        1    1    3    3  502    0  0.58499987618E+01  0.94714524165E+03 -0.18987202972E+03  0.96600710089E+03  0.50400001928E-02 0.  1.
       -1    1    3    3    0  502 -0.58499987618E+01 -0.94714524165E+03 -0.12709855574E+04  0.15850938831E+04  0.50400001928E-02 0. -1.
</event>
<event>
 5   0  0.1349252E-04  0.1906814E+04  0.7818609E-02  0.8651472E-01
        2   -1    0    0  501    0  0.00000000000E+00  0.00000000000E+00  0.15293398837E+04  0.15293398837E+04  0.25500000920E-02 0. -1.
       -2   -1    0    0    0  501  0.00000000000E+00  0.00000000000E+00 -0.59436417675E+03  0.59436417676E+03  0.25500000920E-02 0.  1.
    10030    2    1    2    0    0  0.00000000000E+00  0.00000000000E+00  0.93497570699E+03  0.21237040605E+04  0.19068139301E+04 0.  0.
        2    1    3    3  502    0 -0.21570156205E+03 -0.46135841464E+03  0.13651454809E+04  0.14570521386E+04  0.25500000920E-02 0. -1.
       -2    1    3    3    0  502  0.21570156205E+03  0.46135841464E+03 -0.43016977387E+03  0.66665192192E+03  0.25500000920E-02 0.  1.
</event>
<event>
 5   0  0.1252477E-04  0.2064954E+04  0.7818609E-02  0.8576840E-01
       -2   -1    0    0    0  501  0.00000000000E+00  0.00000000000E+00  0.58660493202E+03  0.58660493203E+03  0.25500000920E-02 0.  1.
        2   -1    0    0  501    0  0.00000000000E+00  0.00000000000E+00 -0.18172520609E+04  0.18172520609E+04  0.25500000920E-02 0. -1.
    10030    2    1    2    0    0  0.00000000000E+00  0.00000000000E+00 -0.12306471289E+04  0.24038569929E+04  0.20649542578E+04 0.  0.
        4    1    3    3  502    0  0.92736579290E+02  0.87116296041E+03  0.20677114434E+02  0.87632992229E+03  0.12699999809E+01 0.  1.
       -4    1    3    3    0  502 -0.92736579290E+02 -0.87116296041E+03 -0.12513242433E+04  0.15275270706E+04  0.12699999809E+01 0. -1.
</event>
<event>
 5   0  0.5933905E-05  0.2068875E+04  0.7818609E-02  0.8575079E-01
        1   -1    0    0  501    0  0.00000000000E+00  0.00000000000E+00  0.10644641195E+04  0.10644641195E+04  0.50400001928E-02 0.  1.
       -1   -1    0    0    0  501  0.00000000000E+00  0.00000000000E+00 -0.10052582267E+04  0.10052582267E+04  0.50400001928E-02 0. -1.
    10030    2    1    2    0    0  0.00000000000E+00  0.00000000000E+00  0.59205892879E+02  0.20697223462E+04  0.20688753594E+04 0.  0.
        2    1    3    3  502    0  0.34402852858E+03 -0.44350406790E+03  0.89887168922E+03  0.10597272293E+04  0.25500000920E-02 0.  1.
       -2    1    3    3    0  502 -0.34402852858E+03  0.44350406790E+03 -0.83966579634E+03  0.10099951170E+04  0.25500000920E-02 0. -1.
</event>
<event>
 5   0  0.6052292E-05  0.2086728E+04  0.7818609E-02  0.8567113E-01
        1   -1    0    0  501    0  0.00000000000E+00  0.00000000000E+00  0.15871347836E+04  0.15871347836E+04  0.50400001928E-02 0.  1.
       -1   -1    0    0    0  501  0.00000000000E+00  0.00000000000E+00 -0.68589508102E+03  0.68589508104E+03  0.50400001928E-02 0. -1.
    10030    2    1    2    0    0  0.00000000000E+00  0.00000000000E+00  0.90123970257E+03  0.22730298646E+04  0.20867275251E+04 0.  0.
        1    1    3    3  502    0  0.75707536244E+03  0.18428546792E+03  0.12064604108E+04  0.14362001813E+04  0.50400001928E-02 0.  1.
       -1    1    3    3    0  502 -0.75707536244E+03 -0.18428546792E+03 -0.30522070819E+03  0.83682968330E+03  0.50400001928E-02 0. -1.
</event>
<event>
 5   0  0.1252477E-04  0.2163955E+04  0.7818609E-02  0.8533582E-01
       -2   -1    0    0    0  501  0.00000000000E+00  0.00000000000E+00  0.49020452371E+03  0.49020452372E+03  0.25500000920E-02 0.  1.
        2   -1    0    0  501    0  0.00000000000E+00  0.00000000000E+00 -0.23881363643E+04  0.23881363643E+04  0.25500000920E-02 0. -1.
    10030    2    1    2    0    0  0.00000000000E+00  0.00000000000E+00 -0.18979318406E+04  0.28783408880E+04  0.21639549432E+04 0.  0.
        4    1    3    3  502    0  0.44339890691E+03  0.83188700191E+03 -0.24257425891E+03  0.97338710623E+03  0.12699999809E+01 0.  1.
       -4    1    3    3    0  502 -0.44339890691E+03 -0.83188700191E+03 -0.16553575817E+04  0.19049537818E+04  0.12699999809E+01 0. -1.
</event>
<event>
 5   0  0.1281470E-04  0.2130366E+04  0.7818609E-02  0.8547984E-01
       -2   -1    0    0    0  501  0.00000000000E+00  0.00000000000E+00  0.47267320789E+03  0.47267320790E+03  0.25500000920E-02 0.  1.
        2   -1    0    0  501    0  0.00000000000E+00  0.00000000000E+00 -0.24004207631E+04  0.24004207631E+04  0.25500000920E-02 0. -1.
    10030    2    1    2    0    0  0.00000000000E+00  0.00000000000E+00 -0.19277475552E+04  0.28730939710E+04  0.21303657737E+04 0.  0.
        3    1    3    3  502    0 -0.45371496179E+03  0.47306774234E+03 -0.20962198845E+04  0.21963124026E+04  0.10100000352E+00 0. -1.
       -3    1    3    3    0  502  0.45371496179E+03 -0.47306774234E+03  0.16847232930E+03  0.67678156840E+03  0.10100000352E+00 0.  1.
</event>
<event>
 5   0  0.5933905E-05  0.2116548E+04  0.7818609E-02  0.8553989E-01
       -1   -1    0    0    0  501  0.00000000000E+00  0.00000000000E+00  0.90442631143E+03  0.90442631144E+03  0.50400001928E-02 0.  1.
        1   -1    0    0  501    0  0.00000000000E+00  0.00000000000E+00 -0.12382915379E+04  0.12382915379E+04  0.50400001928E-02 0. -1.
    10030    2    1    2    0    0  0.00000000000E+00  0.00000000000E+00 -0.33386522647E+03  0.21427178494E+04  0.21165476117E+04 0.  0.
        2    1    3    3  502    0  0.60869233403E+03  0.61117095770E+03 -0.78762617245E+03  0.11680716094E+04  0.25500000920E-02 0. -1.
       -2    1    3    3    0  502 -0.60869233403E+03 -0.61117095770E+03  0.45376094598E+03  0.97464624000E+03  0.25500000920E-02 0.  1.
</event>
<event>
 5   0  0.6221148E-05  0.2087113E+04  0.7818609E-02  0.8566942E-01
        1   -1    0    0  501    0  0.00000000000E+00  0.00000000000E+00  0.16767958906E+04  0.16767958906E+04  0.50400001928E-02 0.  1.
       -1   -1    0    0    0  501  0.00000000000E+00  0.00000000000E+00 -0.64945892101E+03  0.64945892103E+03  0.50400001928E-02 0. -1.
    10030    2    1    2    0    0  0.00000000000E+00  0.00000000000E+00  0.10273369696E+04  0.23262548116E+04  0.20871128862E+04 0.  0.
        3    1    3    3  502    0  0.90231350243E+03 -0.35883004585E+02 -0.69282340694E+02  0.90568057261E+03  0.10100000352E+00 0. -1.
       -3    1    3    3    0  502 -0.90231350243E+03  0.35883004585E+02  0.10966193103E+04  0.14205742390E+04  0.10100000352E+00 0.  1.
</event>
<event>
 5   0  0.1349252E-04  0.2174506E+04  0.7818609E-02  0.8529115E-01
       -2   -1    0    0    0  501  0.00000000000E+00  0.00000000000E+00  0.13012050036E+04  0.13012050036E+04  0.25500000920E-02 0.  1.
        2   -1    0    0  501    0  0.00000000000E+00  0.00000000000E+00 -0.90848021622E+03  0.90848021622E+03  0.25500000920E-02 0. -1.
    10030    2    1    2    0    0  0.00000000000E+00  0.00000000000E+00  0.39272478737E+03  0.22096852198E+04  0.21745059237E+04 0.  0.
        2    1    3    3  502    0  0.10148377469E+04 -0.35819499373E+03  0.39200355652E+02  0.10769103834E+04  0.25500000920E-02 0. -1.
       -2    1    3    3    0  502 -0.10148377469E+04  0.35819499373E+03  0.35352443172E+03  0.11327748364E+04  0.25500000920E-02 0.  1.
</event>
<event>
 5   0  0.1252477E-04  0.2098551E+04  0.7818609E-02  0.8561882E-01
        2   -1    0    0  501    0  0.00000000000E+00  0.00000000000E+00  0.13423132084E+04  0.13423132084E+04  0.25500000920E-02 0. -1.
       -2   -1    0    0    0  501  0.00000000000E+00  0.00000000000E+00 -0.82021037509E+03  0.82021037510E+03  0.25500000920E-02 0.  1.
    10030    2    1    2    0    0  0.00000000000E+00  0.00000000000E+00  0.52210283334E+03  0.21625235835E+04  0.20985511385E+04 0.  0.
        4    1    3    3  502    0  0.20688888581E+03  0.64548458825E+03 -0.56431697272E+03  0.88199128303E+03  0.12699999809E+01 0.  1.
       -4    1    3    3    0  502 -0.20688888581E+03 -0.64548458825E+03  0.10864198061E+04  0.12805323005E+04  0.12699999809E+01 0. -1.
</event>
<event>
 5   0  0.6052292E-05  0.2132184E+04  0.7818609E-02  0.8547197E-01
        1   -1    0    0  501    0  0.00000000000E+00  0.00000000000E+00  0.80778854254E+03  0.80778854256E+03  0.50400001928E-02 0. -1.
       -1   -1    0    0    0  501  0.00000000000E+00  0.00000000000E+00 -0.14069920580E+04  0.14069920580E+04  0.50400001928E-02 0.  1.
    10030    2    1    2    0    0  0.00000000000E+00  0.00000000000E+00 -0.59920351550E+03  0.22147806006E+04  0.21321839170E+04 0.  0.
        1    1    3    3  502    0  0.35632952922E+03  0.35398394312E+03  0.67718584341E+03  0.84312278579E+03  0.50400001928E-02 0. -1.
       -1    1    3    3    0  502 -0.35632952922E+03 -0.35398394312E+03 -0.12763893589E+04  0.13716578148E+04  0.50400001928E-02 0.  1.
</event>
<event>
 5   0  0.6052292E-05  0.1876361E+04  0.7818609E-02  0.8666713E-01
        1   -1    0    0  501    0  0.00000000000E+00  0.00000000000E+00  0.91735936448E+03  0.91735936450E+03  0.50400001928E-02 0. -1.
       -1   -1    0    0    0  501  0.00000000000E+00  0.00000000000E+00 -0.95947389528E+03  0.95947389529E+03  0.50400001928E-02 0.  1.
    10030    2    1    2    0    0  0.00000000000E+00  0.00000000000E+00 -0.42114530794E+02  0.18768332598E+04  0.18763606933E+04 0.  0.
        1    1    3    3  502    0  0.17458404701E+03  0.89284939143E+03  0.20817885062E+03  0.93327276780E+03  0.50400001928E-02 0. -1.
       -1    1    3    3    0  502 -0.17458404701E+03 -0.89284939143E+03 -0.25029338141E+03  0.94356049199E+03  0.50400001928E-02 0.  1.
</event>
<event>
 5   0  0.1281470E-04  0.2115877E+04  0.7818609E-02  0.8554281E-01
        2   -1    0    0  501    0  0.00000000000E+00  0.00000000000E+00  0.17833318754E+04  0.17833318754E+04  0.25500000920E-02 0. -1.
       -2   -1    0    0    0  501  0.00000000000E+00  0.00000000000E+00 -0.62760846185E+03  0.62760846185E+03  0.25500000920E-02 0.  1.
    10030    2    1    2    0    0  0.00000000000E+00  0.00000000000E+00  0.11557234135E+04  0.24109403372E+04  0.21158772888E+04 0.  0.
        3    1    3    3  502    0 -0.27649377750E+03  0.15594744246E+03 -0.57206245893E+03  0.65423534063E+03  0.10100000352E+00 0.  1.
       -3    1    3    3    0  502  0.27649377750E+03 -0.15594744246E+03  0.17277858725E+04  0.17567049966E+04  0.10100000352E+00 0. -1.
</event>
<event>
 5   0  0.6263616E-05  0.2099120E+04  0.7818609E-02  0.8561631E-01
        1   -1    0    0  501    0  0.00000000000E+00  0.00000000000E+00  0.15395054110E+04  0.15395054110E+04  0.50400001928E-02 0. -1.
       -1   -1    0    0    0  501  0.00000000000E+00  0.00000000000E+00 -0.71553890654E+03  0.71553890656E+03  0.50400001928E-02 0.  1.
    10030    2    1    2    0    0  0.00000000000E+00  0.00000000000E+00  0.82396650444E+03  0.22550443175E+04  0.20991198331E+04 0.  0.
        4    1    3    3  502    0 -0.98050655381E+03  0.54663343864E+01  0.81415967286E+03  0.12744726630E+04  0.12699999809E+01 0. -1.
       -4    1    3    3    0  502  0.98050655381E+03 -0.54663343864E+01  0.98068315724E+01  0.98057165456E+03  0.12699999809E+01 0.  1.
</event>
<event>
 5   0  0.6052292E-05  0.1967414E+04  0.7818609E-02  0.8622009E-01
       -1   -1    0    0    0  501  0.00000000000E+00  0.00000000000E+00  0.76801420912E+03  0.76801420914E+03  0.50400001928E-02 0.  1.
        1   -1    0    0  501    0  0.00000000000E+00  0.00000000000E+00 -0.12599756927E+04  0.12599756928E+04  0.50400001928E-02 0. -1.
    10030    2    1    2    0    0  0.00000000000E+00  0.00000000000E+00 -0.49196148362E+03  0.20279899019E+04  0.19674137696E+04 0.  0.
        1    1    3    3  502    0  0.17090478986E+03 -0.11733106642E+03 -0.12372040340E+04  0.12544516125E+04  0.50400001928E-02 0. -1.
       -1    1    3    3    0  502 -0.17090478986E+03  0.11733106642E+03  0.74524255034E+03  0.77353828943E+03  0.50400001928E-02 0.  1.
</event>
<event>
 5   0  0.6052292E-05  0.2112651E+04  0.7818609E-02  0.8555691E-01
       -1   -1    0    0    0  501  0.00000000000E+00  0.00000000000E+00  0.96575579314E+03  0.96575579316E+03  0.50400001928E-02 0.  1.
        1   -1    0    0  501    0  0.00000000000E+00  0.00000000000E+00 -0.11553889949E+04  0.11553889949E+04  0.50400001928E-02 0. -1.
    10030    2    1    2    0    0  0.00000000000E+00  0.00000000000E+00 -0.18963320178E+03  0.21211447881E+04  0.21126510504E+04 0.  0.
        1    1    3    3  502    0  0.29822963638E+03  0.48696300093E+03  0.79743490308E+03  0.98080390750E+03  0.50400001928E-02 0.  1.
       -1    1    3    3    0  502 -0.29822963638E+03 -0.48696300093E+03 -0.98706810486E+03  0.11403408806E+04  0.50400001928E-02 0. -1.
</event>
<event>
 5   0  0.6221148E-05  0.2107160E+04  0.7818609E-02  0.8558096E-01
        1   -1    0    0  501    0  0.00000000000E+00  0.00000000000E+00  0.19541996060E+04  0.19541996060E+04  0.50400001928E-02 0.  1.
       -1   -1    0    0    0  501  0.00000000000E+00  0.00000000000E+00 -0.56802332645E+03  0.56802332647E+03  0.50400001928E-02 0. -1.
    10030    2    1    2    0    0  0.00000000000E+00  0.00000000000E+00  0.13861762795E+04  0.25222229325E+04  0.21071601370E+04 0.  0.
        3    1    3    3  502    0 -0.11850284308E+03  0.50497348054E+03  0.17907821522E+04  0.18643877994E+04  0.10100000352E+00 0.  1.
       -3    1    3    3    0  502  0.11850284308E+03 -0.50497348054E+03 -0.40460587265E+03  0.65783513303E+03  0.10100000352E+00 0. -1.
</event>
<event>
 5   0  0.1325673E-04  0.2105612E+04  0.7818609E-02  0.8558775E-01
       -2   -1    0    0    0  501  0.00000000000E+00  0.00000000000E+00  0.83653580002E+03  0.83653580003E+03  0.25500000920E-02 0. -1.
        2   -1    0    0  501    0  0.00000000000E+00  0.00000000000E+00 -0.13249885471E+04  0.13249885471E+04  0.25500000920E-02 0.  1.
    10030    2    1    2    0    0  0.00000000000E+00  0.00000000000E+00 -0.48845274703E+03  0.21615243471E+04  0.21056118866E+04 0.  0.
        5    1    3    3  502    0  0.92192097645E+03 -0.28487390076E+03  0.18800875048E+03  0.98308738493E+03  0.46999998093E+01 0.  1.
       -5    1    3    3    0  502 -0.92192097645E+03  0.28487390076E+03 -0.67646149751E+03  0.11784369622E+04  0.46999998093E+01 0. -1.
</event>
<event>
 5   0  0.6263616E-05  0.1919265E+04  0.7818609E-02  0.8645326E-01
        1   -1    0    0  501    0  0.00000000000E+00  0.00000000000E+00  0.16905288233E+04  0.16905288233E+04  0.50400001928E-02 0.  1.
       -1   -1    0    0    0  501  0.00000000000E+00  0.00000000000E+00 -0.54473781301E+03  0.54473781303E+03  0.50400001928E-02 0. -1.
    10030    2    1    2    0    0  0.00000000000E+00  0.00000000000E+00  0.11457910103E+04  0.22352666363E+04  0.19192654575E+04 0.  0.
        4    1    3    3  502    0 -0.21868060811E+03 -0.26960546844E+03  0.16148380492E+04  0.16517299583E+04  0.12699999809E+01 0.  1.
       -4    1    3    3    0  502  0.21868060811E+03  0.26960546844E+03 -0.46904703894E+03  0.58353667804E+03  0.12699999809E+01 0. -1.
</event>
<event>
 5   0  0.6052292E-05  0.2112003E+04  0.7818609E-02  0.8555974E-01
        1   -1    0    0  501    0  0.00000000000E+00  0.00000000000E+00  0.14511535328E+04  0.14511535328E+04  0.50400001928E-02 0. -1.
       -1   -1    0    0    0  501  0.00000000000E+00  0.00000000000E+00 -0.76845043853E+03  0.76845043854E+03  0.50400001928E-02 0.  1.
    10030    2    1    2    0    0  0.00000000000E+00  0.00000000000E+00  0.68270309424E+03  0.22196039713E+04  0.21120033794E+04 0.  0.
        1    1    3    3  502    0  0.23719806319E+02  0.97477390539E+03 -0.84758961460E+02  0.97873943285E+03  0.50400001928E-02 0.  1.
       -1    1    3    3    0  502 -0.23719806319E+02 -0.97477390539E+03  0.76746205570E+03  0.12408645385E+04  0.50400001928E-02 0. -1.
</event>
<event>
 5   0  0.6052292E-05  0.2105173E+04  0.7818609E-02  0.8558968E-01
        1   -1    0    0  501    0  0.00000000000E+00  0.00000000000E+00  0.10352227739E+04  0.10352227739E+04  0.50400001928E-02 0.  1.
       -1   -1    0    0    0  501  0.00000000000E+00  0.00000000000E+00 -0.10702413546E+04  0.10702413547E+04  0.50400001928E-02 0. -1.
    10030    2    1    2    0    0  0.00000000000E+00  0.00000000000E+00 -0.35018580725E+02  0.21054641286E+04  0.21051728898E+04 0.  0.
        1    1    3    3  502    0  0.51390005542E+03 -0.57436004508E+03  0.69949678430E+03  0.10408066485E+04  0.50400001928E-02 0.  1.
       -1    1    3    3    0  502 -0.51390005542E+03  0.57436004508E+03 -0.73451536503E+03  0.10646574801E+04  0.50400001928E-02 0. -1.
</event>
<event>
 5   0  0.1325673E-04  0.2091062E+04  0.7818609E-02  0.8565191E-01
       -2   -1    0    0    0  501  0.00000000000E+00  0.00000000000E+00  0.10434511040E+04  0.10434511040E+04  0.25500000920E-02 0.  1.
        2   -1    0    0  501    0  0.00000000000E+00  0.00000000000E+00 -0.10476155326E+04  0.10476155326E+04  0.25500000920E-02 0. -1.
    10030    2    1    2    0    0  0.00000000000E+00  0.00000000000E+00 -0.41644285481E+01  0.20910666366E+04  0.20910624898E+04 0.  0.
        5    1    3    3  502    0  0.94962497742E+02 -0.16189442147E+03 -0.10306200163E+04  0.10475816854E+04  0.46999998093E+01 0. -1.
       -5    1    3    3    0  502 -0.94962497742E+02  0.16189442147E+03  0.10264555877E+04  0.10434849512E+04  0.46999998093E+01 0.  1.
</event>
<event>
 5   0  0.1252477E-04  0.2073854E+04  0.7818609E-02  0.8572849E-01
        2   -1    0    0  501    0  0.00000000000E+00  0.00000000000E+00  0.12252763697E+04  0.12252763697E+04  0.25500000920E-02 0. -1.
       -2   -1    0    0    0  501  0.00000000000E+00  0.00000000000E+00 -0.87753040617E+03  0.87753040617E+03  0.25500000920E-02 0.  1.
    10030    2    1    2    0    0  0.00000000000E+00  0.00000000000E+00  0.34774596358E+03  0.21028067759E+04  0.20738536789E+04 0.  0.
        4    1    3    3  502    0 -0.10227888484E+04  0.16745038145E+03  0.20717969298E+03  0.10569113949E+04  0.12699999809E+01 0.  1.
       -4    1    3    3    0  502  0.10227888484E+04 -0.16745038145E+03  0.14056627060E+03  0.10458953810E+04  0.12699999809E+01 0. -1.
</event>
<event>
 5   0  0.5846187E-05  0.1970465E+04  0.7818609E-02  0.8620555E-01
        1   -1    0    0  501    0  0.00000000000E+00  0.00000000000E+00  0.60061987310E+03  0.60061987312E+03  0.50400001928E-02 0. -1.
       -1   -1    0    0    0  501  0.00000000000E+00  0.00000000000E+00 -0.16161348526E+04  0.16161348526E+04  0.50400001928E-02 0.  1.
    10030    2    1    2    0    0  0.00000000000E+00  0.00000000000E+00 -0.10155149795E+04  0.22167547257E+04  0.19704646255E+04 0.  0.
        5    1    3    3  502    0  0.39589260823E+03 -0.29577066771E+03  0.45109472902E+03  0.66911866636E+03  0.46999998093E+01 0. -1.
       -5    1    3    3    0  502 -0.39589260823E+03  0.29577066771E+03 -0.14666097085E+04  0.15476360594E+04  0.46999998093E+01 0.  1.
</event>
<event>
 5   0  0.1252477E-04  0.2090598E+04  0.7818609E-02  0.8565396E-01
        2   -1    0    0  501    0  0.00000000000E+00  0.00000000000E+00  0.11825722256E+04  0.11825722256E+04  0.25500000920E-02 0.  1.
       -2   -1    0    0    0  501  0.00000000000E+00  0.00000000000E+00 -0.92396061189E+03  0.92396061189E+03  0.25500000920E-02 0. -1.
    10030    2    1    2    0    0  0.00000000000E+00  0.00000000000E+00  0.25861161369E+03  0.21065328375E+04  0.20905981509E+04 0.  0.
        4    1    3    3  502    0 -0.75706828288E+03 -0.18801185281E+02  0.85531318903E+03  0.11423957868E+04  0.12699999809E+01 0.  1.
       -4    1    3    3    0  502  0.75706828288E+03  0.18801185281E+02 -0.59670157534E+03  0.96413705065E+03  0.12699999809E+01 0. -1.
</event>
<event>
 5   0  0.6221148E-05  0.2108001E+04  0.7818609E-02  0.8557727E-01
       -1   -1    0    0    0  501  0.00000000000E+00  0.00000000000E+00  0.42378309178E+03  0.42378309180E+03  0.50400001928E-02 0.  1.
        1   -1    0    0  501    0  0.00000000000E+00  0.00000000000E+00 -0.26214275875E+04  0.26214275875E+04  0.50400001928E-02 0. -1.
    10030    2    1    2    0    0  0.00000000000E+00  0.00000000000E+00 -0.21976444957E+04  0.30452106793E+04  0.21080006527E+04 0.  0.
        3    1    3    3  502    0  0.31121037534E+03  0.15745399530E+03  0.33800543059E+03  0.48568646231E+03  0.10100000352E+00 0.  1.
       -3    1    3    3    0  502 -0.31121037534E+03 -0.15745399530E+03 -0.25356499263E+04  0.25595242170E+04  0.10100000352E+00 0. -1.
</event>
<event>
 5   0  0.1349252E-04  0.2114149E+04  0.7818609E-02  0.8555036E-01
       -2   -1    0    0    0  501  0.00000000000E+00  0.00000000000E+00  0.47214286013E+03  0.47214286014E+03  0.25500000920E-02 0. -1.
        2   -1    0    0  501    0  0.00000000000E+00  0.00000000000E+00 -0.23666692699E+04  0.23666692699E+04  0.25500000920E-02 0.  1.
    10030    2    1    2    0    0  0.00000000000E+00  0.00000000000E+00 -0.18945264097E+04  0.28388121300E+04  0.21141485265E+04 0.  0.
        2    1    3    3  502    0 -0.96210090678E+03  0.62532837359E+02 -0.36527335257E+03  0.10310058839E+04  0.25500000920E-02 0. -1.
       -2    1    3    3    0  502  0.96210090678E+03 -0.62532837359E+02 -0.15292530572E+04  0.18078062461E+04  0.25500000920E-02 0.  1.
</event>
<event>
 5   0  0.1235817E-04  0.2079970E+04  0.7818609E-02  0.8570118E-01
        2   -1    0    0  501    0  0.00000000000E+00  0.00000000000E+00  0.23174686908E+04  0.23174686908E+04  0.25500000920E-02 0. -1.
       -2   -1    0    0    0  501  0.00000000000E+00  0.00000000000E+00 -0.46670272108E+03  0.46670272109E+03  0.25500000920E-02 0.  1.
    10030    2    1    2    0    0  0.00000000000E+00  0.00000000000E+00  0.18507659698E+04  0.27841714119E+04  0.20799701383E+04 0.  0.
        1    1    3    3  502    0  0.72179522311E+03  0.36049109145E+03  0.18037770312E+04  0.19759943698E+04  0.50400001928E-02 0. -1.
       -1    1    3    3    0  502 -0.72179522311E+03 -0.36049109145E+03  0.46988938579E+02  0.80817704217E+03  0.50400001928E-02 0.  1.
</event>
<event>
 5   0  0.6263616E-05  0.2103669E+04  0.7818609E-02  0.8559629E-01
       -1   -1    0    0    0  501  0.00000000000E+00  0.00000000000E+00  0.94086294730E+03  0.94086294731E+03  0.50400001928E-02 0.  1.
        1   -1    0    0  501    0  0.00000000000E+00  0.00000000000E+00 -0.11758946663E+04  0.11758946663E+04  0.50400001928E-02 0. -1.
    10030    2    1    2    0    0  0.00000000000E+00  0.00000000000E+00 -0.23503171903E+03  0.21167576137E+04  0.21036689107E+04 0.  0.
        4    1    3    3  502    0 -0.80078648054E+03  0.20050400978E+03 -0.77340986917E+03  0.11312052351E+04  0.12699999809E+01 0. -1.
       -4    1    3    3    0  502  0.80078648054E+03 -0.20050400978E+03  0.53837815014E+03  0.98555237852E+03  0.12699999809E+01 0.  1.
</event>
<event>
 5   0  0.1235817E-04  0.2095905E+04  0.7818609E-02  0.8563049E-01
       -2   -1    0    0    0  501  0.00000000000E+00  0.00000000000E+00  0.69815301320E+03  0.69815301321E+03  0.25500000920E-02 0. -1.
        2   -1    0    0  501    0  0.00000000000E+00  0.00000000000E+00 -0.15730141975E+04  0.15730141975E+04  0.25500000920E-02 0.  1.
    10030    2    1    2    0    0  0.00000000000E+00  0.00000000000E+00 -0.87486118431E+03  0.22711672107E+04  0.20959051523E+04 0.  0.
        1    1    3    3  502    0 -0.29805663256E+03 -0.81312237931E+03  0.20199666535E+03  0.88927409317E+03  0.50400001928E-02 0. -1.
       -1    1    3    3    0  502  0.29805663256E+03  0.81312237931E+03 -0.10768578497E+04  0.13818931176E+04  0.50400001928E-02 0.  1.
</event>
<event>
 5   0  0.5933905E-05  0.1875968E+04  0.7818609E-02  0.8666912E-01
        1   -1    0    0  501    0  0.00000000000E+00  0.00000000000E+00  0.18470518749E+04  0.18470518750E+04  0.50400001928E-02 0. -1.
       -1   -1    0    0    0  501  0.00000000000E+00  0.00000000000E+00 -0.47633403198E+03  0.47633403200E+03  0.50400001928E-02 0.  1.
    10030    2    1    2    0    0  0.00000000000E+00  0.00000000000E+00  0.13707178430E+04  0.23233859070E+04  0.18759676617E+04 0.  0.
        2    1    3    3  502    0 -0.27240374459E+03  0.10132744403E+03 -0.41915992267E+03  0.51006479173E+03  0.25500000920E-02 0.  1.
       -2    1    3    3    0  502  0.27240374459E+03 -0.10132744403E+03  0.17898777656E+04  0.18133211152E+04  0.25500000920E-02 0. -1.
</event>
<event>
 5   0  0.1252477E-04  0.2212045E+04  0.7818609E-02  0.8513431E-01
        2   -1    0    0  501    0  0.00000000000E+00  0.00000000000E+00  0.14502824418E+04  0.14502824418E+04  0.25500000920E-02 0.  1.
       -2   -1    0    0    0  501  0.00000000000E+00  0.00000000000E+00 -0.84348106487E+03  0.84348106487E+03  0.25500000920E-02 0. -1.
    10030    2    1    2    0    0  0.00000000000E+00  0.00000000000E+00  0.60680137689E+03  0.22937635066E+04  0.22120450071E+04 0.  0.
        4    1    3    3  502    0 -0.49318878009E+03  0.98873565227E+03  0.25206624671E+03  0.11333015347E+04  0.12699999809E+01 0. -1.
       -4    1    3    3    0  502  0.49318878009E+03 -0.98873565227E+03  0.35473513019E+03  0.11604619720E+04  0.12699999809E+01 0.  1.
</event>
<event>
 5   0  0.1281470E-04  0.2098895E+04  0.7818609E-02  0.8561730E-01
       -2   -1    0    0    0  501  0.00000000000E+00  0.00000000000E+00  0.66599742580E+03  0.66599742581E+03  0.25500000920E-02 0. -1.
        2   -1    0    0  501    0  0.00000000000E+00  0.00000000000E+00 -0.16536698940E+04  0.16536698940E+04  0.25500000920E-02 0.  1.
    10030    2    1    2    0    0  0.00000000000E+00  0.00000000000E+00 -0.98767246823E+03  0.23196673198E+04  0.20988948450E+04 0.  0.
        3    1    3    3  502    0  0.77326967643E+03 -0.62520675584E+03 -0.86454372507E+03  0.13176742172E+04  0.10100000352E+00 0. -1.
       -3    1    3    3    0  502 -0.77326967643E+03  0.62520675584E+03 -0.12312874315E+03  0.10019931026E+04  0.10100000352E+00 0.  1.
</event>
<event>
 5   0  0.5933905E-05  0.2104828E+04  0.7818609E-02  0.8559119E-01
       -1   -1    0    0    0  501  0.00000000000E+00  0.00000000000E+00  0.17700053915E+04  0.17700053915E+04  0.50400001928E-02 0. -1.
        1   -1    0    0  501    0  0.00000000000E+00  0.00000000000E+00 -0.62574703979E+03  0.62574703981E+03  0.50400001928E-02 0.  1.
    10030    2    1    2    0    0  0.00000000000E+00  0.00000000000E+00  0.11442583517E+04  0.23957524313E+04  0.21048283865E+04 0.  0.
        2    1    3    3  502    0  0.33715346155E+02  0.10124233561E+04  0.24731242686E+03  0.10427373654E+04  0.25500000920E-02 0.  1.
       -2    1    3    3    0  502 -0.33715346155E+02 -0.10124233561E+04  0.89694592487E+03  0.13530150660E+04  0.25500000920E-02 0. -1.
</event>
<event>
 5   0  0.6263616E-05  0.2086412E+04  0.7818609E-02  0.8567253E-01
        1   -1    0    0  501    0  0.00000000000E+00  0.00000000000E+00  0.10307365729E+04  0.10307365729E+04  0.50400001928E-02 0.  1.
       -1   -1    0    0    0  501  0.00000000000E+00  0.00000000000E+00 -0.10558258190E+04  0.10558258190E+04  0.50400001928E-02 0. -1.
    10030    2    1    2    0    0  0.00000000000E+00  0.00000000000E+00 -0.25089246091E+02  0.20865623919E+04  0.20864115474E+04 0.  0.
        4    1    3    3  502    0 -0.68301074697E+03 -0.42083091725E+03 -0.67943189456E+03  0.10512999827E+04  0.12699999809E+01 0. -1.
       -4    1    3    3    0  502  0.68301074697E+03  0.42083091725E+03  0.65434264847E+03  0.10352624092E+04  0.12699999809E+01 0.  1.
</event>
<event>
 5   0  0.6221148E-05  0.2090619E+04  0.7818609E-02  0.8565387E-01
        1   -1    0    0  501    0  0.00000000000E+00  0.00000000000E+00  0.12886806385E+04  0.12886806385E+04  0.50400001928E-02 0. -1.
       -1   -1    0    0    0  501  0.00000000000E+00  0.00000000000E+00 -0.84790001256E+03  0.84790001258E+03  0.50400001928E-02 0.  1.
    10030    2    1    2    0    0  0.00000000000E+00  0.00000000000E+00  0.44078062595E+03  0.21365806511E+04  0.20906193624E+04 0.  0.
        3    1    3    3  502    0 -0.86751447035E+03  0.98477010946E+02  0.80782542319E+03  0.11894792989E+04  0.10100000352E+00 0. -1.
       -3    1    3    3    0  502  0.86751447035E+03 -0.98477010946E+02 -0.36704479724E+03  0.94710135220E+03  0.10100000352E+00 0.  1.
</event>
<event>
 5   0  0.6221148E-05  0.2094859E+04  0.7818609E-02  0.8563511E-01
       -1   -1    0    0    0  501  0.00000000000E+00  0.00000000000E+00  0.13236347841E+04  0.13236347841E+04  0.50400001928E-02 0.  1.
        1   -1    0    0  501    0  0.00000000000E+00  0.00000000000E+00 -0.82886048852E+03  0.82886048854E+03  0.50400001928E-02 0. -1.
    10030    2    1    2    0    0  0.00000000000E+00  0.00000000000E+00  0.49477429553E+03  0.21524952726E+04  0.20948590156E+04 0.  0.
        3    1    3    3  502    0  0.50671643174E+03  0.67535681534E+03  0.88431289053E+03  0.12226519001E+04  0.10100000352E+00 0.  1.
       -3    1    3    3    0  502 -0.50671643174E+03 -0.67535681534E+03 -0.38953859499E+03  0.92984337252E+03  0.10100000352E+00 0. -1.
</event>
<event>
 5   0  0.1235817E-04  0.2066635E+04  0.7818609E-02  0.8576085E-01
       -2   -1    0    0    0  501  0.00000000000E+00  0.00000000000E+00  0.14090756895E+04  0.14090756895E+04  0.25500000920E-02 0.  1.
        2   -1    0    0  501    0  0.00000000000E+00  0.00000000000E+00 -0.75776278100E+03  0.75776278101E+03  0.25500000920E-02 0. -1.
    10030    2    1    2    0    0  0.00000000000E+00  0.00000000000E+00  0.65131290848E+03  0.21668384705E+04  0.20666350555E+04 0.  0.
        1    1    3    3  502    0 -0.27910870707E+02  0.10406158382E+03  0.14031704818E+04  0.14073006896E+04  0.50400001928E-02 0.  1.
       -1    1    3    3    0  502  0.27910870707E+02 -0.10406158382E+03 -0.75185757335E+03  0.75953778086E+03  0.50400001928E-02 0. -1.
</event>
<event>
 5   0  0.1325673E-04  0.2096115E+04  0.7818609E-02  0.8562957E-01
        2   -1    0    0  501    0  0.00000000000E+00  0.00000000000E+00  0.10854518244E+04  0.10854518244E+04  0.25500000920E-02 0.  1.
       -2   -1    0    0    0  501  0.00000000000E+00  0.00000000000E+00 -0.10119514918E+04  0.10119514918E+04  0.25500000920E-02 0. -1.
    10030    2    1    2    0    0  0.00000000000E+00  0.00000000000E+00  0.73500332560E+02  0.20974033162E+04  0.20961150665E+04 0.  0.
        5    1    3    3  502    0 -0.29809629687E+03  0.93937071746E+03 -0.32001314703E+03  0.10361994264E+04  0.46999998093E+01 0. -1.
       -5    1    3    3    0  502  0.29809629687E+03 -0.93937071746E+03  0.39351347959E+03  0.10612038898E+04  0.46999998093E+01 0.  1.
</event>
<event>
 5   0  0.1349252E-04  0.2100551E+04  0.7818609E-02  0.8561001E-01
       -2   -1    0    0    0  501  0.00000000000E+00  0.00000000000E+00  0.64251596501E+03  0.64251596502E+03  0.25500000920E-02 0. -1.
        2   -1    0    0  501    0  0.00000000000E+00  0.00000000000E+00 -0.17168114956E+04  0.17168114956E+04  0.25500000920E-02 0.  1.
    10030    2    1    2    0    0  0.00000000000E+00  0.00000000000E+00 -0.10742955306E+04  0.23593274606E+04  0.21005511609E+04 0.  0.
        2    1    3    3  502    0 -0.56758854510E+02  0.92819792705E+03  0.11157349973E+02  0.92999862678E+03  0.25500000920E-02 0.  1.
       -2    1    3    3    0  502  0.56758854510E+02 -0.92819792705E+03 -0.10854528806E+04  0.14293288339E+04  0.25500000920E-02 0. -1.
</event>
<event>
 5   0  0.6052292E-05  0.2096020E+04  0.7818609E-02  0.8562999E-01
        1   -1    0    0  501    0  0.00000000000E+00  0.00000000000E+00  0.19119772317E+04  0.19119772317E+04  0.50400001928E-02 0.  1.
       -1   -1    0    0    0  501  0.00000000000E+00  0.00000000000E+00 -0.57444435115E+03  0.57444435117E+03  0.50400001928E-02 0. -1.
    10030    2    1    2    0    0  0.00000000000E+00  0.00000000000E+00  0.13375328806E+04  0.24864215829E+04  0.20960195804E+04 0.  0.
        1    1    3    3  502    0 -0.61257211854E+01 -0.53674705814E+03 -0.39899138100E+03  0.66882662254E+03  0.50400001928E-02 0. -1.
       -1    1    3    3    0  502  0.61257211854E+01  0.53674705814E+03  0.17365242616E+04  0.18175949604E+04  0.50400001928E-02 0.  1.
</event>
<event>
 5   0  0.1349252E-04  0.2144595E+04  0.7818609E-02  0.8541850E-01
        2   -1    0    0  501    0  0.00000000000E+00  0.00000000000E+00  0.17904745021E+04  0.17904745021E+04  0.25500000920E-02 0. -1.
       -2   -1    0    0    0  501  0.00000000000E+00  0.00000000000E+00 -0.64218815146E+03  0.64218815147E+03  0.25500000920E-02 0.  1.
    10030    2    1    2    0    0  0.00000000000E+00  0.00000000000E+00  0.11482863506E+04  0.24326626535E+04  0.21445946104E+04 0.  0.
        2    1    3    3  502    0  0.15590573774E+03  0.66525153148E+03 -0.36327381602E+03  0.77384369520E+03  0.25500000920E-02 0.  1.
       -2    1    3    3    0  502 -0.15590573774E+03 -0.66525153148E+03  0.15115601666E+04  0.16588189583E+04  0.25500000920E-02 0. -1.
</event>
<event>
 5   0  0.6052292E-05  0.2098171E+04  0.7818609E-02  0.8562050E-01
        1   -1    0    0  501    0  0.00000000000E+00  0.00000000000E+00  0.16409091699E+04  0.16409091699E+04  0.50400001928E-02 0.  1.
       -1   -1    0    0    0  501  0.00000000000E+00  0.00000000000E+00 -0.67071353491E+03  0.67071353493E+03  0.50400001928E-02 0. -1.
    10030    2    1    2    0    0  0.00000000000E+00  0.00000000000E+00  0.97019563502E+03  0.23116227049E+04  0.20981706221E+04 0.  0.
        1    1    3    3  502    0  0.33148216653E+03  0.29982280627E+03 -0.56056519921E+03  0.71694315289E+03  0.50400001928E-02 0. -1.
       -1    1    3    3    0  502 -0.33148216653E+03 -0.29982280627E+03  0.15307608342E+04  0.15946795520E+04  0.50400001928E-02 0.  1.
</event>
<event>
 5   0  0.5846187E-05  0.2090366E+04  0.7818609E-02  0.8565499E-01
        1   -1    0    0  501    0  0.00000000000E+00  0.00000000000E+00  0.57775167668E+03  0.57775167670E+03  0.50400001928E-02 0. -1.
       -1   -1    0    0    0  501  0.00000000000E+00  0.00000000000E+00 -0.18907906371E+04  0.18907906371E+04  0.50400001928E-02 0.  1.
    10030    2    1    2    0    0  0.00000000000E+00  0.00000000000E+00 -0.13130389604E+04  0.24685423138E+04  0.20903659592E+04 0.  0.
        5    1    3    3  502    0  0.28164668479E+03 -0.96491547009E+03 -0.31835996953E+03  0.10544011948E+04  0.46999998093E+01 0. -1.
       -5    1    3    3    0  502 -0.28164668479E+03  0.96491547009E+03 -0.99467899090E+03  0.14141411190E+04  0.46999998093E+01 0.  1.
</event>
<event>
 5   0  0.1252477E-04  0.2114128E+04  0.7818609E-02  0.8555045E-01
       -2   -1    0    0    0  501  0.00000000000E+00  0.00000000000E+00  0.17189142215E+04  0.17189142215E+04  0.25500000920E-02 0. -1.
        2   -1    0    0  501    0  0.00000000000E+00  0.00000000000E+00 -0.65005238070E+03  0.65005238070E+03  0.25500000920E-02 0.  1.
    10030    2    1    2    0    0  0.00000000000E+00  0.00000000000E+00  0.10688618408E+04  0.23689666022E+04  0.21141279828E+04 0.  0.
        4    1    3    3  502    0  0.54092985598E+03  0.60098037568E+03  0.12973868390E+04  0.15287238940E+04  0.12699999809E+01 0. -1.
       -4    1    3    3    0  502 -0.54092985598E+03 -0.60098037568E+03 -0.22852499821E+03  0.84024270824E+03  0.12699999809E+01 0.  1.
</event>
<event>
 5   0  0.6221148E-05  0.2130171E+04  0.7818609E-02  0.8548068E-01
        1   -1    0    0  501    0  0.00000000000E+00  0.00000000000E+00  0.10263894889E+04  0.10263894889E+04  0.50400001928E-02 0. -1.
       -1   -1    0    0    0  501  0.00000000000E+00  0.00000000000E+00 -0.11052403757E+04  0.11052403757E+04  0.50400001928E-02 0.  1.
    10030    2    1    2    0    0  0.00000000000E+00  0.00000000000E+00 -0.78850886868E+02  0.21316298646E+04  0.21301709831E+04 0.  0.
        3    1    3    3  502    0  0.75126056171E+03  0.64473602277E+03  0.35369233381E+03  0.10512731557E+04  0.10100000352E+00 0. -1.
       -3    1    3    3    0  502 -0.75126056171E+03 -0.64473602277E+03 -0.43254322068E+03  0.10803567090E+04  0.10100000352E+00 0.  1.
</event>
<event>
 5   0  0.4615125E-05  0.2126540E+04  0.7818609E-02  0.8549642E-01
       -3   -1    0    0    0  501  0.00000000000E+00  0.00000000000E+00  0.97014572513E+03  0.97014573038E+03  0.10100000352E+00 0. -1.
        3   -1    0    0  501    0  0.00000000000E+00  0.00000000000E+00 -0.11653332234E+04  0.11653332278E+04  0.10100000352E+00 0.  1.
    10030    2    1    2    0    0  0.00000000000E+00  0.00000000000E+00 -0.19518749828E+03  0.21354789582E+04  0.21265399647E+04 0.  0.
        4    1    3    3  502    0  0.20233334170E+03 -0.10428179582E+04 -0.51211205930E+02  0.10635000121E+04  0.12699999809E+01 0. -1.
       -4    1    3    3    0  502 -0.20233334170E+03  0.10428179582E+04 -0.14397629235E+03  0.10719789461E+04  0.12699999809E+01 0.  1.
</event>
<event>
 5   0  0.6052292E-05  0.2094107E+04  0.7818609E-02  0.8563844E-01
        1   -1    0    0  501    0  0.00000000000E+00  0.00000000000E+00  0.15510155305E+04  0.15510155305E+04  0.50400001928E-02 0.  1.
       -1   -1    0    0    0  501  0.00000000000E+00  0.00000000000E+00 -0.70684061778E+03  0.70684061780E+03  0.50400001928E-02 0. -1.
    10030    2    1    2    0    0  0.00000000000E+00  0.00000000000E+00  0.84417491268E+03  0.22578561483E+04  0.20941067554E+04 0.  0.
        1    1    3    3  502    0 -0.94298594442E+03 -0.36750179608E+03  0.71147941290E+03  0.12371269201E+04  0.50400001928E-02 0. -1.
       -1    1    3    3    0  502  0.94298594442E+03  0.36750179608E+03  0.13269549978E+03  0.10207292281E+04  0.50400001928E-02 0.  1.
</event>
<event>
 5   0  0.5933905E-05  0.2034876E+04  0.7818609E-02  0.8590486E-01
        1   -1    0    0  501    0  0.00000000000E+00  0.00000000000E+00  0.14014194970E+04  0.14014194970E+04  0.50400001928E-02 0.  1.
       -1   -1    0    0    0  501  0.00000000000E+00  0.00000000000E+00 -0.73866561241E+03  0.73866561243E+03  0.50400001928E-02 0. -1.
    10030    2    1    2    0    0  0.00000000000E+00  0.00000000000E+00  0.66275388457E+03  0.21400851094E+04  0.20348763019E+04 0.  0.
        2    1    3    3  502    0 -0.36569829256E+03  0.14108768428E+03  0.13188241789E+04  0.13758409031E+04  0.25500000920E-02 0.  1.
       -2    1    3    3    0  502  0.36569829256E+03 -0.14108768428E+03 -0.65607029430E+03  0.76424420632E+03  0.25500000920E-02 0. -1.
</event>
<event>
 5   0  0.6263616E-05  0.2089156E+04  0.7818609E-02  0.8566035E-01
       -1   -1    0    0    0  501  0.00000000000E+00  0.00000000000E+00  0.60755092570E+03  0.60755092572E+03  0.50400001928E-02 0.  1.
        1   -1    0    0  501    0  0.00000000000E+00  0.00000000000E+00 -0.17959699210E+04  0.17959699210E+04  0.50400001928E-02 0. -1.
    10030    2    1    2    0    0  0.00000000000E+00  0.00000000000E+00 -0.11884189953E+04  0.24035208468E+04  0.20891559904E+04 0.  0.
        4    1    3    3  502    0 -0.59204095614E+03 -0.50927813005E+03  0.20391217572E+03  0.80712978869E+03  0.12699999809E+01 0.  1.
       -4    1    3    3    0  502  0.59204095614E+03  0.50927813005E+03 -0.13923311710E+04  0.15963910581E+04  0.12699999809E+01 0. -1.
</event>
<event>
 5   0  0.5846187E-05  0.2094464E+04  0.7818609E-02  0.8563686E-01
       -1   -1    0    0    0  501  0.00000000000E+00  0.00000000000E+00  0.63086678258E+03  0.63086678260E+03  0.50400001928E-02 0.  1.
        1   -1    0    0  501    0  0.00000000000E+00  0.00000000000E+00 -0.17383932009E+04  0.17383932009E+04  0.50400001928E-02 0. -1.
    10030    2    1    2    0    0  0.00000000000E+00  0.00000000000E+00 -0.11075264183E+04  0.23692599835E+04  0.20944636789E+04 0.  0.
        5    1    3    3  502    0  0.10038653567E+04  0.17661134283E+03 -0.28195643363E+03  0.10575720974E+04  0.46999998093E+01 0.  1.
       -5    1    3    3    0  502 -0.10038653567E+04 -0.17661134283E+03 -0.82556998464E+03  0.13116878860E+04  0.46999998093E+01 0. -1.
</event>
<event>
 5   0  0.1235817E-04  0.2106835E+04  0.7818609E-02  0.8558238E-01
        2   -1    0    0  501    0  0.00000000000E+00  0.00000000000E+00  0.14222950943E+04  0.14222950943E+04  0.25500000920E-02 0. -1.
       -2   -1    0    0    0  501  0.00000000000E+00  0.00000000000E+00 -0.78020983000E+03  0.78020983000E+03  0.25500000920E-02 0.  1.
    10030    2    1    2    0    0  0.00000000000E+00  0.00000000000E+00  0.64208526435E+03  0.22025049244E+04  0.21068351751E+04 0.  0.
        1    1    3    3  502    0  0.44119359003E+03  0.48462814978E+03 -0.54113316189E+03  0.84990665744E+03  0.50400001928E-02 0.  1.
       -1    1    3    3    0  502 -0.44119359003E+03 -0.48462814978E+03  0.11832184262E+04  0.13525982669E+04  0.50400001928E-02 0. -1.
</event>
<event>
 5   0  0.5933905E-05  0.2065612E+04  0.7818609E-02  0.8576545E-01
        1   -1    0    0  501    0  0.00000000000E+00  0.00000000000E+00  0.18881947987E+04  0.18881947987E+04  0.50400001928E-02 0.  1.
       -1   -1    0    0    0  501  0.00000000000E+00  0.00000000000E+00 -0.56492487717E+03  0.56492487719E+03  0.50400001928E-02 0. -1.
    10030    2    1    2    0    0  0.00000000000E+00  0.00000000000E+00  0.13232699216E+04  0.24531196759E+04  0.20656119817E+04 0.  0.
        2    1    3    3  502    0 -0.24141738950E+02 -0.23372361524E+03  0.18560310003E+04  0.18708448963E+04  0.25500000920E-02 0.  1.
       -2    1    3    3    0  502  0.24141738950E+02  0.23372361524E+03 -0.53276107878E+03  0.58227477960E+03  0.25500000920E-02 0. -1.
</event>
<event>
 5   0  0.1281470E-04  0.2068498E+04  0.7818609E-02  0.8575248E-01
       -2   -1    0    0    0  501  0.00000000000E+00  0.00000000000E+00  0.20830564762E+04  0.20830564762E+04  0.25500000920E-02 0. -1.
        2   -1    0    0  501    0  0.00000000000E+00  0.00000000000E+00 -0.51351048032E+03  0.51351048033E+03  0.25500000920E-02 0.  1.
    10030    2    1    2    0    0  0.00000000000E+00  0.00000000000E+00  0.15695459959E+04  0.25965669566E+04  0.20684983265E+04 0.  0.
        3    1    3    3  502    0  0.34104576383E+02 -0.10221152024E+04  0.97838390475E+03  0.14153154010E+04  0.10100000352E+00 0. -1.
       -3    1    3    3    0  502 -0.34104576383E+02  0.10221152024E+04  0.59116209117E+03  0.11812515555E+04  0.10100000352E+00 0.  1.
</event>
<event>
 5   0  0.6263616E-05  0.2019728E+04  0.7818609E-02  0.8597453E-01
        1   -1    0    0  501    0  0.00000000000E+00  0.00000000000E+00  0.13868983318E+04  0.13868983318E+04  0.50400001928E-02 0.  1.
       -1   -1    0    0    0  501  0.00000000000E+00  0.00000000000E+00 -0.73532775161E+03  0.73532775163E+03  0.50400001928E-02 0. -1.
    10030    2    1    2    0    0  0.00000000000E+00  0.00000000000E+00  0.65157058023E+03  0.21222260835E+04  0.20197275381E+04 0.  0.
        4    1    3    3  502    0  0.10541896182E+03  0.70127565578E+03  0.10812454842E+04  0.12930561136E+04  0.12699999809E+01 0.  1.
       -4    1    3    3    0  502 -0.10541896182E+03 -0.70127565578E+03 -0.42967490399E+03  0.82916996986E+03  0.12699999809E+01 0. -1.
</event>
<event>
 5   0  0.1235817E-04  0.2097264E+04  0.7818609E-02  0.8562449E-01
        2   -1    0    0  501    0  0.00000000000E+00  0.00000000000E+00  0.16315149451E+04  0.16315149451E+04  0.25500000920E-02 0.  1.
       -2   -1    0    0    0  501  0.00000000000E+00  0.00000000000E+00 -0.67399281397E+03  0.67399281397E+03  0.25500000920E-02 0. -1.
    10030    2    1    2    0    0  0.00000000000E+00  0.00000000000E+00  0.95752213113E+03  0.23055077591E+04  0.20972642646E+04 0.  0.
        1    1    3    3  502    0 -0.93083146668E+03 -0.11943332158E+03  0.99310542306E+03  0.13663710766E+04  0.50400001928E-02 0. -1.
       -1    1    3    3    0  502  0.93083146668E+03  0.11943332158E+03 -0.35583291930E+02  0.93913668246E+03  0.50400001928E-02 0.  1.
</event>
<event>
 5   0  0.6221148E-05  0.2118364E+04  0.7818609E-02  0.8553197E-01
        1   -1    0    0  501    0  0.00000000000E+00  0.00000000000E+00  0.14673923030E+04  0.14673923030E+04  0.50400001928E-02 0.  1.
       -1   -1    0    0    0  501  0.00000000000E+00  0.00000000000E+00 -0.76453062305E+03  0.76453062307E+03  0.50400001928E-02 0. -1.
    10030    2    1    2    0    0  0.00000000000E+00  0.00000000000E+00  0.70286167998E+03  0.22319229261E+04  0.21183638514E+04 0.  0.
        3    1    3    3  502    0 -0.24725459236E+03  0.10283443306E+04  0.41139807152E+03  0.11348459275E+04  0.10100000352E+00 0. -1.
       -3    1    3    3    0  502  0.24725459236E+03 -0.10283443306E+04  0.29146360847E+03  0.10970769986E+04  0.10100000352E+00 0.  1.
</event>
<event>
 5   0  0.1252477E-04  0.2085430E+04  0.7818609E-02  0.8567689E-01
       -2   -1    0    0    0  501  0.00000000000E+00  0.00000000000E+00  0.64510506512E+03  0.64510506512E+03  0.25500000920E-02 0.  1.
        2   -1    0    0  501    0  0.00000000000E+00  0.00000000000E+00 -0.16853911074E+04  0.16853911074E+04  0.25500000920E-02 0. -1.
    10030    2    1    2    0    0  0.00000000000E+00  0.00000000000E+00 -0.10402860423E+04  0.23304961725E+04  0.20854297783E+04 0.  0.
        4    1    3    3  502    0 -0.47210108746E+03  0.41098791699E+03  0.41180050418E+03  0.74924747102E+03  0.12699999809E+01 0.  1.
       -4    1    3    3    0  502  0.47210108746E+03 -0.41098791699E+03 -0.14520865465E+04  0.15812487015E+04  0.12699999809E+01 0. -1.
</event>
<event>
 5   0  0.4615125E-05  0.2063176E+04  0.7818609E-02  0.8577641E-01
        3   -1    0    0  501    0  0.00000000000E+00  0.00000000000E+00  0.10827334717E+04  0.10827334764E+04  0.10100000352E+00 0. -1.
       -3   -1    0    0    0  501  0.00000000000E+00  0.00000000000E+00 -0.98285803490E+03  0.98285804009E+03  0.10100000352E+00 0.  1.
    10030    2    1    2    0    0  0.00000000000E+00  0.00000000000E+00  0.99875436767E+02  0.20655915165E+04  0.20631755160E+04 0.  0.
        5    1    3    3  502    0 -0.22534476507E+03 -0.30027191834E+03 -0.91202442352E+03  0.98628298535E+03  0.46999998093E+01 0.  1.
       -5    1    3    3    0  502  0.22534476507E+03  0.30027191834E+03  0.10118998603E+04  0.10793085311E+04  0.46999998093E+01 0. -1.
</event>
<event>
 5   0  0.1252477E-04  0.1978541E+04  0.7818609E-02  0.8616720E-01
       -2   -1    0    0    0  501  0.00000000000E+00  0.00000000000E+00  0.75459258271E+03  0.75459258272E+03  0.25500000920E-02 0.  1.
        2   -1    0    0  501    0  0.00000000000E+00  0.00000000000E+00 -0.12969327886E+04  0.12969327886E+04  0.25500000920E-02 0. -1.
    10030    2    1    2    0    0  0.00000000000E+00  0.00000000000E+00 -0.54234020589E+03  0.20515253713E+04  0.19785407376E+04 0.  0.
        4    1    3    3  502    0 -0.43502936236E+03  0.87487417617E+03 -0.43180036854E+03  0.10682268211E+04  0.12699999809E+01 0.  1.
       -4    1    3    3    0  502  0.43502936236E+03 -0.87487417617E+03 -0.11053983735E+03  0.98329855018E+03  0.12699999809E+01 0. -1.
</event>
<event>
 5   0  0.1325673E-04  0.2108580E+04  0.7818609E-02  0.8557473E-01
       -2   -1    0    0    0  501  0.00000000000E+00  0.00000000000E+00  0.40458098865E+03  0.40458098866E+03  0.25500000920E-02 0. -1.
        2   -1    0    0  501    0  0.00000000000E+00  0.00000000000E+00 -0.27473548919E+04  0.27473548919E+04  0.25500000920E-02 0.  1.
    10030    2    1    2    0    0  0.00000000000E+00  0.00000000000E+00 -0.23427739032E+04  0.31519358805E+04  0.21085801463E+04 0.  0.
        5    1    3    3  502    0 -0.15009760877E+03 -0.75835170437E+03 -0.99824121123E+02  0.77949569905E+03  0.46999998093E+01 0. -1.
       -5    1    3    3    0  502  0.15009760877E+03  0.75835170437E+03 -0.22429497821E+04  0.23724401815E+04  0.46999998093E+01 0.  1.
</event>
<event>
 5   0  0.1349252E-04  0.2088713E+04  0.7818609E-02  0.8566232E-01
       -2   -1    0    0    0  501  0.00000000000E+00  0.00000000000E+00  0.25514635233E+04  0.25514635233E+04  0.25500000920E-02 0. -1.
        2   -1    0    0  501    0  0.00000000000E+00  0.00000000000E+00 -0.42747237703E+03  0.42747237704E+03  0.25500000920E-02 0.  1.
    10030    2    1    2    0    0  0.00000000000E+00  0.00000000000E+00  0.21239911462E+04  0.29789359003E+04  0.20887126918E+04 0.  0.
        2    1    3    3  502    0 -0.73154018387E+03  0.61330959399E+03  0.16660416134E+04  0.19201547741E+04  0.25500000920E-02 0.  1.
       -2    1    3    3    0  502  0.73154018387E+03 -0.61330959399E+03  0.45794953281E+03  0.10587811262E+04  0.25500000920E-02 0. -1.
</event>
<event>
 5   0  0.1281470E-04  0.2098854E+04  0.7818609E-02  0.8561748E-01
        2   -1    0    0  501    0  0.00000000000E+00  0.00000000000E+00  0.66508668604E+03  0.66508668605E+03  0.25500000920E-02 0.  1.
       -2   -1    0    0    0  501  0.00000000000E+00  0.00000000000E+00 -0.16558704936E+04  0.16558704936E+04  0.25500000920E-02 0. -1.
    10030    2    1    2    0    0  0.00000000000E+00  0.00000000000E+00 -0.99078380754E+03  0.23209571796E+04  0.20988543724E+04 0.  0.
        3    1    3    3  502    0  0.41866951827E+03 -0.27192337508E+03 -0.15161496724E+04  0.15962256503E+04  0.10100000352E+00 0. -1.
       -3    1    3    3    0  502 -0.41866951827E+03  0.27192337508E+03  0.52536586484E+03  0.72473152932E+03  0.10100000352E+00 0.  1.
</event>
<event>
 5   0  0.1281470E-04  0.2045996E+04  0.7818609E-02  0.8585413E-01
       -2   -1    0    0    0  501  0.00000000000E+00  0.00000000000E+00  0.80228668337E+03  0.80228668337E+03  0.25500000920E-02 0. -1.
        2   -1    0    0  501    0  0.00000000000E+00  0.00000000000E+00 -0.13044270144E+04  0.13044270144E+04  0.25500000920E-02 0.  1.
    10030    2    1    2    0    0  0.00000000000E+00  0.00000000000E+00 -0.50214033108E+03  0.21067136978E+04  0.20459955260E+04 0.  0.
        3    1    3    3  502    0 -0.52213789340E+03  0.32783983288E+02  0.65412135612E+03  0.83760224930E+03  0.10100000352E+00 0. -1.
       -3    1    3    3    0  502  0.52213789340E+03 -0.32783983288E+02 -0.11562616872E+04  0.12691114485E+04  0.10100000352E+00 0.  1.
</event>
<event>
 5   0  0.1349252E-04  0.2096449E+04  0.7818609E-02  0.8562809E-01
        2   -1    0    0  501    0  0.00000000000E+00  0.00000000000E+00  0.10666021084E+04  0.10666021084E+04  0.25500000920E-02 0.  1.
       -2   -1    0    0    0  501  0.00000000000E+00  0.00000000000E+00 -0.10301639230E+04  0.10301639230E+04  0.25500000920E-02 0. -1.
    10030    2    1    2    0    0  0.00000000000E+00  0.00000000000E+00  0.36438185396E+02  0.20967660315E+04  0.20964493911E+04 0.  0.
        2    1    3    3  502    0 -0.96664153669E+03 -0.40094706537E+03 -0.41961439459E+02  0.10473371817E+04  0.25500000920E-02 0. -1.
       -2    1    3    3    0  502  0.96664153669E+03  0.40094706537E+03  0.78399624854E+02  0.10494288498E+04  0.25500000920E-02 0.  1.
</event>
<event>
 5   0  0.4615125E-05  0.2137284E+04  0.7818609E-02  0.8544995E-01
       -3   -1    0    0    0  501  0.00000000000E+00  0.00000000000E+00  0.56740769416E+03  0.56740770315E+03  0.10100000352E+00 0.  1.
        3   -1    0    0  501    0  0.00000000000E+00  0.00000000000E+00 -0.20126549054E+04  0.20126549080E+04  0.10100000352E+00 0. -1.
    10030    2    1    2    0    0  0.00000000000E+00  0.00000000000E+00 -0.14452472113E+04  0.25800626111E+04  0.21372841588E+04 0.  0.
        1    1    3    3  502    0 -0.64080675338E+03 -0.44438677277E+02  0.30834923971E+03  0.71252182063E+03  0.50400001928E-02 0.  1.
       -1    1    3    3    0  502  0.64080675338E+03  0.44438677277E+02 -0.17535964510E+04  0.18675407905E+04  0.50400001928E-02 0. -1.
</event>
<event>
 5   0  0.1325673E-04  0.2087301E+04  0.7818609E-02  0.8566858E-01
        2   -1    0    0  501    0  0.00000000000E+00  0.00000000000E+00  0.10914244456E+04  0.10914244456E+04  0.25500000920E-02 0. -1.
       -2   -1    0    0    0  501  0.00000000000E+00  0.00000000000E+00 -0.99796798095E+03  0.99796798095E+03  0.25500000920E-02 0.  1.
    10030    2    1    2    0    0  0.00000000000E+00  0.00000000000E+00  0.93456464630E+02  0.20893924265E+04  0.20873012723E+04 0.  0.
        5    1    3    3  502    0  0.11493007275E+03  0.94651892380E+03 -0.37805237726E+03  0.10256961951E+04  0.46999998093E+01 0.  1.
       -5    1    3    3    0  502 -0.11493007275E+03 -0.94651892380E+03  0.47150884189E+03  0.10636962314E+04  0.46999998093E+01 0. -1.
</event>
<event>
 5   0  0.1281470E-04  0.2084072E+04  0.7818609E-02  0.8568292E-01
       -2   -1    0    0    0  501  0.00000000000E+00  0.00000000000E+00  0.55849377814E+03  0.55849377814E+03  0.25500000920E-02 0.  1.
        2   -1    0    0  501    0  0.00000000000E+00  0.00000000000E+00 -0.19442272755E+04  0.19442272755E+04  0.25500000920E-02 0. -1.
    10030    2    1    2    0    0  0.00000000000E+00  0.00000000000E+00 -0.13857334974E+04  0.25027210537E+04  0.20840718190E+04 0.  0.
        3    1    3    3  502    0 -0.24363418153E+03  0.77515085678E+03  0.90584513171E+02  0.81757081002E+03  0.10100000352E+00 0.  1.
       -3    1    3    3    0  502  0.24363418153E+03 -0.77515085678E+03 -0.14763180106E+04  0.16851502437E+04  0.10100000352E+00 0. -1.
</event>
<event>
 5   0  0.6263616E-05  0.1812498E+04  0.7818609E-02  0.8699681E-01
       -1   -1    0    0    0  501  0.00000000000E+00  0.00000000000E+00  0.90844602618E+03  0.90844602619E+03  0.50400001928E-02 0. -1.
        1   -1    0    0  501    0  0.00000000000E+00  0.00000000000E+00 -0.90405704458E+03  0.90405704459E+03  0.50400001928E-02 0.  1.
    10030    2    1    2    0    0  0.00000000000E+00  0.00000000000E+00  0.43889816018E+01  0.18125030708E+04  0.18124977568E+04 0.  0.
        4    1    3    3  502    0 -0.86663600082E+03  0.24775056971E+03  0.96253864993E+02  0.90647930045E+03  0.12699999809E+01 0. -1.
       -4    1    3    3    0  502  0.86663600082E+03 -0.24775056971E+03 -0.91864883391E+02  0.90602377034E+03  0.12699999809E+01 0.  1.
</event>
<event>
 5   0  0.1235817E-04  0.1709161E+04  0.7818609E-02  0.8756156E-01
       -2   -1    0    0    0  501  0.00000000000E+00  0.00000000000E+00  0.53748098426E+03  0.53748098426E+03  0.25500000920E-02 0. -1.
        2   -1    0    0  501    0  0.00000000000E+00  0.00000000000E+00 -0.13587610957E+04  0.13587610957E+04  0.25500000920E-02 0.  1.
    10030    2    1    2    0    0  0.00000000000E+00  0.00000000000E+00 -0.82128011143E+03  0.18962420800E+04  0.17091614916E+04 0.  0.
        1    1    3    3  502    0  0.53225439600E+02 -0.40704636402E+03 -0.12422068263E+04  0.13082803557E+04  0.50400001928E-02 0.  1.
       -1    1    3    3    0  502 -0.53225439600E+02  0.40704636402E+03  0.42092671484E+03  0.58796172424E+03  0.50400001928E-02 0. -1.
</event>
<event>
 5   0  0.1349252E-04  0.2092654E+04  0.7818609E-02  0.8564486E-01
        2   -1    0    0  501    0  0.00000000000E+00  0.00000000000E+00  0.18073848962E+04  0.18073848962E+04  0.25500000920E-02 0. -1.
       -2   -1    0    0    0  501  0.00000000000E+00  0.00000000000E+00 -0.60573735399E+03  0.60573735399E+03  0.25500000920E-02 0.  1.
    10030    2    1    2    0    0  0.00000000000E+00  0.00000000000E+00  0.12016475422E+04  0.24131222502E+04  0.20926543381E+04 0.  0.
        2    1    3    3  502    0 -0.30508223637E+03 -0.61541685534E+03 -0.30934405883E+03  0.75333048759E+03  0.25500000920E-02 0.  1.
       -2    1    3    3    0  502  0.30508223637E+03  0.61541685534E+03  0.15109916010E+04  0.16597917626E+04  0.25500000920E-02 0. -1.
</event>
<event>
 5   0  0.5933905E-05  0.2199544E+04  0.7818609E-02  0.8518618E-01
       -1   -1    0    0    0  501  0.00000000000E+00  0.00000000000E+00  0.60321133018E+03  0.60321133020E+03  0.50400001928E-02 0. -1.
        1   -1    0    0  501    0  0.00000000000E+00  0.00000000000E+00 -0.20050994770E+04  0.20050994770E+04  0.50400001928E-02 0.  1.
    10030    2    1    2    0    0  0.00000000000E+00  0.00000000000E+00 -0.14018881468E+04  0.26083108072E+04  0.21995442462E+04 0.  0.
        2    1    3    3  502    0  0.36024973359E+03 -0.10037721440E+04 -0.38239532071E+03  0.11329450864E+04  0.25500000920E-02 0. -1.
       -2    1    3    3    0  502 -0.36024973359E+03  0.10037721440E+04 -0.10194928261E+04  0.14753657208E+04  0.25500000920E-02 0.  1.
</event>
<event>
 5   0  0.1325673E-04  0.2112426E+04  0.7818609E-02  0.8555789E-01
        2   -1    0    0  501    0  0.00000000000E+00  0.00000000000E+00  0.10953993689E+04  0.10953993689E+04  0.25500000920E-02 0.  1.
       -2   -1    0    0    0  501  0.00000000000E+00  0.00000000000E+00 -0.10184284644E+04  0.10184284644E+04  0.25500000920E-02 0. -1.
    10030    2    1    2    0    0  0.00000000000E+00  0.00000000000E+00  0.76970904536E+02  0.21138278333E+04  0.21124259960E+04 0.  0.
        5    1    3    3  502    0 -0.99527544466E+03  0.25992834239E+03 -0.20131466970E+03  0.10481820644E+04  0.46999998093E+01 0. -1.
       -5    1    3    3    0  502  0.99527544466E+03 -0.25992834239E+03  0.27828557424E+03  0.10656457689E+04  0.46999998093E+01 0.  1.
</event>
<event>
 5   0  0.6221148E-05  0.2102426E+04  0.7818609E-02  0.8560175E-01
        1   -1    0    0  501    0  0.00000000000E+00  0.00000000000E+00  0.16774251301E+04  0.16774251301E+04  0.50400001928E-02 0. -1.
       -1   -1    0    0    0  501  0.00000000000E+00  0.00000000000E+00 -0.65877682781E+03  0.65877682782E+03  0.50400001928E-02 0.  1.
    10030    2    1    2    0    0  0.00000000000E+00  0.00000000000E+00  0.10186483023E+04  0.23362019580E+04  0.21024260331E+04 0.  0.
        3    1    3    3  502    0  0.22144617771E+03  0.50386643579E+02  0.16498393271E+04  0.16653969614E+04  0.10100000352E+00 0. -1.
       -3    1    3    3    0  502 -0.22144617771E+03 -0.50386643579E+02 -0.63119102479E+03  0.67080499659E+03  0.10100000352E+00 0.  1.
</event>
<event>
 5   0  0.6221148E-05  0.2159819E+04  0.7818609E-02  0.8535341E-01
        1   -1    0    0  501    0  0.00000000000E+00  0.00000000000E+00  0.11173625954E+04  0.11173625954E+04  0.50400001928E-02 0.  1.
       -1   -1    0    0    0  501  0.00000000000E+00  0.00000000000E+00 -0.10437113390E+04  0.10437113391E+04  0.50400001928E-02 0. -1.
    10030    2    1    2    0    0  0.00000000000E+00  0.00000000000E+00  0.73651256313E+02  0.21610739344E+04  0.21598185207E+04 0.  0.
        3    1    3    3  502    0 -0.49556369402E+03  0.23488853032E+03 -0.89400969293E+03  0.10488132998E+04  0.10100000352E+00 0. -1.
       -3    1    3    3    0  502  0.49556369402E+03 -0.23488853032E+03  0.96766094925E+03  0.11122606347E+04  0.10100000352E+00 0.  1.
</event>
<event>
 5   0  0.6263616E-05  0.2096599E+04  0.7818609E-02  0.8562743E-01
        1   -1    0    0  501    0  0.00000000000E+00  0.00000000000E+00  0.12396488160E+04  0.12396488160E+04  0.50400001928E-02 0.  1.
       -1   -1    0    0    0  501  0.00000000000E+00  0.00000000000E+00 -0.88648633359E+03  0.88648633360E+03  0.50400001928E-02 0. -1.
    10030    2    1    2    0    0  0.00000000000E+00  0.00000000000E+00  0.35316248245E+03  0.21261351496E+04  0.20965988972E+04 0.  0.
        4    1    3    3  502    0 -0.10368279260E+03  0.86161332019E+03  0.77291523923E+03  0.11621218589E+04  0.12699999809E+01 0.  1.
       -4    1    3    3    0  502  0.10368279260E+03 -0.86161332019E+03 -0.41975275678E+03  0.96401329075E+03  0.12699999809E+01 0. -1.
</event>
<event>
 5   0  0.1252477E-04  0.2055508E+04  0.7818609E-02  0.8581100E-01
        2   -1    0    0  501    0  0.00000000000E+00  0.00000000000E+00  0.76414557994E+03  0.76414557995E+03  0.25500000920E-02 0.  1.
       -2   -1    0    0    0  501  0.00000000000E+00  0.00000000000E+00 -0.13822995901E+04  0.13822995901E+04  0.25500000920E-02 0. -1.
    10030    2    1    2    0    0  0.00000000000E+00  0.00000000000E+00 -0.61815401016E+03  0.21464451701E+04  0.20555078418E+04 0.  0.
        4    1    3    3  502    0  0.57668792995E+03 -0.22871920514E+03 -0.11647143545E+04  0.13196372926E+04  0.12699999809E+01 0. -1.
       -4    1    3    3    0  502 -0.57668792995E+03  0.22871920514E+03  0.54656034438E+03  0.82680787750E+03  0.12699999809E+01 0.  1.
</event>
<event>
 5   0  0.1349252E-04  0.1552598E+04  0.7818609E-02  0.8850210E-01
       -2   -1    0    0    0  501  0.00000000000E+00  0.00000000000E+00  0.49627636944E+03  0.49627636945E+03  0.25500000920E-02 0.  1.
        2   -1    0    0  501    0  0.00000000000E+00  0.00000000000E+00 -0.12143243614E+04  0.12143243614E+04  0.25500000920E-02 0. -1.
    10030    2    1    2    0    0  0.00000000000E+00  0.00000000000E+00 -0.71804799196E+03  0.17106007309E+04  0.15525984483E+04 0.  0.
        2    1    3    3  502    0  0.27801829887E+03 -0.34739073286E+03 -0.10598946210E+04  0.11495003712E+04  0.25500000920E-02 0. -1.
       -2    1    3    3    0  502 -0.27801829887E+03  0.34739073286E+03  0.34184662905E+03  0.56110035964E+03  0.25500000920E-02 0.  1.
</event>
<event>
 5   0  0.1252477E-04  0.1998603E+04  0.7818609E-02  0.8607274E-01
       -2   -1    0    0    0  501  0.00000000000E+00  0.00000000000E+00  0.97376927727E+03  0.97376927728E+03  0.25500000920E-02 0.  1.
        2   -1    0    0  501    0  0.00000000000E+00  0.00000000000E+00 -0.10255029897E+04  0.10255029897E+04  0.25500000920E-02 0. -1.
    10030    2    1    2    0    0  0.00000000000E+00  0.00000000000E+00 -0.51733712404E+02  0.19992722670E+04  0.19986028171E+04 0.  0.
        4    1    3    3  502    0  0.89599482896E+03  0.43467818353E+03 -0.10865831130E+03  0.10017784677E+04  0.12699999809E+01 0.  1.
       -4    1    3    3    0  502 -0.89599482896E+03 -0.43467818353E+03  0.56924598892E+02  0.99749379929E+03  0.12699999809E+01 0. -1.
</event>
<event>
 5   0  0.1235817E-04  0.2084976E+04  0.7818609E-02  0.8567890E-01
       -2   -1    0    0    0  501  0.00000000000E+00  0.00000000000E+00  0.85606761082E+03  0.85606761082E+03  0.25500000920E-02 0. -1.
        2   -1    0    0  501    0  0.00000000000E+00  0.00000000000E+00 -0.12695044939E+04  0.12695044939E+04  0.25500000920E-02 0.  1.
    10030    2    1    2    0    0  0.00000000000E+00  0.00000000000E+00 -0.41343688306E+03  0.21255721047E+04  0.20849764306E+04 0.  0.
        1    1    3    3  502    0  0.44097737893E+03 -0.13401236487E+03 -0.11599977349E+04  0.12482047539E+04  0.50400001928E-02 0.  1.
       -1    1    3    3    0  502 -0.44097737893E+03  0.13401236487E+03  0.74656085186E+03  0.87736735078E+03  0.50400001928E-02 0. -1.
</event>
<event>
 5   0  0.1281470E-04  0.2091335E+04  0.7818609E-02  0.8565070E-01
       -2   -1    0    0    0  501  0.00000000000E+00  0.00000000000E+00  0.18096942016E+04  0.18096942016E+04  0.25500000920E-02 0. -1.
        2   -1    0    0  501    0  0.00000000000E+00  0.00000000000E+00 -0.60420193605E+03  0.60420193606E+03  0.25500000920E-02 0.  1.
    10030    2    1    2    0    0  0.00000000000E+00  0.00000000000E+00  0.12054922655E+04  0.24138961376E+04  0.20913352101E+04 0.  0.
        3    1    3    3  502    0  0.20855866868E+02 -0.11971987984E+03  0.18015159255E+04  0.18056099958E+04  0.10100000352E+00 0. -1.
       -3    1    3    3    0  502 -0.20855866868E+02  0.11971987984E+03 -0.59602366002E+03  0.60828614181E+03  0.10100000352E+00 0.  1.
</event>
<event>
 5   0  0.6052292E-05  0.2145585E+04  0.7818609E-02  0.8541424E-01
       -1   -1    0    0    0  501  0.00000000000E+00  0.00000000000E+00  0.13519469246E+04  0.13519469246E+04  0.50400001928E-02 0.  1.
        1   -1    0    0  501    0  0.00000000000E+00  0.00000000000E+00 -0.85127902582E+03  0.85127902584E+03  0.50400001928E-02 0. -1.
    10030    2    1    2    0    0  0.00000000000E+00  0.00000000000E+00  0.50066789880E+03  0.22032259505E+04  0.21455852917E+04 0.  0.
        1    1    3    3  502    0 -0.51472882710E+03 -0.79260714322E+03  0.77162558224E+03  0.12200729028E+04  0.50400001928E-02 0.  1.
       -1    1    3    3    0  502  0.51472882710E+03  0.79260714322E+03 -0.27095768343E+03  0.98315304768E+03  0.50400001928E-02 0. -1.
</event>
<event>
 5   0  0.1349252E-04  0.1951691E+04  0.7818609E-02  0.8629546E-01
       -2   -1    0    0    0  501  0.00000000000E+00  0.00000000000E+00  0.49024221881E+03  0.49024221882E+03  0.25500000920E-02 0.  1.
        2   -1    0    0  501    0  0.00000000000E+00  0.00000000000E+00 -0.19424569955E+04  0.19424569955E+04  0.25500000920E-02 0. -1.
    10030    2    1    2    0    0  0.00000000000E+00  0.00000000000E+00 -0.14522147767E+04  0.24326992143E+04  0.19516909872E+04 0.  0.
        2    1    3    3  502    0  0.65176046573E+03  0.55493562616E+03 -0.14209309070E+03  0.86771867578E+03  0.25500000920E-02 0.  1.
       -2    1    3    3    0  502 -0.65176046573E+03 -0.55493562616E+03 -0.13101216860E+04  0.15649805385E+04  0.25500000920E-02 0. -1.
</event>
<event>
 5   0  0.5933905E-05  0.2110647E+04  0.7818609E-02  0.8556568E-01
       -1   -1    0    0    0  501  0.00000000000E+00  0.00000000000E+00  0.12694325948E+04  0.12694325948E+04  0.50400001928E-02 0. -1.
        1   -1    0    0  501    0  0.00000000000E+00  0.00000000000E+00 -0.87732739884E+03  0.87732739885E+03  0.50400001928E-02 0.  1.
    10030    2    1    2    0    0  0.00000000000E+00  0.00000000000E+00  0.39210519592E+03  0.21467599936E+04  0.21106472907E+04 0.  0.
        2    1    3    3  502    0 -0.86667438206E+03 -0.45647614069E+03 -0.20336609371E+03  0.10004262690E+04  0.25500000920E-02 0. -1.
       -2    1    3    3    0  502  0.86667438206E+03  0.45647614069E+03  0.59547128964E+03  0.11463337247E+04  0.25500000920E-02 0.  1.
</event>
<event>
 5   0  0.1252477E-04  0.2123508E+04  0.7818609E-02  0.8550958E-01
        2   -1    0    0  501    0  0.00000000000E+00  0.00000000000E+00  0.16123649385E+04  0.16123649385E+04  0.25500000920E-02 0. -1.
       -2   -1    0    0    0  501  0.00000000000E+00  0.00000000000E+00 -0.69917257008E+03  0.69917257009E+03  0.25500000920E-02 0.  1.
    10030    2    1    2    0    0  0.00000000000E+00  0.00000000000E+00  0.91319236837E+03  0.23115375085E+04  0.21235077941E+04 0.  0.
        4    1    3    3  502    0  0.10573982501E+04 -0.95245873287E+02  0.44296154366E+03  0.11503822747E+04  0.12699999809E+01 0. -1.
       -4    1    3    3    0  502 -0.10573982501E+04  0.95245873287E+02  0.47023082470E+03  0.11611552339E+04  0.12699999809E+01 0.  1.
</event>
<event>
 5   0  0.1252477E-04  0.2106010E+04  0.7818609E-02  0.8558601E-01
       -2   -1    0    0    0  501  0.00000000000E+00  0.00000000000E+00  0.73832299608E+03  0.73832299609E+03  0.25500000920E-02 0. -1.
        2   -1    0    0  501    0  0.00000000000E+00  0.00000000000E+00 -0.15018082993E+04  0.15018082993E+04  0.25500000920E-02 0.  1.
    10030    2    1    2    0    0  0.00000000000E+00  0.00000000000E+00 -0.76348530319E+03  0.22401312954E+04  0.21060100694E+04 0.  0.
        4    1    3    3  502    0  0.86083676204E+02 -0.29841523800E+02 -0.14976070521E+04  0.15003764232E+04  0.12699999809E+01 0.  1.
       -4    1    3    3    0  502 -0.86083676204E+02  0.29841523800E+02  0.73412174889E+03  0.73975487220E+03  0.12699999809E+01 0. -1.
</event>
<event>
 5   0  0.6052292E-05  0.2004083E+04  0.7818609E-02  0.8604714E-01
        1   -1    0    0  501    0  0.00000000000E+00  0.00000000000E+00  0.15117303843E+04  0.15117303843E+04  0.50400001928E-02 0. -1.
       -1   -1    0    0    0  501  0.00000000000E+00  0.00000000000E+00 -0.66419744771E+03  0.66419744773E+03  0.50400001928E-02 0.  1.
    10030    2    1    2    0    0  0.00000000000E+00  0.00000000000E+00  0.84753293659E+03  0.21759278320E+04  0.20040832946E+04 0.  0.
        1    1    3    3  502    0  0.53904190364E+03 -0.78724629547E+03  0.91299825767E+02  0.95846677658E+03  0.50400001928E-02 0.  1.
       -1    1    3    3    0  502 -0.53904190364E+03  0.78724629547E+03  0.75623311082E+03  0.12174610554E+04  0.50400001928E-02 0. -1.
</event>
<event>
 5   0  0.6221148E-05  0.2103325E+04  0.7818609E-02  0.8559780E-01
        1   -1    0    0  501    0  0.00000000000E+00  0.00000000000E+00  0.10154265027E+04  0.10154265027E+04  0.50400001928E-02 0. -1.
       -1   -1    0    0    0  501  0.00000000000E+00  0.00000000000E+00 -0.10891918701E+04  0.10891918701E+04  0.50400001928E-02 0.  1.
    10030    2    1    2    0    0  0.00000000000E+00  0.00000000000E+00 -0.73765367451E+02  0.21046183728E+04  0.21033252639E+04 0.  0.
        3    1    3    3  502    0  0.20948798294E+03  0.39794077245E+03 -0.98812597010E+03  0.10856495827E+04  0.10100000352E+00 0.  1.
       -3    1    3    3    0  502 -0.20948798294E+03 -0.39794077245E+03  0.91436060265E+03  0.10189687901E+04  0.10100000352E+00 0. -1.
</event>
<event>
 5   0  0.1281470E-04  0.1918298E+04  0.7818609E-02  0.8645802E-01
        2   -1    0    0  501    0  0.00000000000E+00  0.00000000000E+00  0.14169898267E+04  0.14169898267E+04  0.25500000920E-02 0. -1.
       -2   -1    0    0    0  501  0.00000000000E+00  0.00000000000E+00 -0.64924027237E+03  0.64924027237E+03  0.25500000920E-02 0.  1.
    10030    2    1    2    0    0  0.00000000000E+00  0.00000000000E+00  0.76774955430E+03  0.20662300990E+04  0.19182980592E+04 0.  0.
        3    1    3    3  502    0  0.26803375186E+03  0.62747955982E+03 -0.34219601584E+03  0.76332877162E+03  0.10100000352E+00 0.  1.
       -3    1    3    3    0  502 -0.26803375186E+03 -0.62747955982E+03  0.11099455701E+04  0.13029013274E+04  0.10100000352E+00 0. -1.
</event>
<event>
 5   0  0.5846187E-05  0.2078618E+04  0.7818609E-02  0.8570721E-01
        1   -1    0    0  501    0  0.00000000000E+00  0.00000000000E+00  0.12713220322E+04  0.12713220322E+04  0.50400001928E-02 0.  1.
       -1   -1    0    0    0  501  0.00000000000E+00  0.00000000000E+00 -0.84963772690E+03  0.84963772692E+03  0.50400001928E-02 0. -1.
    10030    2    1    2    0    0  0.00000000000E+00  0.00000000000E+00  0.42168430526E+03  0.21209597591E+04  0.20786179655E+04 0.  0.
        5    1    3    3  502    0  0.58032738135E+03  0.83131875534E+03 -0.22442070811E+02  0.10140988507E+04  0.46999998093E+01 0.  1.
       -5    1    3    3    0  502 -0.58032738135E+03 -0.83131875534E+03  0.44412637607E+03  0.11068609084E+04  0.46999998093E+01 0. -1.
</event>
<event>
 5   0  0.6263616E-05  0.2092683E+04  0.7818609E-02  0.8564473E-01
        1   -1    0    0  501    0  0.00000000000E+00  0.00000000000E+00  0.11484748945E+04  0.11484748945E+04  0.50400001928E-02 0.  1.
       -1   -1    0    0    0  501  0.00000000000E+00  0.00000000000E+00 -0.95329066028E+03  0.95329066029E+03  0.50400001928E-02 0. -1.
    10030    2    1    2    0    0  0.00000000000E+00  0.00000000000E+00  0.19518423425E+03  0.21017655548E+04  0.20926828623E+04 0.  0.
        4    1    3    3  502    0 -0.97116785957E+03  0.20578176624E+03  0.42965626254E+03  0.10817205109E+04  0.12699999809E+01 0.  1.
       -4    1    3    3    0  502  0.97116785957E+03 -0.20578176624E+03 -0.23447202829E+03  0.10200450440E+04  0.12699999809E+01 0. -1.
</event>
<event>
 5   0  0.1252477E-04  0.2150919E+04  0.7818609E-02  0.8539139E-01
       -2   -1    0    0    0  501  0.00000000000E+00  0.00000000000E+00  0.10249956857E+04  0.10249956857E+04  0.25500000920E-02 0. -1.
        2   -1    0    0  501    0  0.00000000000E+00  0.00000000000E+00 -0.11284075326E+04  0.11284075326E+04  0.25500000920E-02 0.  1.
    10030    2    1    2    0    0  0.00000000000E+00  0.00000000000E+00 -0.10341184694E+03  0.21534032183E+04  0.21509187364E+04 0.  0.
        4    1    3    3  502    0 -0.11690091505E+03  0.43684991347E+03  0.92518115236E+03  0.10297890310E+04  0.12699999809E+01 0. -1.
       -4    1    3    3    0  502  0.11690091505E+03 -0.43684991347E+03 -0.10285929993E+04  0.11236141873E+04  0.12699999809E+01 0.  1.
</event>
<event>
 5   0  0.1235817E-04  0.2109741E+04  0.7818609E-02  0.8556964E-01
       -2   -1    0    0    0  501  0.00000000000E+00  0.00000000000E+00  0.10835146234E+04  0.10835146234E+04  0.25500000920E-02 0. -1.
        2   -1    0    0  501    0  0.00000000000E+00  0.00000000000E+00 -0.10269840160E+04  0.10269840160E+04  0.25500000920E-02 0.  1.
    10030    2    1    2    0    0  0.00000000000E+00  0.00000000000E+00  0.56530607418E+02  0.21104986394E+04  0.21097414054E+04 0.  0.
        1    1    3    3  502    0  0.70899374014E+03 -0.74250974499E+03  0.27075559649E+03  0.10617445258E+04  0.50400001928E-02 0. -1.
       -1    1    3    3    0  502 -0.70899374014E+03  0.74250974499E+03 -0.21422498907E+03  0.10487541137E+04  0.50400001928E-02 0.  1.
</event>
<event>
 5   0  0.5933905E-05  0.2035290E+04  0.7818609E-02  0.8590297E-01
       -1   -1    0    0    0  501  0.00000000000E+00  0.00000000000E+00  0.67262391520E+03  0.67262391522E+03  0.50400001928E-02 0.  1.
        1   -1    0    0  501    0  0.00000000000E+00  0.00000000000E+00 -0.15396442121E+04  0.15396442121E+04  0.50400001928E-02 0. -1.
    10030    2    1    2    0    0  0.00000000000E+00  0.00000000000E+00 -0.86702029694E+03  0.22122681274E+04  0.20352901690E+04 0.  0.
        2    1    3    3  502    0  0.76444162381E+03  0.66306588187E+03 -0.31657202166E+03  0.10603042982E+04  0.25500000920E-02 0.  1.
       -2    1    3    3    0  502 -0.76444162381E+03 -0.66306588187E+03 -0.55044827529E+03  0.11519638292E+04  0.25500000920E-02 0. -1.
</event>
<event>
 5   0  0.1349252E-04  0.2062573E+04  0.7818609E-02  0.8577912E-01
       -2   -1    0    0    0  501  0.00000000000E+00  0.00000000000E+00  0.11474641273E+04  0.11474641273E+04  0.25500000920E-02 0. -1.
        2   -1    0    0  501    0  0.00000000000E+00  0.00000000000E+00 -0.92687196235E+03  0.92687196235E+03  0.25500000920E-02 0.  1.
    10030    2    1    2    0    0  0.00000000000E+00  0.00000000000E+00  0.22059216493E+03  0.20743360896E+04  0.20625734677E+04 0.  0.
        2    1    3    3  502    0 -0.57402155774E+03  0.71237289990E+03  0.58901111070E+03  0.10880762776E+04  0.25500000920E-02 0. -1.
       -2    1    3    3    0  502  0.57402155774E+03 -0.71237289990E+03 -0.36841894577E+03  0.98625981206E+03  0.25500000920E-02 0.  1.
</event>
<event>
 5   0  0.1235817E-04  0.2109418E+04  0.7818609E-02  0.8557106E-01
       -2   -1    0    0    0  501  0.00000000000E+00  0.00000000000E+00  0.59192157646E+03  0.59192157646E+03  0.25500000920E-02 0. -1.
        2   -1    0    0  501    0  0.00000000000E+00  0.00000000000E+00 -0.18793208430E+04  0.18793208430E+04  0.25500000920E-02 0.  1.
    10030    2    1    2    0    0  0.00000000000E+00  0.00000000000E+00 -0.12873992666E+04  0.24712424195E+04  0.21094175083E+04 0.  0.
        1    1    3    3  502    0 -0.16121311377E+03  0.90096581337E+03 -0.29700862150E+02  0.91575717641E+03  0.50400001928E-02 0. -1.
       -1    1    3    3    0  502  0.16121311377E+03 -0.90096581337E+03 -0.12576984044E+04  0.15554852431E+04  0.50400001928E-02 0.  1.
</event>
<event>
 5   0  0.1281470E-04  0.2093787E+04  0.7818609E-02  0.8563985E-01
       -2   -1    0    0    0  501  0.00000000000E+00  0.00000000000E+00  0.10962746028E+04  0.10962746028E+04  0.25500000920E-02 0. -1.
        2   -1    0    0  501    0  0.00000000000E+00  0.00000000000E+00 -0.99973653957E+03  0.99973653957E+03  0.25500000920E-02 0.  1.
    10030    2    1    2    0    0  0.00000000000E+00  0.00000000000E+00  0.96538063190E+02  0.20960111423E+04  0.20937867874E+04 0.  0.
        3    1    3    3  502    0  0.44488242890E+03 -0.44300735085E+03  0.88689995185E+03  0.10866312269E+04  0.10100000352E+00 0. -1.
       -3    1    3    3    0  502 -0.44488242890E+03  0.44300735085E+03 -0.79036188866E+03  0.10093799154E+04  0.10100000352E+00 0.  1.
</event>
<event>
 5   0  0.1349252E-04  0.2102313E+04  0.7818609E-02  0.8560225E-01
        2   -1    0    0  501    0  0.00000000000E+00  0.00000000000E+00  0.19339953930E+04  0.19339953930E+04  0.25500000920E-02 0.  1.
       -2   -1    0    0    0  501  0.00000000000E+00  0.00000000000E+00 -0.57131986159E+03  0.57131986159E+03  0.25500000920E-02 0. -1.
    10030    2    1    2    0    0  0.00000000000E+00  0.00000000000E+00  0.13626755314E+04  0.25053152546E+04  0.21023129931E+04 0.  0.
        2    1    3    3  502    0 -0.52240085981E+03  0.76553183126E+03  0.12723851052E+04  0.15741364296E+04  0.25500000920E-02 0.  1.
       -2    1    3    3    0  502  0.52240085981E+03 -0.76553183126E+03  0.90290426164E+02  0.93117882497E+03  0.25500000920E-02 0. -1.
</event>
<event>
 5   0  0.5846187E-05  0.2047177E+04  0.7818609E-02  0.8584876E-01
        1   -1    0    0  501    0  0.00000000000E+00  0.00000000000E+00  0.11086392355E+04  0.11086392355E+04  0.50400001928E-02 0.  1.
       -1   -1    0    0    0  501  0.00000000000E+00  0.00000000000E+00 -0.94506216319E+03  0.94506216320E+03  0.50400001928E-02 0. -1.
    10030    2    1    2    0    0  0.00000000000E+00  0.00000000000E+00  0.16357707235E+03  0.20537013988E+04  0.20471765866E+04 0.  0.
        5    1    3    3  502    0 -0.10057279186E+04 -0.10596837846E+03  0.24038403063E+03  0.10394828117E+04  0.46999998093E+01 0.  1.
       -5    1    3    3    0  502  0.10057279186E+04  0.10596837846E+03 -0.76806958283E+02  0.10142185871E+04  0.46999998093E+01 0. -1.
</event>
<event>
 5   0  0.1252477E-04  0.2086775E+04  0.7818609E-02  0.8567092E-01
        2   -1    0    0  501    0  0.00000000000E+00  0.00000000000E+00  0.22571801928E+04  0.22571801928E+04  0.25500000920E-02 0. -1.
       -2   -1    0    0    0  501  0.00000000000E+00  0.00000000000E+00 -0.48230849610E+03  0.48230849611E+03  0.25500000920E-02 0.  1.
    10030    2    1    2    0    0  0.00000000000E+00  0.00000000000E+00  0.17748716967E+04  0.27394886889E+04  0.20867747212E+04 0.  0.
        4    1    3    3  502    0 -0.26990305311E+03 -0.52543525890E+03  0.20165277665E+04  0.21012652654E+04  0.12699999809E+01 0. -1.
       -4    1    3    3    0  502  0.26990305311E+03  0.52543525890E+03 -0.24165606983E+03  0.63822342354E+03  0.12699999809E+01 0.  1.
</event>
<event>
 5   0  0.6221148E-05  0.2029940E+04  0.7818609E-02  0.8592749E-01
       -1   -1    0    0    0  501  0.00000000000E+00  0.00000000000E+00  0.71015244175E+03  0.71015244177E+03  0.50400001928E-02 0.  1.
        1   -1    0    0  501    0  0.00000000000E+00  0.00000000000E+00 -0.14506245885E+04  0.14506245885E+04  0.50400001928E-02 0. -1.
    10030    2    1    2    0    0  0.00000000000E+00  0.00000000000E+00 -0.74047214674E+03  0.21607770303E+04  0.20299404854E+04 0.  0.
        3    1    3    3  502    0 -0.91510119621E+03  0.32292215364E+03 -0.53615907997E+02  0.97188661499E+03  0.10100000352E+00 0.  1.
       -3    1    3    3    0  502  0.91510119621E+03 -0.32292215364E+03 -0.68685623874E+03  0.11888904153E+04  0.10100000352E+00 0. -1.
</event>
<event>
 5   0  0.6052292E-05  0.2077255E+04  0.7818609E-02  0.8571329E-01
       -1   -1    0    0    0  501  0.00000000000E+00  0.00000000000E+00  0.10832908570E+04  0.10832908571E+04  0.50400001928E-02 0. -1.
        1   -1    0    0  501    0  0.00000000000E+00  0.00000000000E+00 -0.99580558330E+03  0.99580558331E+03  0.50400001928E-02 0.  1.
    10030    2    1    2    0    0  0.00000000000E+00  0.00000000000E+00  0.87485273743E+02  0.20790964404E+04  0.20772550000E+04 0.  0.
        1    1    3    3  502    0 -0.68899747867E+03  0.75823687343E+03 -0.12701458595E+03  0.10323630112E+04  0.50400001928E-02 0.  1.
       -1    1    3    3    0  502  0.68899747867E+03 -0.75823687343E+03  0.21449985969E+03  0.10467334291E+04  0.50400001928E-02 0. -1.
</event>
<event>
 5   0  0.1281470E-04  0.2013475E+04  0.7818609E-02  0.8600347E-01
        2   -1    0    0  501    0  0.00000000000E+00  0.00000000000E+00  0.11079884331E+04  0.11079884331E+04  0.25500000920E-02 0. -1.
       -2   -1    0    0    0  501  0.00000000000E+00  0.00000000000E+00 -0.91473884374E+03  0.91473884375E+03  0.25500000920E-02 0.  1.
    10030    2    1    2    0    0  0.00000000000E+00  0.00000000000E+00  0.19324958931E+03  0.20227272768E+04  0.20134746665E+04 0.  0.
        3    1    3    3  502    0  0.19635092952E+03 -0.19927771340E+03  0.10681545880E+04  0.11041827425E+04  0.10100000352E+00 0. -1.
       -3    1    3    3    0  502 -0.19635092952E+03  0.19927771340E+03 -0.87490499873E+03  0.91854453435E+03  0.10100000352E+00 0.  1.
</event>
<event>
 5   0  0.4615125E-05  0.2083671E+04  0.7818609E-02  0.8568471E-01
       -3   -1    0    0    0  501  0.00000000000E+00  0.00000000000E+00  0.83307160322E+03  0.83307160934E+03  0.10100000352E+00 0.  1.
        3   -1    0    0  501    0  0.00000000000E+00  0.00000000000E+00 -0.13029148960E+04  0.13029148999E+04  0.10100000352E+00 0. -1.
    10030    2    1    2    0    0  0.00000000000E+00  0.00000000000E+00 -0.46984329282E+03  0.21359865093E+04  0.20836711948E+04 0.  0.
        4    1    3    3  502    0 -0.77906143923E+03  0.69094781684E+03 -0.26851933108E+03  0.10753835854E+04  0.12699999809E+01 0.  1.
       -4    1    3    3    0  502  0.77906143923E+03 -0.69094781684E+03 -0.20132396173E+03  0.10606029239E+04  0.12699999809E+01 0. -1.
</event>
<event>
 5   0  0.6221148E-05  0.2113900E+04  0.7818609E-02  0.8555145E-01
        1   -1    0    0  501    0  0.00000000000E+00  0.00000000000E+00  0.10027456140E+04  0.10027456140E+04  0.50400001928E-02 0.  1.
       -1   -1    0    0    0  501  0.00000000000E+00  0.00000000000E+00 -0.11140846297E+04  0.11140846297E+04  0.50400001928E-02 0. -1.
    10030    2    1    2    0    0  0.00000000000E+00  0.00000000000E+00 -0.11133901576E+03  0.21168302437E+04  0.21139001642E+04 0.  0.
        3    1    3    3  502    0  0.68679305717E+03 -0.72509130973E+03 -0.40212790563E+03  0.10766378098E+04  0.10100000352E+00 0. -1.
       -3    1    3    3    0  502 -0.68679305717E+03  0.72509130973E+03  0.29078888987E+03  0.10401924339E+04  0.10100000352E+00 0.  1.
</event>
<event>
 5   0  0.6263616E-05  0.2085395E+04  0.7818609E-02  0.8567705E-01
       -1   -1    0    0    0  501  0.00000000000E+00  0.00000000000E+00  0.68096268345E+03  0.68096268347E+03  0.50400001928E-02 0. -1.
        1   -1    0    0  501    0  0.00000000000E+00  0.00000000000E+00 -0.15965894638E+04  0.15965894638E+04  0.50400001928E-02 0.  1.
    10030    2    1    2    0    0  0.00000000000E+00  0.00000000000E+00 -0.91562678032E+03  0.22775521473E+04  0.20853947786E+04 0.  0.
        4    1    3    3  502    0  0.55722502732E+03 -0.66828755872E+03  0.16967866364E+03  0.88651026729E+03  0.12699999809E+01 0. -1.
       -4    1    3    3    0  502 -0.55722502732E+03  0.66828755872E+03 -0.10853054440E+04  0.13910418800E+04  0.12699999809E+01 0.  1.
</event>
<event>
 5   0  0.5846187E-05  0.2060503E+04  0.7818609E-02  0.8578844E-01
        1   -1    0    0  501    0  0.00000000000E+00  0.00000000000E+00  0.17741879405E+04  0.17741879406E+04  0.50400001928E-02 0. -1.
       -1   -1    0    0    0  501  0.00000000000E+00  0.00000000000E+00 -0.59825597168E+03  0.59825597170E+03  0.50400001928E-02 0.  1.
    10030    2    1    2    0    0  0.00000000000E+00  0.00000000000E+00  0.11759319689E+04  0.23724439122E+04  0.20605033660E+04 0.  0.
        5    1    3    3  502    0 -0.16581006871E+03  0.53500404226E+03  0.15835520384E+04  0.16796968335E+04  0.46999998093E+01 0. -1.
       -5    1    3    3    0  502  0.16581006871E+03 -0.53500404226E+03 -0.40762006950E+03  0.69274707879E+03  0.46999998093E+01 0.  1.
</event>
<event>
 5   0  0.6263616E-05  0.2126644E+04  0.7818609E-02  0.8549596E-01
       -1   -1    0    0    0  501  0.00000000000E+00  0.00000000000E+00  0.11798022573E+04  0.11798022573E+04  0.50400001928E-02 0.  1.
        1   -1    0    0  501    0  0.00000000000E+00  0.00000000000E+00 -0.95834160470E+03  0.95834160471E+03  0.50400001928E-02 0. -1.
    10030    2    1    2    0    0  0.00000000000E+00  0.00000000000E+00  0.22146065256E+03  0.21381438620E+04  0.21266439180E+04 0.  0.
        4    1    3    3  502    0  0.17134936910E+03  0.12276161957E+03 -0.93712477634E+03  0.96053916155E+03  0.12699999809E+01 0. -1.
       -4    1    3    3    0  502 -0.17134936910E+03 -0.12276161957E+03  0.11585854289E+04  0.11776047004E+04  0.12699999809E+01 0.  1.
</event>
<event>
 5   0  0.1235817E-04  0.2123062E+04  0.7818609E-02  0.8551152E-01
        2   -1    0    0  501    0  0.00000000000E+00  0.00000000000E+00  0.10069247163E+04  0.10069247163E+04  0.25500000920E-02 0. -1.
       -2   -1    0    0    0  501  0.00000000000E+00  0.00000000000E+00 -0.11190984782E+04  0.11190984782E+04  0.25500000920E-02 0.  1.
    10030    2    1    2    0    0  0.00000000000E+00  0.00000000000E+00 -0.11217376189E+03  0.21260231945E+04  0.21230618622E+04 0.  0.
        1    1    3    3  502    0 -0.65362083395E+03 -0.24889017476E+03 -0.85575029269E+03  0.11052036360E+04  0.50400001928E-02 0.  1.
       -1    1    3    3    0  502  0.65362083395E+03  0.24889017476E+03  0.74357653080E+03  0.10208195584E+04  0.50400001928E-02 0. -1.
</event>
<event>
 5   0  0.6052292E-05  0.2089269E+04  0.7818609E-02  0.8565985E-01
        1   -1    0    0  501    0  0.00000000000E+00  0.00000000000E+00  0.11660665734E+04  0.11660665734E+04  0.50400001928E-02 0. -1.
       -1   -1    0    0    0  501  0.00000000000E+00  0.00000000000E+00 -0.93584811168E+03  0.93584811169E+03  0.50400001928E-02 0.  1.
    10030    2    1    2    0    0  0.00000000000E+00  0.00000000000E+00  0.23021846170E+03  0.21019146851E+04  0.20892689638E+04 0.  0.
        1    1    3    3  502    0 -0.85038888298E+03  0.16266242379E+03 -0.47292911910E+03  0.98655069212E+03  0.50400001928E-02 0.  1.
       -1    1    3    3    0  502  0.85038888298E+03 -0.16266242379E+03  0.70314758079E+03  0.11153639930E+04  0.50400001928E-02 0. -1.
</event>
<event>
 5   0  0.1281470E-04  0.1860117E+04  0.7818609E-02  0.8674967E-01
       -2   -1    0    0    0  501  0.00000000000E+00  0.00000000000E+00  0.71629036521E+03  0.71629036522E+03  0.25500000920E-02 0. -1.
        2   -1    0    0  501    0  0.00000000000E+00  0.00000000000E+00 -0.12076237735E+04  0.12076237735E+04  0.25500000920E-02 0.  1.
    10030    2    1    2    0    0  0.00000000000E+00  0.00000000000E+00 -0.49133340832E+03  0.19239141388E+04  0.18601174950E+04 0.  0.
        3    1    3    3  502    0  0.53725694563E+03  0.35050291435E+03 -0.94219645956E+03  0.11398383645E+04  0.10100000352E+00 0.  1.
       -3    1    3    3    0  502 -0.53725694563E+03 -0.35050291435E+03  0.45086305124E+03  0.78407577425E+03  0.10100000352E+00 0. -1.
</event>
<event>
 5   0  0.1252477E-04  0.1502586E+04  0.7818609E-02  0.8882735E-01
       -2   -1    0    0    0  501  0.00000000000E+00  0.00000000000E+00  0.56478413235E+03  0.56478413236E+03  0.25500000920E-02 0. -1.
        2   -1    0    0  501    0  0.00000000000E+00  0.00000000000E+00 -0.99939267384E+03  0.99939267385E+03  0.25500000920E-02 0.  1.
    10030    2    1    2    0    0  0.00000000000E+00  0.00000000000E+00 -0.43460854150E+03  0.15641768062E+04  0.15025859366E+04 0.  0.
        4    1    3    3  502    0 -0.27273164927E+02 -0.22507812684E+03 -0.96292889204E+03  0.98926116508E+03  0.12699999809E+01 0.  1.
       -4    1    3    3    0  502  0.27273164927E+02  0.22507812684E+03  0.52832035055E+03  0.57491564112E+03  0.12699999809E+01 0. -1.
</event>
<event>
 5   0  0.6263616E-05  0.2062914E+04  0.7818609E-02  0.8577758E-01
        1   -1    0    0  501    0  0.00000000000E+00  0.00000000000E+00  0.23425425965E+04  0.23425425965E+04  0.50400001928E-02 0.  1.
       -1   -1    0    0    0  501  0.00000000000E+00  0.00000000000E+00 -0.45416625606E+03  0.45416625608E+03  0.50400001928E-02 0. -1.
    10030    2    1    2    0    0  0.00000000000E+00  0.00000000000E+00  0.18883763405E+04  0.27967088526E+04  0.20629142500E+04 0.  0.
        4    1    3    3  502    0 -0.62329537999E+03  0.52837727050E+03  0.90821537548E+02  0.82214952124E+03  0.12699999809E+01 0.  1.
       -4    1    3    3    0  502  0.62329537999E+03 -0.52837727050E+03  0.17975548029E+04  0.19745593314E+04  0.12699999809E+01 0. -1.
</event>
<event>
 5   0  0.6052292E-05  0.2133422E+04  0.7818609E-02  0.8546662E-01
       -1   -1    0    0    0  501  0.00000000000E+00  0.00000000000E+00  0.48566538370E+03  0.48566538373E+03  0.50400001928E-02 0.  1.
        1   -1    0    0  501    0  0.00000000000E+00  0.00000000000E+00 -0.23429150338E+04  0.23429150339E+04  0.50400001928E-02 0. -1.
    10030    2    1    2    0    0  0.00000000000E+00  0.00000000000E+00 -0.18572496501E+04  0.28285804176E+04  0.21334223482E+04 0.  0.
        1    1    3    3  502    0  0.46747952625E+03 -0.73791817275E+02 -0.21960979088E+04  0.22465147150E+04  0.50400001928E-02 0. -1.
       -1    1    3    3    0  502 -0.46747952625E+03  0.73791817275E+02  0.33884825861E+03  0.58206570260E+03  0.50400001928E-02 0.  1.
</event>
<event>
 5   0  0.1349252E-04  0.1983305E+04  0.7818609E-02  0.8614466E-01
       -2   -1    0    0    0  501  0.00000000000E+00  0.00000000000E+00  0.86668725298E+03  0.86668725298E+03  0.25500000920E-02 0.  1.
        2   -1    0    0  501    0  0.00000000000E+00  0.00000000000E+00 -0.11346363320E+04  0.11346363320E+04  0.25500000920E-02 0. -1.
    10030    2    1    2    0    0  0.00000000000E+00  0.00000000000E+00 -0.26794907900E+03  0.20013235850E+04  0.19833051663E+04 0.  0.
        2    1    3    3  502    0  0.29273613520E+03  0.48538496522E+03  0.68710193147E+03  0.89073120163E+03  0.25500000920E-02 0.  1.
       -2    1    3    3    0  502 -0.29273613520E+03 -0.48538496522E+03 -0.95505101047E+03  0.11105923833E+04  0.25500000920E-02 0. -1.
</event>
<event>
 5   0  0.1281470E-04  0.2115552E+04  0.7818609E-02  0.8554423E-01
        2   -1    0    0  501    0  0.00000000000E+00  0.00000000000E+00  0.97859603709E+03  0.97859603709E+03  0.25500000920E-02 0.  1.
       -2   -1    0    0    0  501  0.00000000000E+00  0.00000000000E+00 -0.11433627471E+04  0.11433627471E+04  0.25500000920E-02 0. -1.
    10030    2    1    2    0    0  0.00000000000E+00  0.00000000000E+00 -0.16476671003E+03  0.21219587842E+04  0.21155521769E+04 0.  0.
        3    1    3    3  502    0  0.86022805547E+01  0.10444535948E+04  0.85254257437E+02  0.10479625993E+04  0.10100000352E+00 0.  1.
       -3    1    3    3    0  502 -0.86022805547E+01 -0.10444535948E+04 -0.25002096746E+03  0.10739961849E+04  0.10100000352E+00 0. -1.
</event>
<event>
 5   0  0.6263616E-05  0.2101877E+04  0.7818609E-02  0.8560417E-01
       -1   -1    0    0    0  501  0.00000000000E+00  0.00000000000E+00  0.11423493901E+04  0.11423493901E+04  0.50400001928E-02 0. -1.
        1   -1    0    0  501    0  0.00000000000E+00  0.00000000000E+00 -0.96684223373E+03  0.96684223375E+03  0.50400001928E-02 0.  1.
    10030    2    1    2    0    0  0.00000000000E+00  0.00000000000E+00  0.17550715640E+03  0.21091916239E+04  0.21018769099E+04 0.  0.
        4    1    3    3  502    0 -0.22281344927E+03 -0.38895995904E+03  0.10416057883E+04  0.11339664519E+04  0.12699999809E+01 0. -1.
       -4    1    3    3    0  502  0.22281344927E+03  0.38895995904E+03 -0.86609863193E+03  0.97522517197E+03  0.12699999809E+01 0.  1.
</event>
<event>
 5   0  0.5933905E-05  0.2079325E+04  0.7818609E-02  0.8570406E-01
        1   -1    0    0  501    0  0.00000000000E+00  0.00000000000E+00  0.18718788958E+04  0.18718788958E+04  0.50400001928E-02 0. -1.
       -1   -1    0    0    0  501  0.00000000000E+00  0.00000000000E+00 -0.57744011935E+03  0.57744011937E+03  0.50400001928E-02 0.  1.
    10030    2    1    2    0    0  0.00000000000E+00  0.00000000000E+00  0.12944387765E+04  0.24493190152E+04  0.20793248645E+04 0.  0.
        2    1    3    3  502    0 -0.55233941520E+03  0.87450011460E+03  0.77114788419E+03  0.12901543858E+04  0.25500000920E-02 0.  1.
       -2    1    3    3    0  502  0.55233941520E+03 -0.87450011460E+03  0.52329089230E+03  0.11591646294E+04  0.25500000920E-02 0. -1.
</event>
<event>
 5   0  0.6052292E-05  0.2086168E+04  0.7818609E-02  0.8567361E-01
       -1   -1    0    0    0  501  0.00000000000E+00  0.00000000000E+00  0.87713084025E+03  0.87713084027E+03  0.50400001928E-02 0.  1.
        1   -1    0    0  501    0  0.00000000000E+00  0.00000000000E+00 -0.12404350949E+04  0.12404350949E+04  0.50400001928E-02 0. -1.
    10030    2    1    2    0    0  0.00000000000E+00  0.00000000000E+00 -0.36330425460E+03  0.21175659351E+04  0.20861676606E+04 0.  0.
        1    1    3    3  502    0 -0.99505869972E+02  0.58942579383E+03  0.68602309443E+03  0.90991860664E+03  0.50400001928E-02 0.  1.
       -1    1    3    3    0  502  0.99505869972E+02 -0.58942579383E+03 -0.10493273490E+04  0.12076473285E+04  0.50400001928E-02 0. -1.
</event>
<event>
 5   0  0.1349252E-04  0.2107704E+04  0.7818609E-02  0.8557857E-01
       -2   -1    0    0    0  501  0.00000000000E+00  0.00000000000E+00  0.64606016104E+03  0.64606016105E+03  0.25500000920E-02 0. -1.
        2   -1    0    0  501    0  0.00000000000E+00  0.00000000000E+00 -0.17190416884E+04  0.17190416884E+04  0.25500000920E-02 0.  1.
    10030    2    1    2    0    0  0.00000000000E+00  0.00000000000E+00 -0.10729815274E+04  0.23651018495E+04  0.21077042962E+04 0.  0.
        2    1    3    3  502    0  0.72145125571E+03 -0.29312939367E+03 -0.13332667648E+04  0.15440262375E+04  0.25500000920E-02 0.  1.
       -2    1    3    3    0  502 -0.72145125571E+03  0.29312939367E+03  0.26028523744E+03  0.82107561201E+03  0.25500000920E-02 0. -1.
</event>
<event>
 5   0  0.5846187E-05  0.2096796E+04  0.7818609E-02  0.8562656E-01
        1   -1    0    0  501    0  0.00000000000E+00  0.00000000000E+00  0.15194163509E+04  0.15194163509E+04  0.50400001928E-02 0.  1.
       -1   -1    0    0    0  501  0.00000000000E+00  0.00000000000E+00 -0.72339514467E+03  0.72339514469E+03  0.50400001928E-02 0. -1.
    10030    2    1    2    0    0  0.00000000000E+00  0.00000000000E+00  0.79602120625E+03  0.22428114956E+04  0.20967960426E+04 0.  0.
        5    1    3    3  502    0 -0.58796001598E+03  0.73178788723E+02 -0.52712633699E+03  0.79305509308E+03  0.46999998093E+01 0. -1.
       -5    1    3    3    0  502  0.58796001598E+03 -0.73178788723E+02  0.13231475432E+04  0.14497564025E+04  0.46999998093E+01 0.  1.
</event>
<event>
 5   0  0.6221148E-05  0.2106168E+04  0.7818609E-02  0.8558531E-01
       -1   -1    0    0    0  501  0.00000000000E+00  0.00000000000E+00  0.13484417032E+04  0.13484417032E+04  0.50400001928E-02 0. -1.
        1   -1    0    0  501    0  0.00000000000E+00  0.00000000000E+00 -0.82242016563E+03  0.82242016564E+03  0.50400001928E-02 0.  1.
    10030    2    1    2    0    0  0.00000000000E+00  0.00000000000E+00  0.52602153753E+03  0.21708618688E+04  0.21061677510E+04 0.  0.
        3    1    3    3  502    0  0.77759979735E+03 -0.35066394170E+03  0.89952223007E+03  0.12396640260E+04  0.10100000352E+00 0. -1.
       -3    1    3    3    0  502 -0.77759979735E+03  0.35066394170E+03 -0.37350069254E+03  0.93119784277E+03  0.10100000352E+00 0.  1.
</event>
<event>
 5   0  0.1281470E-04  0.2053014E+04  0.7818609E-02  0.8582228E-01
       -2   -1    0    0    0  501  0.00000000000E+00  0.00000000000E+00  0.23352718887E+04  0.23352718887E+04  0.25500000920E-02 0.  1.
        2   -1    0    0  501    0  0.00000000000E+00  0.00000000000E+00 -0.45121795085E+03  0.45121795086E+03  0.25500000920E-02 0. -1.
    10030    2    1    2    0    0  0.00000000000E+00  0.00000000000E+00  0.18840539378E+04  0.27864898395E+04  0.20530139759E+04 0.  0.
        3    1    3    3  502    0 -0.13560797171E+02 -0.37478502583E+03  0.22389593313E+04  0.22701512303E+04  0.10100000352E+00 0.  1.
       -3    1    3    3    0  502  0.13560797171E+02  0.37478502583E+03 -0.35490539354E+03  0.51633860922E+03  0.10100000352E+00 0. -1.
</event>
<event>
 5   0  0.1281470E-04  0.2094828E+04  0.7818609E-02  0.8563525E-01
        2   -1    0    0  501    0  0.00000000000E+00  0.00000000000E+00  0.10891465222E+04  0.10891465222E+04  0.25500000920E-02 0.  1.
       -2   -1    0    0    0  501  0.00000000000E+00  0.00000000000E+00 -0.10072803931E+04  0.10072803931E+04  0.25500000920E-02 0. -1.
    10030    2    1    2    0    0  0.00000000000E+00  0.00000000000E+00  0.81866129079E+02  0.20964269154E+04  0.20948278565E+04 0.  0.
        3    1    3    3  502    0  0.11936399500E+03 -0.10242127671E+04  0.22496571797E+03  0.10553999906E+04  0.10100000352E+00 0.  1.
       -3    1    3    3    0  502 -0.11936399500E+03  0.10242127671E+04 -0.14309958889E+03  0.10410269248E+04  0.10100000352E+00 0. -1.
</event>
<event>
 5   0  0.6052292E-05  0.2120379E+04  0.7818609E-02  0.8552319E-01
        1   -1    0    0  501    0  0.00000000000E+00  0.00000000000E+00  0.11298836502E+04  0.11298836502E+04  0.50400001928E-02 0. -1.
       -1   -1    0    0    0  501  0.00000000000E+00  0.00000000000E+00 -0.99479381077E+03  0.99479381078E+03  0.50400001928E-02 0.  1.
    10030    2    1    2    0    0  0.00000000000E+00  0.00000000000E+00  0.13508983942E+03  0.21246774610E+04  0.21203785154E+04 0.  0.
        1    1    3    3  502    0  0.90415526131E+03 -0.45616322484E+03 -0.24681017048E+03  0.10423516127E+04  0.50400001928E-02 0.  1.
       -1    1    3    3    0  502 -0.90415526131E+03  0.45616322484E+03  0.38190000991E+03  0.10823258483E+04  0.50400001928E-02 0. -1.
</event>
<event>
 5   0  0.1235817E-04  0.2116002E+04  0.7818609E-02  0.8554227E-01
       -2   -1    0    0    0  501  0.00000000000E+00  0.00000000000E+00  0.46413045655E+03  0.46413045656E+03  0.25500000920E-02 0.  1.
        2   -1    0    0  501    0  0.00000000000E+00  0.00000000000E+00 -0.24117495336E+04  0.24117495336E+04  0.25500000920E-02 0. -1.
    10030    2    1    2    0    0  0.00000000000E+00  0.00000000000E+00 -0.19476190771E+04  0.28758799902E+04  0.21160022799E+04 0.  0.
        1    1    3    3  502    0  0.47319011733E+02 -0.37254519282E+03 -0.23181180749E+04  0.23483399282E+04  0.50400001928E-02 0. -1.
       -1    1    3    3    0  502 -0.47319011733E+02  0.37254519282E+03  0.37049899779E+03  0.52754006194E+03  0.50400001928E-02 0.  1.
</event>
<event>
 5   0  0.5933905E-05  0.2103308E+04  0.7818609E-02  0.8559788E-01
        1   -1    0    0  501    0  0.00000000000E+00  0.00000000000E+00  0.95748893415E+03  0.95748893416E+03  0.50400001928E-02 0. -1.
       -1   -1    0    0    0  501  0.00000000000E+00  0.00000000000E+00 -0.11550798865E+04  0.11550798866E+04  0.50400001928E-02 0.  1.
    10030    2    1    2    0    0  0.00000000000E+00  0.00000000000E+00 -0.19759095240E+03  0.21125688207E+04  0.21033080701E+04 0.  0.
        2    1    3    3  502    0  0.59500841146E+03  0.72065266445E+03  0.38561520143E+03  0.10109769315E+04  0.25500000920E-02 0. -1.
       -2    1    3    3    0  502 -0.59500841146E+03 -0.72065266445E+03 -0.58320615383E+03  0.11015918892E+04  0.25500000920E-02 0.  1.
</event>
<event>
 5   0  0.6052292E-05  0.2068411E+04  0.7818609E-02  0.8575287E-01
       -1   -1    0    0    0  501  0.00000000000E+00  0.00000000000E+00  0.11070053666E+04  0.11070053666E+04  0.50400001928E-02 0. -1.
        1   -1    0    0  501    0  0.00000000000E+00  0.00000000000E+00 -0.96619352625E+03  0.96619352626E+03  0.50400001928E-02 0.  1.
    10030    2    1    2    0    0  0.00000000000E+00  0.00000000000E+00  0.14081184036E+03  0.20731988929E+04  0.20684113892E+04 0.  0.
        1    1    3    3  502    0  0.46507410572E+03 -0.75510862188E+03  0.60370741916E+03  0.10728213284E+04  0.50400001928E-02 0.  1.
       -1    1    3    3    0  502 -0.46507410572E+03  0.75510862188E+03 -0.46289557880E+03  0.10003775645E+04  0.50400001928E-02 0. -1.
</event>
<event>
 5   0  0.4615125E-05  0.2059496E+04  0.7818609E-02  0.8579298E-01
        4   -1    0    0  501    0  0.00000000000E+00  0.00000000000E+00  0.17408011784E+04  0.17408016417E+04  0.12699999809E+01 0. -1.
       -4   -1    0    0    0  501  0.00000000000E+00  0.00000000000E+00 -0.60913282216E+03  0.60913414609E+03  0.12699999809E+01 0.  1.
    10030    2    1    2    0    0  0.00000000000E+00  0.00000000000E+00  0.11316683562E+04  0.23499357878E+04  0.20594962826E+04 0.  0.
        2    1    3    3  502    0  0.11833432255E+03 -0.91053786390E+03  0.10977266796E+04  0.14311135792E+04  0.25500000920E-02 0. -1.
       -2    1    3    3    0  502 -0.11833432255E+03  0.91053786390E+03  0.33941676632E+02  0.91882220854E+03  0.25500000920E-02 0.  1.
</event>
<event>
 5   0  0.1235817E-04  0.2053591E+04  0.7818609E-02  0.8581967E-01
        2   -1    0    0  501    0  0.00000000000E+00  0.00000000000E+00  0.15577558843E+04  0.15577558843E+04  0.25500000920E-02 0.  1.
       -2   -1    0    0    0  501  0.00000000000E+00  0.00000000000E+00 -0.67681266733E+03  0.67681266733E+03  0.25500000920E-02 0. -1.
    10030    2    1    2    0    0  0.00000000000E+00  0.00000000000E+00  0.88094321702E+03  0.22345685517E+04  0.20535909185E+04 0.  0.
        1    1    3    3  502    0 -0.92514364057E+03  0.44503688600E+03  0.41981639597E+03  0.11091412858E+04  0.50400001928E-02 0. -1.
       -1    1    3    3    0  502  0.92514364057E+03 -0.44503688600E+03  0.46112682105E+03  0.11254272658E+04  0.50400001928E-02 0.  1.
</event>
<event>
 5   0  0.5933905E-05  0.2096974E+04  0.7818609E-02  0.8562577E-01
       -1   -1    0    0    0  501  0.00000000000E+00  0.00000000000E+00  0.88296075117E+03  0.88296075119E+03  0.50400001928E-02 0. -1.
        1   -1    0    0  501    0  0.00000000000E+00  0.00000000000E+00 -0.12450445851E+04  0.12450445851E+04  0.50400001928E-02 0.  1.
    10030    2    1    2    0    0  0.00000000000E+00  0.00000000000E+00 -0.36208383392E+03  0.21280053363E+04  0.20969744892E+04 0.  0.
        2    1    3    3  502    0  0.19834123484E+03 -0.99428968205E+03  0.90071150305E+02  0.10178723051E+04  0.25500000920E-02 0. -1.
       -2    1    3    3    0  502 -0.19834123484E+03  0.99428968205E+03 -0.45215498423E+03  0.11101330312E+04  0.25500000920E-02 0.  1.
</event>
<event>
 5   0  0.5933905E-05  0.2170444E+04  0.7818609E-02  0.8530832E-01
       -1   -1    0    0    0  501  0.00000000000E+00  0.00000000000E+00  0.19576549194E+04  0.19576549194E+04  0.50400001928E-02 0.  1.
        1   -1    0    0  501    0  0.00000000000E+00  0.00000000000E+00 -0.60159034731E+03  0.60159034733E+03  0.50400001928E-02 0. -1.
    10030    2    1    2    0    0  0.00000000000E+00  0.00000000000E+00  0.13560645721E+04  0.25592452667E+04  0.21704435518E+04 0.  0.
        2    1    3    3  502    0 -0.72934304407E+03 -0.25644349602E+03  0.15760358685E+04  0.17554468381E+04  0.25500000920E-02 0. -1.
       -2    1    3    3    0  502  0.72934304407E+03  0.25644349602E+03 -0.21997129643E+03  0.80379842862E+03  0.25500000920E-02 0.  1.
</event>
<event>
 5   0  0.1349252E-04  0.1936123E+04  0.7818609E-02  0.8637082E-01
        2   -1    0    0  501    0  0.00000000000E+00  0.00000000000E+00  0.90421736448E+03  0.90421736448E+03  0.25500000920E-02 0. -1.
       -2   -1    0    0    0  501  0.00000000000E+00  0.00000000000E+00 -0.10364137666E+04  0.10364137666E+04  0.25500000920E-02 0.  1.
    10030    2    1    2    0    0  0.00000000000E+00  0.00000000000E+00 -0.13219640216E+03  0.19406311311E+04  0.19361232653E+04 0.  0.
        2    1    3    3  502    0  0.62732855086E+03  0.57166312827E+03 -0.53280391325E+03  0.10021077053E+04  0.25500000920E-02 0.  1.
       -2    1    3    3    0  502 -0.62732855086E+03 -0.57166312827E+03  0.40060751109E+03  0.93852342587E+03  0.25500000920E-02 0. -1.
</event>
<event>
 5   0  0.6221148E-05  0.2054119E+04  0.7818609E-02  0.8581728E-01
       -1   -1    0    0    0  501  0.00000000000E+00  0.00000000000E+00  0.52014720541E+03  0.52014720543E+03  0.50400001928E-02 0.  1.
        1   -1    0    0  501    0  0.00000000000E+00  0.00000000000E+00 -0.20279850071E+04  0.20279850071E+04  0.50400001928E-02 0. -1.
    10030    2    1    2    0    0  0.00000000000E+00  0.00000000000E+00 -0.15078378017E+04  0.25481322126E+04  0.20541185303E+04 0.  0.
        3    1    3    3  502    0  0.72683786542E+03  0.58635964082E+03 -0.12842084225E+04  0.15878608861E+04  0.10100000352E+00 0. -1.
       -3    1    3    3    0  502 -0.72683786542E+03 -0.58635964082E+03 -0.22362937924E+03  0.96027132648E+03  0.10100000352E+00 0.  1.
</event>
<event>
 5   0  0.1325673E-04  0.2104211E+04  0.7818609E-02  0.8559391E-01
        2   -1    0    0  501    0  0.00000000000E+00  0.00000000000E+00  0.76600664762E+03  0.76600664762E+03  0.25500000920E-02 0. -1.
       -2   -1    0    0    0  501  0.00000000000E+00  0.00000000000E+00 -0.14450607356E+04  0.14450607356E+04  0.25500000920E-02 0.  1.
    10030    2    1    2    0    0  0.00000000000E+00  0.00000000000E+00 -0.67905408796E+03  0.22110673832E+04  0.21042111393E+04 0.  0.
        5    1    3    3  502    0  0.63311188878E+03 -0.76197144823E+03 -0.71173667801E+03  0.12198452117E+04  0.46999998093E+01 0.  1.
       -5    1    3    3    0  502 -0.63311188878E+03  0.76197144823E+03  0.32682590053E+02  0.99122217152E+03  0.46999998093E+01 0. -1.
</event>
<event>
 5   0  0.6221148E-05  0.2042322E+04  0.7818609E-02  0.8587085E-01
       -1   -1    0    0    0  501  0.00000000000E+00  0.00000000000E+00  0.11050245556E+04  0.11050245556E+04  0.50400001928E-02 0. -1.
        1   -1    0    0  501    0  0.00000000000E+00  0.00000000000E+00 -0.94366238034E+03  0.94366238036E+03  0.50400001928E-02 0.  1.
    10030    2    1    2    0    0  0.00000000000E+00  0.00000000000E+00  0.16136217528E+03  0.20486869360E+04  0.20423223081E+04 0.  0.
        3    1    3    3  502    0  0.15606985307E+03 -0.64998948582E+03 -0.69368704077E+03  0.96335136448E+03  0.10100000352E+00 0.  1.
       -3    1    3    3    0  502 -0.15606985307E+03  0.64998948582E+03  0.85504921605E+03  0.10853355715E+04  0.10100000352E+00 0. -1.
</event>
<event>
 5   0  0.1349252E-04  0.2231090E+04  0.7818609E-02  0.8505598E-01
       -2   -1    0    0    0  501  0.00000000000E+00  0.00000000000E+00  0.10869277452E+04  0.10869277452E+04  0.25500000920E-02 0.  1.
        2   -1    0    0  501    0  0.00000000000E+00  0.00000000000E+00 -0.11449153985E+04  0.11449153985E+04  0.25500000920E-02 0. -1.
    10030    2    1    2    0    0  0.00000000000E+00  0.00000000000E+00 -0.57987653273E+02  0.22318431437E+04  0.22310897001E+04 0.  0.
        2    1    3    3  502    0 -0.93404153536E+03  0.60734247464E+03 -0.85064885029E+02  0.11173784077E+04  0.25500000920E-02 0. -1.
       -2    1    3    3    0  502  0.93404153536E+03 -0.60734247464E+03  0.27077231756E+02  0.11144647360E+04  0.25500000920E-02 0.  1.
</event>
<event>
 5   0  0.1252477E-04  0.2093781E+04  0.7818609E-02  0.8563988E-01
       -2   -1    0    0    0  501  0.00000000000E+00  0.00000000000E+00  0.95401609724E+03  0.95401609724E+03  0.25500000920E-02 0. -1.
        2   -1    0    0  501    0  0.00000000000E+00  0.00000000000E+00 -0.11488062591E+04  0.11488062591E+04  0.25500000920E-02 0.  1.
    10030    2    1    2    0    0  0.00000000000E+00  0.00000000000E+00 -0.19479016181E+03  0.21028223563E+04  0.20937809472E+04 0.  0.
        4    1    3    3  502    0 -0.68986815974E+03 -0.67460249923E+03 -0.50531576389E+03  0.10891979820E+04  0.12699999809E+01 0.  1.
       -4    1    3    3    0  502  0.68986815974E+03  0.67460249923E+03  0.31052560207E+03  0.10136243743E+04  0.12699999809E+01 0. -1.
</event>
<event>
 5   0  0.6052292E-05  0.2095515E+04  0.7818609E-02  0.8563222E-01
        1   -1    0    0  501    0  0.00000000000E+00  0.00000000000E+00  0.10767562899E+04  0.10767562900E+04  0.50400001928E-02 0. -1.
       -1   -1    0    0    0  501  0.00000000000E+00  0.00000000000E+00 -0.10195392971E+04  0.10195392971E+04  0.50400001928E-02 0.  1.
    10030    2    1    2    0    0  0.00000000000E+00  0.00000000000E+00  0.57216992828E+02  0.20962955871E+04  0.20955145917E+04 0.  0.
        1    1    3    3  502    0 -0.58180032334E+03  0.37648228328E+03 -0.75753731832E+03  0.10266904668E+04  0.50400001928E-02 0.  1.
       -1    1    3    3    0  502  0.58180032334E+03 -0.37648228328E+03  0.81475431114E+03  0.10696051203E+04  0.50400001928E-02 0. -1.
</event>
<event>
 5   0  0.1281470E-04  0.2186192E+04  0.7818609E-02  0.8524197E-01
       -2   -1    0    0    0  501  0.00000000000E+00  0.00000000000E+00  0.11884995342E+04  0.11884995342E+04  0.25500000920E-02 0.  1.
        2   -1    0    0  501    0  0.00000000000E+00  0.00000000000E+00 -0.10053509953E+04  0.10053509953E+04  0.25500000920E-02 0. -1.
    10030    2    1    2    0    0  0.00000000000E+00  0.00000000000E+00  0.18314853891E+03  0.21938505295E+04  0.21861922967E+04 0.  0.
        3    1    3    3  502    0  0.49026813222E+03 -0.78136683890E+03  0.68011162704E+03  0.11460579452E+04  0.10100000352E+00 0.  1.
       -3    1    3    3    0  502 -0.49026813222E+03  0.78136683890E+03 -0.49696308813E+03  0.10477925842E+04  0.10100000352E+00 0. -1.
</event>
<event>
 5   0  0.1349252E-04  0.2080607E+04  0.7818609E-02  0.8569835E-01
        2   -1    0    0  501    0  0.00000000000E+00  0.00000000000E+00  0.45367639967E+03  0.45367639968E+03  0.25500000920E-02 0.  1.
       -2   -1    0    0    0  501  0.00000000000E+00  0.00000000000E+00 -0.23854698389E+04  0.23854698389E+04  0.25500000920E-02 0. -1.
    10030    2    1    2    0    0  0.00000000000E+00  0.00000000000E+00 -0.19317934392E+04  0.28391462385E+04  0.20806069961E+04 0.  0.
        2    1    3    3  502    0 -0.10278871929E+03 -0.10351933531E+04 -0.95720522566E+03  0.14136593094E+04  0.25500000920E-02 0.  1.
       -2    1    3    3    0  502  0.10278871929E+03  0.10351933531E+04 -0.97458821353E+03  0.14254869291E+04  0.25500000920E-02 0. -1.
</event>
<event>
 5   0  0.6221148E-05  0.2094247E+04  0.7818609E-02  0.8563782E-01
       -1   -1    0    0    0  501  0.00000000000E+00  0.00000000000E+00  0.67598689368E+03  0.67598689370E+03  0.50400001928E-02 0.  1.
        1   -1    0    0  501    0  0.00000000000E+00  0.00000000000E+00 -0.16220242978E+04  0.16220242978E+04  0.50400001928E-02 0. -1.
    10030    2    1    2    0    0  0.00000000000E+00  0.00000000000E+00 -0.94603740407E+03  0.22980111915E+04  0.20942465629E+04 0.  0.
        3    1    3    3  502    0  0.55862372869E+03  0.88562676106E+03 -0.46371259960E+03  0.11451744912E+04  0.10100000352E+00 0. -1.
       -3    1    3    3    0  502 -0.55862372869E+03 -0.88562676106E+03 -0.48232480447E+03  0.11528367002E+04  0.10100000352E+00 0.  1.
</event>
<event>
 5   0  0.6221148E-05  0.1600352E+04  0.7818609E-02  0.8820332E-01
        1   -1    0    0  501    0  0.00000000000E+00  0.00000000000E+00  0.82832203434E+03  0.82832203435E+03  0.50400001928E-02 0. -1.
       -1   -1    0    0    0  501  0.00000000000E+00  0.00000000000E+00 -0.77298600701E+03  0.77298600702E+03  0.50400001928E-02 0.  1.
    10030    2    1    2    0    0  0.00000000000E+00  0.00000000000E+00  0.55336027330E+02  0.16013080414E+04  0.16003516387E+04 0.  0.
        3    1    3    3  502    0 -0.45719093396E+03  0.37165338153E+03 -0.51407178827E+03  0.78193324510E+03  0.10100000352E+00 0.  1.
       -3    1    3    3    0  502  0.45719093396E+03 -0.37165338153E+03  0.56940781560E+03  0.81937479627E+03  0.10100000352E+00 0. -1.
</event>
<event>
 5   0  0.6263616E-05  0.1949909E+04  0.7818609E-02  0.8630404E-01
        1   -1    0    0  501    0  0.00000000000E+00  0.00000000000E+00  0.77360359275E+03  0.77360359277E+03  0.50400001928E-02 0. -1.
       -1   -1    0    0    0  501  0.00000000000E+00  0.00000000000E+00 -0.12287129126E+04  0.12287129126E+04  0.50400001928E-02 0.  1.
    10030    2    1    2    0    0  0.00000000000E+00  0.00000000000E+00 -0.45510931988E+03  0.20023165054E+04  0.19499094581E+04 0.  0.
        4    1    3    3  502    0 -0.79570660389E+03 -0.14208427817E+03 -0.78736555490E+03  0.11283984542E+04  0.12699999809E+01 0.  1.
       -4    1    3    3    0  502  0.79570660389E+03  0.14208427817E+03  0.33225623502E+03  0.87391805118E+03  0.12699999809E+01 0. -1.
</event>
<event>
 5   0  0.1281470E-04  0.2121274E+04  0.7818609E-02  0.8551930E-01
        2   -1    0    0  501    0  0.00000000000E+00  0.00000000000E+00  0.12422938315E+04  0.12422938315E+04  0.25500000920E-02 0. -1.
       -2   -1    0    0    0  501  0.00000000000E+00  0.00000000000E+00 -0.90554319918E+03  0.90554319918E+03  0.25500000920E-02 0.  1.
    10030    2    1    2    0    0  0.00000000000E+00  0.00000000000E+00  0.33675063228E+03  0.21478370306E+04  0.21212738913E+04 0.  0.
        3    1    3    3  502    0  0.55988280475E+03 -0.33156722303E+03  0.10164466621E+04  0.12068841723E+04  0.10100000352E+00 0. -1.
       -3    1    3    3    0  502 -0.55988280475E+03  0.33156722303E+03 -0.67969602978E+03  0.94095285830E+03  0.10100000352E+00 0.  1.
</event>
<event>
 5   0  0.1349252E-04  0.2117942E+04  0.7818609E-02  0.8553381E-01
        2   -1    0    0  501    0  0.00000000000E+00  0.00000000000E+00  0.10291736736E+04  0.10291736737E+04  0.25500000920E-02 0.  1.
       -2   -1    0    0    0  501  0.00000000000E+00  0.00000000000E+00 -0.10896307967E+04  0.10896307967E+04  0.25500000920E-02 0. -1.
    10030    2    1    2    0    0  0.00000000000E+00  0.00000000000E+00 -0.60457123006E+02  0.21188044703E+04  0.21179417649E+04 0.  0.
        2    1    3    3  502    0 -0.45021014820E+03 -0.34733515156E+03  0.86349329184E+03  0.10339011317E+04  0.25500000920E-02 0.  1.
       -2    1    3    3    0  502  0.45021014820E+03  0.34733515156E+03 -0.92395041485E+03  0.10849033386E+04  0.25500000920E-02 0. -1.
</event>
<event>
 5   0  0.1252477E-04  0.2100280E+04  0.7818609E-02  0.8561120E-01
       -2   -1    0    0    0  501  0.00000000000E+00  0.00000000000E+00  0.48774299898E+03  0.48774299898E+03  0.25500000920E-02 0. -1.
        2   -1    0    0  501    0  0.00000000000E+00  0.00000000000E+00 -0.22610143245E+04  0.22610143245E+04  0.25500000920E-02 0.  1.
    10030    2    1    2    0    0  0.00000000000E+00  0.00000000000E+00 -0.17732713255E+04  0.27487573235E+04  0.21002798931E+04 0.  0.
        4    1    3    3  502    0  0.97456380285E+03  0.22239536404E+03 -0.46547186573E+03  0.11026785454E+04  0.12699999809E+01 0. -1.
       -4    1    3    3    0  502 -0.97456380285E+03 -0.22239536404E+03 -0.13077994598E+04  0.16460787781E+04  0.12699999809E+01 0.  1.
</event>
<event>
 5   0  0.5933905E-05  0.2084243E+04  0.7818609E-02  0.8568216E-01
        1   -1    0    0  501    0  0.00000000000E+00  0.00000000000E+00  0.16441376956E+04  0.16441376956E+04  0.50400001928E-02 0. -1.
       -1   -1    0    0    0  501  0.00000000000E+00  0.00000000000E+00 -0.66053920295E+03  0.66053920297E+03  0.50400001928E-02 0.  1.
    10030    2    1    2    0    0  0.00000000000E+00  0.00000000000E+00  0.98359849267E+03  0.23046768986E+04  0.20842431749E+04 0.  0.
        2    1    3    3  502    0  0.70289188750E+03 -0.51681742853E+03  0.11220449245E+04  0.14213170204E+04  0.25500000920E-02 0. -1.
       -2    1    3    3    0  502 -0.70289188750E+03  0.51681742853E+03 -0.13844643179E+03  0.88335987821E+03  0.25500000920E-02 0.  1.
</event>
<event>
 5   0  0.4615125E-05  0.2120212E+04  0.7818609E-02  0.8552392E-01
        3   -1    0    0  501    0  0.00000000000E+00  0.00000000000E+00  0.13886389235E+04  0.13886389272E+04  0.10100000352E+00 0. -1.
       -3   -1    0    0    0  501  0.00000000000E+00  0.00000000000E+00 -0.80929909437E+03  0.80929910067E+03  0.10100000352E+00 0.  1.
    10030    2    1    2    0    0  0.00000000000E+00  0.00000000000E+00  0.57933982916E+03  0.21979380279E+04  0.21202115311E+04 0.  0.
        4    1    3    3  502    0 -0.90072794785E+03 -0.43482567298E+03  0.65388793271E+03  0.11949708128E+04  0.12699999809E+01 0. -1.
       -4    1    3    3    0  502  0.90072794785E+03  0.43482567298E+03 -0.74548103550E+02  0.10029672151E+04  0.12699999809E+01 0.  1.
</event>
<event>
 5   0  0.1235817E-04  0.1985936E+04  0.7818609E-02  0.8613224E-01
        2   -1    0    0  501    0  0.00000000000E+00  0.00000000000E+00  0.95662630040E+03  0.95662630040E+03  0.25500000920E-02 0.  1.
       -2   -1    0    0    0  501  0.00000000000E+00  0.00000000000E+00 -0.10306902042E+04  0.10306902042E+04  0.25500000920E-02 0. -1.
    10030    2    1    2    0    0  0.00000000000E+00  0.00000000000E+00 -0.74063903775E+02  0.19873165046E+04  0.19859359072E+04 0.  0.
        1    1    3    3  502    0  0.10138741964E+03  0.80300961303E+03  0.53859094422E+03  0.97220576664E+03  0.50400001928E-02 0.  1.
       -1    1    3    3    0  502 -0.10138741964E+03 -0.80300961303E+03 -0.61265484799E+03  0.10151107379E+04  0.50400001928E-02 0. -1.
</event>
<event>
 5   0  0.1349252E-04  0.2100305E+04  0.7818609E-02  0.8561109E-01
       -2   -1    0    0    0  501  0.00000000000E+00  0.00000000000E+00  0.55071457928E+03  0.55071457929E+03  0.25500000920E-02 0. -1.
        2   -1    0    0  501    0  0.00000000000E+00  0.00000000000E+00 -0.20025267873E+04  0.20025267873E+04  0.25500000920E-02 0.  1.
    10030    2    1    2    0    0  0.00000000000E+00  0.00000000000E+00 -0.14518122080E+04  0.25532413666E+04  0.21003054037E+04 0.  0.
        2    1    3    3  502    0 -0.33677484586E+03 -0.43750397579E+02  0.48211806208E+03  0.58971961124E+03  0.25500000920E-02 0. -1.
       -2    1    3    3    0  502  0.33677484586E+03  0.43750397579E+02 -0.19339302701E+04  0.19635217554E+04  0.25500000920E-02 0.  1.
</event>
<event>
 5   0  0.6052292E-05  0.2229595E+04  0.7818609E-02  0.8506210E-01
        1   -1    0    0  501    0  0.00000000000E+00  0.00000000000E+00  0.19836629459E+04  0.19836629459E+04  0.50400001928E-02 0. -1.
       -1   -1    0    0    0  501  0.00000000000E+00  0.00000000000E+00 -0.62650418621E+03  0.62650418623E+03  0.50400001928E-02 0.  1.
    10030    2    1    2    0    0  0.00000000000E+00  0.00000000000E+00  0.13571587597E+04  0.26101671322E+04  0.22295947073E+04 0.  0.
        1    1    3    3  502    0 -0.19188650684E+03 -0.36094788039E+03  0.18927557766E+04  0.19363956811E+04  0.50400001928E-02 0. -1.
       -1    1    3    3    0  502  0.19188650684E+03  0.36094788039E+03 -0.53559701684E+03  0.67377145112E+03  0.50400001928E-02 0.  1.
</event>
<event>
 5   0  0.6221148E-05  0.2106925E+04  0.7818609E-02  0.8558199E-01
        1   -1    0    0  501    0  0.00000000000E+00  0.00000000000E+00  0.11729293134E+04  0.11729293134E+04  0.50400001928E-02 0. -1.
       -1   -1    0    0    0  501  0.00000000000E+00  0.00000000000E+00 -0.94616356357E+03  0.94616356358E+03  0.50400001928E-02 0.  1.
    10030    2    1    2    0    0  0.00000000000E+00  0.00000000000E+00  0.22676574980E+03  0.21190928770E+04  0.21069247533E+04 0.  0.
        3    1    3    3  502    0 -0.36515744786E+03  0.32377837290E+03 -0.82560981416E+03  0.95906411252E+03  0.10100000352E+00 0.  1.
       -3    1    3    3    0  502  0.36515744786E+03 -0.32377837290E+03  0.10523755640E+04  0.11600287644E+04  0.10100000352E+00 0. -1.
</event>
<event>
 5   0  0.6263616E-05  0.1568317E+04  0.7818609E-02  0.8840252E-01
       -1   -1    0    0    0  501  0.00000000000E+00  0.00000000000E+00  0.37207917080E+03  0.37207917083E+03  0.50400001928E-02 0.  1.
        1   -1    0    0  501    0  0.00000000000E+00  0.00000000000E+00 -0.16526183347E+04  0.16526183347E+04  0.50400001928E-02 0. -1.
    10030    2    1    2    0    0  0.00000000000E+00  0.00000000000E+00 -0.12805391639E+04  0.20246975056E+04  0.15683173909E+04 0.  0.
        4    1    3    3  502    0  0.21451271432E+02  0.26002855758E+03 -0.15949360235E+04  0.16161366092E+04  0.12699999809E+01 0. -1.
       -4    1    3    3    0  502 -0.21451271432E+02 -0.26002855758E+03  0.31439685957E+03  0.40856089633E+03  0.12699999809E+01 0.  1.
</event>
<event>
 5   0  0.6052292E-05  0.2060523E+04  0.7818609E-02  0.8578836E-01
        1   -1    0    0  501    0  0.00000000000E+00  0.00000000000E+00  0.14171578920E+04  0.14171578920E+04  0.50400001928E-02 0.  1.
       -1   -1    0    0    0  501  0.00000000000E+00  0.00000000000E+00 -0.74899096159E+03  0.74899096160E+03  0.50400001928E-02 0. -1.
    10030    2    1    2    0    0  0.00000000000E+00  0.00000000000E+00  0.66816693044E+03  0.21661488536E+04  0.20605227029E+04 0.  0.
        1    1    3    3  502    0 -0.24889816806E+03  0.65185632163E+03  0.11309451213E+04  0.13288731427E+04  0.50400001928E-02 0.  1.
       -1    1    3    3    0  502  0.24889816806E+03 -0.65185632163E+03 -0.46277819084E+03  0.83727571090E+03  0.50400001928E-02 0. -1.
</event>
<event>
 5   0  0.1281470E-04  0.2097686E+04  0.7818609E-02  0.8562263E-01
       -2   -1    0    0    0  501  0.00000000000E+00  0.00000000000E+00  0.40393719774E+03  0.40393719775E+03  0.25500000920E-02 0.  1.
        2   -1    0    0  501    0  0.00000000000E+00  0.00000000000E+00 -0.27233725465E+04  0.27233725465E+04  0.25500000920E-02 0. -1.
    10030    2    1    2    0    0  0.00000000000E+00  0.00000000000E+00 -0.23194353488E+04  0.31273097443E+04  0.20976858438E+04 0.  0.
        3    1    3    3  502    0  0.17046743055E+03 -0.45021512922E+03 -0.25489344434E+04  0.25939968417E+04  0.10100000352E+00 0. -1.
       -3    1    3    3    0  502 -0.17046743055E+03  0.45021512922E+03  0.22949909463E+03  0.53331290262E+03  0.10100000352E+00 0.  1.
</event>
<event>
 5   0  0.5933905E-05  0.2126065E+04  0.7818609E-02  0.8549848E-01
       -1   -1    0    0    0  501  0.00000000000E+00  0.00000000000E+00  0.60721662482E+03  0.60721662485E+03  0.50400001928E-02 0. -1.
        1   -1    0    0  501    0  0.00000000000E+00  0.00000000000E+00 -0.18610126054E+04  0.18610126054E+04  0.50400001928E-02 0.  1.
    10030    2    1    2    0    0  0.00000000000E+00  0.00000000000E+00 -0.12537959806E+04  0.24682292302E+04  0.21260647150E+04 0.  0.
        2    1    3    3  502    0 -0.40746446644E+03 -0.73623353428E+03  0.12723884065E+03  0.85103280253E+03  0.25500000920E-02 0. -1.
       -2    1    3    3    0  502  0.40746446644E+03  0.73623353428E+03 -0.13810348212E+04  0.16171964277E+04  0.25500000920E-02 0.  1.
</event>
<event>
 5   0  0.1235817E-04  0.2093021E+04  0.7818609E-02  0.8564324E-01
        2   -1    0    0  501    0  0.00000000000E+00  0.00000000000E+00  0.40362167414E+03  0.40362167415E+03  0.25500000920E-02 0.  1.
       -2   -1    0    0    0  501  0.00000000000E+00  0.00000000000E+00 -0.27133936290E+04  0.27133936290E+04  0.25500000920E-02 0. -1.
    10030    2    1    2    0    0  0.00000000000E+00  0.00000000000E+00 -0.23097719549E+04  0.31170153032E+04  0.20930212413E+04 0.  0.
        1    1    3    3  502    0 -0.87861431366E+03  0.47128763274E+03 -0.16284306160E+04  0.19094138934E+04  0.50400001928E-02 0. -1.
       -1    1    3    3    0  502  0.87861431366E+03 -0.47128763274E+03 -0.68134133888E+03  0.12076014098E+04  0.50400001928E-02 0.  1.
</event>
<event>
 5   0  0.5933905E-05  0.2071603E+04  0.7818609E-02  0.8573857E-01
        1   -1    0    0  501    0  0.00000000000E+00  0.00000000000E+00  0.12419276675E+04  0.12419276675E+04  0.50400001928E-02 0. -1.
       -1   -1    0    0    0  501  0.00000000000E+00  0.00000000000E+00 -0.86388631834E+03  0.86388631836E+03  0.50400001928E-02 0.  1.
    10030    2    1    2    0    0  0.00000000000E+00  0.00000000000E+00  0.37804134914E+03  0.21058139858E+04  0.20716025877E+04 0.  0.
        2    1    3    3  502    0 -0.44356111086E+03 -0.57970692175E+03  0.93605696876E+03  0.11870169430E+04  0.25500000920E-02 0. -1.
       -2    1    3    3    0  502  0.44356111086E+03  0.57970692175E+03 -0.55801561962E+03  0.91879704285E+03  0.25500000920E-02 0.  1.
</event>
<event>
 5   0  0.6221148E-05  0.2109667E+04  0.7818609E-02  0.8556997E-01
       -1   -1    0    0    0  501  0.00000000000E+00  0.00000000000E+00  0.55350638040E+03  0.55350638042E+03  0.50400001928E-02 0. -1.
        1   -1    0    0  501    0  0.00000000000E+00  0.00000000000E+00 -0.20102279172E+04  0.20102279172E+04  0.50400001928E-02 0.  1.
    10030    2    1    2    0    0  0.00000000000E+00  0.00000000000E+00 -0.14567215368E+04  0.25637342977E+04  0.21096672518E+04 0.  0.
        3    1    3    3  502    0 -0.45660264250E+03  0.32040805159E+03 -0.18163335796E+04  0.19000565716E+04  0.10100000352E+00 0.  1.
       -3    1    3    3    0  502  0.45660264250E+03 -0.32040805159E+03  0.35961204273E+03  0.66367772611E+03  0.10100000352E+00 0. -1.
</event>
<event>
 5   0  0.1252477E-04  0.2050006E+04  0.7818609E-02  0.8583592E-01
       -2   -1    0    0    0  501  0.00000000000E+00  0.00000000000E+00  0.16427431938E+04  0.16427431938E+04  0.25500000920E-02 0.  1.
        2   -1    0    0  501    0  0.00000000000E+00  0.00000000000E+00 -0.63955891362E+03  0.63955891362E+03  0.25500000920E-02 0. -1.
    10030    2    1    2    0    0  0.00000000000E+00  0.00000000000E+00  0.10031842802E+04  0.22823021074E+04  0.20500059048E+04 0.  0.
        4    1    3    3  502    0 -0.69950550487E+03  0.53376513290E+03  0.10869208430E+04  0.13984318719E+04  0.12699999809E+01 0.  1.
       -4    1    3    3    0  502  0.69950550487E+03 -0.53376513290E+03 -0.83736562801E+02  0.88387023555E+03  0.12699999809E+01 0. -1.
</event>
<event>
 5   0  0.6263616E-05  0.2113313E+04  0.7818609E-02  0.8555401E-01
        1   -1    0    0  501    0  0.00000000000E+00  0.00000000000E+00  0.10760996427E+04  0.10760996427E+04  0.50400001928E-02 0.  1.
       -1   -1    0    0    0  501  0.00000000000E+00  0.00000000000E+00 -0.10375647580E+04  0.10375647580E+04  0.50400001928E-02 0. -1.
    10030    2    1    2    0    0  0.00000000000E+00  0.00000000000E+00  0.38534884722E+02  0.21136644007E+04  0.21133131007E+04 0.  0.
        4    1    3    3  502    0 -0.18733418235E+03  0.65375531049E+03 -0.78958904084E+03  0.10420856818E+04  0.12699999809E+01 0. -1.
       -4    1    3    3    0  502  0.18733418235E+03 -0.65375531049E+03  0.82812392556E+03  0.10715787189E+04  0.12699999809E+01 0.  1.
</event>
<event>
 5   0  0.1349252E-04  0.2089302E+04  0.7818609E-02  0.8565970E-01
       -2   -1    0    0    0  501  0.00000000000E+00  0.00000000000E+00  0.10062584236E+04  0.10062584236E+04  0.25500000920E-02 0.  1.
        2   -1    0    0  501    0  0.00000000000E+00  0.00000000000E+00 -0.10845088174E+04  0.10845088174E+04  0.25500000920E-02 0. -1.
    10030    2    1    2    0    0  0.00000000000E+00  0.00000000000E+00 -0.78250393803E+02  0.20907672410E+04  0.20893024032E+04 0.  0.
        2    1    3    3  502    0  0.64679821262E+03 -0.81628981193E+03 -0.12054038534E+03  0.10484307175E+04  0.25500000920E-02 0. -1.
       -2    1    3    3    0  502 -0.64679821262E+03  0.81628981193E+03  0.42289991540E+02  0.10423365235E+04  0.25500000920E-02 0.  1.
</event>
<event>
 5   0  0.5846187E-05  0.2057121E+04  0.7818609E-02  0.8580371E-01
        1   -1    0    0  501    0  0.00000000000E+00  0.00000000000E+00  0.20758870195E+04  0.20758870195E+04  0.50400001928E-02 0. -1.
       -1   -1    0    0    0  501  0.00000000000E+00  0.00000000000E+00 -0.50963100869E+03  0.50963100871E+03  0.50400001928E-02 0.  1.
    10030    2    1    2    0    0  0.00000000000E+00  0.00000000000E+00  0.15662560109E+04  0.25855180283E+04  0.20571207021E+04 0.  0.
        5    1    3    3  502    0 -0.44851249386E+03  0.24400435999E+02  0.19460862256E+04  0.19972562494E+04  0.46999998093E+01 0. -1.
       -5    1    3    3    0  502  0.44851249386E+03 -0.24400435999E+02 -0.37983021473E+03  0.58826177884E+03  0.46999998093E+01 0.  1.
</event>
<event>
 5   0  0.1281470E-04  0.2094416E+04  0.7818609E-02  0.8563707E-01
        2   -1    0    0  501    0  0.00000000000E+00  0.00000000000E+00  0.18820558421E+04  0.18820558421E+04  0.25500000920E-02 0. -1.
       -2   -1    0    0    0  501  0.00000000000E+00  0.00000000000E+00 -0.58268440261E+03  0.58268440262E+03  0.25500000920E-02 0.  1.
    10030    2    1    2    0    0  0.00000000000E+00  0.00000000000E+00  0.12993714395E+04  0.24647402447E+04  0.20944159893E+04 0.  0.
        3    1    3    3  502    0 -0.86252521985E+03 -0.51370903515E+03  0.10003644517E+04  0.14172423131E+04  0.10100000352E+00 0.  1.
       -3    1    3    3    0  502  0.86252521985E+03  0.51370903515E+03  0.29900698772E+03  0.10474979315E+04  0.10100000352E+00 0. -1.
</event>
<event>
 5   0  0.5933905E-05  0.2097050E+04  0.7818609E-02  0.8562544E-01
        1   -1    0    0  501    0  0.00000000000E+00  0.00000000000E+00  0.12536360952E+04  0.12536360953E+04  0.50400001928E-02 0.  1.
       -1   -1    0    0    0  501  0.00000000000E+00  0.00000000000E+00 -0.87697238035E+03  0.87697238036E+03  0.50400001928E-02 0. -1.
    10030    2    1    2    0    0  0.00000000000E+00  0.00000000000E+00  0.37666371490E+03  0.21306084756E+04  0.20970495755E+04 0.  0.
        2    1    3    3  502    0  0.61754073808E+03 -0.79623827288E+03  0.48288909789E+03  0.11173781058E+04  0.25500000920E-02 0.  1.
       -2    1    3    3    0  502 -0.61754073808E+03  0.79623827288E+03 -0.10622538299E+03  0.10132303698E+04  0.25500000920E-02 0. -1.
</event>
<event>
 5   0  0.1349252E-04  0.2105047E+04  0.7818609E-02  0.8559024E-01
       -2   -1    0    0    0  501  0.00000000000E+00  0.00000000000E+00  0.94929338794E+03  0.94929338795E+03  0.25500000920E-02 0.  1.
        2   -1    0    0  501    0  0.00000000000E+00  0.00000000000E+00 -0.11669788356E+04  0.11669788356E+04  0.25500000920E-02 0. -1.
    10030    2    1    2    0    0  0.00000000000E+00  0.00000000000E+00 -0.21768544766E+03  0.21162722236E+04  0.21050465957E+04 0.  0.
        2    1    3    3  502    0 -0.43599093637E+03 -0.15846489311E+03  0.84097383590E+03  0.96043542814E+03  0.25500000920E-02 0.  1.
       -2    1    3    3    0  502  0.43599093637E+03  0.15846489311E+03 -0.10586592836E+04  0.11558367954E+04  0.25500000920E-02 0. -1.
</event>
<event>
 5   0  0.1235817E-04  0.2058249E+04  0.7818609E-02  0.8579862E-01
       -2   -1    0    0    0  501  0.00000000000E+00  0.00000000000E+00  0.95152860278E+03  0.95152860278E+03  0.25500000920E-02 0.  1.
        2   -1    0    0  501    0  0.00000000000E+00  0.00000000000E+00 -0.11130477827E+04  0.11130477827E+04  0.25500000920E-02 0. -1.
    10030    2    1    2    0    0  0.00000000000E+00  0.00000000000E+00 -0.16151917996E+03  0.20645763855E+04  0.20582485774E+04 0.  0.
        1    1    3    3  502    0 -0.42819543313E+03  0.84703112029E+03 -0.47983163118E+03  0.10635090230E+04  0.50400001928E-02 0. -1.
       -1    1    3    3    0  502  0.42819543313E+03 -0.84703112029E+03  0.31831245123E+03  0.10010673625E+04  0.50400001928E-02 0.  1.
</event>
<event>
 5   0  0.6221148E-05  0.2101275E+04  0.7818609E-02  0.8560682E-01
       -1   -1    0    0    0  501  0.00000000000E+00  0.00000000000E+00  0.52393925724E+03  0.52393925727E+03  0.50400001928E-02 0. -1.
        1   -1    0    0  501    0  0.00000000000E+00  0.00000000000E+00 -0.21068069099E+04  0.21068069099E+04  0.50400001928E-02 0.  1.
    10030    2    1    2    0    0  0.00000000000E+00  0.00000000000E+00 -0.15828676527E+04  0.26307461672E+04  0.21012747061E+04 0.  0.
        3    1    3    3  502    0  0.52761834745E+03 -0.76534681900E+02 -0.19248701607E+04  0.19973391860E+04  0.10100000352E+00 0.  1.
       -3    1    3    3    0  502 -0.52761834745E+03  0.76534681900E+02  0.34200250806E+03  0.63340698118E+03  0.10100000352E+00 0. -1.
</event>
<event>
 5   0  0.6263616E-05  0.1996244E+04  0.7818609E-02  0.8608379E-01
        1   -1    0    0  501    0  0.00000000000E+00  0.00000000000E+00  0.65030318643E+03  0.65030318645E+03  0.50400001928E-02 0. -1.
       -1   -1    0    0    0  501  0.00000000000E+00  0.00000000000E+00 -0.15319744998E+04  0.15319744998E+04  0.50400001928E-02 0.  1.
    10030    2    1    2    0    0  0.00000000000E+00  0.00000000000E+00 -0.88167131338E+03  0.21822776863E+04  0.19962443726E+04 0.  0.
        4    1    3    3  502    0  0.50408041643E+03 -0.77838462757E+03 -0.37291555753E+02  0.92810127018E+03  0.12699999809E+01 0. -1.
       -4    1    3    3    0  502 -0.50408041643E+03  0.77838462757E+03 -0.84437975763E+03  0.12541764161E+04  0.12699999809E+01 0.  1.
</event>
<event>
 5   0  0.1349252E-04  0.2094390E+04  0.7818609E-02  0.8563719E-01
       -2   -1    0    0    0  501  0.00000000000E+00  0.00000000000E+00  0.79291701228E+03  0.79291701228E+03  0.25500000920E-02 0.  1.
        2   -1    0    0  501    0  0.00000000000E+00  0.00000000000E+00 -0.13830165889E+04  0.13830165889E+04  0.25500000920E-02 0. -1.
    10030    2    1    2    0    0  0.00000000000E+00  0.00000000000E+00 -0.59009957665E+03  0.21759336012E+04  0.20943900130E+04 0.  0.
        2    1    3    3  502    0  0.54134128119E+03  0.23869714284E+03 -0.11927459338E+04  0.13314163779E+04  0.25500000920E-02 0. -1.
       -2    1    3    3    0  502 -0.54134128119E+03 -0.23869714284E+03  0.60264635713E+03  0.84451722333E+03  0.25500000920E-02 0.  1.
</event>
<event>
 5   0  0.1252477E-04  0.2117766E+04  0.7818609E-02  0.8553457E-01
       -2   -1    0    0    0  501  0.00000000000E+00  0.00000000000E+00  0.72896454313E+03  0.72896454314E+03  0.25500000920E-02 0. -1.
        2   -1    0    0  501    0  0.00000000000E+00  0.00000000000E+00 -0.15381179751E+04  0.15381179751E+04  0.25500000920E-02 0.  1.
    10030    2    1    2    0    0  0.00000000000E+00  0.00000000000E+00 -0.80915343196E+03  0.22670825182E+04  0.21177662449E+04 0.  0.
        4    1    3    3  502    0 -0.71937368149E+03  0.34123205453E+03  0.34270586405E+03  0.86682566345E+03  0.12699999809E+01 0. -1.
       -4    1    3    3    0  502  0.71937368149E+03 -0.34123205453E+03 -0.11518592960E+04  0.14002568548E+04  0.12699999809E+01 0.  1.
</event>
<event>
 5   0  0.1281470E-04  0.2125197E+04  0.7818609E-02  0.8550224E-01
        2   -1    0    0  501    0  0.00000000000E+00  0.00000000000E+00  0.25823709401E+04  0.25823709401E+04  0.25500000920E-02 0. -1.
       -2   -1    0    0    0  501  0.00000000000E+00  0.00000000000E+00 -0.43723995815E+03  0.43723995816E+03  0.25500000920E-02 0.  1.
    10030    2    1    2    0    0  0.00000000000E+00  0.00000000000E+00  0.21451309820E+04  0.30196108983E+04  0.21251971784E+04 0.  0.
        3    1    3    3  502    0 -0.29357689897E+03  0.99584456722E+03  0.13941386738E+04  0.17382509743E+04  0.10100000352E+00 0.  1.
       -3    1    3    3    0  502  0.29357689897E+03 -0.99584456722E+03  0.75099230820E+03  0.12813599240E+04  0.10100000352E+00 0. -1.
</event>
<event>
 5   0  0.1325673E-04  0.2035914E+04  0.7818609E-02  0.8590011E-01
       -2   -1    0    0    0  501  0.00000000000E+00  0.00000000000E+00  0.96019318812E+03  0.96019318812E+03  0.25500000920E-02 0. -1.
        2   -1    0    0  501    0  0.00000000000E+00  0.00000000000E+00 -0.10791957588E+04  0.10791957588E+04  0.25500000920E-02 0.  1.
    10030    2    1    2    0    0  0.00000000000E+00  0.00000000000E+00 -0.11900257071E+03  0.20393889470E+04  0.20359139631E+04 0.  0.
        5    1    3    3  502    0 -0.20061729305E+03  0.32224757022E+03 -0.10056363490E+04  0.10749034149E+04  0.46999998093E+01 0.  1.
       -5    1    3    3    0  502  0.20061729305E+03 -0.32224757022E+03  0.88663377831E+03  0.96448553210E+03  0.46999998093E+01 0. -1.
</event>
<event>
 5   0  0.6263616E-05  0.2110913E+04  0.7818609E-02  0.8556451E-01
        1   -1    0    0  501    0  0.00000000000E+00  0.00000000000E+00  0.14253806833E+04  0.14253806833E+04  0.50400001928E-02 0.  1.
       -1   -1    0    0    0  501  0.00000000000E+00  0.00000000000E+00 -0.78153718525E+03  0.78153718526E+03  0.50400001928E-02 0. -1.
    10030    2    1    2    0    0  0.00000000000E+00  0.00000000000E+00  0.64384349803E+03  0.22069178686E+04  0.21109126056E+04 0.  0.
        4    1    3    3  502    0 -0.73108312520E+03  0.83522844292E+02 -0.46914695709E+03  0.87267352528E+03  0.12699999809E+01 0. -1.
       -4    1    3    3    0  502  0.73108312520E+03 -0.83522844292E+02  0.11129904551E+04  0.13342443433E+04  0.12699999809E+01 0.  1.
</event>
<event>
 5   0  0.5846187E-05  0.2073753E+04  0.7818609E-02  0.8572894E-01
        1   -1    0    0  501    0  0.00000000000E+00  0.00000000000E+00  0.18499194314E+04  0.18499194314E+04  0.50400001928E-02 0.  1.
       -1   -1    0    0    0  501  0.00000000000E+00  0.00000000000E+00 -0.58116746115E+03  0.58116746117E+03  0.50400001928E-02 0. -1.
    10030    2    1    2    0    0  0.00000000000E+00  0.00000000000E+00  0.12687519702E+04  0.24310868925E+04  0.20737530994E+04 0.  0.
        5    1    3    3  502    0  0.81930702910E+03  0.25148058175E+03  0.13185330382E+04  0.15725959283E+04  0.46999998093E+01 0.  1.
       -5    1    3    3    0  502 -0.81930702910E+03 -0.25148058175E+03 -0.49781067977E+02  0.85849096423E+03  0.46999998093E+01 0. -1.
</event>
<event>
 5   0  0.6052292E-05  0.2103791E+04  0.7818609E-02  0.8559575E-01
        1   -1    0    0  501    0  0.00000000000E+00  0.00000000000E+00  0.16302649137E+04  0.16302649137E+04  0.50400001928E-02 0. -1.
       -1   -1    0    0    0  501  0.00000000000E+00  0.00000000000E+00 -0.67871448129E+03  0.67871448131E+03  0.50400001928E-02 0.  1.
    10030    2    1    2    0    0  0.00000000000E+00  0.00000000000E+00  0.95155043237E+03  0.23089793950E+04  0.21037912494E+04 0.  0.
        1    1    3    3  502    0 -0.36662565493E+03  0.49502943934E+03  0.14115888414E+04  0.15401466079E+04  0.50400001928E-02 0. -1.
       -1    1    3    3    0  502  0.36662565493E+03 -0.49502943934E+03 -0.46003840902E+03  0.76883278707E+03  0.50400001928E-02 0.  1.
</event>
<event>
 5   0  0.1252477E-04  0.2090266E+04  0.7818609E-02  0.8565544E-01
        2   -1    0    0  501    0  0.00000000000E+00  0.00000000000E+00  0.93133243394E+03  0.93133243394E+03  0.25500000920E-02 0. -1.
       -2   -1    0    0    0  501  0.00000000000E+00  0.00000000000E+00 -0.11728385671E+04  0.11728385671E+04  0.25500000920E-02 0.  1.
    10030    2    1    2    0    0  0.00000000000E+00  0.00000000000E+00 -0.24150613311E+03  0.21041710010E+04  0.20902656265E+04 0.  0.
        4    1    3    3  502    0 -0.49614926991E+03  0.61665941390E+03  0.56633280337E+03  0.97322525032E+03  0.12699999809E+01 0. -1.
       -4    1    3    3    0  502  0.49614926991E+03 -0.61665941390E+03 -0.80783893648E+03  0.11309457507E+04  0.12699999809E+01 0.  1.
</event>
<event>
 5   0  0.1252477E-04  0.1911787E+04  0.7818609E-02  0.8649012E-01
       -2   -1    0    0    0  501  0.00000000000E+00  0.00000000000E+00  0.12924991676E+04  0.12924991676E+04  0.25500000920E-02 0.  1.
        2   -1    0    0  501    0  0.00000000000E+00  0.00000000000E+00 -0.70694985380E+03  0.70694985381E+03  0.25500000920E-02 0. -1.
    10030    2    1    2    0    0  0.00000000000E+00  0.00000000000E+00  0.58554931380E+03  0.19994490214E+04  0.19117867011E+04 0.  0.
        4    1    3    3  502    0 -0.87246218318E+03 -0.32189923070E+03  0.61451534520E+02  0.93198030011E+03  0.12699999809E+01 0. -1.
       -4    1    3    3    0  502  0.87246218318E+03  0.32189923070E+03  0.52409777928E+03  0.10674687213E+04  0.12699999809E+01 0.  1.
</event>
<event>
 5   0  0.5846187E-05  0.2117646E+04  0.7818609E-02  0.8553510E-01
        1   -1    0    0  501    0  0.00000000000E+00  0.00000000000E+00  0.14440373680E+04  0.14440373680E+04  0.50400001928E-02 0. -1.
       -1   -1    0    0    0  501  0.00000000000E+00  0.00000000000E+00 -0.77636935607E+03  0.77636935609E+03  0.50400001928E-02 0.  1.
    10030    2    1    2    0    0  0.00000000000E+00  0.00000000000E+00  0.66766801188E+03  0.22204067241E+04  0.21176462042E+04 0.  0.
        5    1    3    3  502    0  0.28457669540E+03 -0.94457499964E+03  0.73704426062E+03  0.12314471802E+04  0.46999998093E+01 0. -1.
       -5    1    3    3    0  502 -0.28457669540E+03  0.94457499964E+03 -0.69376248737E+02  0.98895954386E+03  0.46999998093E+01 0.  1.
</event>
<event>
 5   0  0.1349252E-04  0.2092145E+04  0.7818609E-02  0.8564712E-01
        2   -1    0    0  501    0  0.00000000000E+00  0.00000000000E+00  0.11023926436E+04  0.11023926436E+04  0.25500000920E-02 0. -1.
       -2   -1    0    0    0  501  0.00000000000E+00  0.00000000000E+00 -0.99262949352E+03  0.99262949352E+03  0.25500000920E-02 0.  1.
    10030    2    1    2    0    0  0.00000000000E+00  0.00000000000E+00  0.10976315013E+03  0.20950221372E+04  0.20921447861E+04 0.  0.
        2    1    3    3  502    0 -0.10395574609E+04  0.10799947277E+03  0.10959526675E+02  0.10452098889E+04  0.25500000920E-02 0.  1.
       -2    1    3    3    0  502  0.10395574609E+04 -0.10799947277E+03  0.98803623454E+02  0.10498122483E+04  0.25500000920E-02 0. -1.
</event>
<event>
 5   0  0.5933905E-05  0.2095990E+04  0.7818609E-02  0.8563012E-01
       -1   -1    0    0    0  501  0.00000000000E+00  0.00000000000E+00  0.19148652824E+04  0.19148652824E+04  0.50400001928E-02 0. -1.
        1   -1    0    0  501    0  0.00000000000E+00  0.00000000000E+00 -0.57356154138E+03  0.57356154140E+03  0.50400001928E-02 0.  1.
    10030    2    1    2    0    0  0.00000000000E+00  0.00000000000E+00  0.13413037411E+04  0.24884268238E+04  0.20959895830E+04 0.  0.
        2    1    3    3  502    0 -0.85195151862E+02  0.54237686566E+03 -0.38915655679E+03  0.67295891702E+03  0.25500000920E-02 0.  1.
       -2    1    3    3    0  502  0.85195151862E+02 -0.54237686566E+03  0.17304602978E+04  0.18154679068E+04  0.25500000920E-02 0. -1.
</event>
<event>
 5   0  0.6221148E-05  0.2196342E+04  0.7818609E-02  0.8519952E-01
       -1   -1    0    0    0  501  0.00000000000E+00  0.00000000000E+00  0.15143876003E+04  0.15143876003E+04  0.50400001928E-02 0. -1.
        1   -1    0    0  501    0  0.00000000000E+00  0.00000000000E+00 -0.79634800487E+03  0.79634800489E+03  0.50400001928E-02 0.  1.
    10030    2    1    2    0    0  0.00000000000E+00  0.00000000000E+00  0.71803959538E+03  0.23107356052E+04  0.21963419990E+04 0.  0.
        3    1    3    3  502    0 -0.78596589075E+03  0.64919121738E+03  0.78868737265E+03  0.12888830048E+04  0.10100000352E+00 0. -1.
       -3    1    3    3    0  502  0.78596589075E+03 -0.64919121738E+03 -0.70647777269E+02  0.10218526003E+04  0.10100000352E+00 0.  1.
</event>
<event>
 5   0  0.1325673E-04  0.2113855E+04  0.7818609E-02  0.8555165E-01
       -2   -1    0    0    0  501  0.00000000000E+00  0.00000000000E+00  0.76479051673E+03  0.76479051673E+03  0.25500000920E-02 0.  1.
        2   -1    0    0  501    0  0.00000000000E+00  0.00000000000E+00 -0.14606553374E+04  0.14606553374E+04  0.25500000920E-02 0. -1.
    10030    2    1    2    0    0  0.00000000000E+00  0.00000000000E+00 -0.69586482064E+03  0.22254458541E+04  0.21138546310E+04 0.  0.
        5    1    3    3  502    0  0.54755335957E+03 -0.19658471040E+03  0.58103985499E+03  0.82224669840E+03  0.46999998093E+01 0. -1.
       -5    1    3    3    0  502 -0.54755335957E+03  0.19658471040E+03 -0.12769046756E+04  0.14031991557E+04  0.46999998093E+01 0.  1.
</event>
<event>
 5   0  0.1235817E-04  0.2255948E+04  0.7818609E-02  0.8495495E-01
       -2   -1    0    0    0  501  0.00000000000E+00  0.00000000000E+00  0.16615446287E+04  0.16615446287E+04  0.25500000920E-02 0.  1.
        2   -1    0    0  501    0  0.00000000000E+00  0.00000000000E+00 -0.76574865004E+03  0.76574865004E+03  0.25500000920E-02 0. -1.
    10030    2    1    2    0    0  0.00000000000E+00  0.00000000000E+00  0.89579597865E+03  0.24272932787E+04  0.22559481877E+04 0.  0.
        1    1    3    3  502    0 -0.76226635206E+03  0.61375501506E+02 -0.44424035095E+03  0.88440173739E+03  0.50400001928E-02 0. -1.
       -1    1    3    3    0  502  0.76226635206E+03 -0.61375501506E+02  0.13400363296E+04  0.15428915413E+04  0.50400001928E-02 0.  1.
</event>
<event>
 5   0  0.6263616E-05  0.2174498E+04  0.7818609E-02  0.8529118E-01
       -1   -1    0    0    0  501  0.00000000000E+00  0.00000000000E+00  0.69749857979E+03  0.69749857981E+03  0.50400001928E-02 0. -1.
        1   -1    0    0  501    0  0.00000000000E+00  0.00000000000E+00 -0.16947851098E+04  0.16947851098E+04  0.50400001928E-02 0.  1.
    10030    2    1    2    0    0  0.00000000000E+00  0.00000000000E+00 -0.99728652997E+03  0.23922836896E+04  0.21744978336E+04 0.  0.
        4    1    3    3  502    0 -0.56028510264E+03  0.11913956183E+03  0.51802988584E+03  0.77231483668E+03  0.12699999809E+01 0. -1.
       -4    1    3    3    0  502  0.56028510264E+03 -0.11913956183E+03 -0.15153164158E+04  0.16199688529E+04  0.12699999809E+01 0.  1.
</event>
<event>
 5   0  0.6263616E-05  0.2101533E+04  0.7818609E-02  0.8560568E-01
        1   -1    0    0  501    0  0.00000000000E+00  0.00000000000E+00  0.10121757610E+04  0.10121757610E+04  0.50400001928E-02 0. -1.
       -1   -1    0    0    0  501  0.00000000000E+00  0.00000000000E+00 -0.10908287913E+04  0.10908287913E+04  0.50400001928E-02 0.  1.
    10030    2    1    2    0    0  0.00000000000E+00  0.00000000000E+00 -0.78653030349E+02  0.21030045523E+04  0.21015332136E+04 0.  0.
        4    1    3    3  502    0  0.50714706333E+03 -0.31543897999E+03 -0.90445996316E+03  0.10838585387E+04  0.12699999809E+01 0.  1.
       -4    1    3    3    0  502 -0.50714706333E+03  0.31543897999E+03  0.82580693281E+03  0.10191460136E+04  0.12699999809E+01 0. -1.
</event>
<event>
 5   0  0.5846187E-05  0.2095561E+04  0.7818609E-02  0.8563201E-01
        1   -1    0    0  501    0  0.00000000000E+00  0.00000000000E+00  0.27172175715E+04  0.27172175715E+04  0.50400001928E-02 0. -1.
       -1   -1    0    0    0  501  0.00000000000E+00  0.00000000000E+00 -0.40403232899E+03  0.40403232902E+03  0.50400001928E-02 0.  1.
    10030    2    1    2    0    0  0.00000000000E+00  0.00000000000E+00  0.23131852425E+04  0.31212499005E+04  0.20955607783E+04 0.  0.
        5    1    3    3  502    0  0.21265237932E+03  0.79824011012E+03  0.19659865663E+03  0.84916513684E+03  0.46999998093E+01 0.  1.
       -5    1    3    3    0  502 -0.21265237932E+03 -0.79824011012E+03  0.21165865859E+04  0.22720847637E+04  0.46999998093E+01 0. -1.
</event>
<event>
 5   0  0.1252477E-04  0.2110034E+04  0.7818609E-02  0.8556836E-01
       -2   -1    0    0    0  501  0.00000000000E+00  0.00000000000E+00  0.10883132808E+04  0.10883132808E+04  0.25500000920E-02 0.  1.
        2   -1    0    0  501    0  0.00000000000E+00  0.00000000000E+00 -0.10227393025E+04  0.10227393025E+04  0.25500000920E-02 0. -1.
    10030    2    1    2    0    0  0.00000000000E+00  0.00000000000E+00  0.65573978389E+02  0.21110525833E+04  0.21100339009E+04 0.  0.
        4    1    3    3  502    0  0.10434453707E+03 -0.63790902370E+03  0.86700213491E+03  0.10814388655E+04  0.12699999809E+01 0.  1.
       -4    1    3    3    0  502 -0.10434453707E+03  0.63790902370E+03 -0.80142815652E+03  0.10296137178E+04  0.12699999809E+01 0. -1.
</event>
<event>
 5   0  0.5846187E-05  0.2086638E+04  0.7818609E-02  0.8567152E-01
        1   -1    0    0  501    0  0.00000000000E+00  0.00000000000E+00  0.12559750878E+04  0.12559750878E+04  0.50400001928E-02 0. -1.
       -1   -1    0    0    0  501  0.00000000000E+00  0.00000000000E+00 -0.86666898873E+03  0.86666898875E+03  0.50400001928E-02 0.  1.
    10030    2    1    2    0    0  0.00000000000E+00  0.00000000000E+00  0.38930609904E+03  0.21226440765E+04  0.20866381183E+04 0.  0.
        5    1    3    3  502    0  0.38337486818E+03 -0.91923206503E+03 -0.12139873598E+03  0.10033561790E+04  0.46999998093E+01 0.  1.
       -5    1    3    3    0  502 -0.38337486818E+03  0.91923206503E+03  0.51070483502E+03  0.11192878975E+04  0.46999998093E+01 0. -1.
</event>
<event>
 5   0  0.1281470E-04  0.1982469E+04  0.7818609E-02  0.8614861E-01
       -2   -1    0    0    0  501  0.00000000000E+00  0.00000000000E+00  0.77229688719E+03  0.77229688719E+03  0.25500000920E-02 0. -1.
        2   -1    0    0  501    0  0.00000000000E+00  0.00000000000E+00 -0.12722389090E+04  0.12722389090E+04  0.25500000920E-02 0.  1.
    10030    2    1    2    0    0  0.00000000000E+00  0.00000000000E+00 -0.49994202181E+03  0.20445357962E+04  0.19824693180E+04 0.  0.
        3    1    3    3  502    0 -0.43649353154E+02 -0.84784781235E+03  0.27770686381E+03  0.89323697379E+03  0.10100000352E+00 0. -1.
       -3    1    3    3    0  502  0.43649353154E+02  0.84784781235E+03 -0.77764888561E+03  0.11512988224E+04  0.10100000352E+00 0.  1.
</event>
<event>
 5   0  0.1281470E-04  0.2027681E+04  0.7818609E-02  0.8593787E-01
       -2   -1    0    0    0  501  0.00000000000E+00  0.00000000000E+00  0.10355656206E+04  0.10355656206E+04  0.25500000920E-02 0. -1.
        2   -1    0    0  501    0  0.00000000000E+00  0.00000000000E+00 -0.99257116164E+03  0.99257116165E+03  0.25500000920E-02 0.  1.
    10030    2    1    2    0    0  0.00000000000E+00  0.00000000000E+00  0.42994458959E+02  0.20281367823E+04  0.20276810114E+04 0.  0.
        3    1    3    3  502    0  0.21464309574E+03  0.84289576234E+03 -0.49951104763E+03  0.10030235399E+04  0.10100000352E+00 0.  1.
       -3    1    3    3    0  502 -0.21464309574E+03 -0.84289576234E+03  0.54250550659E+03  0.10251132423E+04  0.10100000352E+00 0. -1.
</event>
<event>
 5   0  0.4615125E-05  0.2105590E+04  0.7818609E-02  0.8558785E-01
       -3   -1    0    0    0  501  0.00000000000E+00  0.00000000000E+00  0.49511594771E+03  0.49511595801E+03  0.10100000352E+00 0.  1.
        3   -1    0    0  501    0  0.00000000000E+00  0.00000000000E+00 -0.22386215656E+04  0.22386215679E+04  0.10100000352E+00 0. -1.
    10030    2    1    2    0    0  0.00000000000E+00  0.00000000000E+00 -0.17435056179E+04  0.27337375259E+04  0.21055899461E+04 0.  0.
        4    1    3    3  502    0 -0.62163552523E+03 -0.17098349776E+03  0.20883137497E+03  0.67770070002E+03  0.12699999809E+01 0.  1.
       -4    1    3    3    0  502  0.62163552523E+03  0.17098349776E+03 -0.19523369929E+04  0.20560368259E+04  0.12699999809E+01 0. -1.
</event>
<event>
 5   0  0.5846187E-05  0.1955307E+04  0.7818609E-02  0.8627806E-01
        1   -1    0    0  501    0  0.00000000000E+00  0.00000000000E+00  0.12447046736E+04  0.12447046736E+04  0.50400001928E-02 0.  1.
       -1   -1    0    0    0  501  0.00000000000E+00  0.00000000000E+00 -0.76789796497E+03  0.76789796499E+03  0.50400001928E-02 0. -1.
    10030    2    1    2    0    0  0.00000000000E+00  0.00000000000E+00  0.47680670864E+03  0.20126026386E+04  0.19553068157E+04 0.  0.
        5    1    3    3  502    0  0.93240494913E+03 -0.10428262223E+03 -0.44477503343E+02  0.93928387230E+03  0.46999998093E+01 0. -1.
       -5    1    3    3    0  502 -0.93240494913E+03  0.10428262223E+03  0.52128421199E+03  0.10733187663E+04  0.46999998093E+01 0.  1.
</event>
<event>
 5   0  0.1281470E-04  0.2096661E+04  0.7818609E-02  0.8562716E-01
        2   -1    0    0  501    0  0.00000000000E+00  0.00000000000E+00  0.26500932635E+04  0.26500932635E+04  0.25500000920E-02 0. -1.
       -2   -1    0    0    0  501  0.00000000000E+00  0.00000000000E+00 -0.41470107555E+03  0.41470107556E+03  0.25500000920E-02 0.  1.
    10030    2    1    2    0    0  0.00000000000E+00  0.00000000000E+00  0.22353921879E+04  0.30647943390E+04  0.20966607038E+04 0.  0.
        3    1    3    3  502    0 -0.25521631351E+03  0.12878791930E+03  0.25920180354E+04  0.26077344959E+04  0.10100000352E+00 0. -1.
       -3    1    3    3    0  502  0.25521631351E+03 -0.12878791930E+03 -0.35662584755E+03  0.45705984311E+03  0.10100000352E+00 0.  1.
</event>
<event>
 5   0  0.4615125E-05  0.2110277E+04  0.7818609E-02  0.8556730E-01
       -3   -1    0    0    0  501  0.00000000000E+00  0.00000000000E+00  0.11667852236E+04  0.11667852280E+04  0.10100000352E+00 0. -1.
        3   -1    0    0  501    0  0.00000000000E+00  0.00000000000E+00 -0.95417469409E+03  0.95417469943E+03  0.10100000352E+00 0.  1.
    10030    2    1    2    0    0  0.00000000000E+00  0.00000000000E+00  0.21261052955E+03  0.21209599274E+04  0.21102767061E+04 0.  0.
        3    1    3    3  502    0 -0.20204735677E+03 -0.60969549294E+03 -0.73504981876E+03  0.97614034582E+03  0.10100000352E+00 0.  1.
       -3    1    3    3    0  502  0.20204735677E+03  0.60969549294E+03  0.94766034831E+03  0.11448195816E+04  0.10100000352E+00 0. -1.
</event>
<event>
 5   0  0.1349252E-04  0.2086135E+04  0.7818609E-02  0.8567376E-01
        2   -1    0    0  501    0  0.00000000000E+00  0.00000000000E+00  0.15894650768E+04  0.15894650768E+04  0.25500000920E-02 0. -1.
       -2   -1    0    0    0  501  0.00000000000E+00  0.00000000000E+00 -0.68450055685E+03  0.68450055685E+03  0.25500000920E-02 0.  1.
    10030    2    1    2    0    0  0.00000000000E+00  0.00000000000E+00  0.90496451999E+03  0.22739656337E+04  0.20861349239E+04 0.  0.
        2    1    3    3  502    0 -0.83326276141E+03  0.57659920705E+03  0.72213443417E+03  0.12442956305E+04  0.25500000920E-02 0. -1.
       -2    1    3    3    0  502  0.83326276141E+03 -0.57659920705E+03  0.18283008582E+03  0.10296700032E+04  0.25500000920E-02 0.  1.
</event>
<event>
 5   0  0.1235817E-04  0.1966984E+04  0.7818609E-02  0.8622214E-01
       -2   -1    0    0    0  501  0.00000000000E+00  0.00000000000E+00  0.91374332261E+03  0.91374332262E+03  0.25500000920E-02 0.  1.
        2   -1    0    0  501    0  0.00000000000E+00  0.00000000000E+00 -0.10585651291E+04  0.10585651291E+04  0.25500000920E-02 0. -1.
    10030    2    1    2    0    0  0.00000000000E+00  0.00000000000E+00 -0.14482180646E+03  0.19723084517E+04  0.19669843093E+04 0.  0.
        1    1    3    3  502    0  0.31223008618E+03 -0.86727675911E+02 -0.10034971519E+04  0.10545216216E+04  0.50400001928E-02 0. -1.
       -1    1    3    3    0  502 -0.31223008618E+03  0.86727675911E+02  0.85867534548E+03  0.91778683007E+03  0.50400001928E-02 0.  1.
</event>
<event>
 5   0  0.6052292E-05  0.2092750E+04  0.7818609E-02  0.8564444E-01
       -1   -1    0    0    0  501  0.00000000000E+00  0.00000000000E+00  0.92861816093E+03  0.92861816095E+03  0.50400001928E-02 0. -1.
        1   -1    0    0  501    0  0.00000000000E+00  0.00000000000E+00 -0.11790649060E+04  0.11790649060E+04  0.50400001928E-02 0.  1.
    10030    2    1    2    0    0  0.00000000000E+00  0.00000000000E+00 -0.25044674504E+03  0.21076830669E+04  0.20927504243E+04 0.  0.
        1    1    3    3  502    0  0.10181760869E+04 -0.54317527760E+02 -0.36199263369E+03  0.10819757875E+04  0.50400001928E-02 0.  1.
       -1    1    3    3    0  502 -0.10181760869E+04  0.54317527760E+02  0.11154588866E+03  0.10257072794E+04  0.50400001928E-02 0. -1.
</event>
<event>
 5   0  0.1252477E-04  0.1964212E+04  0.7818609E-02  0.8623538E-01
       -2   -1    0    0    0  501  0.00000000000E+00  0.00000000000E+00  0.98311232856E+03  0.98311232856E+03  0.25500000920E-02 0.  1.
        2   -1    0    0  501    0  0.00000000000E+00  0.00000000000E+00 -0.98110095045E+03  0.98110095045E+03  0.25500000920E-02 0. -1.
    10030    2    1    2    0    0  0.00000000000E+00  0.00000000000E+00  0.20113781085E+01  0.19642132790E+04  0.19642122492E+04 0.  0.
        4    1    3    3  502    0  0.24362422237E+03 -0.56158163565E+03 -0.76698177849E+03  0.98132021107E+03  0.12699999809E+01 0. -1.
       -4    1    3    3    0  502 -0.24362422237E+03  0.56158163565E+03  0.76899315659E+03  0.98289306794E+03  0.12699999809E+01 0.  1.
</event>
<event>
 5   0  0.1252477E-04  0.2119618E+04  0.7818609E-02  0.8552650E-01
        2   -1    0    0  501    0  0.00000000000E+00  0.00000000000E+00  0.14034717849E+04  0.14034717849E+04  0.25500000920E-02 0.  1.
       -2   -1    0    0    0  501  0.00000000000E+00  0.00000000000E+00 -0.80029782509E+03  0.80029782510E+03  0.25500000920E-02 0. -1.
    10030    2    1    2    0    0  0.00000000000E+00  0.00000000000E+00  0.60317395979E+03  0.22037696100E+04  0.21196182836E+04 0.  0.
        4    1    3    3  502    0  0.28317021216E+03  0.51637161456E+03  0.12176863135E+04  0.13526221144E+04  0.12699999809E+01 0.  1.
       -4    1    3    3    0  502 -0.28317021216E+03 -0.51637161456E+03 -0.61451235375E+03  0.85114749555E+03  0.12699999809E+01 0. -1.
</event>
<event>
 5   0  0.1281470E-04  0.2095957E+04  0.7818609E-02  0.8563027E-01
       -2   -1    0    0    0  501  0.00000000000E+00  0.00000000000E+00  0.85653117420E+03  0.85653117421E+03  0.25500000920E-02 0. -1.
        2   -1    0    0  501    0  0.00000000000E+00  0.00000000000E+00 -0.12822168962E+04  0.12822168962E+04  0.25500000920E-02 0.  1.
    10030    2    1    2    0    0  0.00000000000E+00  0.00000000000E+00 -0.42568572201E+03  0.21387480704E+04  0.20959568161E+04 0.  0.
        3    1    3    3  502    0 -0.83724616130E+02 -0.66404214492E+03 -0.10357165184E+04  0.12331546935E+04  0.10100000352E+00 0.  1.
       -3    1    3    3    0  502  0.83724616130E+02  0.66404214492E+03  0.61003079634E+03  0.90559337689E+03  0.10100000352E+00 0. -1.
</event>
<event>
 5   0  0.6263616E-05  0.2137676E+04  0.7818609E-02  0.8544826E-01
        1   -1    0    0  501    0  0.00000000000E+00  0.00000000000E+00  0.15706257268E+04  0.15706257268E+04  0.50400001928E-02 0. -1.
       -1   -1    0    0    0  501  0.00000000000E+00  0.00000000000E+00 -0.72736307764E+03  0.72736307766E+03  0.50400001928E-02 0.  1.
    10030    2    1    2    0    0  0.00000000000E+00  0.00000000000E+00  0.84326264915E+03  0.22979888045E+04  0.21376764605E+04 0.  0.
        4    1    3    3  502    0  0.69704182144E+01 -0.95596686179E+03  0.93548768811E+03  0.13375574960E+04  0.12699999809E+01 0. -1.
       -4    1    3    3    0  502 -0.69704182144E+01  0.95596686179E+03 -0.92225038959E+02  0.96043130847E+03  0.12699999809E+01 0.  1.
</event>
<event>
 5   0  0.5933905E-05  0.1895705E+04  0.7818609E-02  0.8656997E-01
       -1   -1    0    0    0  501  0.00000000000E+00  0.00000000000E+00  0.12428386174E+04  0.12428386174E+04  0.50400001928E-02 0. -1.
        1   -1    0    0  501    0  0.00000000000E+00  0.00000000000E+00 -0.72288064848E+03  0.72288064850E+03  0.50400001928E-02 0.  1.
    10030    2    1    2    0    0  0.00000000000E+00  0.00000000000E+00  0.51995796894E+03  0.19657192659E+04  0.18957046033E+04 0.  0.
        2    1    3    3  502    0 -0.87641278418E+03 -0.16762310586E+03  0.59151741333E+03  0.10705558015E+04  0.25500000920E-02 0. -1.
       -2    1    3    3    0  502  0.87641278418E+03  0.16762310586E+03 -0.71559444398E+02  0.89516346439E+03  0.25500000920E-02 0.  1.
</event>
<event>
 5   0  0.1281470E-04  0.2095808E+04  0.7818609E-02  0.8563092E-01
        2   -1    0    0  501    0  0.00000000000E+00  0.00000000000E+00  0.17486143266E+04  0.17486143266E+04  0.25500000920E-02 0.  1.
       -2   -1    0    0    0  501  0.00000000000E+00  0.00000000000E+00 -0.62798435403E+03  0.62798435403E+03  0.25500000920E-02 0. -1.
    10030    2    1    2    0    0  0.00000000000E+00  0.00000000000E+00  0.11206299726E+04  0.23765986807E+04  0.20958076614E+04 0.  0.
        3    1    3    3  502    0  0.35417449800E+03 -0.82039816253E+03  0.11810158773E+04  0.14809764457E+04  0.10100000352E+00 0. -1.
       -3    1    3    3    0  502 -0.35417449800E+03  0.82039816253E+03 -0.60385904657E+02  0.89562223499E+03  0.10100000352E+00 0.  1.
</event>
<event>
 5   0  0.1252477E-04  0.2098678E+04  0.7818609E-02  0.8561826E-01
        2   -1    0    0  501    0  0.00000000000E+00  0.00000000000E+00  0.97966713757E+03  0.97966713757E+03  0.25500000920E-02 0. -1.
       -2   -1    0    0    0  501  0.00000000000E+00  0.00000000000E+00 -0.11239663125E+04  0.11239663125E+04  0.25500000920E-02 0.  1.
    10030    2    1    2    0    0  0.00000000000E+00  0.00000000000E+00 -0.14429917496E+03  0.21036334501E+04  0.20986784986E+04 0.  0.
        4    1    3    3  502    0  0.94615796788E+03  0.33772636523E+03 -0.37591168883E+03  0.10726533497E+04  0.12699999809E+01 0.  1.
       -4    1    3    3    0  502 -0.94615796788E+03 -0.33772636523E+03  0.23161251386E+03  0.10309801004E+04  0.12699999809E+01 0. -1.
</event>
<event>
 5   0  0.1252477E-04  0.2084607E+04  0.7818609E-02  0.8568054E-01
       -2   -1    0    0    0  501  0.00000000000E+00  0.00000000000E+00  0.56331662933E+03  0.56331662934E+03  0.25500000920E-02 0. -1.
        2   -1    0    0  501    0  0.00000000000E+00  0.00000000000E+00 -0.19285726497E+04  0.19285726497E+04  0.25500000920E-02 0.  1.
    10030    2    1    2    0    0  0.00000000000E+00  0.00000000000E+00 -0.13652560204E+04  0.24918892790E+04  0.20846074397E+04 0.  0.
        4    1    3    3  502    0  0.48191972539E+03  0.63914188354E+02  0.41949537076E+03  0.64211340445E+03  0.12699999809E+01 0. -1.
       -4    1    3    3    0  502 -0.48191972539E+03 -0.63914188354E+02 -0.17847513911E+04  0.18497758746E+04  0.12699999809E+01 0.  1.
</event>
<event>
 5   0  0.6221148E-05  0.1605795E+04  0.7818609E-02  0.8816996E-01
        1   -1    0    0  501    0  0.00000000000E+00  0.00000000000E+00  0.20881351187E+04  0.20881351187E+04  0.50400001928E-02 0.  1.
       -1   -1    0    0    0  501  0.00000000000E+00  0.00000000000E+00 -0.30871793977E+03  0.30871793981E+03  0.50400001928E-02 0. -1.
    10030    2    1    2    0    0  0.00000000000E+00  0.00000000000E+00  0.17794171789E+04  0.23968530585E+04  0.16057954687E+04 0.  0.
        3    1    3    3  502    0  0.64407100367E+03  0.92001755957E+01  0.16051310211E+04  0.17295541929E+04  0.10100000352E+00 0.  1.
       -3    1    3    3    0  502 -0.64407100367E+03 -0.92001755957E+01  0.17428615776E+03  0.66729886557E+03  0.10100000352E+00 0. -1.
</event>
<event>
 5   0  0.6052292E-05  0.2096869E+04  0.7818609E-02  0.8562624E-01
       -1   -1    0    0    0  501  0.00000000000E+00  0.00000000000E+00  0.80144091070E+03  0.80144091071E+03  0.50400001928E-02 0. -1.
        1   -1    0    0  501    0  0.00000000000E+00  0.00000000000E+00 -0.13715482166E+04  0.13715482167E+04  0.50400001928E-02 0.  1.
    10030    2    1    2    0    0  0.00000000000E+00  0.00000000000E+00 -0.57010730595E+03  0.21729891274E+04  0.20968689533E+04 0.  0.
        1    1    3    3  502    0  0.73486567597E+03  0.69841004915E+03 -0.56198230306E+03  0.11591498037E+04  0.50400001928E-02 0.  1.
       -1    1    3    3    0  502 -0.73486567597E+03 -0.69841004915E+03 -0.81250028850E+01  0.10138393236E+04  0.50400001928E-02 0. -1.
</event>
<event>
 5   0  0.5933905E-05  0.2114089E+04  0.7818609E-02  0.8555062E-01
        1   -1    0    0  501    0  0.00000000000E+00  0.00000000000E+00  0.13356507102E+04  0.13356507102E+04  0.50400001928E-02 0.  1.
       -1   -1    0    0    0  501  0.00000000000E+00  0.00000000000E+00 -0.83655312755E+03  0.83655312757E+03  0.50400001928E-02 0. -1.
    10030    2    1    2    0    0  0.00000000000E+00  0.00000000000E+00  0.49909758266E+03  0.21722038378E+04  0.21140887200E+04 0.  0.
        2    1    3    3  502    0  0.71232107964E+03 -0.71210448567E+03  0.57906492742E+03  0.11618133711E+04  0.25500000920E-02 0.  1.
       -2    1    3    3    0  502 -0.71232107964E+03  0.71210448567E+03 -0.79967344762E+02  0.10103904667E+04  0.25500000920E-02 0. -1.
</event>
<event>
 5   0  0.1235817E-04  0.2100602E+04  0.7818609E-02  0.8560978E-01
       -2   -1    0    0    0  501  0.00000000000E+00  0.00000000000E+00  0.79558380255E+03  0.79558380256E+03  0.25500000920E-02 0. -1.
        2   -1    0    0  501    0  0.00000000000E+00  0.00000000000E+00 -0.13865696591E+04  0.13865696591E+04  0.25500000920E-02 0.  1.
    10030    2    1    2    0    0  0.00000000000E+00  0.00000000000E+00 -0.59098585659E+03  0.21821534617E+04  0.21006021631E+04 0.  0.
        1    1    3    3  502    0 -0.92315391817E+03 -0.18778397335E+03 -0.77790997002E+03  0.12217282426E+04  0.50400001928E-02 0.  1.
       -1    1    3    3    0  502  0.92315391817E+03  0.18778397335E+03  0.18692411344E+03  0.96042521910E+03  0.50400001928E-02 0. -1.
</event>
<event>
 5   0  0.1252477E-04  0.2096407E+04  0.7818609E-02  0.8562828E-01
        2   -1    0    0  501    0  0.00000000000E+00  0.00000000000E+00  0.12142144349E+04  0.12142144349E+04  0.25500000920E-02 0. -1.
       -2   -1    0    0    0  501  0.00000000000E+00  0.00000000000E+00 -0.90489044381E+03  0.90489044381E+03  0.25500000920E-02 0.  1.
    10030    2    1    2    0    0  0.00000000000E+00  0.00000000000E+00  0.30932399108E+03  0.21191048787E+04  0.20964074402E+04 0.  0.
        4    1    3    3  502    0  0.97566676704E+03 -0.23601340367E+03 -0.15043604962E+03  0.10150175294E+04  0.12699999809E+01 0.  1.
       -4    1    3    3    0  502 -0.97566676704E+03  0.23601340367E+03  0.45976004070E+03  0.11040873493E+04  0.12699999809E+01 0. -1.
</event>
<event>
 5   0  0.5846187E-05  0.2085533E+04  0.7818609E-02  0.8567643E-01
       -1   -1    0    0    0  501  0.00000000000E+00  0.00000000000E+00  0.15307033373E+04  0.15307033373E+04  0.50400001928E-02 0.  1.
        1   -1    0    0  501    0  0.00000000000E+00  0.00000000000E+00 -0.71036781439E+03  0.71036781440E+03  0.50400001928E-02 0. -1.
    10030    2    1    2    0    0  0.00000000000E+00  0.00000000000E+00  0.82033552288E+03  0.22410711517E+04  0.20855333938E+04 0.  0.
        5    1    3    3  502    0  0.76638717459E+03 -0.70600406206E+03  0.45246385460E+03  0.11360178990E+04  0.46999998093E+01 0. -1.
       -5    1    3    3    0  502 -0.76638717459E+03  0.70600406206E+03  0.36787166828E+03  0.11050532527E+04  0.46999998093E+01 0.  1.
</event>
<event>
 5   0  0.1235817E-04  0.2088884E+04  0.7818609E-02  0.8566156E-01
        2   -1    0    0  501    0  0.00000000000E+00  0.00000000000E+00  0.18191188366E+04  0.18191188366E+04  0.25500000920E-02 0. -1.
       -2   -1    0    0    0  501  0.00000000000E+00  0.00000000000E+00 -0.59966330947E+03  0.59966330948E+03  0.25500000920E-02 0.  1.
    10030    2    1    2    0    0  0.00000000000E+00  0.00000000000E+00  0.12194555271E+04  0.24187821461E+04  0.20888837420E+04 0.  0.
        1    1    3    3  502    0  0.32704424302E+03 -0.76042472524E+03  0.13472259668E+04  0.15812088747E+04  0.50400001928E-02 0. -1.
       -1    1    3    3    0  502 -0.32704424302E+03  0.76042472524E+03 -0.12777043971E+03  0.83757327139E+03  0.50400001928E-02 0.  1.
</event>
<event>
 5   0  0.6221148E-05  0.2054560E+04  0.7818609E-02  0.8581529E-01
       -1   -1    0    0    0  501  0.00000000000E+00  0.00000000000E+00  0.12615027082E+04  0.12615027082E+04  0.50400001928E-02 0. -1.
        1   -1    0    0  501    0  0.00000000000E+00  0.00000000000E+00 -0.83654500763E+03  0.83654500765E+03  0.50400001928E-02 0.  1.
    10030    2    1    2    0    0  0.00000000000E+00  0.00000000000E+00  0.42495770056E+03  0.20980477158E+04  0.20545596050E+04 0.  0.
        3    1    3    3  502    0 -0.30102085568E+03 -0.97554712908E+03  0.96056780929E+02  0.10254426712E+04  0.10100000352E+00 0. -1.
       -3    1    3    3    0  502  0.30102085568E+03  0.97554712908E+03  0.32890091963E+03  0.10726050446E+04  0.10100000352E+00 0.  1.
</event>
<event>
 5   0  0.5846187E-05  0.2109986E+04  0.7818609E-02  0.8556857E-01
        1   -1    0    0  501    0  0.00000000000E+00  0.00000000000E+00  0.19382307740E+04  0.19382307740E+04  0.50400001928E-02 0. -1.
       -1   -1    0    0    0  501  0.00000000000E+00  0.00000000000E+00 -0.57424019313E+03  0.57424019315E+03  0.50400001928E-02 0.  1.
    10030    2    1    2    0    0  0.00000000000E+00  0.00000000000E+00  0.13639905808E+04  0.25124709671E+04  0.21099857952E+04 0.  0.
        5    1    3    3  502    0 -0.78274729235E+03  0.36133823990E+03  0.14060367597E+04  0.16493089786E+04  0.46999998093E+01 0. -1.
       -5    1    3    3    0  502  0.78274729235E+03 -0.36133823990E+03 -0.42046178833E+02  0.86316198853E+03  0.46999998093E+01 0.  1.
</event>
<event>
 5   0  0.5846187E-05  0.2060164E+04  0.7818609E-02  0.8578997E-01
       -1   -1    0    0    0  501  0.00000000000E+00  0.00000000000E+00  0.12768905089E+04  0.12768905090E+04  0.50400001928E-02 0.  1.
        1   -1    0    0  501    0  0.00000000000E+00  0.00000000000E+00 -0.83097878404E+03  0.83097878406E+03  0.50400001928E-02 0. -1.
    10030    2    1    2    0    0  0.00000000000E+00  0.00000000000E+00  0.44591172490E+03  0.21078692930E+04  0.20601639959E+04 0.  0.
        5    1    3    3  502    0 -0.10231428038E+03  0.56040213637E+03  0.11010408143E+04  0.12396901755E+04  0.46999998093E+01 0.  1.
       -5    1    3    3    0  502  0.10231428038E+03 -0.56040213637E+03 -0.65512908937E+03  0.86817911756E+03  0.46999998093E+01 0. -1.
</event>
<event>
 5   0  0.1325673E-04  0.2103119E+04  0.7818609E-02  0.8559871E-01
       -2   -1    0    0    0  501  0.00000000000E+00  0.00000000000E+00  0.54282858180E+03  0.54282858181E+03  0.25500000920E-02 0. -1.
        2   -1    0    0  501    0  0.00000000000E+00  0.00000000000E+00 -0.20370658805E+04  0.20370658805E+04  0.25500000920E-02 0.  1.
    10030    2    1    2    0    0  0.00000000000E+00  0.00000000000E+00 -0.14942372987E+04  0.25798944623E+04  0.21031191911E+04 0.  0.
        5    1    3    3  502    0  0.83100195107E+03 -0.49430722628E+02  0.40979787083E+02  0.83349209473E+03  0.46999998093E+01 0. -1.
       -5    1    3    3    0  502 -0.83100195107E+03  0.49430722628E+02 -0.15352170858E+04  0.17464023676E+04  0.46999998093E+01 0.  1.
</event>
<event>
 5   0  0.1325673E-04  0.1795325E+04  0.7818609E-02  0.8708789E-01
       -2   -1    0    0    0  501  0.00000000000E+00  0.00000000000E+00  0.68221441212E+03  0.68221441212E+03  0.25500000920E-02 0. -1.
        2   -1    0    0  501    0  0.00000000000E+00  0.00000000000E+00 -0.11811507570E+04  0.11811507570E+04  0.25500000920E-02 0.  1.
    10030    2    1    2    0    0  0.00000000000E+00  0.00000000000E+00 -0.49893634489E+03  0.18633651691E+04  0.17953251174E+04 0.  0.
        5    1    3    3  502    0  0.59275179219E+03 -0.52277972199E+03 -0.69118226312E+03  0.10499563494E+04  0.46999998093E+01 0.  1.
       -5    1    3    3    0  502 -0.59275179219E+03  0.52277972199E+03  0.19224591824E+03  0.81340881969E+03  0.46999998093E+01 0. -1.
</event>
<event>
 5   0  0.1252477E-04  0.2092913E+04  0.7818609E-02  0.8564372E-01
       -2   -1    0    0    0  501  0.00000000000E+00  0.00000000000E+00  0.80586330904E+03  0.80586330905E+03  0.25500000920E-02 0. -1.
        2   -1    0    0  501    0  0.00000000000E+00  0.00000000000E+00 -0.13588792745E+04  0.13588792745E+04  0.25500000920E-02 0.  1.
    10030    2    1    2    0    0  0.00000000000E+00  0.00000000000E+00 -0.55301596541E+03  0.21647425835E+04  0.20929127538E+04 0.  0.
        4    1    3    3  502    0  0.30784282544E+03  0.26421374198E+02  0.75760773149E+03  0.81819092020E+03  0.12699999809E+01 0. -1.
       -4    1    3    3    0  502 -0.30784282544E+03 -0.26421374198E+02 -0.13106236969E+04  0.13465516633E+04  0.12699999809E+01 0.  1.
</event>
<event>
 5   0  0.6052292E-05  0.2104839E+04  0.7818609E-02  0.8559115E-01
        1   -1    0    0  501    0  0.00000000000E+00  0.00000000000E+00  0.14094896749E+04  0.14094896750E+04  0.50400001928E-02 0. -1.
       -1   -1    0    0    0  501  0.00000000000E+00  0.00000000000E+00 -0.78580712146E+03  0.78580712148E+03  0.50400001928E-02 0.  1.
    10030    2    1    2    0    0  0.00000000000E+00  0.00000000000E+00  0.62368255348E+03  0.21952967964E+04  0.21048392093E+04 0.  0.
        1    1    3    3  502    0  0.10210925225E+04 -0.24584616044E+03  0.24174622628E+03  0.10777344348E+04  0.50400001928E-02 0.  1.
       -1    1    3    3    0  502 -0.10210925225E+04  0.24584616044E+03  0.38193632720E+03  0.11175623616E+04  0.50400001928E-02 0. -1.
</event>
<event>
 5   0  0.1325673E-04  0.2060117E+04  0.7818609E-02  0.8579019E-01
       -2   -1    0    0    0  501  0.00000000000E+00  0.00000000000E+00  0.60693022880E+03  0.60693022880E+03  0.25500000920E-02 0.  1.
        2   -1    0    0  501    0  0.00000000000E+00  0.00000000000E+00 -0.17481746048E+04  0.17481746048E+04  0.25500000920E-02 0. -1.
    10030    2    1    2    0    0  0.00000000000E+00  0.00000000000E+00 -0.11412443760E+04  0.23551048336E+04  0.20601165140E+04 0.  0.
        5    1    3    3  502    0  0.61972003489E+03  0.20992657752E+02 -0.15108947086E+04  0.16331927394E+04  0.46999998093E+01 0. -1.
       -5    1    3    3    0  502 -0.61972003489E+03 -0.20992657752E+02  0.36965033267E+03  0.72191209421E+03  0.46999998093E+01 0.  1.
</event>
<event>
 5   0  0.5846187E-05  0.1991306E+04  0.7818609E-02  0.8610696E-01
       -1   -1    0    0    0  501  0.00000000000E+00  0.00000000000E+00  0.10610626616E+04  0.10610626616E+04  0.50400001928E-02 0.  1.
        1   -1    0    0  501    0  0.00000000000E+00  0.00000000000E+00 -0.93427566053E+03  0.93427566055E+03  0.50400001928E-02 0. -1.
    10030    2    1    2    0    0  0.00000000000E+00  0.00000000000E+00  0.12678700103E+03  0.19953383221E+04  0.19913061232E+04 0.  0.
        5    1    3    3  502    0 -0.80751241200E+03  0.56965309346E+03  0.18497338416E+03  0.10053945421E+04  0.46999998093E+01 0. -1.
       -5    1    3    3    0  502  0.80751241200E+03 -0.56965309346E+03 -0.58186383132E+02  0.98994378003E+03  0.46999998093E+01 0.  1.
</event>
<event>
 5   0  0.1281470E-04  0.2144400E+04  0.7818609E-02  0.8541933E-01
       -2   -1    0    0    0  501  0.00000000000E+00  0.00000000000E+00  0.61835179362E+03  0.61835179362E+03  0.25500000920E-02 0. -1.
        2   -1    0    0  501    0  0.00000000000E+00  0.00000000000E+00 -0.18591570307E+04  0.18591570307E+04  0.25500000920E-02 0.  1.
    10030    2    1    2    0    0  0.00000000000E+00  0.00000000000E+00 -0.12408052371E+04  0.24775088243E+04  0.21444002281E+04 0.  0.
        3    1    3    3  502    0  0.28108256980E+03  0.22178579193E+03  0.54724244573E+03  0.65396533025E+03  0.10100000352E+00 0. -1.
       -3    1    3    3    0  502 -0.28108256980E+03 -0.22178579193E+03 -0.17880476828E+04  0.18235434940E+04  0.10100000352E+00 0.  1.
</event>
<event>
 5   0  0.1325673E-04  0.2093906E+04  0.7818609E-02  0.8563933E-01
        2   -1    0    0  501    0  0.00000000000E+00  0.00000000000E+00  0.14422475161E+04  0.14422475161E+04  0.25500000920E-02 0.  1.
       -2   -1    0    0    0  501  0.00000000000E+00  0.00000000000E+00 -0.76000169704E+03  0.76000169705E+03  0.25500000920E-02 0. -1.
    10030    2    1    2    0    0  0.00000000000E+00  0.00000000000E+00  0.68224581905E+03  0.22022492131E+04  0.20939059767E+04 0.  0.
        5    1    3    3  502    0  0.10284651045E+04 -0.19578082155E+03  0.34556876103E+03  0.11025019092E+04  0.46999998093E+01 0. -1.
       -5    1    3    3    0  502 -0.10284651045E+04  0.19578082155E+03  0.33667705802E+03  0.10997473040E+04  0.46999998093E+01 0.  1.
</event>
<event>
 5   0  0.6263616E-05  0.2052903E+04  0.7818609E-02  0.8582279E-01
       -1   -1    0    0    0  501  0.00000000000E+00  0.00000000000E+00  0.51149092570E+03  0.51149092572E+03  0.50400001928E-02 0.  1.
        1   -1    0    0  501    0  0.00000000000E+00  0.00000000000E+00 -0.20598659662E+04  0.20598659662E+04  0.50400001928E-02 0. -1.
    10030    2    1    2    0    0  0.00000000000E+00  0.00000000000E+00 -0.15483750405E+04  0.25713568919E+04  0.20529030663E+04 0.  0.
        4    1    3    3  502    0  0.93264265363E+03  0.31000586526E+03 -0.11450665271E+04  0.15090079258E+04  0.12699999809E+01 0. -1.
       -4    1    3    3    0  502 -0.93264265363E+03 -0.31000586526E+03 -0.40330851343E+03  0.10623489661E+04  0.12699999809E+01 0.  1.
</event>
<event>
 5   0  0.1281470E-04  0.2067620E+04  0.7818609E-02  0.8575643E-01
       -2   -1    0    0    0  501  0.00000000000E+00  0.00000000000E+00  0.13106092980E+04  0.13106092980E+04  0.25500000920E-02 0.  1.
        2   -1    0    0  501    0  0.00000000000E+00  0.00000000000E+00 -0.81547025431E+03  0.81547025431E+03  0.25500000920E-02 0. -1.
    10030    2    1    2    0    0  0.00000000000E+00  0.00000000000E+00  0.49513904368E+03  0.21260795523E+04  0.20676197886E+04 0.  0.
        3    1    3    3  502    0 -0.11041851212E+03  0.10013619633E+04  0.48617529570E+03  0.11186082682E+04  0.10100000352E+00 0. -1.
       -3    1    3    3    0  502  0.11041851212E+03 -0.10013619633E+04  0.89637479762E+01  0.10074712841E+04  0.10100000352E+00 0.  1.
</event>
<event>
 5   0  0.1349252E-04  0.2147464E+04  0.7818609E-02  0.8540619E-01
        2   -1    0    0  501    0  0.00000000000E+00  0.00000000000E+00  0.19204611084E+04  0.19204611084E+04  0.25500000920E-02 0. -1.
       -2   -1    0    0    0  501  0.00000000000E+00  0.00000000000E+00 -0.60032485789E+03  0.60032485789E+03  0.25500000920E-02 0.  1.
    10030    2    1    2    0    0  0.00000000000E+00  0.00000000000E+00  0.13201362505E+04  0.25207859663E+04  0.21474641250E+04 0.  0.
        2    1    3    3  502    0 -0.58021438273E+03 -0.19554246150E+03 -0.37532202301E+03  0.71815889964E+03  0.25500000920E-02 0.  1.
       -2    1    3    3    0  502  0.58021438273E+03  0.19554246150E+03  0.16954582735E+04  0.18026270667E+04  0.25500000920E-02 0. -1.
</event>
<event>
 5   0  0.1252477E-04  0.2111137E+04  0.7818609E-02  0.8556353E-01
       -2   -1    0    0    0  501  0.00000000000E+00  0.00000000000E+00  0.11044728890E+04  0.11044728890E+04  0.25500000920E-02 0. -1.
        2   -1    0    0  501    0  0.00000000000E+00  0.00000000000E+00 -0.10088292558E+04  0.10088292558E+04  0.25500000920E-02 0.  1.
    10030    2    1    2    0    0  0.00000000000E+00  0.00000000000E+00  0.95643633183E+02  0.21133021448E+04  0.21111367201E+04 0.  0.
        4    1    3    3  502    0  0.43826786789E+03  0.96008527183E+03  0.67348145780E+02  0.10575347932E+04  0.12699999809E+01 0. -1.
       -4    1    3    3    0  502 -0.43826786789E+03 -0.96008527183E+03  0.28295487403E+02  0.10557673516E+04  0.12699999809E+01 0.  1.
</event>
<event>
 5   0  0.1281470E-04  0.1959093E+04  0.7818609E-02  0.8625989E-01
       -2   -1    0    0    0  501  0.00000000000E+00  0.00000000000E+00  0.89577325221E+03  0.89577325221E+03  0.25500000920E-02 0. -1.
        2   -1    0    0  501    0  0.00000000000E+00  0.00000000000E+00 -0.10711539640E+04  0.10711539640E+04  0.25500000920E-02 0.  1.
    10030    2    1    2    0    0  0.00000000000E+00  0.00000000000E+00 -0.17538071174E+03  0.19669272162E+04  0.19590927185E+04 0.  0.
        3    1    3    3  502    0  0.73068307124E+03 -0.16738561451E+03  0.54538288338E+03  0.92701574648E+03  0.10100000352E+00 0. -1.
       -3    1    3    3    0  502 -0.73068307124E+03  0.16738561451E+03 -0.72076359512E+03  0.10399114697E+04  0.10100000352E+00 0.  1.
</event>
<event>
 5   0  0.1235817E-04  0.2153188E+04  0.7818609E-02  0.8538169E-01
        2   -1    0    0  501    0  0.00000000000E+00  0.00000000000E+00  0.20784656655E+04  0.20784656656E+04  0.25500000920E-02 0. -1.
       -2   -1    0    0    0  501  0.00000000000E+00  0.00000000000E+00 -0.55764901767E+03  0.55764901767E+03  0.25500000920E-02 0.  1.
    10030    2    1    2    0    0  0.00000000000E+00  0.00000000000E+00  0.15208166479E+04  0.26361146832E+04  0.21531877175E+04 0.  0.
        1    1    3    3  502    0 -0.23850922414E+03  0.28663090523E+03 -0.47606487871E+03  0.60471620997E+03  0.50400001928E-02 0.  1.
       -1    1    3    3    0  502  0.23850922414E+03 -0.28663090523E+03  0.19968815266E+04  0.20313984732E+04  0.50400001928E-02 0. -1.
</event>
<event>
 5   0  0.1235817E-04  0.2083380E+04  0.7818609E-02  0.8568600E-01
        2   -1    0    0  501    0  0.00000000000E+00  0.00000000000E+00  0.14620675853E+04  0.14620675853E+04  0.25500000920E-02 0.  1.
       -2   -1    0    0    0  501  0.00000000000E+00  0.00000000000E+00 -0.74218036170E+03  0.74218036171E+03  0.25500000920E-02 0. -1.
    10030    2    1    2    0    0  0.00000000000E+00  0.00000000000E+00  0.71988722356E+03  0.22042479470E+04  0.20833798014E+04 0.  0.
        1    1    3    3  502    0  0.85135362768E+03  0.29083592059E+03 -0.19561958510E+03  0.92068211352E+03  0.50400001928E-02 0. -1.
       -1    1    3    3    0  502 -0.85135362768E+03 -0.29083592059E+03  0.91550680866E+03  0.12835658334E+04  0.50400001928E-02 0.  1.
</event>
<event>
 5   0  0.6052292E-05  0.1935058E+04  0.7818609E-02  0.8637600E-01
       -1   -1    0    0    0  501  0.00000000000E+00  0.00000000000E+00  0.71024469981E+03  0.71024469983E+03  0.50400001928E-02 0.  1.
        1   -1    0    0  501    0  0.00000000000E+00  0.00000000000E+00 -0.13180138291E+04  0.13180138291E+04  0.50400001928E-02 0. -1.
    10030    2    1    2    0    0  0.00000000000E+00  0.00000000000E+00 -0.60776912926E+03  0.20282585289E+04  0.19350579696E+04 0.  0.
        1    1    3    3  502    0  0.63295405638E+03 -0.15080200100E+02 -0.10707326309E+04  0.12439158399E+04  0.50400001928E-02 0. -1.
       -1    1    3    3    0  502 -0.63295405638E+03  0.15080200100E+02  0.46296350163E+03  0.78434268900E+03  0.50400001928E-02 0.  1.
</event>
<event>
 5   0  0.5933905E-05  0.2093458E+04  0.7818609E-02  0.8564131E-01
        1   -1    0    0  501    0  0.00000000000E+00  0.00000000000E+00  0.16071998315E+04  0.16071998315E+04  0.50400001928E-02 0.  1.
       -1   -1    0    0    0  501  0.00000000000E+00  0.00000000000E+00 -0.68170844305E+03  0.68170844307E+03  0.50400001928E-02 0. -1.
    10030    2    1    2    0    0  0.00000000000E+00  0.00000000000E+00  0.92549138848E+03  0.22889082746E+04  0.20934580912E+04 0.  0.
        2    1    3    3  502    0 -0.10404287220E+04  0.90805857067E+02  0.53931280450E+03  0.11754130892E+04  0.25500000920E-02 0.  1.
       -2    1    3    3    0  502  0.10404287220E+04 -0.90805857067E+02  0.38617858398E+03  0.11134951854E+04  0.25500000920E-02 0. -1.
</event>
<event>
 5   0  0.1235817E-04  0.2147755E+04  0.7818609E-02  0.8540494E-01
       -2   -1    0    0    0  501  0.00000000000E+00  0.00000000000E+00  0.49897609587E+03  0.49897609588E+03  0.25500000920E-02 0. -1.
        2   -1    0    0  501    0  0.00000000000E+00  0.00000000000E+00 -0.23111593424E+04  0.23111593424E+04  0.25500000920E-02 0.  1.
    10030    2    1    2    0    0  0.00000000000E+00  0.00000000000E+00 -0.18121832466E+04  0.28101354383E+04  0.21477553545E+04 0.  0.
        1    1    3    3  502    0 -0.48240605270E+03  0.20884151503E+03  0.31912601085E+03  0.61495673743E+03  0.50400001928E-02 0. -1.
       -1    1    3    3    0  502  0.48240605270E+03 -0.20884151503E+03 -0.21313092574E+04  0.21951787009E+04  0.50400001928E-02 0.  1.
</event>
<event>
 5   0  0.5846187E-05  0.2069821E+04  0.7818609E-02  0.8574655E-01
       -1   -1    0    0    0  501  0.00000000000E+00  0.00000000000E+00  0.78032495792E+03  0.78032495794E+03  0.50400001928E-02 0.  1.
        1   -1    0    0  501    0  0.00000000000E+00  0.00000000000E+00 -0.13725560047E+04  0.13725560047E+04  0.50400001928E-02 0. -1.
    10030    2    1    2    0    0  0.00000000000E+00  0.00000000000E+00 -0.59223104675E+03  0.21528809626E+04  0.20698209648E+04 0.  0.
        5    1    3    3  502    0  0.98567870676E+03  0.68536772592E+02  0.24064884544E+02  0.98836279312E+03  0.46999998093E+01 0.  1.
       -5    1    3    3    0  502 -0.98567870676E+03 -0.68536772592E+02 -0.61629593130E+03  0.11645181695E+04  0.46999998093E+01 0. -1.
</event>
<event>
 5   0  0.1325673E-04  0.2155963E+04  0.7818609E-02  0.8536984E-01
        2   -1    0    0  501    0  0.00000000000E+00  0.00000000000E+00  0.12240325154E+04  0.12240325154E+04  0.25500000920E-02 0. -1.
       -2   -1    0    0    0  501  0.00000000000E+00  0.00000000000E+00 -0.94935752620E+03  0.94935752620E+03  0.25500000920E-02 0.  1.
    10030    2    1    2    0    0  0.00000000000E+00  0.00000000000E+00  0.27467498923E+03  0.21733900416E+04  0.21559633400E+04 0.  0.
        5    1    3    3  502    0  0.34571905261E+03 -0.62432783696E+01 -0.89192551524E+03  0.95661583543E+03  0.46999998093E+01 0.  1.
       -5    1    3    3    0  502 -0.34571905261E+03  0.62432783696E+01  0.11666005045E+04  0.12167742062E+04  0.46999998093E+01 0. -1.
</event>
<event>
 5   0  0.6221148E-05  0.2056816E+04  0.7818609E-02  0.8580509E-01
        1   -1    0    0  501    0  0.00000000000E+00  0.00000000000E+00  0.14257296937E+04  0.14257296938E+04  0.50400001928E-02 0.  1.
       -1   -1    0    0    0  501  0.00000000000E+00  0.00000000000E+00 -0.74181166414E+03  0.74181166416E+03  0.50400001928E-02 0. -1.
    10030    2    1    2    0    0  0.00000000000E+00  0.00000000000E+00  0.68391802961E+03  0.21675413579E+04  0.20568159050E+04 0.  0.
        3    1    3    3  502    0  0.77178153510E+03  0.44724744850E+03 -0.19739977891E+03  0.91358836520E+03  0.10100000352E+00 0. -1.
       -3    1    3    3    0  502 -0.77178153510E+03 -0.44724744850E+03  0.88131780852E+03  0.12539529927E+04  0.10100000352E+00 0.  1.
</event>
<event>
 5   0  0.1349252E-04  0.2120444E+04  0.7818609E-02  0.8552291E-01
       -2   -1    0    0    0  501  0.00000000000E+00  0.00000000000E+00  0.13130538301E+04  0.13130538301E+04  0.25500000920E-02 0. -1.
        2   -1    0    0  501    0  0.00000000000E+00  0.00000000000E+00 -0.85607335268E+03  0.85607335268E+03  0.25500000920E-02 0.  1.
    10030    2    1    2    0    0  0.00000000000E+00  0.00000000000E+00  0.45698047740E+03  0.21691271828E+04  0.21204437220E+04 0.  0.
        2    1    3    3  502    0 -0.41439524269E+02 -0.43757294099E+03 -0.75848404047E+03  0.87663296340E+03  0.25500000920E-02 0.  1.
       -2    1    3    3    0  502  0.41439524269E+02  0.43757294099E+03  0.12154645179E+04  0.12924942194E+04  0.25500000920E-02 0. -1.
</event>
<event>
 5   0  0.6263616E-05  0.1957958E+04  0.7818609E-02  0.8626533E-01
       -1   -1    0    0    0  501  0.00000000000E+00  0.00000000000E+00  0.45701769028E+03  0.45701769031E+03  0.50400001928E-02 0. -1.
        1   -1    0    0  501    0  0.00000000000E+00  0.00000000000E+00 -0.20970734367E+04  0.20970734367E+04  0.50400001928E-02 0.  1.
    10030    2    1    2    0    0  0.00000000000E+00  0.00000000000E+00 -0.16400557464E+04  0.25540911270E+04  0.19579577712E+04 0.  0.
        4    1    3    3  502    0 -0.71736635844E+03  0.96876493477E+02  0.39732105594E+02  0.72496882714E+03  0.12699999809E+01 0. -1.
       -4    1    3    3    0  502  0.71736635844E+03 -0.96876493477E+02 -0.16797878520E+04  0.18291222998E+04  0.12699999809E+01 0.  1.
</event>
<event>
 5   0  0.5846187E-05  0.1939930E+04  0.7818609E-02  0.8635232E-01
       -1   -1    0    0    0  501  0.00000000000E+00  0.00000000000E+00  0.35884986301E+03  0.35884986304E+03  0.50400001928E-02 0.  1.
        1   -1    0    0  501    0  0.00000000000E+00  0.00000000000E+00 -0.26217987883E+04  0.26217987883E+04  0.50400001928E-02 0. -1.
    10030    2    1    2    0    0  0.00000000000E+00  0.00000000000E+00 -0.22629489253E+04  0.29806486514E+04  0.19399300359E+04 0.  0.
        5    1    3    3  502    0  0.80680085431E+03 -0.27977099284E+03 -0.18382694285E+04  0.20269326601E+04  0.46999998093E+01 0. -1.
       -5    1    3    3    0  502 -0.80680085431E+03  0.27977099284E+03 -0.42467949683E+03  0.95371599125E+03  0.46999998093E+01 0.  1.
</event>
<event>
 5   0  0.6052292E-05  0.2094622E+04  0.7818609E-02  0.8563616E-01
        1   -1    0    0  501    0  0.00000000000E+00  0.00000000000E+00  0.10456026562E+04  0.10456026562E+04  0.50400001928E-02 0.  1.
       -1   -1    0    0    0  501  0.00000000000E+00  0.00000000000E+00 -0.10490219700E+04  0.10490219700E+04  0.50400001928E-02 0. -1.
    10030    2    1    2    0    0  0.00000000000E+00  0.00000000000E+00 -0.34193137334E+01  0.20946246262E+04  0.20946218353E+04 0.  0.
        1    1    3    3  502    0 -0.70323724097E+03 -0.77578680627E+03 -0.23443815341E+02  0.10473477925E+04  0.50400001928E-02 0.  1.
       -1    1    3    3    0  502  0.70323724097E+03  0.77578680627E+03  0.20024501608E+02  0.10472768338E+04  0.50400001928E-02 0. -1.
</event>
<event>
 5   0  0.5933905E-05  0.2055256E+04  0.7818609E-02  0.8581214E-01
        1   -1    0    0  501    0  0.00000000000E+00  0.00000000000E+00  0.17683090150E+04  0.17683090150E+04  0.50400001928E-02 0. -1.
       -1   -1    0    0    0  501  0.00000000000E+00  0.00000000000E+00 -0.59719174384E+03  0.59719174386E+03  0.50400001928E-02 0.  1.
    10030    2    1    2    0    0  0.00000000000E+00  0.00000000000E+00  0.11711172711E+04  0.23655007588E+04  0.20552562316E+04 0.  0.
        2    1    3    3  502    0 -0.57673055813E+03 -0.43420318915E+01  0.15644649579E+04  0.16673894550E+04  0.25500000920E-02 0. -1.
       -2    1    3    3    0  502  0.57673055813E+03  0.43420318915E+01 -0.39334768679E+03  0.69811130389E+03  0.25500000920E-02 0.  1.
</event>
<event>
 5   0  0.1281470E-04  0.2065272E+04  0.7818609E-02  0.8576697E-01
       -2   -1    0    0    0  501  0.00000000000E+00  0.00000000000E+00  0.58762168878E+03  0.58762168879E+03  0.25500000920E-02 0.  1.
        2   -1    0    0  501    0  0.00000000000E+00  0.00000000000E+00 -0.18146662356E+04  0.18146662356E+04  0.25500000920E-02 0. -1.
    10030    2    1    2    0    0  0.00000000000E+00  0.00000000000E+00 -0.12270445468E+04  0.24022879244E+04  0.20652721253E+04 0.  0.
        3    1    3    3  502    0 -0.75866325209E+03 -0.43152764019E+02 -0.14268396943E+04  0.16165715619E+04  0.10100000352E+00 0. -1.
       -3    1    3    3    0  502  0.75866325209E+03  0.43152764019E+02  0.19979514754E+03  0.78571636250E+03  0.10100000352E+00 0.  1.
</event>
<event>
 5   0  0.1235817E-04  0.2098591E+04  0.7818609E-02  0.8561864E-01
       -2   -1    0    0    0  501  0.00000000000E+00  0.00000000000E+00  0.65792835569E+03  0.65792835570E+03  0.25500000920E-02 0.  1.
        2   -1    0    0  501    0  0.00000000000E+00  0.00000000000E+00 -0.16734667828E+04  0.16734667828E+04  0.25500000920E-02 0. -1.
    10030    2    1    2    0    0  0.00000000000E+00  0.00000000000E+00 -0.10155384272E+04  0.23313951385E+04  0.20985911929E+04 0.  0.
        1    1    3    3  502    0  0.96332986552E+03  0.17810875312E+03 -0.92535916585E+03  0.13475966546E+04  0.50400001928E-02 0. -1.
       -1    1    3    3    0  502 -0.96332986552E+03 -0.17810875312E+03 -0.90179261297E+02  0.98379848390E+03  0.50400001928E-02 0.  1.
</event>
<event>
 5   0  0.5933905E-05  0.2188003E+04  0.7818609E-02  0.8523438E-01
        1   -1    0    0  501    0  0.00000000000E+00  0.00000000000E+00  0.90495417240E+03  0.90495417241E+03  0.50400001928E-02 0. -1.
       -1   -1    0    0    0  501  0.00000000000E+00  0.00000000000E+00 -0.13225412234E+04  0.13225412234E+04  0.50400001928E-02 0.  1.
    10030    2    1    2    0    0  0.00000000000E+00  0.00000000000E+00 -0.41758705097E+03  0.22274953958E+04  0.21880029235E+04 0.  0.
        2    1    3    3  502    0 -0.87615256541E+03 -0.65511601017E+03 -0.20436839146E+03  0.11129181210E+04  0.25500000920E-02 0. -1.
       -2    1    3    3    0  502  0.87615256541E+03  0.65511601017E+03 -0.21321865950E+03  0.11145772748E+04  0.25500000920E-02 0.  1.
</event>
<event>
 5   0  0.6263616E-05  0.1903541E+04  0.7818609E-02  0.8653096E-01
       -1   -1    0    0    0  501  0.00000000000E+00  0.00000000000E+00  0.10362893325E+04  0.10362893325E+04  0.50400001928E-02 0.  1.
        1   -1    0    0  501    0  0.00000000000E+00  0.00000000000E+00 -0.87414490111E+03  0.87414490113E+03  0.50400001928E-02 0. -1.
    10030    2    1    2    0    0  0.00000000000E+00  0.00000000000E+00  0.16214443136E+03  0.19104342336E+04  0.19035409490E+04 0.  0.
        4    1    3    3  502    0 -0.71218042934E+03 -0.43483926957E+03  0.54052832269E+03  0.99421257025E+03  0.12699999809E+01 0.  1.
       -4    1    3    3    0  502  0.71218042934E+03  0.43483926957E+03 -0.37838389133E+03  0.91622166337E+03  0.12699999809E+01 0. -1.
</event>
<event>
 5   0  0.6221148E-05  0.2088776E+04  0.7818609E-02  0.8566204E-01
        1   -1    0    0  501    0  0.00000000000E+00  0.00000000000E+00  0.16732972548E+04  0.16732972548E+04  0.50400001928E-02 0. -1.
       -1   -1    0    0    0  501  0.00000000000E+00  0.00000000000E+00 -0.65185423072E+03  0.65185423074E+03  0.50400001928E-02 0.  1.
    10030    2    1    2    0    0  0.00000000000E+00  0.00000000000E+00  0.10214430241E+04  0.23251514856E+04  0.20887756173E+04 0.  0.
        3    1    3    3  502    0 -0.52392275841E+03  0.74027605543E+03 -0.65809942092E+02  0.90930448899E+03  0.10100000352E+00 0. -1.
       -3    1    3    3    0  502  0.52392275841E+03 -0.74027605543E+03  0.10872529662E+04  0.14158469966E+04  0.10100000352E+00 0.  1.
</event>
<event>
 5   0  0.6263616E-05  0.2093796E+04  0.7818609E-02  0.8563981E-01
       -1   -1    0    0    0  501  0.00000000000E+00  0.00000000000E+00  0.11485682068E+04  0.11485682068E+04  0.50400001928E-02 0.  1.
        1   -1    0    0  501    0  0.00000000000E+00  0.00000000000E+00 -0.95422741787E+03  0.95422741788E+03  0.50400001928E-02 0. -1.
    10030    2    1    2    0    0  0.00000000000E+00  0.00000000000E+00  0.19434078889E+03  0.21027956246E+04  0.20937958584E+04 0.  0.
        4    1    3    3  502    0  0.96224389951E+03  0.18608323698E+03 -0.27245145219E+03  0.10172372879E+04  0.12699999809E+01 0. -1.
       -4    1    3    3    0  502 -0.96224389951E+03 -0.18608323698E+03  0.46679224108E+03  0.10855583367E+04  0.12699999809E+01 0.  1.
</event>
<event>
 5   0  0.1349252E-04  0.2097658E+04  0.7818609E-02  0.8562276E-01
        2   -1    0    0  501    0  0.00000000000E+00  0.00000000000E+00  0.80853111417E+03  0.80853111417E+03  0.25500000920E-02 0.  1.
       -2   -1    0    0    0  501  0.00000000000E+00  0.00000000000E+00 -0.13605446626E+04  0.13605446626E+04  0.25500000920E-02 0. -1.
    10030    2    1    2    0    0  0.00000000000E+00  0.00000000000E+00 -0.55201354844E+03  0.21690757768E+04  0.20976584011E+04 0.  0.
        2    1    3    3  502    0 -0.10839769309E+03 -0.83430617281E+03 -0.92360859430E+03  0.12493477039E+04  0.25500000920E-02 0. -1.
       -2    1    3    3    0  502  0.10839769309E+03  0.83430617281E+03  0.37159504586E+03  0.91972807284E+03  0.25500000920E-02 0.  1.
</event>
<event>
 5   0  0.1235817E-04  0.2082286E+04  0.7818609E-02  0.8569087E-01
        2   -1    0    0  501    0  0.00000000000E+00  0.00000000000E+00  0.13008746452E+04  0.13008746452E+04  0.25500000920E-02 0.  1.
       -2   -1    0    0    0  501  0.00000000000E+00  0.00000000000E+00 -0.83326948338E+03  0.83326948339E+03  0.25500000920E-02 0. -1.
    10030    2    1    2    0    0  0.00000000000E+00  0.00000000000E+00  0.46760516178E+03  0.21341441286E+04  0.20822863814E+04 0.  0.
        1    1    3    3  502    0 -0.13301261890E+02  0.15903277718E+03 -0.82065941803E+03  0.83603243251E+03  0.50400001928E-02 0. -1.
       -1    1    3    3    0  502  0.13301261890E+02 -0.15903277718E+03  0.12882645798E+04  0.12981116960E+04  0.50400001928E-02 0.  1.
</event>
<event>
 5   0  0.6052292E-05  0.2062607E+04  0.7818609E-02  0.8577897E-01
        1   -1    0    0  501    0  0.00000000000E+00  0.00000000000E+00  0.12562134057E+04  0.12562134057E+04  0.50400001928E-02 0.  1.
       -1   -1    0    0    0  501  0.00000000000E+00  0.00000000000E+00 -0.84666085216E+03  0.84666085218E+03  0.50400001928E-02 0. -1.
    10030    2    1    2    0    0  0.00000000000E+00  0.00000000000E+00  0.40955255350E+03  0.21028742579E+04  0.20626068094E+04 0.  0.
        1    1    3    3  502    0 -0.61787643731E+03  0.81251825527E+03  0.35471719077E+03  0.10806393905E+04  0.50400001928E-02 0. -1.
       -1    1    3    3    0  502  0.61787643731E+03 -0.81251825527E+03  0.54835362733E+02  0.10222348673E+04  0.50400001928E-02 0.  1.
</event>
<event>
 5   0  0.1349252E-04  0.2046677E+04  0.7818609E-02  0.8585103E-01
       -2   -1    0    0    0  501  0.00000000000E+00  0.00000000000E+00  0.64086380670E+03  0.64086380671E+03  0.25500000920E-02 0. -1.
        2   -1    0    0  501    0  0.00000000000E+00  0.00000000000E+00 -0.16340788100E+04  0.16340788100E+04  0.25500000920E-02 0.  1.
    10030    2    1    2    0    0  0.00000000000E+00  0.00000000000E+00 -0.99321500329E+03  0.22749426167E+04  0.20466772746E+04 0.  0.
        2    1    3    3  502    0  0.64958793653E+03  0.62514789457E+03 -0.10348078379E+04  0.13724436742E+04  0.25500000920E-02 0.  1.
       -2    1    3    3    0  502 -0.64958793653E+03 -0.62514789457E+03  0.41592834613E+02  0.90249894253E+03  0.25500000920E-02 0. -1.
</event>
<event>
 5   0  0.6221148E-05  0.2100680E+04  0.7818609E-02  0.8560944E-01
        1   -1    0    0  501    0  0.00000000000E+00  0.00000000000E+00  0.75511778563E+03  0.75511778565E+03  0.50400001928E-02 0. -1.
       -1   -1    0    0    0  501  0.00000000000E+00  0.00000000000E+00 -0.14609823931E+04  0.14609823931E+04  0.50400001928E-02 0.  1.
    10030    2    1    2    0    0  0.00000000000E+00  0.00000000000E+00 -0.70586460747E+03  0.22161001788E+04  0.21006796896E+04 0.  0.
        3    1    3    3  502    0  0.95960765577E+03 -0.32236965133E+03 -0.64840098262E+03  0.12021617568E+04  0.10100000352E+00 0. -1.
       -3    1    3    3    0  502 -0.95960765577E+03  0.32236965133E+03 -0.57463624858E+02  0.10139384219E+04  0.10100000352E+00 0.  1.
</event>
<event>
 5   0  0.1235817E-04  0.2098694E+04  0.7818609E-02  0.8561819E-01
       -2   -1    0    0    0  501  0.00000000000E+00  0.00000000000E+00  0.93088119377E+03  0.93088119377E+03  0.25500000920E-02 0. -1.
        2   -1    0    0  501    0  0.00000000000E+00  0.00000000000E+00 -0.11828892198E+04  0.11828892198E+04  0.25500000920E-02 0.  1.
    10030    2    1    2    0    0  0.00000000000E+00  0.00000000000E+00 -0.25200802600E+03  0.21137704136E+04  0.20986941931E+04 0.  0.
        1    1    3    3  502    0 -0.26537587682E+03 -0.14105522268E+03 -0.11386160241E+04  0.11776108790E+04  0.50400001928E-02 0.  1.
       -1    1    3    3    0  502  0.26537587682E+03  0.14105522268E+03  0.88660799812E+03  0.93615953459E+03  0.50400001928E-02 0. -1.
</event>
<event>
 5   0  0.6221148E-05  0.2064159E+04  0.7818609E-02  0.8577198E-01
       -1   -1    0    0    0  501  0.00000000000E+00  0.00000000000E+00  0.49467089460E+03  0.49467089462E+03  0.50400001928E-02 0. -1.
        1   -1    0    0  501    0  0.00000000000E+00  0.00000000000E+00 -0.21533271498E+04  0.21533271498E+04  0.50400001928E-02 0.  1.
    10030    2    1    2    0    0  0.00000000000E+00  0.00000000000E+00 -0.16586562552E+04  0.26479980444E+04  0.20641591679E+04 0.  0.
        3    1    3    3  502    0  0.21574858653E+03 -0.22907975451E+03  0.43162731061E+03  0.53416021190E+03  0.10100000352E+00 0. -1.
       -3    1    3    3    0  502 -0.21574858653E+03  0.22907975451E+03 -0.20902835658E+04  0.21138378325E+04  0.10100000352E+00 0.  1.
</event>
<event>
 5   0  0.1325673E-04  0.2129160E+04  0.7818609E-02  0.8548506E-01
       -2   -1    0    0    0  501  0.00000000000E+00  0.00000000000E+00  0.56461820562E+03  0.56461820563E+03  0.25500000920E-02 0.  1.
        2   -1    0    0  501    0  0.00000000000E+00  0.00000000000E+00 -0.20072519946E+04  0.20072519946E+04  0.25500000920E-02 0. -1.
    10030    2    1    2    0    0  0.00000000000E+00  0.00000000000E+00 -0.14426337890E+04  0.25718702003E+04  0.21291604162E+04 0.  0.
        5    1    3    3  502    0  0.33790529109E+03  0.42637243788E+03  0.38400917171E+03  0.66592685445E+03  0.46999998093E+01 0.  1.
       -5    1    3    3    0  502 -0.33790529109E+03 -0.42637243788E+03 -0.18266429607E+04  0.19059433458E+04  0.46999998093E+01 0. -1.
</event>
<event>
 5   0  0.1235817E-04  0.2135438E+04  0.7818609E-02  0.8545791E-01
       -2   -1    0    0    0  501  0.00000000000E+00  0.00000000000E+00  0.14277041021E+04  0.14277041021E+04  0.25500000920E-02 0.  1.
        2   -1    0    0  501    0  0.00000000000E+00  0.00000000000E+00 -0.79850125628E+03  0.79850125628E+03  0.25500000920E-02 0. -1.
    10030    2    1    2    0    0  0.00000000000E+00  0.00000000000E+00  0.62920284580E+03  0.22262053584E+04  0.21354376780E+04 0.  0.
        1    1    3    3  502    0 -0.65095392782E+03 -0.42262321147E+03 -0.44982745123E+03  0.89704856665E+03  0.50400001928E-02 0. -1.
       -1    1    3    3    0  502  0.65095392782E+03  0.42262321147E+03  0.10790302970E+04  0.13291567917E+04  0.50400001928E-02 0.  1.
</event>
<event>
 5   0  0.5933905E-05  0.2099300E+04  0.7818609E-02  0.8561552E-01
        1   -1    0    0  501    0  0.00000000000E+00  0.00000000000E+00  0.21168036663E+04  0.21168036663E+04  0.50400001928E-02 0.  1.
       -1   -1    0    0    0  501  0.00000000000E+00  0.00000000000E+00 -0.52048531149E+03  0.52048531152E+03  0.50400001928E-02 0. -1.
    10030    2    1    2    0    0  0.00000000000E+00  0.00000000000E+00  0.15963183548E+04  0.26372889778E+04  0.20993000887E+04 0.  0.
        2    1    3    3  502    0  0.90577585637E+03  0.52886682116E+03  0.84895973991E+03  0.13493934402E+04  0.25500000920E-02 0.  1.
       -2    1    3    3    0  502 -0.90577585637E+03 -0.52886682116E+03  0.74735861488E+03  0.12878955376E+04  0.25500000920E-02 0. -1.
</event>
<event>
 5   0  0.1349252E-04  0.2150286E+04  0.7818609E-02  0.8539410E-01
        2   -1    0    0  501    0  0.00000000000E+00  0.00000000000E+00  0.15437002528E+04  0.15437002528E+04  0.25500000920E-02 0.  1.
       -2   -1    0    0    0  501  0.00000000000E+00  0.00000000000E+00 -0.74880634015E+03  0.74880634016E+03  0.25500000920E-02 0. -1.
    10030    2    1    2    0    0  0.00000000000E+00  0.00000000000E+00  0.79489391264E+03  0.22925065930E+04  0.21502860615E+04 0.  0.
        2    1    3    3  502    0 -0.24868503658E+03 -0.71985732103E+03  0.12065158932E+04  0.14267863928E+04  0.25500000920E-02 0.  1.
       -2    1    3    3    0  502  0.24868503658E+03  0.71985732103E+03 -0.41162198058E+03  0.86572020016E+03  0.25500000920E-02 0. -1.
</event>
<event>
 5   0  0.1235817E-04  0.2107993E+04  0.7818609E-02  0.8557730E-01
       -2   -1    0    0    0  501  0.00000000000E+00  0.00000000000E+00  0.10808310432E+04  0.10808310433E+04  0.25500000920E-02 0. -1.
        2   -1    0    0  501    0  0.00000000000E+00  0.00000000000E+00 -0.10278284044E+04  0.10278284044E+04  0.25500000920E-02 0.  1.
    10030    2    1    2    0    0  0.00000000000E+00  0.00000000000E+00  0.53002638878E+02  0.21086594476E+04  0.21079932131E+04 0.  0.
        1    1    3    3  502    0 -0.99468259221E+03 -0.13829625310E+03  0.34658609673E+03  0.10623752799E+04  0.50400001928E-02 0. -1.
       -1    1    3    3    0  502  0.99468259221E+03  0.13829625310E+03 -0.29358345786E+03  0.10462841677E+04  0.50400001928E-02 0.  1.
</event>
<event>
 5   0  0.5933905E-05  0.2104280E+04  0.7818609E-02  0.8559360E-01
        1   -1    0    0  501    0  0.00000000000E+00  0.00000000000E+00  0.92520523497E+03  0.92520523498E+03  0.50400001928E-02 0.  1.
       -1   -1    0    0    0  501  0.00000000000E+00  0.00000000000E+00 -0.11964898204E+04  0.11964898204E+04  0.50400001928E-02 0. -1.
    10030    2    1    2    0    0  0.00000000000E+00  0.00000000000E+00 -0.27128458539E+03  0.21216950554E+04  0.21042800625E+04 0.  0.
        2    1    3    3  502    0  0.31582916819E+03 -0.71658020889E+03  0.57285609327E+03  0.97025736939E+03  0.25500000920E-02 0.  1.
       -2    1    3    3    0  502 -0.31582916819E+03  0.71658020889E+03 -0.84414067867E+03  0.11514376860E+04  0.25500000920E-02 0. -1.
</event>
<event>
 5   0  0.6263616E-05  0.2110021E+04  0.7818609E-02  0.8556842E-01
        1   -1    0    0  501    0  0.00000000000E+00  0.00000000000E+00  0.12286787531E+04  0.12286787531E+04  0.50400001928E-02 0. -1.
       -1   -1    0    0    0  501  0.00000000000E+00  0.00000000000E+00 -0.90588959045E+03  0.90588959046E+03  0.50400001928E-02 0.  1.
    10030    2    1    2    0    0  0.00000000000E+00  0.00000000000E+00  0.32278916264E+03  0.21345683436E+04  0.21100211302E+04 0.  0.
        4    1    3    3  502    0  0.51668960479E+03 -0.91183229839E+03  0.38993635962E+02  0.10487747159E+04  0.12699999809E+01 0.  1.
       -4    1    3    3    0  502 -0.51668960479E+03  0.91183229839E+03  0.28379552668E+03  0.10857936277E+04  0.12699999809E+01 0. -1.
</event>
<event>
 5   0  0.1325673E-04  0.2126045E+04  0.7818609E-02  0.8549856E-01
       -2   -1    0    0    0  501  0.00000000000E+00  0.00000000000E+00  0.55121497079E+03  0.55121497080E+03  0.25500000920E-02 0. -1.
        2   -1    0    0  501    0  0.00000000000E+00  0.00000000000E+00 -0.20500476275E+04  0.20500476275E+04  0.25500000920E-02 0.  1.
    10030    2    1    2    0    0  0.00000000000E+00  0.00000000000E+00 -0.14988326568E+04  0.26012625983E+04  0.21260451013E+04 0.  0.
        5    1    3    3  502    0  0.19635834196E+03 -0.55266757057E+03  0.33531483028E+03  0.67561539904E+03  0.46999998093E+01 0. -1.
       -5    1    3    3    0  502 -0.19635834196E+03  0.55266757057E+03 -0.18341474870E+04  0.19256471993E+04  0.46999998093E+01 0.  1.
</event>
<event>
 5   0  0.6221148E-05  0.1940413E+04  0.7818609E-02  0.8634998E-01
       -1   -1    0    0    0  501  0.00000000000E+00  0.00000000000E+00  0.11381496751E+04  0.11381496751E+04  0.50400001928E-02 0. -1.
        1   -1    0    0  501    0  0.00000000000E+00  0.00000000000E+00 -0.82704444565E+03  0.82704444566E+03  0.50400001928E-02 0.  1.
    10030    2    1    2    0    0  0.00000000000E+00  0.00000000000E+00  0.31110522942E+03  0.19651941207E+04  0.19404127057E+04 0.  0.
        3    1    3    3  502    0  0.21604478473E+03  0.94315766989E+03  0.22772716792E+03  0.99402284305E+03  0.10100000352E+00 0.  1.
       -3    1    3    3    0  502 -0.21604478473E+03 -0.94315766989E+03  0.83378061508E+02  0.97117127770E+03  0.10100000352E+00 0. -1.
</event>
<event>
 5   0  0.6221148E-05  0.2090008E+04  0.7818609E-02  0.8565658E-01
       -1   -1    0    0    0  501  0.00000000000E+00  0.00000000000E+00  0.59405050592E+03  0.59405050594E+03  0.50400001928E-02 0.  1.
        1   -1    0    0  501    0  0.00000000000E+00  0.00000000000E+00 -0.18382842563E+04  0.18382842563E+04  0.50400001928E-02 0. -1.
    10030    2    1    2    0    0  0.00000000000E+00  0.00000000000E+00 -0.12442337504E+04  0.24323347623E+04  0.20900083182E+04 0.  0.
        3    1    3    3  502    0 -0.94120919711E+03 -0.36271452350E+03 -0.30425655537E+03  0.10535694756E+04  0.10100000352E+00 0. -1.
       -3    1    3    3    0  502  0.94120919711E+03  0.36271452350E+03 -0.93997719502E+03  0.13787652866E+04  0.10100000352E+00 0.  1.
</event>
<event>
 5   0  0.1281470E-04  0.2105673E+04  0.7818609E-02  0.8558748E-01
       -2   -1    0    0    0  501  0.00000000000E+00  0.00000000000E+00  0.56290439497E+03  0.56290439498E+03  0.25500000920E-02 0. -1.
        2   -1    0    0  501    0  0.00000000000E+00  0.00000000000E+00 -0.19691889852E+04  0.19691889852E+04  0.25500000920E-02 0.  1.
    10030    2    1    2    0    0  0.00000000000E+00  0.00000000000E+00 -0.14062845902E+04  0.25320933802E+04  0.21056734166E+04 0.  0.
        3    1    3    3  502    0 -0.80137585360E+03  0.49002204043E+03 -0.13129818524E+03  0.94845352152E+03  0.10100000352E+00 0.  1.
       -3    1    3    3    0  502  0.80137585360E+03 -0.49002204043E+03 -0.12749864050E+04  0.15836398587E+04  0.10100000352E+00 0. -1.
</event>
<event>
 5   0  0.1325673E-04  0.1951115E+04  0.7818609E-02  0.8629823E-01
        2   -1    0    0  501    0  0.00000000000E+00  0.00000000000E+00  0.13545248579E+04  0.13545248579E+04  0.25500000920E-02 0.  1.
       -2   -1    0    0    0  501  0.00000000000E+00  0.00000000000E+00 -0.70261709901E+03  0.70261709901E+03  0.25500000920E-02 0. -1.
    10030    2    1    2    0    0  0.00000000000E+00  0.00000000000E+00  0.65190775893E+03  0.20571419569E+04  0.19511148877E+04 0.  0.
        5    1    3    3  502    0  0.46321803808E+03 -0.51501758332E+03 -0.39830769457E+03  0.79905267128E+03  0.46999998093E+01 0. -1.
       -5    1    3    3    0  502 -0.46321803808E+03  0.51501758332E+03  0.10502154535E+04  0.12580892857E+04  0.46999998093E+01 0.  1.
</event>
<event>
 5   0  0.5846187E-05  0.1557072E+04  0.7818609E-02  0.8847363E-01
       -1   -1    0    0    0  501  0.00000000000E+00  0.00000000000E+00  0.47009615889E+03  0.47009615892E+03  0.50400001928E-02 0. -1.
        1   -1    0    0  501    0  0.00000000000E+00  0.00000000000E+00 -0.12893501659E+04  0.12893501659E+04  0.50400001928E-02 0.  1.
    10030    2    1    2    0    0  0.00000000000E+00  0.00000000000E+00 -0.81925400698E+03  0.17594463248E+04  0.15570723303E+04 0.  0.
        5    1    3    3  502    0 -0.35316136120E+03  0.40674143383E+03 -0.10447620199E+04  0.11754621684E+04  0.46999998093E+01 0.  1.
       -5    1    3    3    0  502  0.35316136120E+03 -0.40674143383E+03  0.22550801295E+03  0.58398415641E+03  0.46999998093E+01 0. -1.
</event>
<event>
 5   0  0.5933905E-05  0.2139804E+04  0.7818609E-02  0.8543909E-01
       -1   -1    0    0    0  501  0.00000000000E+00  0.00000000000E+00  0.78605348375E+03  0.78605348376E+03  0.50400001928E-02 0.  1.
        1   -1    0    0  501    0  0.00000000000E+00  0.00000000000E+00 -0.14562497621E+04  0.14562497621E+04  0.50400001928E-02 0. -1.
    10030    2    1    2    0    0  0.00000000000E+00  0.00000000000E+00 -0.67019627833E+03  0.22423032458E+04  0.21398039150E+04 0.  0.
        2    1    3    3  502    0  0.59328812588E+03  0.83928613179E+03 -0.23714161571E+02  0.10280828628E+04  0.25500000920E-02 0.  1.
       -2    1    3    3    0  502 -0.59328812588E+03 -0.83928613179E+03 -0.64648211676E+03  0.12142203830E+04  0.25500000920E-02 0. -1.
</event>
<event>
 5   0  0.1252477E-04  0.2093127E+04  0.7818609E-02  0.8564277E-01
        2   -1    0    0  501    0  0.00000000000E+00  0.00000000000E+00  0.85667345261E+03  0.85667345261E+03  0.25500000920E-02 0.  1.
       -2   -1    0    0    0  501  0.00000000000E+00  0.00000000000E+00 -0.12785444304E+04  0.12785444304E+04  0.25500000920E-02 0. -1.
    10030    2    1    2    0    0  0.00000000000E+00  0.00000000000E+00 -0.42187097780E+03  0.21352178830E+04  0.20931269159E+04 0.  0.
        4    1    3    3  502    0  0.85181812349E+02 -0.58090571469E+03 -0.10947210160E+04  0.12422250626E+04  0.12699999809E+01 0. -1.
       -4    1    3    3    0  502 -0.85181812349E+02  0.58090571469E+03  0.67285003817E+03  0.89299282040E+03  0.12699999809E+01 0.  1.
</event>
<event>
 5   0  0.1325673E-04  0.2023048E+04  0.7818609E-02  0.8595920E-01
       -2   -1    0    0    0  501  0.00000000000E+00  0.00000000000E+00  0.80540499631E+03  0.80540499631E+03  0.25500000920E-02 0. -1.
        2   -1    0    0  501    0  0.00000000000E+00  0.00000000000E+00 -0.12703933052E+04  0.12703933052E+04  0.25500000920E-02 0.  1.
    10030    2    1    2    0    0  0.00000000000E+00  0.00000000000E+00 -0.46498830885E+03  0.20757983015E+04  0.20230483091E+04 0.  0.
        5    1    3    3  502    0  0.92805958004E+03 -0.12142532780E+02  0.18013198524E+03  0.94546900917E+03  0.46999998093E+01 0. -1.
       -5    1    3    3    0  502 -0.92805958004E+03  0.12142532780E+02 -0.64512029409E+03  0.11303292923E+04  0.46999998093E+01 0.  1.
</event>
<event>
 5   0  0.6052292E-05  0.2085564E+04  0.7818609E-02  0.8567629E-01
        1   -1    0    0  501    0  0.00000000000E+00  0.00000000000E+00  0.25220549904E+04  0.25220549905E+04  0.50400001928E-02 0.  1.
       -1   -1    0    0    0  501  0.00000000000E+00  0.00000000000E+00 -0.43115428073E+03  0.43115428076E+03  0.50400001928E-02 0. -1.
    10030    2    1    2    0    0  0.00000000000E+00  0.00000000000E+00  0.20909007097E+04  0.29532092712E+04  0.20855644851E+04 0.  0.
        1    1    3    3  502    0  0.25665441093E+03  0.90073328835E+02  0.24709372126E+04  0.24858631096E+04  0.50400001928E-02 0.  1.
       -1    1    3    3    0  502 -0.25665441093E+03 -0.90073328835E+02 -0.38003650286E+03  0.46734616159E+03  0.50400001928E-02 0. -1.
</event>
<event>
 5   0  0.1349252E-04  0.2086747E+04  0.7818609E-02  0.8567104E-01
       -2   -1    0    0    0  501  0.00000000000E+00  0.00000000000E+00  0.56855885062E+03  0.56855885063E+03  0.25500000920E-02 0. -1.
        2   -1    0    0  501    0  0.00000000000E+00  0.00000000000E+00 -0.19147152327E+04  0.19147152327E+04  0.25500000920E-02 0.  1.
    10030    2    1    2    0    0  0.00000000000E+00  0.00000000000E+00 -0.13461563820E+04  0.24832740833E+04  0.20867470301E+04 0.  0.
        2    1    3    3  502    0  0.20799102480E+03 -0.87150380873E+01 -0.18897506590E+04  0.19011822037E+04  0.25500000920E-02 0.  1.
       -2    1    3    3    0  502 -0.20799102480E+03  0.87150380873E+01  0.54359427701E+03  0.58209187959E+03  0.25500000920E-02 0. -1.
</event>
<event>
 5   0  0.5933905E-05  0.2115526E+04  0.7818609E-02  0.8554435E-01
       -1   -1    0    0    0  501  0.00000000000E+00  0.00000000000E+00  0.13197046098E+04  0.13197046098E+04  0.50400001928E-02 0. -1.
        1   -1    0    0  501    0  0.00000000000E+00  0.00000000000E+00 -0.84781295912E+03  0.84781295914E+03  0.50400001928E-02 0.  1.
    10030    2    1    2    0    0  0.00000000000E+00  0.00000000000E+00  0.47189165067E+03  0.21675175689E+04  0.21155261005E+04 0.  0.
        2    1    3    3  502    0  0.59794259959E+03 -0.60555049541E+03 -0.40769345754E+03  0.94363166025E+03  0.25500000920E-02 0.  1.
       -2    1    3    3    0  502 -0.59794259959E+03  0.60555049541E+03  0.87958510821E+03  0.12238859087E+04  0.25500000920E-02 0. -1.
</event>
<event>
 5   0  0.1235817E-04  0.2097516E+04  0.7818609E-02  0.8562339E-01
       -2   -1    0    0    0  501  0.00000000000E+00  0.00000000000E+00  0.50546518430E+03  0.50546518431E+03  0.25500000920E-02 0. -1.
        2   -1    0    0  501    0  0.00000000000E+00  0.00000000000E+00 -0.21760014310E+04  0.21760014310E+04  0.25500000920E-02 0.  1.
    10030    2    1    2    0    0  0.00000000000E+00  0.00000000000E+00 -0.16705362467E+04  0.26814666153E+04  0.20975156394E+04 0.  0.
        1    1    3    3  502    0 -0.64972150946E+03  0.34865659621E+03  0.11814284114E+03  0.74676448287E+03  0.50400001928E-02 0. -1.
       -1    1    3    3    0  502  0.64972150946E+03 -0.34865659621E+03 -0.17886790878E+04  0.19347021324E+04  0.50400001928E-02 0.  1.
</event>
<event>
 5   0  0.6221148E-05  0.2091433E+04  0.7818609E-02  0.8565027E-01
        1   -1    0    0  501    0  0.00000000000E+00  0.00000000000E+00  0.15203623736E+04  0.15203623736E+04  0.50400001928E-02 0.  1.
       -1   -1    0    0    0  501  0.00000000000E+00  0.00000000000E+00 -0.71925170731E+03  0.71925170733E+03  0.50400001928E-02 0. -1.
    10030    2    1    2    0    0  0.00000000000E+00  0.00000000000E+00  0.80111066627E+03  0.22396140809E+04  0.20914332243E+04 0.  0.
        3    1    3    3  502    0  0.42698981081E+03 -0.92942861762E+03  0.63361099000E+03  0.12031711228E+04  0.10100000352E+00 0. -1.
       -3    1    3    3    0  502 -0.42698981081E+03  0.92942861762E+03  0.16749967627E+03  0.10364429582E+04  0.10100000352E+00 0.  1.
</event>
<event>
 5   0  0.6221148E-05  0.2115844E+04  0.7818609E-02  0.8554296E-01
       -1   -1    0    0    0  501  0.00000000000E+00  0.00000000000E+00  0.14962178379E+04  0.14962178379E+04  0.50400001928E-02 0.  1.
        1   -1    0    0  501    0  0.00000000000E+00  0.00000000000E+00 -0.74801867630E+03  0.74801867632E+03  0.50400001928E-02 0. -1.
    10030    2    1    2    0    0  0.00000000000E+00  0.00000000000E+00  0.74819916159E+03  0.22442365142E+04  0.21158439324E+04 0.  0.
        3    1    3    3  502    0 -0.76489047212E+03  0.12938873469E+03 -0.38885415672E+03  0.86775943925E+03  0.10100000352E+00 0. -1.
       -3    1    3    3    0  502  0.76489047212E+03 -0.12938873469E+03  0.11370533183E+04  0.13764770750E+04  0.10100000352E+00 0.  1.
</event>
<event>
 5   0  0.1252477E-04  0.2235546E+04  0.7818609E-02  0.8503777E-01
       -2   -1    0    0    0  501  0.00000000000E+00  0.00000000000E+00  0.81983170794E+03  0.81983170794E+03  0.25500000920E-02 0. -1.
        2   -1    0    0  501    0  0.00000000000E+00  0.00000000000E+00 -0.15239913269E+04  0.15239913269E+04  0.25500000920E-02 0.  1.
    10030    2    1    2    0    0  0.00000000000E+00  0.00000000000E+00 -0.70415961898E+03  0.23438230349E+04  0.22355459400E+04 0.  0.
        4    1    3    3  502    0  0.62119782420E+03  0.92727114980E+03 -0.28833813000E+03  0.11527614724E+04  0.12699999809E+01 0.  1.
       -4    1    3    3    0  502 -0.62119782420E+03 -0.92727114980E+03 -0.41582148898E+03  0.11910615625E+04  0.12699999809E+01 0. -1.
</event>
<event>
 5   0  0.1235817E-04  0.2059854E+04  0.7818609E-02  0.8579137E-01
        2   -1    0    0  501    0  0.00000000000E+00  0.00000000000E+00  0.12435086937E+04  0.12435086937E+04  0.25500000920E-02 0.  1.
       -2   -1    0    0    0  501  0.00000000000E+00  0.00000000000E+00 -0.85302959448E+03  0.85302959448E+03  0.25500000920E-02 0. -1.
    10030    2    1    2    0    0  0.00000000000E+00  0.00000000000E+00  0.39047909925E+03  0.20965382882E+04  0.20598540888E+04 0.  0.
        1    1    3    3  502    0  0.13870359740E+03  0.81354492323E+03  0.82237491898E+03  0.11650727606E+04  0.50400001928E-02 0.  1.
       -1    1    3    3    0  502 -0.13870359740E+03 -0.81354492323E+03 -0.43189581973E+03  0.93146552764E+03  0.50400001928E-02 0. -1.
</event>
<event>
 5   0  0.4615125E-05  0.1563298E+04  0.7818609E-02  0.8843418E-01
        4   -1    0    0  501    0  0.00000000000E+00  0.00000000000E+00  0.80489473890E+03  0.80489574083E+03  0.12699999809E+01 0.  1.
       -4   -1    0    0    0  501  0.00000000000E+00  0.00000000000E+00 -0.75907215987E+03  0.75907322228E+03  0.12699999809E+01 0. -1.
    10030    2    1    2    0    0  0.00000000000E+00  0.00000000000E+00  0.45822579029E+02  0.15639689631E+04  0.15632975433E+04 0.  0.
        2    1    3    3  502    0  0.54189262645E+02  0.35228685683E+03  0.71886248998E+03  0.80237509009E+03  0.25500000920E-02 0.  1.
       -2    1    3    3    0  502 -0.54189262645E+02 -0.35228685683E+03 -0.67303991095E+03  0.76159387302E+03  0.25500000920E-02 0. -1.
</event>
<event>
 5   0  0.6263616E-05  0.2108516E+04  0.7818609E-02  0.8557501E-01
       -1   -1    0    0    0  501  0.00000000000E+00  0.00000000000E+00  0.69443835874E+03  0.69443835876E+03  0.50400001928E-02 0.  1.
        1   -1    0    0  501    0  0.00000000000E+00  0.00000000000E+00 -0.16005155827E+04  0.16005155827E+04  0.50400001928E-02 0. -1.
    10030    2    1    2    0    0  0.00000000000E+00  0.00000000000E+00 -0.90607722393E+03  0.22949539414E+04  0.21085155104E+04 0.  0.
        4    1    3    3  502    0  0.13966610194E+03  0.18808495897E+03  0.66574832343E+03  0.70576555234E+03  0.12699999809E+01 0.  1.
       -4    1    3    3    0  502 -0.13966610194E+03 -0.18808495897E+03 -0.15718255474E+04  0.15891883891E+04  0.12699999809E+01 0. -1.
</event>
<event>
 5   0  0.5846187E-05  0.2060222E+04  0.7818609E-02  0.8578971E-01
        1   -1    0    0  501    0  0.00000000000E+00  0.00000000000E+00  0.11072345031E+04  0.11072345031E+04  0.50400001928E-02 0.  1.
       -1   -1    0    0    0  501  0.00000000000E+00  0.00000000000E+00 -0.95835960528E+03  0.95835960529E+03  0.50400001928E-02 0. -1.
    10030    2    1    2    0    0  0.00000000000E+00  0.00000000000E+00  0.14887489780E+03  0.20655941084E+04  0.20602221447E+04 0.  0.
        5    1    3    3  502    0  0.26958098066E+03  0.68749335755E+03 -0.64561741427E+03  0.98090007514E+03  0.46999998093E+01 0. -1.
       -5    1    3    3    0  502 -0.26958098066E+03 -0.68749335755E+03  0.79449231206E+03  0.10846940332E+04  0.46999998093E+01 0.  1.
</event>
<event>
 5   0  0.1349252E-04  0.2104821E+04  0.7818609E-02  0.8559123E-01
       -2   -1    0    0    0  501  0.00000000000E+00  0.00000000000E+00  0.69408385418E+03  0.69408385418E+03  0.25500000920E-02 0. -1.
        2   -1    0    0  501    0  0.00000000000E+00  0.00000000000E+00 -0.15957258885E+04  0.15957258885E+04  0.25500000920E-02 0.  1.
    10030    2    1    2    0    0  0.00000000000E+00  0.00000000000E+00 -0.90164203434E+03  0.22898097427E+04  0.21048207286E+04 0.  0.
        2    1    3    3  502    0 -0.12414818894E+02 -0.71258485214E+03  0.39159814271E+03  0.81319149320E+03  0.25500000920E-02 0. -1.
       -2    1    3    3    0  502  0.12414818894E+02  0.71258485214E+03 -0.12932401771E+04  0.14766182495E+04  0.25500000920E-02 0.  1.
</event>
<event>
 5   0  0.6263616E-05  0.2099361E+04  0.7818609E-02  0.8561525E-01
        1   -1    0    0  501    0  0.00000000000E+00  0.00000000000E+00  0.13840250205E+04  0.13840250205E+04  0.50400001928E-02 0.  1.
       -1   -1    0    0    0  501  0.00000000000E+00  0.00000000000E+00 -0.79610484342E+03  0.79610484343E+03  0.50400001928E-02 0. -1.
    10030    2    1    2    0    0  0.00000000000E+00  0.00000000000E+00  0.58792017708E+03  0.21801298639E+04  0.20993608763E+04 0.  0.
        4    1    3    3  502    0 -0.74428961378E+03 -0.66076098742E+03 -0.52422150042E+02  0.99665530972E+03  0.12699999809E+01 0.  1.
       -4    1    3    3    0  502  0.74428961378E+03  0.66076098742E+03  0.64034232712E+03  0.11834745542E+04  0.12699999809E+01 0. -1.
</event>
<event>
 5   0  0.1325673E-04  0.2026671E+04  0.7818609E-02  0.8594252E-01
       -2   -1    0    0    0  501  0.00000000000E+00  0.00000000000E+00  0.69581204414E+03  0.69581204415E+03  0.25500000920E-02 0.  1.
        2   -1    0    0  501    0  0.00000000000E+00  0.00000000000E+00 -0.14757562399E+04  0.14757562399E+04  0.25500000920E-02 0. -1.
    10030    2    1    2    0    0  0.00000000000E+00  0.00000000000E+00 -0.77994419576E+03  0.21715682841E+04  0.20266711287E+04 0.  0.
        5    1    3    3  502    0 -0.97358946704E+03 -0.91852240738E+02 -0.67450115657E+03  0.11879760876E+04  0.46999998093E+01 0. -1.
       -5    1    3    3    0  502  0.97358946704E+03  0.91852240738E+02 -0.10544303919E+03  0.98359219647E+03  0.46999998093E+01 0.  1.
</event>
<event>
 5   0  0.5846187E-05  0.2086918E+04  0.7818609E-02  0.8567028E-01
       -1   -1    0    0    0  501  0.00000000000E+00  0.00000000000E+00  0.56969398982E+03  0.56969398984E+03  0.50400001928E-02 0.  1.
        1   -1    0    0  501    0  0.00000000000E+00  0.00000000000E+00 -0.19112128370E+04  0.19112128370E+04  0.50400001928E-02 0. -1.
    10030    2    1    2    0    0  0.00000000000E+00  0.00000000000E+00 -0.13415188471E+04  0.24809068268E+04  0.20869177909E+04 0.  0.
        5    1    3    3  502    0  0.16085020396E+03  0.13742174124E+03  0.54391796586E+03  0.58363204732E+03  0.46999998093E+01 0.  1.
       -5    1    3    3    0  502 -0.16085020396E+03 -0.13742174124E+03 -0.18854368130E+04  0.18972747795E+04  0.46999998093E+01 0. -1.
</event>
<event>
 5   0  0.6052292E-05  0.2071946E+04  0.7818609E-02  0.8573703E-01
       -1   -1    0    0    0  501  0.00000000000E+00  0.00000000000E+00  0.10859257897E+04  0.10859257897E+04  0.50400001928E-02 0. -1.
        1   -1    0    0  501    0  0.00000000000E+00  0.00000000000E+00 -0.98831849658E+03  0.98831849660E+03  0.50400001928E-02 0.  1.
    10030    2    1    2    0    0  0.00000000000E+00  0.00000000000E+00  0.97607293068E+02  0.20742442863E+04  0.20719464702E+04 0.  0.
        1    1    3    3  502    0 -0.75371028980E+01  0.89122100884E+03 -0.47990025884E+03  0.10122430306E+04  0.50400001928E-02 0.  1.
       -1    1    3    3    0  502  0.75371028980E+01 -0.89122100884E+03  0.57750755191E+03  0.10620012557E+04  0.50400001928E-02 0. -1.
</event>
<event>
 5   0  0.1349252E-04  0.2113060E+04  0.7818609E-02  0.8555512E-01
       -2   -1    0    0    0  501  0.00000000000E+00  0.00000000000E+00  0.85904627055E+03  0.85904627055E+03  0.25500000920E-02 0. -1.
        2   -1    0    0  501    0  0.00000000000E+00  0.00000000000E+00 -0.12994128606E+04  0.12994128606E+04  0.25500000920E-02 0.  1.
    10030    2    1    2    0    0  0.00000000000E+00  0.00000000000E+00 -0.44036659002E+03  0.21584591311E+04  0.21130601239E+04 0.  0.
        2    1    3    3  502    0  0.13307149538E+02 -0.79035367133E+03 -0.93625792276E+03  0.12253223674E+04  0.25500000920E-02 0.  1.
       -2    1    3    3    0  502 -0.13307149538E+02  0.79035367133E+03  0.49589133274E+03  0.93313676377E+03  0.25500000920E-02 0. -1.
</event>
<event>
 5   0  0.5846187E-05  0.2121646E+04  0.7818609E-02  0.8551768E-01
       -1   -1    0    0    0  501  0.00000000000E+00  0.00000000000E+00  0.71295684812E+03  0.71295684814E+03  0.50400001928E-02 0. -1.
        1   -1    0    0  501    0  0.00000000000E+00  0.00000000000E+00 -0.15784200933E+04  0.15784200933E+04  0.50400001928E-02 0.  1.
    10030    2    1    2    0    0  0.00000000000E+00  0.00000000000E+00 -0.86546324517E+03  0.22913769414E+04  0.21216459787E+04 0.  0.
        5    1    3    3  502    0 -0.29316459649E+03  0.21052851314E+03  0.64459475063E+03  0.73877751591E+03  0.46999998093E+01 0. -1.
       -5    1    3    3    0  502  0.29316459649E+03 -0.21052851314E+03 -0.15100579958E+04  0.15525994255E+04  0.46999998093E+01 0.  1.
</event>
<event>
 5   0  0.1235817E-04  0.1725957E+04  0.7818609E-02  0.8746697E-01
       -2   -1    0    0    0  501  0.00000000000E+00  0.00000000000E+00  0.74103183978E+03  0.74103183979E+03  0.25500000920E-02 0. -1.
        2   -1    0    0  501    0  0.00000000000E+00  0.00000000000E+00 -0.10049932088E+04  0.10049932088E+04  0.25500000920E-02 0.  1.
    10030    2    1    2    0    0  0.00000000000E+00  0.00000000000E+00 -0.26396136905E+03  0.17460250486E+04  0.17259570870E+04 0.  0.
        1    1    3    3  502    0  0.71020780248E+03  0.45211556444E+03 -0.32373236302E+03  0.90200124679E+03  0.50400001928E-02 0.  1.
       -1    1    3    3    0  502 -0.71020780248E+03 -0.45211556444E+03  0.59770993971E+02  0.84402380183E+03  0.50400001928E-02 0. -1.
</event>
<event>
 5   0  0.6052292E-05  0.2082509E+04  0.7818609E-02  0.8568988E-01
       -1   -1    0    0    0  501  0.00000000000E+00  0.00000000000E+00  0.78322123488E+03  0.78322123490E+03  0.50400001928E-02 0. -1.
        1   -1    0    0  501    0  0.00000000000E+00  0.00000000000E+00 -0.13842972714E+04  0.13842972714E+04  0.50400001928E-02 0.  1.
    10030    2    1    2    0    0  0.00000000000E+00  0.00000000000E+00 -0.60107603647E+03  0.21675185063E+04  0.20825090812E+04 0.  0.
        1    1    3    3  502    0 -0.67580762392E+03  0.22979171031E+03  0.48849113353E+03  0.86495304048E+03  0.50400001928E-02 0. -1.
       -1    1    3    3    0  502  0.67580762392E+03 -0.22979171031E+03 -0.10895671700E+04  0.13025654658E+04  0.50400001928E-02 0.  1.
</event>
<event>
 5   0  0.5933905E-05  0.2110677E+04  0.7818609E-02  0.8556554E-01
        1   -1    0    0  501    0  0.00000000000E+00  0.00000000000E+00  0.16420342296E+04  0.16420342296E+04  0.50400001928E-02 0. -1.
       -1   -1    0    0    0  501  0.00000000000E+00  0.00000000000E+00 -0.67826826322E+03  0.67826826324E+03  0.50400001928E-02 0.  1.
    10030    2    1    2    0    0  0.00000000000E+00  0.00000000000E+00  0.96376596640E+03  0.23203024929E+04  0.21106773369E+04 0.  0.
        2    1    3    3  502    0 -0.56994119919E+03 -0.47562440924E+03  0.13065082669E+04  0.15026694249E+04  0.25500000920E-02 0. -1.
       -2    1    3    3    0  502  0.56994119919E+03  0.47562440924E+03 -0.34274230050E+03  0.81763306792E+03  0.25500000920E-02 0.  1.
</event>
<event>
 5   0  0.1252477E-04  0.2099262E+04  0.7818609E-02  0.8561569E-01
       -2   -1    0    0    0  501  0.00000000000E+00  0.00000000000E+00  0.78557756461E+03  0.78557756462E+03  0.25500000920E-02 0. -1.
        2   -1    0    0  501    0  0.00000000000E+00  0.00000000000E+00 -0.14024395487E+04  0.14024395487E+04  0.25500000920E-02 0.  1.
    10030    2    1    2    0    0  0.00000000000E+00  0.00000000000E+00 -0.61686198412E+03  0.21880171134E+04  0.20992618181E+04 0.  0.
        4    1    3    3  502    0 -0.61175148875E+03  0.78333436619E+03 -0.66014553804E+03  0.11931665255E+04  0.12699999809E+01 0.  1.
       -4    1    3    3    0  502  0.61175148875E+03 -0.78333436619E+03  0.43283553920E+02  0.99485058787E+03  0.12699999809E+01 0. -1.
</event>
<event>
 5   0  0.1349252E-04  0.2122291E+04  0.7818609E-02  0.8551487E-01
       -2   -1    0    0    0  501  0.00000000000E+00  0.00000000000E+00  0.83532444436E+03  0.83532444437E+03  0.25500000920E-02 0. -1.
        2   -1    0    0  501    0  0.00000000000E+00  0.00000000000E+00 -0.13480142480E+04  0.13480142480E+04  0.25500000920E-02 0.  1.
    10030    2    1    2    0    0  0.00000000000E+00  0.00000000000E+00 -0.51268980360E+03  0.21833386923E+04  0.21222905104E+04 0.  0.
        2    1    3    3  502    0  0.74326172637E+03 -0.53139725207E+03 -0.81150480760E+03  0.12220315406E+04  0.25500000920E-02 0.  1.
       -2    1    3    3    0  502 -0.74326172637E+03  0.53139725207E+03  0.29881500400E+03  0.96130715176E+03  0.25500000920E-02 0. -1.
</event>
<event>
 5   0  0.1252477E-04  0.2093392E+04  0.7818609E-02  0.8564160E-01
        2   -1    0    0  501    0  0.00000000000E+00  0.00000000000E+00  0.20096478894E+04  0.20096478894E+04  0.25500000920E-02 0. -1.
       -2   -1    0    0    0  501  0.00000000000E+00  0.00000000000E+00 -0.54515629603E+03  0.54515629603E+03  0.25500000920E-02 0.  1.
    10030    2    1    2    0    0  0.00000000000E+00  0.00000000000E+00  0.14644915934E+04  0.25548041855E+04  0.20933916974E+04 0.  0.
        4    1    3    3  502    0 -0.24996733429E+03  0.46764540287E+03 -0.36910225991E+03  0.64607583317E+03  0.12699999809E+01 0.  1.
       -4    1    3    3    0  502  0.24996733429E+03 -0.46764540287E+03  0.18335938533E+04  0.19087283523E+04  0.12699999809E+01 0. -1.
</event>
<event>
 5   0  0.5933905E-05  0.2108031E+04  0.7818609E-02  0.8557714E-01
       -1   -1    0    0    0  501  0.00000000000E+00  0.00000000000E+00  0.74937913199E+03  0.74937913201E+03  0.50400001928E-02 0.  1.
        1   -1    0    0  501    0  0.00000000000E+00  0.00000000000E+00 -0.14824916004E+04  0.14824916004E+04  0.50400001928E-02 0. -1.
    10030    2    1    2    0    0  0.00000000000E+00  0.00000000000E+00 -0.73311246839E+03  0.22318707324E+04  0.21080306152E+04 0.  0.
        2    1    3    3  502    0  0.33155999868E+03 -0.14565847356E+03 -0.14145550850E+04  0.14601761922E+04  0.25500000920E-02 0. -1.
       -2    1    3    3    0  502 -0.33155999868E+03  0.14565847356E+03  0.68144261663E+03  0.77169454022E+03  0.25500000920E-02 0.  1.
</event>
<event>
 5   0  0.1235817E-04  0.2065593E+04  0.7818609E-02  0.8576553E-01
       -2   -1    0    0    0  501  0.00000000000E+00  0.00000000000E+00  0.66504232916E+03  0.66504232916E+03  0.25500000920E-02 0.  1.
        2   -1    0    0  501    0  0.00000000000E+00  0.00000000000E+00 -0.16039105797E+04  0.16039105797E+04  0.25500000920E-02 0. -1.
    10030    2    1    2    0    0  0.00000000000E+00  0.00000000000E+00 -0.93886825058E+03  0.22689529089E+04  0.20655928231E+04 0.  0.
        1    1    3    3  502    0  0.48532382766E+03  0.32831841089E+03 -0.14036578153E+04  0.15210481449E+04  0.50400001928E-02 0. -1.
       -1    1    3    3    0  502 -0.48532382766E+03 -0.32831841089E+03  0.46478956468E+03  0.74790476404E+03  0.50400001928E-02 0.  1.
</event>
<event>
 5   0  0.6263616E-05  0.2090809E+04  0.7818609E-02  0.8565303E-01
        1   -1    0    0  501    0  0.00000000000E+00  0.00000000000E+00  0.10242162120E+04  0.10242162120E+04  0.50400001928E-02 0. -1.
       -1   -1    0    0    0  501  0.00000000000E+00  0.00000000000E+00 -0.10670310161E+04  0.10670310161E+04  0.50400001928E-02 0.  1.
    10030    2    1    2    0    0  0.00000000000E+00  0.00000000000E+00 -0.42814804115E+02  0.20912472281E+04  0.20908089013E+04 0.  0.
        4    1    3    3  502    0  0.27411800294E+03 -0.14892202524E+03 -0.10193893011E+04  0.10660556314E+04  0.12699999809E+01 0.  1.
       -4    1    3    3    0  502 -0.27411800294E+03  0.14892202524E+03  0.97657449694E+03  0.10251915968E+04  0.12699999809E+01 0. -1.
</event>
<event>
 5   0  0.5933905E-05  0.2090114E+04  0.7818609E-02  0.8565611E-01
       -1   -1    0    0    0  501  0.00000000000E+00  0.00000000000E+00  0.92124618757E+03  0.92124618758E+03  0.50400001928E-02 0. -1.
        1   -1    0    0  501    0  0.00000000000E+00  0.00000000000E+00 -0.11855076533E+04  0.11855076533E+04  0.50400001928E-02 0.  1.
    10030    2    1    2    0    0  0.00000000000E+00  0.00000000000E+00 -0.26426146574E+03  0.21067538409E+04  0.20901142610E+04 0.  0.
        2    1    3    3  502    0 -0.54886636364E+03  0.44386304097E+03  0.64463767057E+03  0.95594268165E+03  0.25500000920E-02 0. -1.
       -2    1    3    3    0  502  0.54886636364E+03 -0.44386304097E+03 -0.90889913631E+03  0.11508111593E+04  0.25500000920E-02 0.  1.
</event>
<event>
 5   0  0.6052292E-05  0.2089711E+04  0.7818609E-02  0.8565789E-01
        1   -1    0    0  501    0  0.00000000000E+00  0.00000000000E+00  0.11573411656E+04  0.11573411656E+04  0.50400001928E-02 0. -1.
       -1   -1    0    0    0  501  0.00000000000E+00  0.00000000000E+00 -0.94330300516E+03  0.94330300517E+03  0.50400001928E-02 0.  1.
    10030    2    1    2    0    0  0.00000000000E+00  0.00000000000E+00  0.21403816045E+03  0.21006441708E+04  0.20897113672E+04 0.  0.
        1    1    3    3  502    0 -0.76725103342E+03  0.65827873959E+03  0.37244280855E+03  0.10773665546E+04  0.50400001928E-02 0.  1.
       -1    1    3    3    0  502  0.76725103342E+03 -0.65827873959E+03 -0.15840464809E+03  0.10232776162E+04  0.50400001928E-02 0. -1.
</event>
<event>
 5   0  0.1235817E-04  0.2120957E+04  0.7818609E-02  0.8552067E-01
        2   -1    0    0  501    0  0.00000000000E+00  0.00000000000E+00  0.16087331076E+04  0.16087331076E+04  0.25500000920E-02 0. -1.
       -2   -1    0    0    0  501  0.00000000000E+00  0.00000000000E+00 -0.69906854583E+03  0.69906854583E+03  0.25500000920E-02 0.  1.
    10030    2    1    2    0    0  0.00000000000E+00  0.00000000000E+00  0.90966456176E+03  0.23078016534E+04  0.21209570615E+04 0.  0.
        1    1    3    3  502    0  0.41643203321E+03 -0.69585250164E+03  0.11983984759E+04  0.14469917932E+04  0.50400001928E-02 0.  1.
       -1    1    3    3    0  502 -0.41643203321E+03  0.69585250164E+03 -0.28873391417E+03  0.86080986027E+03  0.50400001928E-02 0. -1.
</event>
<event>
 5   0  0.6221148E-05  0.2097181E+04  0.7818609E-02  0.8562486E-01
       -1   -1    0    0    0  501  0.00000000000E+00  0.00000000000E+00  0.17610403926E+04  0.17610403926E+04  0.50400001928E-02 0. -1.
        1   -1    0    0  501    0  0.00000000000E+00  0.00000000000E+00 -0.62437041720E+03  0.62437041722E+03  0.50400001928E-02 0.  1.
    10030    2    1    2    0    0  0.00000000000E+00  0.00000000000E+00  0.11366699754E+04  0.23854108099E+04  0.20971805117E+04 0.  0.
        3    1    3    3  502    0 -0.58758415563E+03 -0.18974581463E+03 -0.39566079394E+03  0.73335263562E+03  0.10100000352E+00 0.  1.
       -3    1    3    3    0  502  0.58758415563E+03  0.18974581463E+03  0.15323307694E+04  0.16520581742E+04  0.10100000352E+00 0. -1.
</event>
<event>
 5   0  0.5846187E-05  0.1874970E+04  0.7818609E-02  0.8667417E-01
        1   -1    0    0  501    0  0.00000000000E+00  0.00000000000E+00  0.10367538671E+04  0.10367538671E+04  0.50400001928E-02 0.  1.
       -1   -1    0    0    0  501  0.00000000000E+00  0.00000000000E+00 -0.84772097324E+03  0.84772097325E+03  0.50400001928E-02 0. -1.
    10030    2    1    2    0    0  0.00000000000E+00  0.00000000000E+00  0.18903289384E+03  0.18844748403E+04  0.18749698635E+04 0.  0.
        5    1    3    3  502    0  0.56086612737E+03  0.16643442008E+03 -0.64171639344E+03  0.86838542630E+03  0.46999998093E+01 0. -1.
       -5    1    3    3    0  502 -0.56086612737E+03 -0.16643442008E+03  0.83074928728E+03  0.10160894140E+04  0.46999998093E+01 0.  1.
</event>
<event>
 5   0  0.6221148E-05  0.2091602E+04  0.7818609E-02  0.8564952E-01
        1   -1    0    0  501    0  0.00000000000E+00  0.00000000000E+00  0.11127598024E+04  0.11127598024E+04  0.50400001928E-02 0. -1.
       -1   -1    0    0    0  501  0.00000000000E+00  0.00000000000E+00 -0.98287117450E+03  0.98287117451E+03  0.50400001928E-02 0.  1.
    10030    2    1    2    0    0  0.00000000000E+00  0.00000000000E+00  0.12988862793E+03  0.20956309770E+04  0.20916018110E+04 0.  0.
        3    1    3    3  502    0  0.43207454126E+03  0.16962070587E+03 -0.87400552073E+03  0.98961874150E+03  0.10100000352E+00 0.  1.
       -3    1    3    3    0  502 -0.43207454126E+03 -0.16962070587E+03  0.10038941487E+04  0.11060122355E+04  0.10100000352E+00 0. -1.
</event>
<event>
 5   0  0.1349252E-04  0.2076490E+04  0.7818609E-02  0.8571671E-01
       -2   -1    0    0    0  501  0.00000000000E+00  0.00000000000E+00  0.92407366284E+03  0.92407366284E+03  0.25500000920E-02 0.  1.
        2   -1    0    0  501    0  0.00000000000E+00  0.00000000000E+00 -0.11665224784E+04  0.11665224784E+04  0.25500000920E-02 0. -1.
    10030    2    1    2    0    0  0.00000000000E+00  0.00000000000E+00 -0.24244881559E+03  0.20905961413E+04  0.20764900187E+04 0.  0.
        2    1    3    3  502    0 -0.63319466497E+03 -0.81109335699E+03 -0.26052902416E+03  0.10614533857E+04  0.25500000920E-02 0. -1.
       -2    1    3    3    0  502  0.63319466497E+03  0.81109335699E+03  0.18080208562E+02  0.10291427556E+04  0.25500000920E-02 0.  1.
</event>
<event>
 5   0  0.1252477E-04  0.2206115E+04  0.7818609E-02  0.8515887E-01
       -2   -1    0    0    0  501  0.00000000000E+00  0.00000000000E+00  0.79356332997E+03  0.79356332997E+03  0.25500000920E-02 0. -1.
        2   -1    0    0  501    0  0.00000000000E+00  0.00000000000E+00 -0.15332557704E+04  0.15332557704E+04  0.25500000920E-02 0.  1.
    10030    2    1    2    0    0  0.00000000000E+00  0.00000000000E+00 -0.73969244042E+03  0.23268191004E+04  0.22061147340E+04 0.  0.
        4    1    3    3  502    0 -0.99366784816E+03  0.28970665206E+03  0.32369320943E+02  0.10355458090E+04  0.12699999809E+01 0. -1.
       -4    1    3    3    0  502  0.99366784816E+03 -0.28970665206E+03 -0.77206176136E+03  0.12912732914E+04  0.12699999809E+01 0.  1.
</event>
<event>
 5   0  0.1252477E-04  0.2122330E+04  0.7818609E-02  0.8551470E-01
       -2   -1    0    0    0  501  0.00000000000E+00  0.00000000000E+00  0.65107251997E+03  0.65107251998E+03  0.25500000920E-02 0.  1.
        2   -1    0    0  501    0  0.00000000000E+00  0.00000000000E+00 -0.17295634231E+04  0.17295634231E+04  0.25500000920E-02 0. -1.
    10030    2    1    2    0    0  0.00000000000E+00  0.00000000000E+00 -0.10784909032E+04  0.23806359431E+04  0.21223300557E+04 0.  0.
        4    1    3    3  502    0 -0.23114941297E+03  0.94797580194E+03 -0.71368650907E+02  0.97835743438E+03  0.12699999809E+01 0.  1.
       -4    1    3    3    0  502  0.23114941297E+03 -0.94797580194E+03 -0.10071222523E+04  0.14022785087E+04  0.12699999809E+01 0. -1.
</event>
<event>
 5   0  0.4615125E-05  0.2094143E+04  0.7818609E-02  0.8563828E-01
       -3   -1    0    0    0  501  0.00000000000E+00  0.00000000000E+00  0.73492194970E+03  0.73492195664E+03  0.10100000352E+00 0.  1.
        3   -1    0    0  501    0  0.00000000000E+00  0.00000000000E+00 -0.14918022154E+04  0.14918022188E+04  0.10100000352E+00 0. -1.
    10030    2    1    2    0    0  0.00000000000E+00  0.00000000000E+00 -0.75688026569E+03  0.22267241755E+04  0.20941425016E+04 0.  0.
        4    1    3    3  502    0  0.73801507027E+03  0.61556436903E+03 -0.82041282260E+03  0.12635919234E+04  0.12699999809E+01 0. -1.
       -4    1    3    3    0  502 -0.73801507027E+03 -0.61556436903E+03  0.63532556909E+02  0.96313225211E+03  0.12699999809E+01 0.  1.
</event>
<event>
 5   0  0.6221148E-05  0.2167145E+04  0.7818609E-02  0.8532229E-01
        1   -1    0    0  501    0  0.00000000000E+00  0.00000000000E+00  0.15272760642E+04  0.15272760642E+04  0.50400001928E-02 0. -1.
       -1   -1    0    0    0  501  0.00000000000E+00  0.00000000000E+00 -0.76877318444E+03  0.76877318445E+03  0.50400001928E-02 0.  1.
    10030    2    1    2    0    0  0.00000000000E+00  0.00000000000E+00  0.75850287980E+03  0.22960492487E+04  0.21671445577E+04 0.  0.
        3    1    3    3  502    0 -0.51266648682E+03 -0.23870155262E+03 -0.60002317755E+03  0.82451997049E+03  0.10100000352E+00 0.  1.
       -3    1    3    3    0  502  0.51266648682E+03  0.23870155262E+03  0.13585260574E+04  0.14715292782E+04  0.10100000352E+00 0. -1.
</event>
<event>
 5   0  0.6263616E-05  0.1519753E+04  0.7818609E-02  0.8871423E-01
        1   -1    0    0  501    0  0.00000000000E+00  0.00000000000E+00  0.19121579259E+04  0.19121579259E+04  0.50400001928E-02 0. -1.
       -1   -1    0    0    0  501  0.00000000000E+00  0.00000000000E+00 -0.30196900851E+03  0.30196900855E+03  0.50400001928E-02 0.  1.
    10030    2    1    2    0    0  0.00000000000E+00  0.00000000000E+00  0.16101889174E+04  0.22141269344E+04  0.15197531813E+04 0.  0.
        4    1    3    3  502    0 -0.18706044303E+03 -0.73543116071E+03  0.86264139249E+03  0.11489135679E+04  0.12699999809E+01 0. -1.
       -4    1    3    3    0  502  0.18706044303E+03  0.73543116071E+03  0.74754752488E+03  0.10652133666E+04  0.12699999809E+01 0.  1.
</event>
<event>
 5   0  0.1325673E-04  0.2108723E+04  0.7818609E-02  0.8557411E-01
       -2   -1    0    0    0  501  0.00000000000E+00  0.00000000000E+00  0.43548115949E+03  0.43548115950E+03  0.25500000920E-02 0.  1.
        2   -1    0    0  501    0  0.00000000000E+00  0.00000000000E+00 -0.25527583457E+04  0.25527583457E+04  0.25500000920E-02 0. -1.
    10030    2    1    2    0    0  0.00000000000E+00  0.00000000000E+00 -0.21172771862E+04  0.29882395052E+04  0.21087229920E+04 0.  0.
        5    1    3    3  502    0  0.81457002257E+03  0.36148003888E+03 -0.18570800282E+04  0.20598447663E+04  0.46999998093E+01 0.  1.
       -5    1    3    3    0  502 -0.81457002257E+03 -0.36148003888E+03 -0.26019715804E+03  0.92839473891E+03  0.46999998093E+01 0. -1.
</event>
<event>
 5   0  0.6221148E-05  0.2086486E+04  0.7818609E-02  0.8567220E-01
        1   -1    0    0  501    0  0.00000000000E+00  0.00000000000E+00  0.19918894027E+04  0.19918894027E+04  0.50400001928E-02 0. -1.
       -1   -1    0    0    0  501  0.00000000000E+00  0.00000000000E+00 -0.54639350749E+03  0.54639350751E+03  0.50400001928E-02 0.  1.
    10030    2    1    2    0    0  0.00000000000E+00  0.00000000000E+00  0.14454958952E+04  0.25382829102E+04  0.20864855018E+04 0.  0.
        3    1    3    3  502    0  0.65351396823E+03 -0.66465213424E+03  0.15277499963E+03  0.94455448595E+03  0.10100000352E+00 0.  1.
       -3    1    3    3    0  502 -0.65351396823E+03  0.66465213424E+03  0.12927208956E+04  0.15937284242E+04  0.10100000352E+00 0. -1.
</event>
<event>
 5   0  0.5933905E-05  0.2047883E+04  0.7818609E-02  0.8584555E-01
       -1   -1    0    0    0  501  0.00000000000E+00  0.00000000000E+00  0.93975012724E+03  0.93975012726E+03  0.50400001928E-02 0. -1.
        1   -1    0    0  501    0  0.00000000000E+00  0.00000000000E+00 -0.11156757070E+04  0.11156757070E+04  0.50400001928E-02 0.  1.
    10030    2    1    2    0    0  0.00000000000E+00  0.00000000000E+00 -0.17592557974E+03  0.20554258342E+04  0.20478831877E+04 0.  0.
        2    1    3    3  502    0 -0.46871251242E+03 -0.52067959768E+03 -0.83747807060E+03  0.10918645436E+04  0.25500000920E-02 0.  1.
       -2    1    3    3    0  502  0.46871251242E+03  0.52067959768E+03  0.66155249086E+03  0.96356129069E+03  0.25500000920E-02 0. -1.
</event>
<event>
 5   0  0.1281470E-04  0.2020890E+04  0.7818609E-02  0.8596916E-01
        2   -1    0    0  501    0  0.00000000000E+00  0.00000000000E+00  0.12974038077E+04  0.12974038077E+04  0.25500000920E-02 0.  1.
       -2   -1    0    0    0  501  0.00000000000E+00  0.00000000000E+00 -0.78695579150E+03  0.78695579151E+03  0.25500000920E-02 0. -1.
    10030    2    1    2    0    0  0.00000000000E+00  0.00000000000E+00  0.51044801619E+03  0.20843595992E+04  0.20208903388E+04 0.  0.
        3    1    3    3  502    0 -0.26065200671E+03  0.66951274166E+03 -0.47759211145E+03  0.86271722770E+03  0.10100000352E+00 0. -1.
       -3    1    3    3    0  502  0.26065200671E+03 -0.66951274166E+03  0.98804012764E+03  0.12216423715E+04  0.10100000352E+00 0.  1.
</event>
<event>
 5   0  0.6221148E-05  0.2122720E+04  0.7818609E-02  0.8551301E-01
        1   -1    0    0  501    0  0.00000000000E+00  0.00000000000E+00  0.17204517746E+04  0.17204517746E+04  0.50400001928E-02 0.  1.
       -1   -1    0    0    0  501  0.00000000000E+00  0.00000000000E+00 -0.65476115209E+03  0.65476115211E+03  0.50400001928E-02 0. -1.
    10030    2    1    2    0    0  0.00000000000E+00  0.00000000000E+00  0.10656906225E+04  0.23752129267E+04  0.21227199402E+04 0.  0.
        3    1    3    3  502    0  0.47124455950E+03 -0.83236712629E+03  0.10475351850E+04  0.14185332008E+04  0.10100000352E+00 0.  1.
       -3    1    3    3    0  502 -0.47124455950E+03  0.83236712629E+03  0.18155437463E+02  0.95667972587E+03  0.10100000352E+00 0. -1.
</event>
<event>
 5   0  0.6221148E-05  0.2100180E+04  0.7818609E-02  0.8561164E-01
       -1   -1    0    0    0  501  0.00000000000E+00  0.00000000000E+00  0.90814413881E+03  0.90814413882E+03  0.50400001928E-02 0. -1.
        1   -1    0    0  501    0  0.00000000000E+00  0.00000000000E+00 -0.12142227717E+04  0.12142227717E+04  0.50400001928E-02 0.  1.
    10030    2    1    2    0    0  0.00000000000E+00  0.00000000000E+00 -0.30607863285E+03  0.21223669105E+04  0.21001802716E+04 0.  0.
        3    1    3    3  502    0 -0.95374737300E+03  0.37434836674E+03 -0.38550978190E+03  0.10947093465E+04  0.10100000352E+00 0.  1.
       -3    1    3    3    0  502  0.95374737300E+03 -0.37434836674E+03  0.79431149051E+02  0.10276575640E+04  0.10100000352E+00 0. -1.
</event>
<event>
 5   0  0.6221148E-05  0.2096612E+04  0.7818609E-02  0.8562737E-01
        1   -1    0    0  501    0  0.00000000000E+00  0.00000000000E+00  0.16058972468E+04  0.16058972468E+04  0.50400001928E-02 0. -1.
       -1   -1    0    0    0  501  0.00000000000E+00  0.00000000000E+00 -0.68431853562E+03  0.68431853564E+03  0.50400001928E-02 0.  1.
    10030    2    1    2    0    0  0.00000000000E+00  0.00000000000E+00  0.92157871114E+03  0.22902157824E+04  0.20966117927E+04 0.  0.
        3    1    3    3  502    0  0.49568339300E+02 -0.10342833347E+04  0.63943378010E+03  0.12169940863E+04  0.10100000352E+00 0. -1.
       -3    1    3    3    0  502 -0.49568339300E+02  0.10342833347E+04  0.28214493104E+03  0.10732216961E+04  0.10100000352E+00 0.  1.
</event>
<event>
 5   0  0.4615125E-05  0.2113987E+04  0.7818609E-02  0.8555107E-01
        4   -1    0    0  501    0  0.00000000000E+00  0.00000000000E+00  0.18440459407E+04  0.18440463781E+04  0.12699999809E+01 0. -1.
       -4   -1    0    0    0  501  0.00000000000E+00  0.00000000000E+00 -0.60585974559E+03  0.60586107668E+03  0.12699999809E+01 0.  1.
    10030    2    1    2    0    0  0.00000000000E+00  0.00000000000E+00  0.12381861951E+04  0.24499074547E+04  0.21139871057E+04 0.  0.
        4    1    3    3  502    0 -0.60349334265E+03  0.80131313463E+03  0.10050738020E+04  0.14200288429E+04  0.12699999809E+01 0. -1.
       -4    1    3    3    0  502  0.60349334265E+03 -0.80131313463E+03  0.23311239316E+03  0.10298786118E+04  0.12699999809E+01 0.  1.
</event>
<event>
 5   0  0.6263616E-05  0.2201370E+04  0.7818609E-02  0.8517858E-01
       -1   -1    0    0    0  501  0.00000000000E+00  0.00000000000E+00  0.11428441555E+04  0.11428441555E+04  0.50400001928E-02 0. -1.
        1   -1    0    0  501    0  0.00000000000E+00  0.00000000000E+00 -0.10600812497E+04  0.10600812497E+04  0.50400001928E-02 0.  1.
    10030    2    1    2    0    0  0.00000000000E+00  0.00000000000E+00  0.82762905772E+02  0.22029254052E+04  0.22013701739E+04 0.  0.
        4    1    3    3  502    0 -0.21217918710E+03  0.10617844032E+04  0.23925815138E+03  0.11088968402E+04  0.12699999809E+01 0. -1.
       -4    1    3    3    0  502  0.21217918710E+03 -0.10617844032E+04 -0.15649524560E+03  0.10940285650E+04  0.12699999809E+01 0.  1.
</event>
<event>
 5   0  0.6263616E-05  0.2159217E+04  0.7818609E-02  0.8535597E-01
       -1   -1    0    0    0  501  0.00000000000E+00  0.00000000000E+00  0.59005682806E+03  0.59005682808E+03  0.50400001928E-02 0.  1.
        1   -1    0    0  501    0  0.00000000000E+00  0.00000000000E+00 -0.19753249610E+04  0.19753249610E+04  0.50400001928E-02 0. -1.
    10030    2    1    2    0    0  0.00000000000E+00  0.00000000000E+00 -0.13852681330E+04  0.25653817891E+04  0.21592165069E+04 0.  0.
        4    1    3    3  502    0 -0.85785679970E+03 -0.61366870144E+03 -0.41899554149E+03  0.11349301479E+04  0.12699999809E+01 0. -1.
       -4    1    3    3    0  502  0.85785679970E+03  0.61366870144E+03 -0.96627259149E+03  0.14304516412E+04  0.12699999809E+01 0.  1.
</event>
<event>
 5   0  0.1281470E-04  0.2093977E+04  0.7818609E-02  0.8563901E-01
        2   -1    0    0  501    0  0.00000000000E+00  0.00000000000E+00  0.22298594065E+04  0.22298594065E+04  0.25500000920E-02 0.  1.
       -2   -1    0    0    0  501  0.00000000000E+00  0.00000000000E+00 -0.49159369370E+03  0.49159369370E+03  0.25500000920E-02 0. -1.
    10030    2    1    2    0    0  0.00000000000E+00  0.00000000000E+00  0.17382657128E+04  0.27214531002E+04  0.20939769073E+04 0.  0.
        3    1    3    3  502    0  0.29263408886E+03 -0.58718158076E+03  0.19295833293E+04  0.20380649533E+04  0.10100000352E+00 0.  1.
       -3    1    3    3    0  502 -0.29263408886E+03  0.58718158076E+03 -0.19131761654E+03  0.68338814691E+03  0.10100000352E+00 0. -1.
</event>
<event>
 5   0  0.1252477E-04  0.2166437E+04  0.7818609E-02  0.8532529E-01
       -2   -1    0    0    0  501  0.00000000000E+00  0.00000000000E+00  0.10560454844E+04  0.10560454845E+04  0.25500000920E-02 0. -1.
        2   -1    0    0  501    0  0.00000000000E+00  0.00000000000E+00 -0.11110902423E+04  0.11110902423E+04  0.25500000920E-02 0.  1.
    10030    2    1    2    0    0  0.00000000000E+00  0.00000000000E+00 -0.55044757829E+02  0.21671357267E+04  0.21664365517E+04 0.  0.
        4    1    3    3  502    0 -0.44328231191E+03 -0.27942699266E+03 -0.97586925107E+03  0.11076556597E+04  0.12699999809E+01 0.  1.
       -4    1    3    3    0  502  0.44328231191E+03  0.27942699266E+03  0.92082449324E+03  0.10594800671E+04  0.12699999809E+01 0. -1.
</event>
<event>
 5   0  0.1252477E-04  0.2089974E+04  0.7818609E-02  0.8565673E-01
        2   -1    0    0  501    0  0.00000000000E+00  0.00000000000E+00  0.13854985516E+04  0.13854985516E+04  0.25500000920E-02 0. -1.
       -2   -1    0    0    0  501  0.00000000000E+00  0.00000000000E+00 -0.78816269351E+03  0.78816269351E+03  0.25500000920E-02 0.  1.
    10030    2    1    2    0    0  0.00000000000E+00  0.00000000000E+00  0.59733585807E+03  0.21736612451E+04  0.20899744212E+04 0.  0.
        4    1    3    3  502    0 -0.11629302348E+03  0.42019475228E+03  0.12863842774E+04  0.13582613222E+04  0.12699999809E+01 0. -1.
       -4    1    3    3    0  502  0.11629302348E+03 -0.42019475228E+03 -0.68904841937E+03  0.81539992292E+03  0.12699999809E+01 0.  1.
</event>
<event>
 5   0  0.5846187E-05  0.2121192E+04  0.7818609E-02  0.8551965E-01
        1   -1    0    0  501    0  0.00000000000E+00  0.00000000000E+00  0.80227945154E+03  0.80227945156E+03  0.50400001928E-02 0. -1.
       -1   -1    0    0    0  501  0.00000000000E+00  0.00000000000E+00 -0.14020848779E+04  0.14020848779E+04  0.50400001928E-02 0.  1.
    10030    2    1    2    0    0  0.00000000000E+00  0.00000000000E+00 -0.59980542639E+03  0.22043643295E+04  0.21211920110E+04 0.  0.
        5    1    3    3  502    0 -0.80407490415E+03 -0.37160331614E+03 -0.90605390563E+03  0.12671153247E+04  0.46999998093E+01 0.  1.
       -5    1    3    3    0  502  0.80407490415E+03  0.37160331614E+03  0.30624847924E+03  0.93724900485E+03  0.46999998093E+01 0. -1.
</event>
<event>
 5   0  0.6221148E-05  0.2086997E+04  0.7818609E-02  0.8566993E-01
       -1   -1    0    0    0  501  0.00000000000E+00  0.00000000000E+00  0.86230319806E+03  0.86230319808E+03  0.50400001928E-02 0. -1.
        1   -1    0    0  501    0  0.00000000000E+00  0.00000000000E+00 -0.12627678702E+04  0.12627678702E+04  0.50400001928E-02 0.  1.
    10030    2    1    2    0    0  0.00000000000E+00  0.00000000000E+00 -0.40046467211E+03  0.21250710683E+04  0.20869966678E+04 0.  0.
        3    1    3    3  502    0  0.53625121061E+03  0.31978501701E+02 -0.11111483191E+04  0.12341955204E+04  0.10100000352E+00 0.  1.
       -3    1    3    3    0  502 -0.53625121061E+03 -0.31978501701E+02  0.71068364697E+03  0.89087554783E+03  0.10100000352E+00 0. -1.
</event>
<event>
 5   0  0.1252477E-04  0.2124686E+04  0.7818609E-02  0.8550446E-01
       -2   -1    0    0    0  501  0.00000000000E+00  0.00000000000E+00  0.13546373315E+04  0.13546373315E+04  0.25500000920E-02 0.  1.
        2   -1    0    0  501    0  0.00000000000E+00  0.00000000000E+00 -0.83311816052E+03  0.83311816052E+03  0.25500000920E-02 0. -1.
    10030    2    1    2    0    0  0.00000000000E+00  0.00000000000E+00  0.52151917098E+03  0.21877554920E+04  0.21246862938E+04 0.  0.
        4    1    3    3  502    0 -0.64745682224E+03 -0.81136173564E+03  0.28080284085E+02  0.10384114396E+04  0.12699999809E+01 0. -1.
       -4    1    3    3    0  502  0.64745682224E+03  0.81136173564E+03  0.49343888689E+03  0.11493440524E+04  0.12699999809E+01 0.  1.
</event>
<event>
 5   0  0.1325673E-04  0.2121987E+04  0.7818609E-02  0.8551619E-01
        2   -1    0    0  501    0  0.00000000000E+00  0.00000000000E+00  0.17268691202E+04  0.17268691202E+04  0.25500000920E-02 0. -1.
       -2   -1    0    0    0  501  0.00000000000E+00  0.00000000000E+00 -0.65187758799E+03  0.65187758800E+03  0.25500000920E-02 0.  1.
    10030    2    1    2    0    0  0.00000000000E+00  0.00000000000E+00  0.10749915322E+04  0.23787467082E+04  0.21219870658E+04 0.  0.
        5    1    3    3  502    0  0.70582798650E+03 -0.75227568558E+03  0.81566032788E+03  0.13150801170E+04  0.46999998093E+01 0.  1.
       -5    1    3    3    0  502 -0.70582798650E+03  0.75227568558E+03  0.25933120429E+03  0.10636665912E+04  0.46999998093E+01 0. -1.
</event>
<event>
 5   0  0.5846187E-05  0.2109537E+04  0.7818609E-02  0.8557054E-01
       -1   -1    0    0    0  501  0.00000000000E+00  0.00000000000E+00  0.68088327195E+03  0.68088327197E+03  0.50400001928E-02 0.  1.
        1   -1    0    0  501    0  0.00000000000E+00  0.00000000000E+00 -0.16339613736E+04  0.16339613736E+04  0.50400001928E-02 0. -1.
    10030    2    1    2    0    0  0.00000000000E+00  0.00000000000E+00 -0.95307810162E+03  0.23148446455E+04  0.21095373581E+04 0.  0.
        5    1    3    3  502    0  0.83654577341E+03 -0.15234656905E+02 -0.11812854932E+04  0.14475836529E+04  0.46999998093E+01 0. -1.
       -5    1    3    3    0  502 -0.83654577341E+03  0.15234656905E+02  0.22820739156E+03  0.86726099263E+03  0.46999998093E+01 0.  1.
</event>
<event>
 5   0  0.6221148E-05  0.2101692E+04  0.7818609E-02  0.8560498E-01
       -1   -1    0    0    0  501  0.00000000000E+00  0.00000000000E+00  0.68860705880E+03  0.68860705881E+03  0.50400001928E-02 0. -1.
        1   -1    0    0  501    0  0.00000000000E+00  0.00000000000E+00 -0.16036392418E+04  0.16036392418E+04  0.50400001928E-02 0.  1.
    10030    2    1    2    0    0  0.00000000000E+00  0.00000000000E+00 -0.91503218304E+03  0.22922463007E+04  0.21016919867E+04 0.  0.
        3    1    3    3  502    0  0.41527473559E+02 -0.62172666465E+03 -0.13804091221E+04  0.15145289470E+04  0.10100000352E+00 0.  1.
       -3    1    3    3    0  502 -0.41527473559E+02  0.62172666465E+03  0.46537693908E+03  0.77771735368E+03  0.10100000352E+00 0. -1.
</event>
<event>
 5   0  0.1349252E-04  0.2110409E+04  0.7818609E-02  0.8556672E-01
       -2   -1    0    0    0  501  0.00000000000E+00  0.00000000000E+00  0.98182487277E+03  0.98182487277E+03  0.25500000920E-02 0.  1.
        2   -1    0    0  501    0  0.00000000000E+00  0.00000000000E+00 -0.11340685373E+04  0.11340685373E+04  0.25500000920E-02 0. -1.
    10030    2    1    2    0    0  0.00000000000E+00  0.00000000000E+00 -0.15224366455E+03  0.21158934101E+04  0.21104091521E+04 0.  0.
        2    1    3    3  502    0  0.23626996705E+03  0.29373210956E+03 -0.10642562709E+04  0.11290453754E+04  0.25500000920E-02 0. -1.
       -2    1    3    3    0  502 -0.23626996705E+03 -0.29373210956E+03  0.91201260633E+03  0.98684803472E+03  0.25500000920E-02 0.  1.
</event>
<event>
 5   0  0.1325673E-04  0.2057206E+04  0.7818609E-02  0.8580332E-01
       -2   -1    0    0    0  501  0.00000000000E+00  0.00000000000E+00  0.41358469404E+03  0.41358469404E+03  0.25500000920E-02 0. -1.
        2   -1    0    0  501    0  0.00000000000E+00  0.00000000000E+00 -0.25581794558E+04  0.25581794558E+04  0.25500000920E-02 0.  1.
    10030    2    1    2    0    0  0.00000000000E+00  0.00000000000E+00 -0.21445947618E+04  0.29717641499E+04  0.20572057433E+04 0.  0.
        5    1    3    3  502    0  0.75699402011E+03  0.11123905355E+03 -0.20653627109E+04  0.22025347423E+04  0.46999998093E+01 0.  1.
       -5    1    3    3    0  502 -0.75699402011E+03 -0.11123905355E+03 -0.79232050860E+02  0.76922940753E+03  0.46999998093E+01 0. -1.
</event>
<event>
 5   0  0.1235817E-04  0.2074425E+04  0.7818609E-02  0.8572594E-01
        2   -1    0    0  501    0  0.00000000000E+00  0.00000000000E+00  0.11802452644E+04  0.11802452644E+04  0.25500000920E-02 0.  1.
       -2   -1    0    0    0  501  0.00000000000E+00  0.00000000000E+00 -0.91151344805E+03  0.91151344806E+03  0.25500000920E-02 0. -1.
    10030    2    1    2    0    0  0.00000000000E+00  0.00000000000E+00  0.26873181637E+03  0.20917587125E+04  0.20744246726E+04 0.  0.
        1    1    3    3  502    0 -0.25299151662E+03  0.10970964059E+03  0.11426052642E+04  0.11754095893E+04  0.50400001928E-02 0.  1.
       -1    1    3    3    0  502  0.25299151662E+03 -0.10970964059E+03 -0.87387344785E+03  0.91634912321E+03  0.50400001928E-02 0. -1.
</event>
<event>
 5   0  0.1252477E-04  0.2174040E+04  0.7818609E-02  0.8529312E-01
        2   -1    0    0  501    0  0.00000000000E+00  0.00000000000E+00  0.23675866166E+04  0.23675866166E+04  0.25500000920E-02 0. -1.
       -2   -1    0    0    0  501  0.00000000000E+00  0.00000000000E+00 -0.49907882786E+03  0.49907882786E+03  0.25500000920E-02 0.  1.
    10030    2    1    2    0    0  0.00000000000E+00  0.00000000000E+00  0.18685077888E+04  0.28666654445E+04  0.21740398832E+04 0.  0.
        4    1    3    3  502    0 -0.32526585434E+03 -0.30034340642E+03  0.22433192472E+04  0.22865884840E+04  0.12699999809E+01 0. -1.
       -4    1    3    3    0  502  0.32526585434E+03  0.30034340642E+03 -0.37481145840E+03  0.58007696044E+03  0.12699999809E+01 0.  1.
</event>
<event>
 5   0  0.1325673E-04  0.2023587E+04  0.7818609E-02  0.8595672E-01
       -2   -1    0    0    0  501  0.00000000000E+00  0.00000000000E+00  0.10481042999E+04  0.10481042999E+04  0.25500000920E-02 0. -1.
        2   -1    0    0  501    0  0.00000000000E+00  0.00000000000E+00 -0.97674045241E+03  0.97674045241E+03  0.25500000920E-02 0.  1.
    10030    2    1    2    0    0  0.00000000000E+00  0.00000000000E+00  0.71363847450E+02  0.20248447523E+04  0.20235867839E+04 0.  0.
        5    1    3    3  502    0 -0.41340600126E+03  0.48740196535E+02 -0.88707552787E+03  0.97990061271E+03  0.46999998093E+01 0.  1.
       -5    1    3    3    0  502  0.41340600126E+03 -0.48740196535E+02  0.95843937532E+03  0.10449441396E+04  0.46999998093E+01 0. -1.
</event>
<event>
 5   0  0.1281470E-04  0.2087737E+04  0.7818609E-02  0.8566664E-01
       -2   -1    0    0    0  501  0.00000000000E+00  0.00000000000E+00  0.99534903037E+03  0.99534903037E+03  0.25500000920E-02 0.  1.
        2   -1    0    0  501    0  0.00000000000E+00  0.00000000000E+00 -0.10947534493E+04  0.10947534493E+04  0.25500000920E-02 0. -1.
    10030    2    1    2    0    0  0.00000000000E+00  0.00000000000E+00 -0.99404418930E+02  0.20901024797E+04  0.20877373247E+04 0.  0.
        3    1    3    3  502    0 -0.32717229670E+03  0.62773286782E+03 -0.81775547952E+03  0.10815795392E+04  0.10100000352E+00 0. -1.
       -3    1    3    3    0  502  0.32717229670E+03 -0.62773286782E+03  0.71835106059E+03  0.10085229405E+04  0.10100000352E+00 0.  1.
</event>
<event>
 5   0  0.5933905E-05  0.2100570E+04  0.7818609E-02  0.8560992E-01
        1   -1    0    0  501    0  0.00000000000E+00  0.00000000000E+00  0.12175966859E+04  0.12175966859E+04  0.50400001928E-02 0. -1.
       -1   -1    0    0    0  501  0.00000000000E+00  0.00000000000E+00 -0.90596390567E+03  0.90596390568E+03  0.50400001928E-02 0.  1.
    10030    2    1    2    0    0  0.00000000000E+00  0.00000000000E+00  0.31163278020E+03  0.21235605916E+04  0.21005700646E+04 0.  0.
        2    1    3    3  502    0 -0.87415228352E+03 -0.48441167956E+02  0.74234732081E+03  0.11478537826E+04  0.25500000920E-02 0. -1.
       -2    1    3    3    0  502  0.87415228352E+03  0.48441167956E+02 -0.43071454060E+03  0.97570680895E+03  0.25500000920E-02 0.  1.
</event>
<event>
 5   0  0.1325673E-04  0.2068231E+04  0.7818609E-02  0.8575368E-01
       -2   -1    0    0    0  501  0.00000000000E+00  0.00000000000E+00  0.61849329197E+03  0.61849329197E+03  0.25500000920E-02 0.  1.
        2   -1    0    0  501    0  0.00000000000E+00  0.00000000000E+00 -0.17290321340E+04  0.17290321340E+04  0.25500000920E-02 0. -1.
    10030    2    1    2    0    0  0.00000000000E+00  0.00000000000E+00 -0.11105388420E+04  0.23475254260E+04  0.20682309121E+04 0.  0.
        5    1    3    3  502    0  0.36806163717E+03 -0.30877776675E+03 -0.15946587403E+04  0.16654643995E+04  0.46999998093E+01 0. -1.
       -5    1    3    3    0  502 -0.36806163717E+03  0.30877776675E+03  0.48411989824E+03  0.68206102650E+03  0.46999998093E+01 0.  1.
</event>
<event>
 5   0  0.5846187E-05  0.2086619E+04  0.7818609E-02  0.8567161E-01
       -1   -1    0    0    0  501  0.00000000000E+00  0.00000000000E+00  0.87079361391E+03  0.87079361392E+03  0.50400001928E-02 0. -1.
        1   -1    0    0  501    0  0.00000000000E+00  0.00000000000E+00 -0.12500027288E+04  0.12500027288E+04  0.50400001928E-02 0.  1.
    10030    2    1    2    0    0  0.00000000000E+00  0.00000000000E+00 -0.37920911485E+03  0.21207963427E+04  0.20866186941E+04 0.  0.
        5    1    3    3  502    0  0.90160028913E+03  0.40097304419E+03 -0.53399050960E+03  0.11219761218E+04  0.46999998093E+01 0.  1.
       -5    1    3    3    0  502 -0.90160028913E+03 -0.40097304419E+03  0.15478139475E+03  0.99882022090E+03  0.46999998093E+01 0. -1.
</event>
<event>
 5   0  0.5846187E-05  0.2088424E+04  0.7818609E-02  0.8566360E-01
       -1   -1    0    0    0  501  0.00000000000E+00  0.00000000000E+00  0.84612503859E+03  0.84612503860E+03  0.50400001928E-02 0.  1.
        1   -1    0    0  501    0  0.00000000000E+00  0.00000000000E+00 -0.12886732448E+04  0.12886732449E+04  0.50400001928E-02 0. -1.
    10030    2    1    2    0    0  0.00000000000E+00  0.00000000000E+00 -0.44254820626E+03  0.21347982835E+04  0.20884239982E+04 0.  0.
        5    1    3    3  502    0  0.89686255549E+03  0.28059387680E+03 -0.68664285456E+03  0.11638710697E+04  0.46999998093E+01 0. -1.
       -5    1    3    3    0  502 -0.89686255549E+03 -0.28059387680E+03  0.24409464829E+03  0.97092721378E+03  0.46999998093E+01 0.  1.
</event>
<event>
 5   0  0.5846187E-05  0.2150562E+04  0.7818609E-02  0.8539292E-01
        1   -1    0    0  501    0  0.00000000000E+00  0.00000000000E+00  0.18265935342E+04  0.18265935342E+04  0.50400001928E-02 0.  1.
       -1   -1    0    0    0  501  0.00000000000E+00  0.00000000000E+00 -0.63299729492E+03  0.63299729494E+03  0.50400001928E-02 0. -1.
    10030    2    1    2    0    0  0.00000000000E+00  0.00000000000E+00  0.11935962393E+04  0.24595908292E+04  0.21505615696E+04 0.  0.
        5    1    3    3  502    0  0.40568037465E+02  0.89312052550E+03  0.12800521661E+04  0.15613666055E+04  0.46999998093E+01 0.  1.
       -5    1    3    3    0  502 -0.40568037465E+02 -0.89312052550E+03 -0.86455926809E+02  0.89822422369E+03  0.46999998093E+01 0. -1.
</event>
<event>
 5   0  0.6052292E-05  0.2069137E+04  0.7818609E-02  0.8574962E-01
       -1   -1    0    0    0  501  0.00000000000E+00  0.00000000000E+00  0.68788154949E+03  0.68788154951E+03  0.50400001928E-02 0.  1.
        1   -1    0    0  501    0  0.00000000000E+00  0.00000000000E+00 -0.15559834199E+04  0.15559834199E+04  0.50400001928E-02 0. -1.
    10030    2    1    2    0    0  0.00000000000E+00  0.00000000000E+00 -0.86810187040E+03  0.22438649694E+04  0.20691372945E+04 0.  0.
        1    1    3    3  502    0 -0.73574487466E+03 -0.70905018287E+03 -0.60978319416E+03  0.11899194201E+04  0.50400001928E-02 0.  1.
       -1    1    3    3    0  502  0.73574487466E+03  0.70905018287E+03 -0.25831867624E+03  0.10539455493E+04  0.50400001928E-02 0. -1.
</event>
<event>
 5   0  0.1281470E-04  0.2120843E+04  0.7818609E-02  0.8552117E-01
       -2   -1    0    0    0  501  0.00000000000E+00  0.00000000000E+00  0.56648580625E+03  0.56648580625E+03  0.25500000920E-02 0.  1.
        2   -1    0    0  501    0  0.00000000000E+00  0.00000000000E+00 -0.19850340042E+04  0.19850340042E+04  0.25500000920E-02 0. -1.
    10030    2    1    2    0    0  0.00000000000E+00  0.00000000000E+00 -0.14185481979E+04  0.25515198104E+04  0.21208428403E+04 0.  0.
        3    1    3    3  502    0 -0.17804598533E+03  0.43230089277E+02 -0.19658472555E+04  0.19743668999E+04  0.10100000352E+00 0. -1.
       -3    1    3    3    0  502  0.17804598533E+03 -0.43230089277E+02  0.54729905754E+03  0.57715291050E+03  0.10100000352E+00 0.  1.
</event>
<event>
 5   0  0.1325673E-04  0.2094204E+04  0.7818609E-02  0.8563801E-01
       -2   -1    0    0    0  501  0.00000000000E+00  0.00000000000E+00  0.57701704398E+03  0.57701704399E+03  0.25500000920E-02 0. -1.
        2   -1    0    0  501    0  0.00000000000E+00  0.00000000000E+00 -0.19001568801E+04  0.19001568801E+04  0.25500000920E-02 0.  1.
    10030    2    1    2    0    0  0.00000000000E+00  0.00000000000E+00 -0.13231398362E+04  0.24771739241E+04  0.20942042938E+04 0.  0.
        5    1    3    3  502    0  0.10113854615E+04  0.26514006307E+03 -0.72849379048E+03  0.12743331972E+04  0.46999998093E+01 0.  1.
       -5    1    3    3    0  502 -0.10113854615E+04 -0.26514006307E+03 -0.59464604569E+03  0.12028407269E+04  0.46999998093E+01 0. -1.
</event>
<event>
 5   0  0.6263616E-05  0.2097878E+04  0.7818609E-02  0.8562179E-01
        1   -1    0    0  501    0  0.00000000000E+00  0.00000000000E+00  0.13062160330E+04  0.13062160330E+04  0.50400001928E-02 0. -1.
       -1   -1    0    0    0  501  0.00000000000E+00  0.00000000000E+00 -0.84233609973E+03  0.84233609975E+03  0.50400001928E-02 0.  1.
    10030    2    1    2    0    0  0.00000000000E+00  0.00000000000E+00  0.46387993326E+03  0.21485521328E+04  0.20978778979E+04 0.  0.
        4    1    3    3  502    0 -0.54384479444E+02  0.83910926335E+03 -0.41027077743E+03  0.93562051664E+03  0.12699999809E+01 0.  1.
       -4    1    3    3    0  502  0.54384479444E+02 -0.83910926335E+03  0.87415071069E+03  0.12129316161E+04  0.12699999809E+01 0. -1.
</event>
<event>
 5   0  0.1252477E-04  0.2113019E+04  0.7818609E-02  0.8555530E-01
       -2   -1    0    0    0  501  0.00000000000E+00  0.00000000000E+00  0.84956029159E+03  0.84956029159E+03  0.25500000920E-02 0. -1.
        2   -1    0    0  501    0  0.00000000000E+00  0.00000000000E+00 -0.13138710708E+04  0.13138710708E+04  0.25500000920E-02 0.  1.
    10030    2    1    2    0    0  0.00000000000E+00  0.00000000000E+00 -0.46431077918E+03  0.21634313624E+04  0.21130193468E+04 0.  0.
        4    1    3    3  502    0 -0.92764921967E+03 -0.24730531440E+03 -0.68371973030E+03  0.11786294056E+04  0.12699999809E+01 0.  1.
       -4    1    3    3    0  502  0.92764921967E+03  0.24730531440E+03  0.21940895112E+03  0.98480195675E+03  0.12699999809E+01 0. -1.
</event>
<event>
 5   0  0.1349252E-04  0.2099953E+04  0.7818609E-02  0.8561264E-01
       -2   -1    0    0    0  501  0.00000000000E+00  0.00000000000E+00  0.53559900234E+03  0.53559900234E+03  0.25500000920E-02 0.  1.
        2   -1    0    0  501    0  0.00000000000E+00  0.00000000000E+00 -0.20583514997E+04  0.20583514997E+04  0.25500000920E-02 0. -1.
    10030    2    1    2    0    0  0.00000000000E+00  0.00000000000E+00 -0.15227524973E+04  0.25939505020E+04  0.20999533420E+04 0.  0.
        2    1    3    3  502    0  0.33700842807E+03  0.97202948688E+03 -0.10205858402E+04  0.14491416291E+04  0.25500000920E-02 0. -1.
       -2    1    3    3    0  502 -0.33700842807E+03 -0.97202948688E+03 -0.50216665710E+03  0.11448088729E+04  0.25500000920E-02 0.  1.
</event>
<event>
 5   0  0.6052292E-05  0.2058300E+04  0.7818609E-02  0.8579838E-01
        1   -1    0    0  501    0  0.00000000000E+00  0.00000000000E+00  0.15118099512E+04  0.15118099512E+04  0.50400001928E-02 0.  1.
       -1   -1    0    0    0  501  0.00000000000E+00  0.00000000000E+00 -0.70058375973E+03  0.70058375975E+03  0.50400001928E-02 0. -1.
    10030    2    1    2    0    0  0.00000000000E+00  0.00000000000E+00  0.81122619148E+03  0.22123937110E+04  0.20582997834E+04 0.  0.
        1    1    3    3  502    0 -0.58087861255E+02  0.83240337912E+03  0.10531063559E+04  0.13436154889E+04  0.50400001928E-02 0.  1.
       -1    1    3    3    0  502  0.58087861255E+02 -0.83240337912E+03 -0.24188016438E+03  0.86877822207E+03  0.50400001928E-02 0. -1.
</event>
<event>
 5   0  0.1325673E-04  0.2033795E+04  0.7818609E-02  0.8590982E-01
        2   -1    0    0  501    0  0.00000000000E+00  0.00000000000E+00  0.15610600206E+04  0.15610600206E+04  0.25500000920E-02 0.  1.
       -2   -1    0    0    0  501  0.00000000000E+00  0.00000000000E+00 -0.66242173881E+03  0.66242173882E+03  0.25500000920E-02 0. -1.
    10030    2    1    2    0    0  0.00000000000E+00  0.00000000000E+00  0.89863828183E+03  0.22234817595E+04  0.20337945749E+04 0.  0.
        5    1    3    3  502    0 -0.69559124825E+03 -0.34759625547E+03 -0.26707374924E+03  0.82220485220E+03  0.46999998093E+01 0. -1.
       -5    1    3    3    0  502  0.69559124825E+03  0.34759625547E+03  0.11657120311E+04  0.14012769073E+04  0.46999998093E+01 0.  1.
</event>
<event>
 5   0  0.6221148E-05  0.1564147E+04  0.7818609E-02  0.8842882E-01
        1   -1    0    0  501    0  0.00000000000E+00  0.00000000000E+00  0.19234702241E+04  0.19234702241E+04  0.50400001928E-02 0. -1.
       -1   -1    0    0    0  501  0.00000000000E+00  0.00000000000E+00 -0.31798727752E+03  0.31798727756E+03  0.50400001928E-02 0.  1.
    10030    2    1    2    0    0  0.00000000000E+00  0.00000000000E+00  0.16054829466E+04  0.22414575017E+04  0.15641471286E+04 0.  0.
        3    1    3    3  502    0 -0.42789713708E+03 -0.40155878042E+03  0.15436203563E+04  0.16513961452E+04  0.10100000352E+00 0. -1.
       -3    1    3    3    0  502  0.42789713708E+03  0.40155878042E+03  0.61862590300E+02  0.59006135641E+03  0.10100000352E+00 0.  1.
</event>
<event>
 5   0  0.1252477E-04  0.2122522E+04  0.7818609E-02  0.8551387E-01
        2   -1    0    0  501    0  0.00000000000E+00  0.00000000000E+00  0.21369654970E+04  0.21369654970E+04  0.25500000920E-02 0. -1.
       -2   -1    0    0    0  501  0.00000000000E+00  0.00000000000E+00 -0.52704409522E+03  0.52704409523E+03  0.25500000920E-02 0.  1.
    10030    2    1    2    0    0  0.00000000000E+00  0.00000000000E+00  0.16099214018E+04  0.26640095922E+04  0.21225221289E+04 0.  0.
        4    1    3    3  502    0 -0.10445628443E+04 -0.16225055554E+03  0.92294589718E+03  0.14033059255E+04  0.12699999809E+01 0.  1.
       -4    1    3    3    0  502  0.10445628443E+04  0.16225055554E+03  0.68697550459E+03  0.12607036667E+04  0.12699999809E+01 0. -1.
</event>
<event>
 5   0  0.4615125E-05  0.2151203E+04  0.7818609E-02  0.8539017E-01
        3   -1    0    0  501    0  0.00000000000E+00  0.00000000000E+00  0.67911210585E+03  0.67911211336E+03  0.10100000352E+00 0. -1.
       -3   -1    0    0    0  501  0.00000000000E+00  0.00000000000E+00 -0.17035759191E+04  0.17035759221E+04  0.10100000352E+00 0.  1.
    10030    2    1    2    0    0  0.00000000000E+00  0.00000000000E+00 -0.10244638133E+04  0.23826880355E+04  0.21512034236E+04 0.  0.
        5    1    3    3  502    0  0.74520767624E+03  0.27740777086E+03  0.29000550302E+03  0.84641292159E+03  0.46999998093E+01 0. -1.
       -5    1    3    3    0  502 -0.74520767624E+03 -0.27740777086E+03 -0.13144693163E+04  0.15362751139E+04  0.46999998093E+01 0.  1.
</event>
<event>
 5   0  0.1325673E-04  0.2083537E+04  0.7818609E-02  0.8568530E-01
        2   -1    0    0  501    0  0.00000000000E+00  0.00000000000E+00  0.25659274882E+04  0.25659274882E+04  0.25500000920E-02 0.  1.
       -2   -1    0    0    0  501  0.00000000000E+00  0.00000000000E+00 -0.42295864213E+03  0.42295864213E+03  0.25500000920E-02 0. -1.
    10030    2    1    2    0    0  0.00000000000E+00  0.00000000000E+00  0.21429688461E+04  0.29888861304E+04  0.20835366147E+04 0.  0.
        5    1    3    3  502    0  0.41728440655E+03 -0.95299664979E+03  0.99383132733E+03  0.14387674196E+04  0.46999998093E+01 0. -1.
       -5    1    3    3    0  502 -0.41728440655E+03  0.95299664979E+03  0.11491375188E+04  0.15501187108E+04  0.46999998093E+01 0.  1.
</event>
<event>
 5   0  0.6052292E-05  0.2100459E+04  0.7818609E-02  0.8561041E-01
        1   -1    0    0  501    0  0.00000000000E+00  0.00000000000E+00  0.12740024404E+04  0.12740024404E+04  0.50400001928E-02 0. -1.
       -1   -1    0    0    0  501  0.00000000000E+00  0.00000000000E+00 -0.86576118615E+03  0.86576118616E+03  0.50400001928E-02 0.  1.
    10030    2    1    2    0    0  0.00000000000E+00  0.00000000000E+00  0.40824125423E+03  0.21397636265E+04  0.21004588679E+04 0.  0.
        1    1    3    3  502    0 -0.76467895570E+03  0.24800203963E+03  0.89259462755E+03  0.12012344010E+04  0.50400001928E-02 0. -1.
       -1    1    3    3    0  502  0.76467895570E+03 -0.24800203963E+03 -0.48435337332E+03  0.93852922556E+03  0.50400001928E-02 0.  1.
</event>
<event>
 5   0  0.6052292E-05  0.2054365E+04  0.7818609E-02  0.8581617E-01
       -1   -1    0    0    0  501  0.00000000000E+00  0.00000000000E+00  0.84752944970E+03  0.84752944972E+03  0.50400001928E-02 0.  1.
        1   -1    0    0  501    0  0.00000000000E+00  0.00000000000E+00 -0.12449174662E+04  0.12449174662E+04  0.50400001928E-02 0. -1.
    10030    2    1    2    0    0  0.00000000000E+00  0.00000000000E+00 -0.39738801646E+03  0.20924469159E+04  0.20543653181E+04 0.  0.
        1    1    3    3  502    0 -0.15851274152E+03 -0.43764136069E+03  0.73394769671E+03  0.86910038047E+03  0.50400001928E-02 0.  1.
       -1    1    3    3    0  502  0.15851274152E+03  0.43764136069E+03 -0.11313357132E+04  0.12233465354E+04  0.50400001928E-02 0. -1.
</event>
<event>
 5   0  0.6221148E-05  0.2084716E+04  0.7818609E-02  0.8568006E-01
        1   -1    0    0  501    0  0.00000000000E+00  0.00000000000E+00  0.95361453816E+03  0.95361453818E+03  0.50400001928E-02 0.  1.
       -1   -1    0    0    0  501  0.00000000000E+00  0.00000000000E+00 -0.11393604763E+04  0.11393604763E+04  0.50400001928E-02 0. -1.
    10030    2    1    2    0    0  0.00000000000E+00  0.00000000000E+00 -0.18574593817E+03  0.20929750145E+04  0.20847164934E+04 0.  0.
        3    1    3    3  502    0 -0.39183143979E+03  0.92902615121E+03 -0.35828596999E+03  0.10700422017E+04  0.10100000352E+00 0.  1.
       -3    1    3    3    0  502  0.39183143979E+03 -0.92902615121E+03  0.17254003182E+03  0.10229328129E+04  0.10100000352E+00 0. -1.
</event>
<event>
 5   0  0.1252477E-04  0.2144064E+04  0.7818609E-02  0.8542077E-01
       -2   -1    0    0    0  501  0.00000000000E+00  0.00000000000E+00  0.68604180336E+03  0.68604180337E+03  0.25500000920E-02 0.  1.
        2   -1    0    0  501    0  0.00000000000E+00  0.00000000000E+00 -0.16751938419E+04  0.16751938419E+04  0.25500000920E-02 0. -1.
    10030    2    1    2    0    0  0.00000000000E+00  0.00000000000E+00 -0.98915203857E+03  0.23612356453E+04  0.21440643687E+04 0.  0.
        4    1    3    3  502    0 -0.35089544549E+03 -0.24374827103E+02  0.62068268335E+03  0.71342158096E+03  0.12699999809E+01 0.  1.
       -4    1    3    3    0  502  0.35089544549E+03  0.24374827103E+02 -0.16098347219E+04  0.16478140643E+04  0.12699999809E+01 0. -1.
</event>
<event>
 5   0  0.1235817E-04  0.2112009E+04  0.7818609E-02  0.8555972E-01
       -2   -1    0    0    0  501  0.00000000000E+00  0.00000000000E+00  0.67392978751E+03  0.67392978751E+03  0.25500000920E-02 0. -1.
        2   -1    0    0  501    0  0.00000000000E+00  0.00000000000E+00 -0.16546906767E+04  0.16546906767E+04  0.25500000920E-02 0.  1.
    10030    2    1    2    0    0  0.00000000000E+00  0.00000000000E+00 -0.98076088915E+03  0.23286204642E+04  0.21120088410E+04 0.  0.
        1    1    3    3  502    0 -0.79555469586E+02  0.61200345474E+03 -0.14351595698E+04  0.15622292701E+04  0.50400001928E-02 0.  1.
       -1    1    3    3    0  502  0.79555469586E+02 -0.61200345474E+03  0.45439868069E+03  0.76639119410E+03  0.50400001928E-02 0. -1.
</event>
<event>
 5   0  0.1325673E-04  0.2095704E+04  0.7818609E-02  0.8563138E-01
        2   -1    0    0  501    0  0.00000000000E+00  0.00000000000E+00  0.96621372115E+03  0.96621372115E+03  0.25500000920E-02 0. -1.
       -2   -1    0    0    0  501  0.00000000000E+00  0.00000000000E+00 -0.11363886219E+04  0.11363886219E+04  0.25500000920E-02 0.  1.
    10030    2    1    2    0    0  0.00000000000E+00  0.00000000000E+00 -0.17017490076E+03  0.21026023431E+04  0.20957044439E+04 0.  0.
        5    1    3    3  502    0 -0.30172678440E+03 -0.83650085357E+03  0.47099262288E+03  0.10062946245E+04  0.46999998093E+01 0. -1.
       -5    1    3    3    0  502  0.30172678440E+03  0.83650085357E+03 -0.64116752364E+03  0.10963077186E+04  0.46999998093E+01 0.  1.
</event>
<event>
 5   0  0.5933905E-05  0.2140960E+04  0.7818609E-02  0.8543412E-01
       -1   -1    0    0    0  501  0.00000000000E+00  0.00000000000E+00  0.77139006130E+03  0.77139006132E+03  0.50400001928E-02 0. -1.
        1   -1    0    0  501    0  0.00000000000E+00  0.00000000000E+00 -0.14855360301E+04  0.14855360301E+04  0.50400001928E-02 0.  1.
    10030    2    1    2    0    0  0.00000000000E+00  0.00000000000E+00 -0.71414596880E+03  0.22569260914E+04  0.21409602793E+04 0.  0.
        2    1    3    3  502    0 -0.38295076813E+03 -0.11818475927E+03  0.68932021464E+03  0.79735894455E+03  0.25500000920E-02 0. -1.
       -2    1    3    3    0  502  0.38295076813E+03  0.11818475927E+03 -0.14034661834E+04  0.14595671469E+04  0.25500000920E-02 0.  1.
</event>
<event>
 5   0  0.5846187E-05  0.2168288E+04  0.7818609E-02  0.8531744E-01
        1   -1    0    0  501    0  0.00000000000E+00  0.00000000000E+00  0.10582869691E+04  0.10582869691E+04  0.50400001928E-02 0. -1.
       -1   -1    0    0    0  501  0.00000000000E+00  0.00000000000E+00 -0.11106329394E+04  0.11106329394E+04  0.50400001928E-02 0.  1.
    10030    2    1    2    0    0  0.00000000000E+00  0.00000000000E+00 -0.52345970373E+02  0.21689199085E+04  0.21682881425E+04 0.  0.
        5    1    3    3  502    0 -0.69649541417E+03  0.18485564837E+03  0.78404375919E+03  0.10649057137E+04  0.46999998093E+01 0. -1.
       -5    1    3    3    0  502  0.69649541417E+03 -0.18485564837E+03 -0.83638972956E+03  0.11040141948E+04  0.46999998093E+01 0.  1.
</event>
<event>
 5   0  0.1252477E-04  0.1510003E+04  0.7818609E-02  0.8877828E-01
        2   -1    0    0  501    0  0.00000000000E+00  0.00000000000E+00  0.21641513075E+04  0.21641513075E+04  0.25500000920E-02 0.  1.
       -2   -1    0    0    0  501  0.00000000000E+00  0.00000000000E+00 -0.26339523449E+03  0.26339523450E+03  0.25500000920E-02 0. -1.
    10030    2    1    2    0    0  0.00000000000E+00  0.00000000000E+00  0.19007560730E+04  0.24275465420E+04  0.15100028359E+04 0.  0.
        4    1    3    3  502    0  0.70165059039E+03 -0.25681987492E+03  0.77607261635E+03  0.10772930511E+04  0.12699999809E+01 0.  1.
       -4    1    3    3    0  502 -0.70165059039E+03  0.25681987492E+03  0.11246834566E+04  0.13502534909E+04  0.12699999809E+01 0. -1.
</event>
<event>
 5   0  0.6221148E-05  0.2108409E+04  0.7818609E-02  0.8557548E-01
        1   -1    0    0  501    0  0.00000000000E+00  0.00000000000E+00  0.11667701136E+04  0.11667701136E+04  0.50400001928E-02 0. -1.
       -1   -1    0    0    0  501  0.00000000000E+00  0.00000000000E+00 -0.95249890541E+03  0.95249890542E+03  0.50400001928E-02 0.  1.
    10030    2    1    2    0    0  0.00000000000E+00  0.00000000000E+00  0.21427120821E+03  0.21192690191E+04  0.21084091217E+04 0.  0.
        3    1    3    3  502    0  0.11179691558E+03  0.77810210294E+03 -0.59891094352E+03  0.98824883576E+03  0.10100000352E+00 0.  1.
       -3    1    3    3    0  502 -0.11179691558E+03 -0.77810210294E+03  0.81318215173E+03  0.11310201833E+04  0.10100000352E+00 0. -1.
</event>
<event>
 5   0  0.1252477E-04  0.2071473E+04  0.7818609E-02  0.8573915E-01
       -2   -1    0    0    0  501  0.00000000000E+00  0.00000000000E+00  0.78917997057E+03  0.78917997057E+03  0.25500000920E-02 0. -1.
        2   -1    0    0  501    0  0.00000000000E+00  0.00000000000E+00 -0.13593223280E+04  0.13593223280E+04  0.25500000920E-02 0.  1.
    10030    2    1    2    0    0  0.00000000000E+00  0.00000000000E+00 -0.57014235743E+03  0.21485022986E+04  0.20714728623E+04 0.  0.
        4    1    3    3  502    0 -0.51435844404E+03  0.39414411604E+03 -0.11230981694E+04  0.12966361495E+04  0.12699999809E+01 0.  1.
       -4    1    3    3    0  502  0.51435844404E+03 -0.39414411604E+03  0.55295581193E+03  0.85186614912E+03  0.12699999809E+01 0. -1.
</event>
<event>
 5   0  0.6221148E-05  0.2139150E+04  0.7818609E-02  0.8544191E-01
        1   -1    0    0  501    0  0.00000000000E+00  0.00000000000E+00  0.18579965878E+04  0.18579965878E+04  0.50400001928E-02 0.  1.
       -1   -1    0    0    0  501  0.00000000000E+00  0.00000000000E+00 -0.61571180095E+03  0.61571180097E+03  0.50400001928E-02 0. -1.
    10030    2    1    2    0    0  0.00000000000E+00  0.00000000000E+00  0.12422847869E+04  0.24737083888E+04  0.21391497613E+04 0.  0.
        3    1    3    3  502    0  0.10297593128E+04 -0.22362979029E+03  0.40924721471E+03  0.11304414264E+04  0.10100000352E+00 0.  1.
       -3    1    3    3    0  502 -0.10297593128E+04  0.22362979029E+03  0.83303757216E+03  0.13432669624E+04  0.10100000352E+00 0. -1.
</event>
<event>
 5   0  0.6052292E-05  0.1983886E+04  0.7818609E-02  0.8614192E-01
        1   -1    0    0  501    0  0.00000000000E+00  0.00000000000E+00  0.15433909422E+04  0.15433909422E+04  0.50400001928E-02 0.  1.
       -1   -1    0    0    0  501  0.00000000000E+00  0.00000000000E+00 -0.63752570141E+03  0.63752570143E+03  0.50400001928E-02 0. -1.
    10030    2    1    2    0    0  0.00000000000E+00  0.00000000000E+00  0.90586524080E+03  0.21809166436E+04  0.19838864816E+04 0.  0.
        1    1    3    3  502    0 -0.24611526813E+03  0.18825291219E+03  0.14888233318E+04  0.15207257470E+04  0.50400001928E-02 0.  1.
       -1    1    3    3    0  502  0.24611526813E+03 -0.18825291219E+03 -0.58295809101E+03  0.66019089667E+03  0.50400001928E-02 0. -1.
</event>
<event>
 5   0  0.1252477E-04  0.2103693E+04  0.7818609E-02  0.8559618E-01
       -2   -1    0    0    0  501  0.00000000000E+00  0.00000000000E+00  0.27998224723E+04  0.27998224723E+04  0.25500000920E-02 0.  1.
        2   -1    0    0  501    0  0.00000000000E+00  0.00000000000E+00 -0.39516133467E+03  0.39516133468E+03  0.25500000920E-02 0. -1.
    10030    2    1    2    0    0  0.00000000000E+00  0.00000000000E+00  0.24046611376E+04  0.31949838070E+04  0.21036934995E+04 0.  0.
        4    1    3    3  502    0  0.96589420761E+03  0.41112341319E+03  0.11015206958E+04  0.15216187228E+04  0.12699999809E+01 0. -1.
       -4    1    3    3    0  502 -0.96589420761E+03 -0.41112341319E+03  0.13031404417E+04  0.16733650842E+04  0.12699999809E+01 0.  1.
</event>
<event>
 5   0  0.1235817E-04  0.2058187E+04  0.7818609E-02  0.8579889E-01
       -2   -1    0    0    0  501  0.00000000000E+00  0.00000000000E+00  0.66935859460E+03  0.66935859461E+03  0.25500000920E-02 0. -1.
        2   -1    0    0  501    0  0.00000000000E+00  0.00000000000E+00 -0.15821619078E+04  0.15821619079E+04  0.25500000920E-02 0.  1.
    10030    2    1    2    0    0  0.00000000000E+00  0.00000000000E+00 -0.91280331324E+03  0.22515205025E+04  0.20581872326E+04 0.  0.
        1    1    3    3  502    0  0.99521289576E+03 -0.22195698197E+03 -0.60845475579E+03  0.11874050697E+04  0.50400001928E-02 0.  1.
       -1    1    3    3    0  502 -0.99521289576E+03  0.22195698197E+03 -0.30434855745E+03  0.10641154327E+04  0.50400001928E-02 0. -1.
</event>
<event>
 5   0  0.1252477E-04  0.2122352E+04  0.7818609E-02  0.8551461E-01
        2   -1    0    0  501    0  0.00000000000E+00  0.00000000000E+00  0.11476696054E+04  0.11476696054E+04  0.25500000920E-02 0. -1.
       -2   -1    0    0    0  501  0.00000000000E+00  0.00000000000E+00 -0.98120055672E+03  0.98120055673E+03  0.25500000920E-02 0.  1.
    10030    2    1    2    0    0  0.00000000000E+00  0.00000000000E+00  0.16646904865E+03  0.21288701621E+04  0.21223515785E+04 0.  0.
        4    1    3    3  502    0 -0.84693816225E+03  0.56625988056E+03 -0.21455765897E+03  0.10411489350E+04  0.12699999809E+01 0.  1.
       -4    1    3    3    0  502  0.84693816225E+03 -0.56625988056E+03  0.38102670762E+03  0.10877212271E+04  0.12699999809E+01 0. -1.
</event>
<event>
 5   0  0.1252477E-04  0.2096577E+04  0.7818609E-02  0.8562753E-01
        2   -1    0    0  501    0  0.00000000000E+00  0.00000000000E+00  0.15397708045E+04  0.15397708045E+04  0.25500000920E-02 0.  1.
       -2   -1    0    0    0  501  0.00000000000E+00  0.00000000000E+00 -0.71368301744E+03  0.71368301744E+03  0.25500000920E-02 0. -1.
    10030    2    1    2    0    0  0.00000000000E+00  0.00000000000E+00  0.82608778707E+03  0.22534538219E+04  0.20965765180E+04 0.  0.
        4    1    3    3  502    0 -0.44499494926E+03  0.91424514049E+03  0.68716016747E+03  0.12272144843E+04  0.12699999809E+01 0.  1.
       -4    1    3    3    0  502  0.44499494926E+03 -0.91424514049E+03  0.13892761960E+03  0.10262393377E+04  0.12699999809E+01 0. -1.
</event>
<event>
 5   0  0.6052292E-05  0.2050375E+04  0.7818609E-02  0.8583424E-01
       -1   -1    0    0    0  501  0.00000000000E+00  0.00000000000E+00  0.11511384984E+04  0.11511384984E+04  0.50400001928E-02 0. -1.
        1   -1    0    0  501    0  0.00000000000E+00  0.00000000000E+00 -0.91301767097E+03  0.91301767098E+03  0.50400001928E-02 0.  1.
    10030    2    1    2    0    0  0.00000000000E+00  0.00000000000E+00  0.23812082745E+03  0.20641561694E+04  0.20503753713E+04 0.  0.
        1    1    3    3  502    0 -0.58636569041E+02 -0.22069426937E+02  0.11492093951E+04  0.11509159573E+04  0.50400001928E-02 0. -1.
       -1    1    3    3    0  502  0.58636569041E+02  0.22069426937E+02 -0.91108856769E+03  0.91324021212E+03  0.50400001928E-02 0.  1.
</event>
<event>
 5   0  0.6221148E-05  0.2075851E+04  0.7818609E-02  0.8571956E-01
       -1   -1    0    0    0  501  0.00000000000E+00  0.00000000000E+00  0.14387323697E+04  0.14387323697E+04  0.50400001928E-02 0. -1.
        1   -1    0    0  501    0  0.00000000000E+00  0.00000000000E+00 -0.74877693837E+03  0.74877693839E+03  0.50400001928E-02 0.  1.
    10030    2    1    2    0    0  0.00000000000E+00  0.00000000000E+00  0.68995543136E+03  0.21875093081E+04  0.20758512654E+04 0.  0.
        3    1    3    3  502    0  0.31608586557E+03  0.59256642645E+03 -0.48894459288E+03  0.83072984133E+03  0.10100000352E+00 0.  1.
       -3    1    3    3    0  502 -0.31608586557E+03 -0.59256642645E+03  0.11789000242E+04  0.13567794668E+04  0.10100000352E+00 0. -1.
</event>
<event>
 5   0  0.1349252E-04  0.2139694E+04  0.7818609E-02  0.8543957E-01
       -2   -1    0    0    0  501  0.00000000000E+00  0.00000000000E+00  0.82013147309E+03  0.82013147310E+03  0.25500000920E-02 0.  1.
        2   -1    0    0  501    0  0.00000000000E+00  0.00000000000E+00 -0.13955962234E+04  0.13955962234E+04  0.25500000920E-02 0. -1.
    10030    2    1    2    0    0  0.00000000000E+00  0.00000000000E+00 -0.57546475026E+03  0.22157276965E+04  0.21396937973E+04 0.  0.
        2    1    3    3  502    0  0.68825227609E+02 -0.91100938085E+03 -0.86419839512E+03  0.12575825500E+04  0.25500000920E-02 0.  1.
       -2    1    3    3    0  502 -0.68825227609E+02  0.91100938085E+03  0.28873364486E+03  0.95814514644E+03  0.25500000920E-02 0. -1.
</event>
<event>
 5   0  0.5933905E-05  0.2119354E+04  0.7818609E-02  0.8552765E-01
        1   -1    0    0  501    0  0.00000000000E+00  0.00000000000E+00  0.91161310375E+03  0.91161310377E+03  0.50400001928E-02 0. -1.
       -1   -1    0    0    0  501  0.00000000000E+00  0.00000000000E+00 -0.12317896664E+04  0.12317896664E+04  0.50400001928E-02 0.  1.
    10030    2    1    2    0    0  0.00000000000E+00  0.00000000000E+00 -0.32017656264E+03  0.21434027702E+04  0.21193542422E+04 0.  0.
        2    1    3    3  502    0 -0.61200848720E+03  0.33069754049E+03  0.64835728189E+03  0.95093765131E+03  0.25500000920E-02 0. -1.
       -2    1    3    3    0  502  0.61200848720E+03 -0.33069754049E+03 -0.96853384453E+03  0.11924651189E+04  0.25500000920E-02 0.  1.
</event>
<event>
 5   0  0.6263616E-05  0.2123429E+04  0.7818609E-02  0.8550992E-01
       -1   -1    0    0    0  501  0.00000000000E+00  0.00000000000E+00  0.71827039269E+03  0.71827039270E+03  0.50400001928E-02 0. -1.
        1   -1    0    0  501    0  0.00000000000E+00  0.00000000000E+00 -0.15693776099E+04  0.15693776099E+04  0.50400001928E-02 0.  1.
    10030    2    1    2    0    0  0.00000000000E+00  0.00000000000E+00 -0.85110721718E+03  0.22876480026E+04  0.21234288047E+04 0.  0.
        4    1    3    3  502    0 -0.69313215049E+03 -0.76111115172E+03 -0.70548190107E+03  0.12479698269E+04  0.12699999809E+01 0. -1.
       -4    1    3    3    0  502  0.69313215049E+03  0.76111115172E+03 -0.14562531611E+03  0.10396781756E+04  0.12699999809E+01 0.  1.
</event>
<event>
 5   0  0.6263616E-05  0.2114395E+04  0.7818609E-02  0.8554929E-01
        1   -1    0    0  501    0  0.00000000000E+00  0.00000000000E+00  0.10739043846E+04  0.10739043846E+04  0.50400001928E-02 0. -1.
       -1   -1    0    0    0  501  0.00000000000E+00  0.00000000000E+00 -0.10407503271E+04  0.10407503271E+04  0.50400001928E-02 0.  1.
    10030    2    1    2    0    0  0.00000000000E+00  0.00000000000E+00  0.33154057548E+02  0.21146547117E+04  0.21143947972E+04 0.  0.
        4    1    3    3  502    0  0.63287788597E+03 -0.52140020889E+03  0.68394619819E+03  0.10677905278E+04  0.12699999809E+01 0. -1.
       -4    1    3    3    0  502 -0.63287788597E+03  0.52140020889E+03 -0.65079214064E+03  0.10468641839E+04  0.12699999809E+01 0.  1.
</event>
<event>
 5   0  0.1349252E-04  0.2094302E+04  0.7818609E-02  0.8563758E-01
        2   -1    0    0  501    0  0.00000000000E+00  0.00000000000E+00  0.19133282248E+04  0.19133282248E+04  0.25500000920E-02 0. -1.
       -2   -1    0    0    0  501  0.00000000000E+00  0.00000000000E+00 -0.57309831814E+03  0.57309831814E+03  0.25500000920E-02 0.  1.
    10030    2    1    2    0    0  0.00000000000E+00  0.00000000000E+00  0.13402299066E+04  0.24864265429E+04  0.20943019722E+04 0.  0.
        2    1    3    3  502    0  0.71129569680E+03  0.38311620161E+03  0.14610352459E+04  0.16695339415E+04  0.25500000920E-02 0. -1.
       -2    1    3    3    0  502 -0.71129569680E+03 -0.38311620161E+03 -0.12080533923E+03  0.81689260140E+03  0.25500000920E-02 0.  1.
</event>
<event>
 5   0  0.6052292E-05  0.2107167E+04  0.7818609E-02  0.8558093E-01
        1   -1    0    0  501    0  0.00000000000E+00  0.00000000000E+00  0.88783014049E+03  0.88783014051E+03  0.50400001928E-02 0. -1.
       -1   -1    0    0    0  501  0.00000000000E+00  0.00000000000E+00 -0.12502821252E+04  0.12502821252E+04  0.50400001928E-02 0.  1.
    10030    2    1    2    0    0  0.00000000000E+00  0.00000000000E+00 -0.36245198471E+03  0.21381122657E+04  0.21071669653E+04 0.  0.
        1    1    3    3  502    0  0.85623619355E+03  0.19014074482E+03  0.41107957240E+03  0.96864871696E+03  0.50400001928E-02 0. -1.
       -1    1    3    3    0  502 -0.85623619355E+03 -0.19014074482E+03 -0.77353155711E+03  0.11694635488E+04  0.50400001928E-02 0.  1.
</event>
<event>
 5   0  0.1349252E-04  0.2184055E+04  0.7818609E-02  0.8525094E-01
       -2   -1    0    0    0  501  0.00000000000E+00  0.00000000000E+00  0.81214018133E+03  0.81214018134E+03  0.25500000920E-02 0. -1.
        2   -1    0    0  501    0  0.00000000000E+00  0.00000000000E+00 -0.14683722742E+04  0.14683722742E+04  0.25500000920E-02 0.  1.
    10030    2    1    2    0    0  0.00000000000E+00  0.00000000000E+00 -0.65623209289E+03  0.22805124556E+04  0.21840550589E+04 0.  0.
        2    1    3    3  502    0  0.85963769269E+03 -0.63289374958E+03 -0.87747995055E+02  0.10710887786E+04  0.25500000920E-02 0. -1.
       -2    1    3    3    0  502 -0.85963769269E+03  0.63289374958E+03 -0.56848409783E+03  0.12094236770E+04  0.25500000920E-02 0.  1.
</event>
<event>
 5   0  0.1349252E-04  0.2113948E+04  0.7818609E-02  0.8555124E-01
        2   -1    0    0  501    0  0.00000000000E+00  0.00000000000E+00  0.12300002770E+04  0.12300002770E+04  0.25500000920E-02 0. -1.
       -2   -1    0    0    0  501  0.00000000000E+00  0.00000000000E+00 -0.90828774353E+03  0.90828774354E+03  0.25500000920E-02 0.  1.
    10030    2    1    2    0    0  0.00000000000E+00  0.00000000000E+00  0.32171253349E+03  0.21382880206E+04  0.21139481320E+04 0.  0.
        2    1    3    3  502    0  0.58202531780E+02  0.16223281449E+03  0.12156898391E+04  0.12278472241E+04  0.25500000920E-02 0. -1.
       -2    1    3    3    0  502 -0.58202531780E+02 -0.16223281449E+03 -0.89397730565E+03  0.91044079644E+03  0.25500000920E-02 0.  1.
</event>
<event>
 5   0  0.1349252E-04  0.2169292E+04  0.7818609E-02  0.8531319E-01
       -2   -1    0    0    0  501  0.00000000000E+00  0.00000000000E+00  0.76218276454E+03  0.76218276454E+03  0.25500000920E-02 0. -1.
        2   -1    0    0  501    0  0.00000000000E+00  0.00000000000E+00 -0.15435362245E+04  0.15435362245E+04  0.25500000920E-02 0.  1.
    10030    2    1    2    0    0  0.00000000000E+00  0.00000000000E+00 -0.78135345997E+03  0.23057189891E+04  0.21692917801E+04 0.  0.
        2    1    3    3  502    0 -0.81139743889E+03  0.28756943012E+03 -0.10920189562E+04  0.13905277350E+04  0.25500000920E-02 0.  1.
       -2    1    3    3    0  502  0.81139743889E+03 -0.28756943012E+03  0.31066549625E+03  0.91519125408E+03  0.25500000920E-02 0. -1.
</event>
<event>
 5   0  0.1235817E-04  0.2074457E+04  0.7818609E-02  0.8572580E-01
        2   -1    0    0  501    0  0.00000000000E+00  0.00000000000E+00  0.12582504858E+04  0.12582504858E+04  0.25500000920E-02 0.  1.
       -2   -1    0    0    0  501  0.00000000000E+00  0.00000000000E+00 -0.85503049908E+03  0.85503049908E+03  0.25500000920E-02 0. -1.
    10030    2    1    2    0    0  0.00000000000E+00  0.00000000000E+00  0.40321998674E+03  0.21132809849E+04  0.20744565947E+04 0.  0.
        1    1    3    3  502    0 -0.86419231019E+03  0.44786387649E+03 -0.16347144470E+03  0.98698192188E+03  0.50400001928E-02 0. -1.
       -1    1    3    3    0  502  0.86419231019E+03 -0.44786387649E+03  0.56669143143E+03  0.11262990630E+04  0.50400001928E-02 0.  1.
</event>
<event>
 5   0  0.5933905E-05  0.2109827E+04  0.7818609E-02  0.8556927E-01
       -1   -1    0    0    0  501  0.00000000000E+00  0.00000000000E+00  0.96379101501E+03  0.96379101502E+03  0.50400001928E-02 0.  1.
        1   -1    0    0  501    0  0.00000000000E+00  0.00000000000E+00 -0.11546509394E+04  0.11546509394E+04  0.50400001928E-02 0. -1.
    10030    2    1    2    0    0  0.00000000000E+00  0.00000000000E+00 -0.19085992440E+03  0.21184419544E+04  0.21098267236E+04 0.  0.
        2    1    3    3  502    0 -0.88421545992E+03 -0.50143104624E+03 -0.37866714364E+03  0.10847390835E+04  0.25500000920E-02 0. -1.
       -2    1    3    3    0  502  0.88421545992E+03  0.50143104624E+03  0.18780721924E+03  0.10337028709E+04  0.25500000920E-02 0.  1.
</event>
<event>
 5   0  0.1252477E-04  0.2268508E+04  0.7818609E-02  0.8490442E-01
        2   -1    0    0  501    0  0.00000000000E+00  0.00000000000E+00  0.13985038485E+04  0.13985038486E+04  0.25500000920E-02 0. -1.
       -2   -1    0    0    0  501  0.00000000000E+00  0.00000000000E+00 -0.91993488096E+03  0.91993488097E+03  0.25500000920E-02 0.  1.
    10030    2    1    2    0    0  0.00000000000E+00  0.00000000000E+00  0.47856896759E+03  0.23184387295E+04  0.22685082953E+04 0.  0.
        4    1    3    3  502    0 -0.12508446076E+03 -0.95918636105E+03 -0.36607545586E+03  0.10342617898E+04  0.12699999809E+01 0.  1.
       -4    1    3    3    0  502  0.12508446076E+03  0.95918636105E+03  0.84464442344E+03  0.12841769397E+04  0.12699999809E+01 0. -1.
</event>
<event>
 5   0  0.1325673E-04  0.2124448E+04  0.7818609E-02  0.8550550E-01
        2   -1    0    0  501    0  0.00000000000E+00  0.00000000000E+00  0.10716055137E+04  0.10716055137E+04  0.25500000920E-02 0. -1.
       -2   -1    0    0    0  501  0.00000000000E+00  0.00000000000E+00 -0.10529243173E+04  0.10529243173E+04  0.25500000920E-02 0.  1.
    10030    2    1    2    0    0  0.00000000000E+00  0.00000000000E+00  0.18681196374E+02  0.21245298311E+04  0.21244476967E+04 0.  0.
        5    1    3    3  502    0 -0.92975869833E+03  0.70450882365E+02  0.51816558583E+03  0.10667390629E+04  0.46999998093E+01 0. -1.
       -5    1    3    3    0  502  0.92975869833E+03 -0.70450882365E+02 -0.49948438946E+03  0.10577907682E+04  0.46999998093E+01 0.  1.
</event>
<event>
 5   0  0.6221148E-05  0.2058215E+04  0.7818609E-02  0.8579877E-01
        1   -1    0    0  501    0  0.00000000000E+00  0.00000000000E+00  0.57367547637E+03  0.57367547639E+03  0.50400001928E-02 0.  1.
       -1   -1    0    0    0  501  0.00000000000E+00  0.00000000000E+00 -0.18460993704E+04  0.18460993704E+04  0.50400001928E-02 0. -1.
    10030    2    1    2    0    0  0.00000000000E+00  0.00000000000E+00 -0.12724238940E+04  0.24197748468E+04  0.20582146980E+04 0.  0.
        3    1    3    3  502    0 -0.73572140349E+03  0.68699986820E+03 -0.88783521068E+03  0.13422019870E+04  0.10100000352E+00 0. -1.
       -3    1    3    3    0  502  0.73572140349E+03 -0.68699986820E+03 -0.38458868330E+03  0.10775728597E+04  0.10100000352E+00 0.  1.
</event>
<event>
 5   0  0.1325673E-04  0.2068145E+04  0.7818609E-02  0.8575407E-01
        2   -1    0    0  501    0  0.00000000000E+00  0.00000000000E+00  0.28747687778E+04  0.28747687778E+04  0.25500000920E-02 0.  1.
       -2   -1    0    0    0  501  0.00000000000E+00  0.00000000000E+00 -0.37196225804E+03  0.37196225805E+03  0.25500000920E-02 0. -1.
    10030    2    1    2    0    0  0.00000000000E+00  0.00000000000E+00  0.25028065197E+04  0.32467310358E+04  0.20681445655E+04 0.  0.
        5    1    3    3  502    0 -0.51105096972E+03  0.52554871351E+03  0.23963466872E+04  0.25059676931E+04  0.46999998093E+01 0.  1.
       -5    1    3    3    0  502  0.51105096972E+03 -0.52554871351E+03  0.10645983256E+03  0.74076334268E+03  0.46999998093E+01 0. -1.
</event>
<event>
 5   0  0.5846187E-05  0.2101971E+04  0.7818609E-02  0.8560376E-01
       -1   -1    0    0    0  501  0.00000000000E+00  0.00000000000E+00  0.44035666931E+03  0.44035666934E+03  0.50400001928E-02 0.  1.
        1   -1    0    0  501    0  0.00000000000E+00  0.00000000000E+00 -0.25083538186E+04  0.25083538186E+04  0.50400001928E-02 0. -1.
    10030    2    1    2    0    0  0.00000000000E+00  0.00000000000E+00 -0.20679971493E+04  0.29487104879E+04  0.21019708210E+04 0.  0.
        5    1    3    3  502    0  0.23490805537E+03 -0.10243858701E+04 -0.10337263006E+04  0.14741642920E+04  0.46999998093E+01 0. -1.
       -5    1    3    3    0  502 -0.23490805537E+03  0.10243858701E+04 -0.10342708487E+04  0.14745461959E+04  0.46999998093E+01 0.  1.
</event>
<event>
 5   0  0.1325673E-04  0.2099021E+04  0.7818609E-02  0.8561675E-01
        2   -1    0    0  501    0  0.00000000000E+00  0.00000000000E+00  0.13264005252E+04  0.13264005252E+04  0.25500000920E-02 0.  1.
       -2   -1    0    0    0  501  0.00000000000E+00  0.00000000000E+00 -0.83042179080E+03  0.83042179081E+03  0.25500000920E-02 0. -1.
    10030    2    1    2    0    0  0.00000000000E+00  0.00000000000E+00  0.49597873442E+03  0.21568223160E+04  0.20990206283E+04 0.  0.
        5    1    3    3  502    0  0.11689521459E+03 -0.78081177002E+02  0.13166721132E+04  0.13241633982E+04  0.46999998093E+01 0.  1.
       -5    1    3    3    0  502 -0.11689521459E+03  0.78081177002E+02 -0.82069337881E+03  0.83265891782E+03  0.46999998093E+01 0. -1.
</event>
<event>
 5   0  0.1349252E-04  0.2130917E+04  0.7818609E-02  0.8547745E-01
        2   -1    0    0  501    0  0.00000000000E+00  0.00000000000E+00  0.77082618680E+03  0.77082618680E+03  0.25500000920E-02 0. -1.
       -2   -1    0    0    0  501  0.00000000000E+00  0.00000000000E+00 -0.14727078317E+04  0.14727078317E+04  0.25500000920E-02 0.  1.
    10030    2    1    2    0    0  0.00000000000E+00  0.00000000000E+00 -0.70188164489E+03  0.22435340185E+04  0.21309169502E+04 0.  0.
        2    1    3    3  502    0 -0.52740411736E+03 -0.76783811129E+03  0.19356775387E+03  0.95141943616E+03  0.25500000920E-02 0. -1.
       -2    1    3    3    0  502  0.52740411736E+03  0.76783811129E+03 -0.89544939875E+03  0.12921145823E+04  0.25500000920E-02 0.  1.
</event>
<event>
 5   0  0.6052292E-05  0.2088924E+04  0.7818609E-02  0.8566138E-01
        1   -1    0    0  501    0  0.00000000000E+00  0.00000000000E+00  0.15491077427E+04  0.15491077427E+04  0.50400001928E-02 0. -1.
       -1   -1    0    0    0  501  0.00000000000E+00  0.00000000000E+00 -0.70421250755E+03  0.70421250757E+03  0.50400001928E-02 0.  1.
    10030    2    1    2    0    0  0.00000000000E+00  0.00000000000E+00  0.84489523513E+03  0.22533202503E+04  0.20889241709E+04 0.  0.
        1    1    3    3  502    0 -0.67137781128E+03  0.77121991766E+03  0.65221991001E+03  0.12128145521E+04  0.50400001928E-02 0.  1.
       -1    1    3    3    0  502  0.67137781128E+03 -0.77121991766E+03  0.19267532513E+03  0.10405056981E+04  0.50400001928E-02 0. -1.
</event>
<event>
 5   0  0.6221148E-05  0.2151240E+04  0.7818609E-02  0.8539001E-01
       -1   -1    0    0    0  501  0.00000000000E+00  0.00000000000E+00  0.11947425258E+04  0.11947425258E+04  0.50400001928E-02 0. -1.
        1   -1    0    0  501    0  0.00000000000E+00  0.00000000000E+00 -0.96837506522E+03  0.96837506523E+03  0.50400001928E-02 0.  1.
    10030    2    1    2    0    0  0.00000000000E+00  0.00000000000E+00  0.22636746056E+03  0.21631175910E+04  0.21512404527E+04 0.  0.
        3    1    3    3  502    0 -0.39198511295E+02  0.43422710125E+03 -0.87554015918E+03  0.97809011818E+03  0.10100000352E+00 0.  1.
       -3    1    3    3    0  502  0.39198511295E+02 -0.43422710125E+03  0.11019076197E+04  0.11850274728E+04  0.10100000352E+00 0. -1.
</event>
<event>
 5   0  0.1252477E-04  0.1961704E+04  0.7818609E-02  0.8624738E-01
       -2   -1    0    0    0  501  0.00000000000E+00  0.00000000000E+00  0.47525468145E+03  0.47525468146E+03  0.25500000920E-02 0.  1.
        2   -1    0    0  501    0  0.00000000000E+00  0.00000000000E+00 -0.20243255769E+04  0.20243255769E+04  0.25500000920E-02 0. -1.
    10030    2    1    2    0    0  0.00000000000E+00  0.00000000000E+00 -0.15490708954E+04  0.24995802583E+04  0.19617035527E+04 0.  0.
        4    1    3    3  502    0 -0.82469791155E+03  0.23921220243E+03 -0.13785592592E+04  0.16241232611E+04  0.12699999809E+01 0. -1.
       -4    1    3    3    0  502  0.82469791155E+03 -0.23921220243E+03 -0.17051163623E+03  0.87545699728E+03  0.12699999809E+01 0.  1.
</event>
<event>
 5   0  0.1252477E-04  0.2068003E+04  0.7818609E-02  0.8575471E-01
       -2   -1    0    0    0  501  0.00000000000E+00  0.00000000000E+00  0.68398743345E+03  0.68398743346E+03  0.25500000920E-02 0.  1.
        2   -1    0    0  501    0  0.00000000000E+00  0.00000000000E+00 -0.15631275223E+04  0.15631275223E+04  0.25500000920E-02 0. -1.
    10030    2    1    2    0    0  0.00000000000E+00  0.00000000000E+00 -0.87914008885E+03  0.22471149558E+04  0.20680034644E+04 0.  0.
        4    1    3    3  502    0 -0.55071711684E+03 -0.26173047916E+03 -0.13469816832E+04  0.14785646602E+04  0.12699999809E+01 0. -1.
       -4    1    3    3    0  502  0.55071711684E+03  0.26173047916E+03  0.46784159438E+03  0.76855029558E+03  0.12699999809E+01 0.  1.
</event>
<event>
 5   0  0.1235817E-04  0.2314345E+04  0.7818609E-02  0.8472286E-01
       -2   -1    0    0    0  501  0.00000000000E+00  0.00000000000E+00  0.45290519959E+03  0.45290519960E+03  0.25500000920E-02 0. -1.
        2   -1    0    0  501    0  0.00000000000E+00  0.00000000000E+00 -0.29565750855E+04  0.29565750855E+04  0.25500000920E-02 0.  1.
    10030    2    1    2    0    0  0.00000000000E+00  0.00000000000E+00 -0.25036698859E+04  0.34094802851E+04  0.23143450298E+04 0.  0.
        1    1    3    3  502    0  0.15216721881E+03 -0.19777415545E+03  0.41279576178E+03  0.48235860105E+03  0.50400001928E-02 0. -1.
       -1    1    3    3    0  502 -0.15216721881E+03  0.19777415545E+03 -0.29164656477E+04  0.29271216841E+04  0.50400001928E-02 0.  1.
</event>
<event>
 5   0  0.1325673E-04  0.2090321E+04  0.7818609E-02  0.8565519E-01
        2   -1    0    0  501    0  0.00000000000E+00  0.00000000000E+00  0.63037856592E+03  0.63037856593E+03  0.25500000920E-02 0.  1.
       -2   -1    0    0    0  501  0.00000000000E+00  0.00000000000E+00 -0.17328634146E+04  0.17328634146E+04  0.25500000920E-02 0. -1.
    10030    2    1    2    0    0  0.00000000000E+00  0.00000000000E+00 -0.11024848486E+04  0.23632419805E+04  0.20903205058E+04 0.  0.
        5    1    3    3  502    0  0.11786629621E+03  0.62008323201E+03  0.39055382540E+03  0.74226010195E+03  0.46999998093E+01 0.  1.
       -5    1    3    3    0  502 -0.11786629621E+03 -0.62008323201E+03 -0.14930386740E+04  0.16209818785E+04  0.46999998093E+01 0. -1.
</event>
<event>
 5   0  0.6221148E-05  0.2237951E+04  0.7818609E-02  0.8502796E-01
       -1   -1    0    0    0  501  0.00000000000E+00  0.00000000000E+00  0.52132572452E+03  0.52132572454E+03  0.50400001928E-02 0. -1.
        1   -1    0    0  501    0  0.00000000000E+00  0.00000000000E+00 -0.24017735542E+04  0.24017735542E+04  0.50400001928E-02 0.  1.
    10030    2    1    2    0    0  0.00000000000E+00  0.00000000000E+00 -0.18804478297E+04  0.29230992788E+04  0.22379511508E+04 0.  0.
        3    1    3    3  502    0  0.95172073964E+03  0.29154186480E+03 -0.16079428090E+04  0.18910973303E+04  0.10100000352E+00 0. -1.
       -3    1    3    3    0  502 -0.95172073964E+03 -0.29154186480E+03 -0.27250502065E+03  0.10320019485E+04  0.10100000352E+00 0.  1.
</event>
<event>
 5   0  0.6052292E-05  0.2149333E+04  0.7818609E-02  0.8539818E-01
       -1   -1    0    0    0  501  0.00000000000E+00  0.00000000000E+00  0.84472372487E+03  0.84472372488E+03  0.50400001928E-02 0.  1.
        1   -1    0    0  501    0  0.00000000000E+00  0.00000000000E+00 -0.13672018021E+04  0.13672018021E+04  0.50400001928E-02 0. -1.
    10030    2    1    2    0    0  0.00000000000E+00  0.00000000000E+00 -0.52247807726E+03  0.22119255270E+04  0.21493327327E+04 0.  0.
        1    1    3    3  502    0  0.43778302086E+03 -0.53927554530E+03  0.58266338267E+03  0.90662489743E+03  0.50400001928E-02 0.  1.
       -1    1    3    3    0  502 -0.43778302086E+03  0.53927554530E+03 -0.11051414599E+04  0.13053006296E+04  0.50400001928E-02 0. -1.
</event>
<event>
 5   0  0.1349252E-04  0.2096832E+04  0.7818609E-02  0.8562640E-01
        2   -1    0    0  501    0  0.00000000000E+00  0.00000000000E+00  0.12435250708E+04  0.12435250708E+04  0.25500000920E-02 0. -1.
       -2   -1    0    0    0  501  0.00000000000E+00  0.00000000000E+00 -0.88391924379E+03  0.88391924379E+03  0.25500000920E-02 0.  1.
    10030    2    1    2    0    0  0.00000000000E+00  0.00000000000E+00  0.35960582699E+03  0.21274443146E+04  0.20968316482E+04 0.  0.
        2    1    3    3  502    0  0.73396890697E+03  0.57974710481E+03  0.66038333593E+03  0.11449555504E+04  0.25500000920E-02 0. -1.
       -2    1    3    3    0  502 -0.73396890697E+03 -0.57974710481E+03 -0.30077750893E+03  0.98248876422E+03  0.25500000920E-02 0.  1.
</event>
<event>
 5   0  0.5846187E-05  0.2087441E+04  0.7818609E-02  0.8566796E-01
        1   -1    0    0  501    0  0.00000000000E+00  0.00000000000E+00  0.14732410228E+04  0.14732410228E+04  0.50400001928E-02 0.  1.
       -1   -1    0    0    0  501  0.00000000000E+00  0.00000000000E+00 -0.73942609667E+03  0.73942609669E+03  0.50400001928E-02 0. -1.
    10030    2    1    2    0    0  0.00000000000E+00  0.00000000000E+00  0.73381492612E+03  0.22126671195E+04  0.20874413611E+04 0.  0.
        5    1    3    3  502    0  0.85708666669E+03 -0.57784485574E+03  0.21392868577E+03  0.10555992630E+04  0.46999998093E+01 0. -1.
       -5    1    3    3    0  502 -0.85708666669E+03  0.57784485574E+03  0.51988624034E+03  0.11570678564E+04  0.46999998093E+01 0.  1.
</event>
<event>
 5   0  0.6052292E-05  0.2120536E+04  0.7818609E-02  0.8552251E-01
       -1   -1    0    0    0  501  0.00000000000E+00  0.00000000000E+00  0.15173522119E+04  0.15173522119E+04  0.50400001928E-02 0. -1.
        1   -1    0    0  501    0  0.00000000000E+00  0.00000000000E+00 -0.74087511916E+03  0.74087511917E+03  0.50400001928E-02 0.  1.
    10030    2    1    2    0    0  0.00000000000E+00  0.00000000000E+00  0.77647709271E+03  0.22582273311E+04  0.21205362537E+04 0.  0.
        1    1    3    3  502    0 -0.41642138139E+03  0.67897485964E+03  0.11335046017E+04  0.13853686546E+04  0.50400001928E-02 0. -1.
       -1    1    3    3    0  502  0.41642138139E+03 -0.67897485964E+03 -0.35702750901E+03  0.87285867649E+03  0.50400001928E-02 0.  1.
</event>
<event>
 5   0  0.5933905E-05  0.2097730E+04  0.7818609E-02  0.8562244E-01
       -1   -1    0    0    0  501  0.00000000000E+00  0.00000000000E+00  0.11932371688E+04  0.11932371688E+04  0.50400001928E-02 0.  1.
        1   -1    0    0  501    0  0.00000000000E+00  0.00000000000E+00 -0.92196059767E+03  0.92196059768E+03  0.50400001928E-02 0. -1.
    10030    2    1    2    0    0  0.00000000000E+00  0.00000000000E+00  0.27127657114E+03  0.21151977665E+04  0.20977298714E+04 0.  0.
        2    1    3    3  502    0  0.90373216934E+03  0.50842592927E+03 -0.23437550557E+02  0.10371972224E+04  0.25500000920E-02 0. -1.
       -2    1    3    3    0  502 -0.90373216934E+03 -0.50842592927E+03  0.29471412169E+03  0.10780005441E+04  0.25500000920E-02 0.  1.
</event>
<event>
 5   0  0.1349252E-04  0.2104925E+04  0.7818609E-02  0.8559077E-01
        2   -1    0    0  501    0  0.00000000000E+00  0.00000000000E+00  0.83122107950E+03  0.83122107951E+03  0.25500000920E-02 0.  1.
       -2   -1    0    0    0  501  0.00000000000E+00  0.00000000000E+00 -0.13325906687E+04  0.13325906687E+04  0.25500000920E-02 0. -1.
    10030    2    1    2    0    0  0.00000000000E+00  0.00000000000E+00 -0.50136958922E+03  0.21638117482E+04  0.21049251333E+04 0.  0.
        2    1    3    3  502    0  0.78841484764E+03 -0.69562774555E+03 -0.20267137894E+03  0.10707808460E+04  0.25500000920E-02 0. -1.
       -2    1    3    3    0  502 -0.78841484764E+03  0.69562774555E+03 -0.29869821028E+03  0.10930309022E+04  0.25500000920E-02 0.  1.
</event>
<event>
 5   0  0.1281470E-04  0.2098487E+04  0.7818609E-02  0.8561910E-01
        2   -1    0    0  501    0  0.00000000000E+00  0.00000000000E+00  0.18240662477E+04  0.18240662477E+04  0.25500000920E-02 0.  1.
       -2   -1    0    0    0  501  0.00000000000E+00  0.00000000000E+00 -0.60354829728E+03  0.60354829729E+03  0.25500000920E-02 0. -1.
    10030    2    1    2    0    0  0.00000000000E+00  0.00000000000E+00  0.12205179504E+04  0.24276145450E+04  0.20984871483E+04 0.  0.
        3    1    3    3  502    0 -0.32602077977E+03  0.85089347539E+03  0.84764532156E+01  0.91125249836E+03  0.10100000352E+00 0. -1.
       -3    1    3    3    0  502  0.32602077977E+03 -0.85089347539E+03  0.12120414972E+04  0.15163620466E+04  0.10100000352E+00 0.  1.
</event>
<event>
 5   0  0.5846187E-05  0.2115059E+04  0.7818609E-02  0.8554639E-01
        1   -1    0    0  501    0  0.00000000000E+00  0.00000000000E+00  0.21360385328E+04  0.21360385328E+04  0.50400001928E-02 0. -1.
       -1   -1    0    0    0  501  0.00000000000E+00  0.00000000000E+00 -0.52357133311E+03  0.52357133314E+03  0.50400001928E-02 0.  1.
    10030    2    1    2    0    0  0.00000000000E+00  0.00000000000E+00  0.16124671997E+04  0.26596098659E+04  0.21150589044E+04 0.  0.
        5    1    3    3  502    0  0.60289449174E+03  0.18570339996E+03  0.18735076982E+04  0.19768714440E+04  0.46999998093E+01 0. -1.
       -5    1    3    3    0  502 -0.60289449174E+03 -0.18570339996E+03 -0.26104049851E+03  0.68273842194E+03  0.46999998093E+01 0.  1.
</event>
<event>
 5   0  0.6052292E-05  0.2082068E+04  0.7818609E-02  0.8569184E-01
        1   -1    0    0  501    0  0.00000000000E+00  0.00000000000E+00  0.10442013293E+04  0.10442013293E+04  0.50400001928E-02 0. -1.
       -1   -1    0    0    0  501  0.00000000000E+00  0.00000000000E+00 -0.10378766078E+04  0.10378766078E+04  0.50400001928E-02 0.  1.
    10030    2    1    2    0    0  0.00000000000E+00  0.00000000000E+00  0.63247215543E+01  0.20820779371E+04  0.20820683308E+04 0.  0.
        1    1    3    3  502    0  0.34723177471E+03 -0.46479277058E+03 -0.86121996379E+03  0.10384132371E+04  0.50400001928E-02 0. -1.
       -1    1    3    3    0  502 -0.34723177471E+03  0.46479277058E+03  0.86754468534E+03  0.10436647000E+04  0.50400001928E-02 0.  1.
</event>
<event>
 5   0  0.6221148E-05  0.2176133E+04  0.7818609E-02  0.8528428E-01
        1   -1    0    0  501    0  0.00000000000E+00  0.00000000000E+00  0.80149073301E+03  0.80149073302E+03  0.50400001928E-02 0. -1.
       -1   -1    0    0    0  501  0.00000000000E+00  0.00000000000E+00 -0.14771078998E+04  0.14771078998E+04  0.50400001928E-02 0.  1.
    10030    2    1    2    0    0  0.00000000000E+00  0.00000000000E+00 -0.67561716678E+03  0.22785986328E+04  0.21761326185E+04 0.  0.
        3    1    3    3  502    0 -0.38445882612E+03 -0.68909201992E+02  0.72555444209E+03  0.82400626559E+03  0.10100000352E+00 0. -1.
       -3    1    3    3    0  502  0.38445882612E+03  0.68909201992E+02 -0.14011716089E+04  0.14545923672E+04  0.10100000352E+00 0.  1.
</event>
<event>
 5   0  0.1325673E-04  0.2155237E+04  0.7818609E-02  0.8537294E-01
       -2   -1    0    0    0  501  0.00000000000E+00  0.00000000000E+00  0.49210048066E+03  0.49210048067E+03  0.25500000920E-02 0.  1.
        2   -1    0    0  501    0  0.00000000000E+00  0.00000000000E+00 -0.23598052571E+04  0.23598052571E+04  0.25500000920E-02 0. -1.
    10030    2    1    2    0    0  0.00000000000E+00  0.00000000000E+00 -0.18677047765E+04  0.28519057378E+04  0.21552366936E+04 0.  0.
        5    1    3    3  502    0  0.11106354819E+03 -0.96079751520E+03 -0.30510606266E+03  0.10141887282E+04  0.46999998093E+01 0.  1.
       -5    1    3    3    0  502 -0.11106354819E+03  0.96079751520E+03 -0.15625987138E+04  0.18377170096E+04  0.46999998093E+01 0. -1.
</event>
<event>
 5   0  0.4615125E-05  0.2055557E+04  0.7818609E-02  0.8581078E-01
        3   -1    0    0  501    0  0.00000000000E+00  0.00000000000E+00  0.74638808291E+03  0.74638808975E+03  0.10100000352E+00 0.  1.
       -3   -1    0    0    0  501  0.00000000000E+00  0.00000000000E+00 -0.14152533970E+04  0.14152534006E+04  0.10100000352E+00 0. -1.
    10030    2    1    2    0    0  0.00000000000E+00  0.00000000000E+00 -0.66886531405E+03  0.21616414903E+04  0.20555566459E+04 0.  0.
        4    1    3    3  502    0  0.54484623230E+03 -0.65242126162E+03 -0.94201847642E+03  0.12688228175E+04  0.12699999809E+01 0. -1.
       -4    1    3    3    0  502 -0.54484623230E+03  0.65242126162E+03  0.27315316237E+03  0.89281867279E+03  0.12699999809E+01 0.  1.
</event>
<event>
 5   0  0.1349252E-04  0.2120272E+04  0.7818609E-02  0.8552366E-01
        2   -1    0    0  501    0  0.00000000000E+00  0.00000000000E+00  0.20304066347E+04  0.20304066347E+04  0.25500000920E-02 0. -1.
       -2   -1    0    0    0  501  0.00000000000E+00  0.00000000000E+00 -0.55352844561E+03  0.55352844561E+03  0.25500000920E-02 0.  1.
    10030    2    1    2    0    0  0.00000000000E+00  0.00000000000E+00  0.14768781891E+04  0.25839350803E+04  0.21202715189E+04 0.  0.
        2    1    3    3  502    0  0.36764047085E+03  0.56568567779E+03  0.17350253219E+04  0.18615780052E+04  0.25500000920E-02 0. -1.
       -2    1    3    3    0  502 -0.36764047085E+03 -0.56568567779E+03 -0.25814713276E+03  0.72235707515E+03  0.25500000920E-02 0.  1.
</event>
<event>
 5   0  0.1349252E-04  0.1965823E+04  0.7818609E-02  0.8622768E-01
       -2   -1    0    0    0  501  0.00000000000E+00  0.00000000000E+00  0.12745015133E+04  0.12745015133E+04  0.25500000920E-02 0.  1.
        2   -1    0    0  501    0  0.00000000000E+00  0.00000000000E+00 -0.75803368775E+03  0.75803368775E+03  0.25500000920E-02 0. -1.
    10030    2    1    2    0    0  0.00000000000E+00  0.00000000000E+00  0.51646782553E+03  0.20325352010E+04  0.19658230665E+04 0.  0.
        2    1    3    3  502    0 -0.18097678378E+03  0.24253962766E+03  0.12251365550E+04  0.12619578621E+04  0.25500000920E-02 0.  1.
       -2    1    3    3    0  502  0.18097678378E+03 -0.24253962766E+03 -0.70866872944E+03  0.77057733898E+03  0.25500000920E-02 0. -1.
</event>
<event>
 5   0  0.1325673E-04  0.2070161E+04  0.7818609E-02  0.8574503E-01
        2   -1    0    0  501    0  0.00000000000E+00  0.00000000000E+00  0.20182796452E+04  0.20182796452E+04  0.25500000920E-02 0.  1.
       -2   -1    0    0    0  501  0.00000000000E+00  0.00000000000E+00 -0.53084380396E+03  0.53084380397E+03  0.25500000920E-02 0. -1.
    10030    2    1    2    0    0  0.00000000000E+00  0.00000000000E+00  0.14874358412E+04  0.25491234491E+04  0.20701606163E+04 0.  0.
        5    1    3    3  502    0 -0.21790360702E+03  0.98696094282E+03  0.10184952324E+04  0.14348966907E+04  0.46999998093E+01 0.  1.
       -5    1    3    3    0  502  0.21790360702E+03 -0.98696094282E+03  0.46894060884E+03  0.11142267584E+04  0.46999998093E+01 0. -1.
</event>
<event>
 5   0  0.1235817E-04  0.2125302E+04  0.7818609E-02  0.8550179E-01
        2   -1    0    0  501    0  0.00000000000E+00  0.00000000000E+00  0.11632945464E+04  0.11632945464E+04  0.25500000920E-02 0. -1.
       -2   -1    0    0    0  501  0.00000000000E+00  0.00000000000E+00 -0.97071475703E+03  0.97071475703E+03  0.25500000920E-02 0.  1.
    10030    2    1    2    0    0  0.00000000000E+00  0.00000000000E+00  0.19257978932E+03  0.21340093034E+04  0.21253020330E+04 0.  0.
        1    1    3    3  502    0 -0.71877035884E+03 -0.76198654748E+02  0.87844863163E+03  0.11375891447E+04  0.50400001928E-02 0. -1.
       -1    1    3    3    0  502  0.71877035884E+03  0.76198654748E+02 -0.68586884230E+03  0.99642015867E+03  0.50400001928E-02 0.  1.
</event>
<event>
 5   0  0.1349252E-04  0.2106222E+04  0.7818609E-02  0.8558507E-01
       -2   -1    0    0    0  501  0.00000000000E+00  0.00000000000E+00  0.66813092902E+03  0.66813092903E+03  0.25500000920E-02 0. -1.
        2   -1    0    0  501    0  0.00000000000E+00  0.00000000000E+00 -0.16599189004E+04  0.16599189004E+04  0.25500000920E-02 0.  1.
    10030    2    1    2    0    0  0.00000000000E+00  0.00000000000E+00 -0.99178797138E+03  0.23280498294E+04  0.21062223596E+04 0.  0.
        2    1    3    3  502    0 -0.14841594669E+03 -0.30128947501E+02 -0.16478199866E+04  0.16547645618E+04  0.25500000920E-02 0.  1.
       -2    1    3    3    0  502  0.14841594669E+03  0.30128947501E+02  0.65603201519E+03  0.67328526767E+03  0.25500000920E-02 0. -1.
</event>
<event>
 5   0  0.1235817E-04  0.2105154E+04  0.7818609E-02  0.8558976E-01
        2   -1    0    0  501    0  0.00000000000E+00  0.00000000000E+00  0.14220386853E+04  0.14220386853E+04  0.25500000920E-02 0.  1.
       -2   -1    0    0    0  501  0.00000000000E+00  0.00000000000E+00 -0.77910595467E+03  0.77910595467E+03  0.25500000920E-02 0. -1.
    10030    2    1    2    0    0  0.00000000000E+00  0.00000000000E+00  0.64293273065E+03  0.22011446400E+04  0.21051544433E+04 0.  0.
        1    1    3    3  502    0 -0.32828271220E+03  0.51765922517E+03  0.12161572526E+04  0.13619027409E+04  0.50400001928E-02 0.  1.
       -1    1    3    3    0  502  0.32828271220E+03 -0.51765922517E+03 -0.57322452199E+03  0.83924189908E+03  0.50400001928E-02 0. -1.
</event>
<event>
 5   0  0.6263616E-05  0.2085682E+04  0.7818609E-02  0.8567577E-01
       -1   -1    0    0    0  501  0.00000000000E+00  0.00000000000E+00  0.10900562158E+04  0.10900562158E+04  0.50400001928E-02 0. -1.
        1   -1    0    0  501    0  0.00000000000E+00  0.00000000000E+00 -0.99767118307E+03  0.99767118308E+03  0.50400001928E-02 0.  1.
    10030    2    1    2    0    0  0.00000000000E+00  0.00000000000E+00  0.92385032685E+02  0.20877273989E+04  0.20856823099E+04 0.  0.
        4    1    3    3  502    0 -0.75541379659E+03  0.62362412978E+03 -0.31187181073E+03  0.10280188221E+04  0.12699999809E+01 0. -1.
       -4    1    3    3    0  502  0.75541379659E+03 -0.62362412978E+03  0.40425684341E+03  0.10597085768E+04  0.12699999809E+01 0.  1.
</event>
<event>
 5   0  0.6263616E-05  0.2108914E+04  0.7818609E-02  0.8557327E-01
        1   -1    0    0  501    0  0.00000000000E+00  0.00000000000E+00  0.94109013030E+03  0.94109013032E+03  0.50400001928E-02 0. -1.
       -1   -1    0    0    0  501  0.00000000000E+00  0.00000000000E+00 -0.11814807524E+04  0.11814807524E+04  0.50400001928E-02 0.  1.
    10030    2    1    2    0    0  0.00000000000E+00  0.00000000000E+00 -0.24039062210E+03  0.21225708827E+04  0.21089142944E+04 0.  0.
        4    1    3    3  502    0  0.54325002945E+03  0.39631532842E+03  0.69727845432E+03  0.96870289036E+03  0.12699999809E+01 0. -1.
       -4    1    3    3    0  502 -0.54325002945E+03 -0.39631532842E+03 -0.93766907642E+03  0.11538679924E+04  0.12699999809E+01 0.  1.
</event>
<event>
 5   0  0.6263616E-05  0.2089188E+04  0.7818609E-02  0.8566021E-01
       -1   -1    0    0    0  501  0.00000000000E+00  0.00000000000E+00  0.22058068550E+04  0.22058068551E+04  0.50400001928E-02 0.  1.
        1   -1    0    0  501    0  0.00000000000E+00  0.00000000000E+00 -0.49468359148E+03  0.49468359150E+03  0.50400001928E-02 0. -1.
    10030    2    1    2    0    0  0.00000000000E+00  0.00000000000E+00  0.17111232636E+04  0.27004904466E+04  0.20891878395E+04 0.  0.
        4    1    3    3  502    0  0.10270144140E+04  0.12551687193E+03  0.66976033806E+03  0.12325151582E+04  0.12699999809E+01 0. -1.
       -4    1    3    3    0  502 -0.10270144140E+04 -0.12551687193E+03  0.10413629255E+04  0.14679752884E+04  0.12699999809E+01 0.  1.
</event>
<event>
 5   0  0.1252477E-04  0.2079916E+04  0.7818609E-02  0.8570143E-01
        2   -1    0    0  501    0  0.00000000000E+00  0.00000000000E+00  0.97699258214E+03  0.97699258214E+03  0.25500000920E-02 0.  1.
       -2   -1    0    0    0  501  0.00000000000E+00  0.00000000000E+00 -0.11069813123E+04  0.11069813123E+04  0.25500000920E-02 0. -1.
    10030    2    1    2    0    0  0.00000000000E+00  0.00000000000E+00 -0.12998873013E+03  0.20839738944E+04  0.20799158932E+04 0.  0.
        4    1    3    3  502    0  0.97293044966E+03 -0.24165521497E+03 -0.34215658042E+03  0.10592750546E+04  0.12699999809E+01 0. -1.
       -4    1    3    3    0  502 -0.97293044966E+03  0.24165521497E+03  0.21216785029E+03  0.10246988398E+04  0.12699999809E+01 0.  1.
</event>
<event>
 5   0  0.5846187E-05  0.2095890E+04  0.7818609E-02  0.8563056E-01
       -1   -1    0    0    0  501  0.00000000000E+00  0.00000000000E+00  0.10710361196E+04  0.10710361197E+04  0.50400001928E-02 0. -1.
        1   -1    0    0  501    0  0.00000000000E+00  0.00000000000E+00 -0.10253518459E+04  0.10253518459E+04  0.50400001928E-02 0.  1.
    10030    2    1    2    0    0  0.00000000000E+00  0.00000000000E+00  0.45684273784E+02  0.20963879655E+04  0.20958901329E+04 0.  0.
        5    1    3    3  502    0  0.74741151757E+03  0.30088344768E+03  0.69308483754E+03  0.10627998437E+04  0.46999998093E+01 0. -1.
       -5    1    3    3    0  502 -0.74741151757E+03 -0.30088344768E+03 -0.64740056376E+03  0.10335881219E+04  0.46999998093E+01 0.  1.
</event>
<event>
 5   0  0.5933905E-05  0.2081756E+04  0.7818609E-02  0.8569323E-01
       -1   -1    0    0    0  501  0.00000000000E+00  0.00000000000E+00  0.45249102452E+03  0.45249102455E+03  0.50400001928E-02 0.  1.
        1   -1    0    0  501    0  0.00000000000E+00  0.00000000000E+00 -0.23943608297E+04  0.23943608297E+04  0.50400001928E-02 0. -1.
    10030    2    1    2    0    0  0.00000000000E+00  0.00000000000E+00 -0.19418698051E+04  0.28468518542E+04  0.20817557829E+04 0.  0.
        2    1    3    3  502    0  0.13001058768E+03  0.39818319956E+03  0.33214736614E+03  0.53457879322E+03  0.25500000920E-02 0.  1.
       -2    1    3    3    0  502 -0.13001058768E+03 -0.39818319956E+03 -0.22740171713E+04  0.23122730610E+04  0.25500000920E-02 0. -1.
</event>
<event>
 5   0  0.6263616E-05  0.2096572E+04  0.7818609E-02  0.8562755E-01
       -1   -1    0    0    0  501  0.00000000000E+00  0.00000000000E+00  0.69337285751E+03  0.69337285753E+03  0.50400001928E-02 0. -1.
        1   -1    0    0  501    0  0.00000000000E+00  0.00000000000E+00 -0.15848661495E+04  0.15848661495E+04  0.50400001928E-02 0.  1.
    10030    2    1    2    0    0  0.00000000000E+00  0.00000000000E+00 -0.89149329196E+03  0.22782390070E+04  0.20965716500E+04 0.  0.
        4    1    3    3  502    0  0.14389990370E+03  0.53510854938E+03 -0.14127142335E+04  0.15175017168E+04  0.12699999809E+01 0.  1.
       -4    1    3    3    0  502 -0.14389990370E+03 -0.53510854938E+03  0.52122094158E+03  0.76073729023E+03  0.12699999809E+01 0. -1.
</event>
<event>
 5   0  0.6263616E-05  0.2113292E+04  0.7818609E-02  0.8555411E-01
        1   -1    0    0  501    0  0.00000000000E+00  0.00000000000E+00  0.17504378164E+04  0.17504378164E+04  0.50400001928E-02 0. -1.
       -1   -1    0    0    0  501  0.00000000000E+00  0.00000000000E+00 -0.63784060426E+03  0.63784060428E+03  0.50400001928E-02 0.  1.
    10030    2    1    2    0    0  0.00000000000E+00  0.00000000000E+00  0.11125972122E+04  0.23882784207E+04  0.21132915696E+04 0.  0.
        4    1    3    3  502    0 -0.10453758921E+04 -0.55794469437E+02  0.71840294635E+03  0.12696567193E+04  0.12699999809E+01 0. -1.
       -4    1    3    3    0  502  0.10453758921E+04  0.55794469437E+02  0.39419426581E+03  0.11186217014E+04  0.12699999809E+01 0.  1.
</event>
<event>
 5   0  0.1281470E-04  0.2128477E+04  0.7818609E-02  0.8548802E-01
       -2   -1    0    0    0  501  0.00000000000E+00  0.00000000000E+00  0.50811946487E+03  0.50811946488E+03  0.25500000920E-02 0.  1.
        2   -1    0    0  501    0  0.00000000000E+00  0.00000000000E+00 -0.22290099854E+04  0.22290099854E+04  0.25500000920E-02 0. -1.
    10030    2    1    2    0    0  0.00000000000E+00  0.00000000000E+00 -0.17208905206E+04  0.27371294503E+04  0.21284767896E+04 0.  0.
        3    1    3    3  502    0 -0.61605437838E+03  0.33136230824E+03  0.17095261443E+03  0.72010331413E+03  0.10100000352E+00 0.  1.
       -3    1    3    3    0  502  0.61605437838E+03 -0.33136230824E+03 -0.18918431350E+04  0.20170261362E+04  0.10100000352E+00 0. -1.
</event>
<event>
 5   0  0.5933905E-05  0.1944671E+04  0.7818609E-02  0.8632935E-01
       -1   -1    0    0    0  501  0.00000000000E+00  0.00000000000E+00  0.52835709036E+03  0.52835709039E+03  0.50400001928E-02 0.  1.
        1   -1    0    0  501    0  0.00000000000E+00  0.00000000000E+00 -0.17893889450E+04  0.17893889450E+04  0.50400001928E-02 0. -1.
    10030    2    1    2    0    0  0.00000000000E+00  0.00000000000E+00 -0.12610318547E+04  0.23177460354E+04  0.19446710123E+04 0.  0.
        2    1    3    3  502    0  0.28411709590E+03 -0.10365797217E+03  0.47087302959E+03  0.55963283443E+03  0.25500000920E-02 0.  1.
       -2    1    3    3    0  502 -0.28411709590E+03  0.10365797217E+03 -0.17319048842E+04  0.17581132010E+04  0.25500000920E-02 0. -1.
</event>
<event>
 5   0  0.1281470E-04  0.2114413E+04  0.7818609E-02  0.8554921E-01
       -2   -1    0    0    0  501  0.00000000000E+00  0.00000000000E+00  0.14454209411E+04  0.14454209411E+04  0.25500000920E-02 0.  1.
        2   -1    0    0  501    0  0.00000000000E+00  0.00000000000E+00 -0.77325951600E+03  0.77325951601E+03  0.25500000920E-02 0. -1.
    10030    2    1    2    0    0  0.00000000000E+00  0.00000000000E+00  0.67216142507E+03  0.22186804571E+04  0.21144129183E+04 0.  0.
        3    1    3    3  502    0 -0.49816869142E+03 -0.70697315177E+02 -0.63956312162E+03  0.81376357268E+03  0.10100000352E+00 0. -1.
       -3    1    3    3    0  502  0.49816869142E+03  0.70697315177E+02  0.13117245467E+04  0.14049168844E+04  0.10100000352E+00 0.  1.
</event>
<event>
 5   0  0.5846187E-05  0.2136358E+04  0.7818609E-02  0.8545395E-01
       -1   -1    0    0    0  501  0.00000000000E+00  0.00000000000E+00  0.77433123077E+03  0.77433123078E+03  0.50400001928E-02 0.  1.
        1   -1    0    0  501    0  0.00000000000E+00  0.00000000000E+00 -0.14735372921E+04  0.14735372921E+04  0.50400001928E-02 0. -1.
    10030    2    1    2    0    0  0.00000000000E+00  0.00000000000E+00 -0.69920606130E+03  0.22478685229E+04  0.21363575964E+04 0.  0.
        5    1    3    3  502    0  0.11252839074E+03 -0.13487759496E+03 -0.14582256354E+04  0.14687745566E+04  0.46999998093E+01 0. -1.
       -5    1    3    3    0  502 -0.11252839074E+03  0.13487759496E+03  0.75901957412E+03  0.77909396625E+03  0.46999998093E+01 0.  1.
</event>
<event>
 5   0  0.1281470E-04  0.2094347E+04  0.7818609E-02  0.8563737E-01
        2   -1    0    0  501    0  0.00000000000E+00  0.00000000000E+00  0.93345267373E+03  0.93345267374E+03  0.25500000920E-02 0. -1.
       -2   -1    0    0    0  501  0.00000000000E+00  0.00000000000E+00 -0.11747492824E+04  0.11747492824E+04  0.25500000920E-02 0.  1.
    10030    2    1    2    0    0  0.00000000000E+00  0.00000000000E+00 -0.24129660871E+03  0.21082019562E+04  0.20943474962E+04 0.  0.
        3    1    3    3  502    0 -0.49653575503E+03  0.61175822819E+03  0.57368048790E+03  0.97463080095E+03  0.10100000352E+00 0. -1.
       -3    1    3    3    0  502  0.49653575503E+03 -0.61175822819E+03 -0.81497709661E+03  0.11335711552E+04  0.10100000352E+00 0.  1.
</event>
<event>
 5   0  0.6221148E-05  0.2081955E+04  0.7818609E-02  0.8569234E-01
        1   -1    0    0  501    0  0.00000000000E+00  0.00000000000E+00  0.16878532246E+04  0.16878532246E+04  0.50400001928E-02 0.  1.
       -1   -1    0    0    0  501  0.00000000000E+00  0.00000000000E+00 -0.64201898892E+03  0.64201898894E+03  0.50400001928E-02 0. -1.
    10030    2    1    2    0    0  0.00000000000E+00  0.00000000000E+00  0.10458342356E+04  0.23298722135E+04  0.20819546784E+04 0.  0.
        3    1    3    3  502    0 -0.46701859669E+03 -0.53698645705E+03  0.13731028821E+04  0.15465679292E+04  0.10100000352E+00 0.  1.
       -3    1    3    3    0  502  0.46701859669E+03  0.53698645705E+03 -0.32726864642E+03  0.78330428432E+03  0.10100000352E+00 0. -1.
</event>
<event>
 5   0  0.5846187E-05  0.2100795E+04  0.7818609E-02  0.8560893E-01
        1   -1    0    0  501    0  0.00000000000E+00  0.00000000000E+00  0.10236162411E+04  0.10236162412E+04  0.50400001928E-02 0.  1.
       -1   -1    0    0    0  501  0.00000000000E+00  0.00000000000E+00 -0.10778790250E+04  0.10778790251E+04  0.50400001928E-02 0. -1.
    10030    2    1    2    0    0  0.00000000000E+00  0.00000000000E+00 -0.54262783898E+02  0.21014952662E+04  0.21007945888E+04 0.  0.
        5    1    3    3  502    0 -0.30077315199E+03  0.43526965663E+03 -0.93484145778E+03  0.10741856470E+04  0.46999998093E+01 0. -1.
       -5    1    3    3    0  502  0.30077315199E+03 -0.43526965663E+03  0.88057867388E+03  0.10273096193E+04  0.46999998093E+01 0.  1.
</event>
<event>
 5   0  0.1325673E-04  0.2014617E+04  0.7818609E-02  0.8599817E-01
        2   -1    0    0  501    0  0.00000000000E+00  0.00000000000E+00  0.15713502487E+04  0.15713502487E+04  0.25500000920E-02 0. -1.
       -2   -1    0    0    0  501  0.00000000000E+00  0.00000000000E+00 -0.64573141905E+03  0.64573141906E+03  0.25500000920E-02 0.  1.
    10030    2    1    2    0    0  0.00000000000E+00  0.00000000000E+00  0.92561882965E+03  0.22170816678E+04  0.20146168131E+04 0.  0.
        5    1    3    3  502    0  0.26729130889E+03  0.94930392387E+03  0.23720585328E+03  0.10143526460E+04  0.46999998093E+01 0.  1.
       -5    1    3    3    0  502 -0.26729130889E+03 -0.94930392387E+03  0.68841297637E+03  0.12027290217E+04  0.46999998093E+01 0. -1.
</event>
<event>
 5   0  0.6052292E-05  0.2098904E+04  0.7818609E-02  0.8561726E-01
       -1   -1    0    0    0  501  0.00000000000E+00  0.00000000000E+00  0.11481915155E+04  0.11481915155E+04  0.50400001928E-02 0. -1.
        1   -1    0    0  501    0  0.00000000000E+00  0.00000000000E+00 -0.95920343690E+03  0.95920343691E+03  0.50400001928E-02 0.  1.
    10030    2    1    2    0    0  0.00000000000E+00  0.00000000000E+00  0.18898807861E+03  0.21073949524E+04  0.20989037595E+04 0.  0.
        1    1    3    3  502    0 -0.79412363797E+03  0.16717045115E+03  0.76259633295E+03  0.11136119069E+04  0.50400001928E-02 0. -1.
       -1    1    3    3    0  502  0.79412363797E+03 -0.16717045115E+03 -0.57360825434E+03  0.99378304554E+03  0.50400001928E-02 0.  1.
</event>
<event>
 5   0  0.5933905E-05  0.2089671E+04  0.7818609E-02  0.8565807E-01
        1   -1    0    0  501    0  0.00000000000E+00  0.00000000000E+00  0.26538309485E+04  0.26538309485E+04  0.50400001928E-02 0. -1.
       -1   -1    0    0    0  501  0.00000000000E+00  0.00000000000E+00 -0.41136066170E+03  0.41136066173E+03  0.50400001928E-02 0.  1.
    10030    2    1    2    0    0  0.00000000000E+00  0.00000000000E+00  0.22424702868E+04  0.30651916103E+04  0.20896714144E+04 0.  0.
        2    1    3    3  502    0 -0.66034274624E+03  0.45870359700E+03  0.20999744245E+04  0.22486338332E+04  0.25500000920E-02 0. -1.
       -2    1    3    3    0  502  0.66034274624E+03 -0.45870359700E+03  0.14249586230E+03  0.81655777701E+03  0.25500000920E-02 0.  1.
</event>
<event>
 5   0  0.1349252E-04  0.2137269E+04  0.7818609E-02  0.8545002E-01
        2   -1    0    0  501    0  0.00000000000E+00  0.00000000000E+00  0.69502362796E+03  0.69502362796E+03  0.25500000920E-02 0.  1.
       -2   -1    0    0    0  501  0.00000000000E+00  0.00000000000E+00 -0.16430798883E+04  0.16430798883E+04  0.25500000920E-02 0. -1.
    10030    2    1    2    0    0  0.00000000000E+00  0.00000000000E+00 -0.94805626035E+03  0.23381035163E+04  0.21372686729E+04 0.  0.
        2    1    3    3  502    0  0.83125538653E+03  0.40927034119E+03 -0.10564996887E+04  0.14052328355E+04  0.25500000920E-02 0. -1.
       -2    1    3    3    0  502 -0.83125538653E+03 -0.40927034119E+03  0.10844342837E+03  0.93287068073E+03  0.25500000920E-02 0.  1.
</event>
<event>
 5   0  0.1349252E-04  0.2124615E+04  0.7818609E-02  0.8550477E-01
       -2   -1    0    0    0  501  0.00000000000E+00  0.00000000000E+00  0.49170428041E+03  0.49170428042E+03  0.25500000920E-02 0.  1.
        2   -1    0    0  501    0  0.00000000000E+00  0.00000000000E+00 -0.22950721597E+04  0.22950721597E+04  0.25500000920E-02 0. -1.
    10030    2    1    2    0    0  0.00000000000E+00  0.00000000000E+00 -0.18033678793E+04  0.27867764401E+04  0.21246146048E+04 0.  0.
        2    1    3    3  502    0  0.48458536657E+03  0.94362853839E+03 -0.82703424532E+03  0.13450812016E+04  0.25500000920E-02 0. -1.
       -2    1    3    3    0  502 -0.48458536657E+03 -0.94362853839E+03 -0.97633363396E+03  0.14416952385E+04  0.25500000920E-02 0.  1.
</event>
<event>
 5   0  0.1252477E-04  0.2080963E+04  0.7818609E-02  0.8569676E-01
       -2   -1    0    0    0  501  0.00000000000E+00  0.00000000000E+00  0.74910157956E+03  0.74910157957E+03  0.25500000920E-02 0.  1.
        2   -1    0    0  501    0  0.00000000000E+00  0.00000000000E+00 -0.14452002715E+04  0.14452002715E+04  0.25500000920E-02 0. -1.
    10030    2    1    2    0    0  0.00000000000E+00  0.00000000000E+00 -0.69609869194E+03  0.21943018511E+04  0.20809630522E+04 0.  0.
        4    1    3    3  502    0 -0.55771738195E+01  0.92736648995E+03  0.14940820387E+03  0.93934239542E+03  0.12699999809E+01 0.  1.
       -4    1    3    3    0  502  0.55771738195E+01 -0.92736648995E+03 -0.84550689581E+03  0.12549594556E+04  0.12699999809E+01 0. -1.
</event>
<event>
 5   0  0.1235817E-04  0.2080132E+04  0.7818609E-02  0.8570046E-01
       -2   -1    0    0    0  501  0.00000000000E+00  0.00000000000E+00  0.68599411523E+03  0.68599411523E+03  0.25500000920E-02 0.  1.
        2   -1    0    0  501    0  0.00000000000E+00  0.00000000000E+00 -0.15768897976E+04  0.15768897976E+04  0.25500000920E-02 0. -1.
    10030    2    1    2    0    0  0.00000000000E+00  0.00000000000E+00 -0.89089568237E+03  0.22628839128E+04  0.20801318434E+04 0.  0.
        1    1    3    3  502    0 -0.66655175728E+03 -0.49593290899E+02 -0.13123171322E+04  0.14727277396E+04  0.50400001928E-02 0. -1.
       -1    1    3    3    0  502  0.66655175728E+03  0.49593290899E+02  0.42142144982E+03  0.79015617319E+03  0.50400001928E-02 0.  1.
</event>
<event>
 5   0  0.4615125E-05  0.1586734E+04  0.7818609E-02  0.8828739E-01
       -4   -1    0    0    0  501  0.00000000000E+00  0.00000000000E+00  0.96888256160E+03  0.96888339395E+03  0.12699999809E+01 0.  1.
        4   -1    0    0  501    0  0.00000000000E+00  0.00000000000E+00 -0.64964495271E+03  0.64964619407E+03  0.12699999809E+01 0. -1.
    10030    2    1    2    0    0  0.00000000000E+00  0.00000000000E+00  0.31923760889E+03  0.16185295880E+04  0.15867341858E+04 0.  0.
        2    1    3    3  502    0 -0.15078476785E+03 -0.67876555138E+02  0.95111070655E+03  0.96537808607E+03  0.25500000920E-02 0.  1.
       -2    1    3    3    0  502  0.15078476785E+03  0.67876555138E+02 -0.63187309766E+03  0.65315150195E+03  0.25500000920E-02 0. -1.
</event>
<event>
 5   0  0.1252477E-04  0.2112018E+04  0.7818609E-02  0.8555968E-01
       -2   -1    0    0    0  501  0.00000000000E+00  0.00000000000E+00  0.12923898420E+04  0.12923898420E+04  0.25500000920E-02 0. -1.
        2   -1    0    0  501    0  0.00000000000E+00  0.00000000000E+00 -0.86286293198E+03  0.86286293198E+03  0.25500000920E-02 0.  1.
    10030    2    1    2    0    0  0.00000000000E+00  0.00000000000E+00  0.42952691001E+03  0.21552527740E+04  0.21120182654E+04 0.  0.
        4    1    3    3  502    0 -0.14398269374E+03  0.60753994622E+03 -0.65432650455E+03  0.90442279372E+03  0.12699999809E+01 0.  1.
       -4    1    3    3    0  502  0.14398269374E+03 -0.60753994622E+03  0.10838534146E+04  0.12508299803E+04  0.12699999809E+01 0. -1.
</event>
<event>
 5   0  0.1235817E-04  0.2104944E+04  0.7818609E-02  0.8559069E-01
       -2   -1    0    0    0  501  0.00000000000E+00  0.00000000000E+00  0.17513138214E+04  0.17513138214E+04  0.25500000920E-02 0. -1.
        2   -1    0    0  501    0  0.00000000000E+00  0.00000000000E+00 -0.63249496116E+03  0.63249496116E+03  0.25500000920E-02 0.  1.
    10030    2    1    2    0    0  0.00000000000E+00  0.00000000000E+00  0.11188188602E+04  0.23838087826E+04  0.21049438638E+04 0.  0.
        1    1    3    3  502    0  0.29379252428E+03 -0.10055271538E+04  0.44448485960E+03  0.11379655947E+04  0.50400001928E-02 0. -1.
       -1    1    3    3    0  502 -0.29379252428E+03  0.10055271538E+04  0.67433400064E+03  0.12458431879E+04  0.50400001928E-02 0.  1.
</event>
<event>
 5   0  0.4615125E-05  0.2161981E+04  0.7818609E-02  0.8534421E-01
       -3   -1    0    0    0  501  0.00000000000E+00  0.00000000000E+00  0.17599084874E+04  0.17599084903E+04  0.10100000352E+00 0. -1.
        3   -1    0    0  501    0  0.00000000000E+00  0.00000000000E+00 -0.66397813463E+03  0.66397814231E+03  0.10100000352E+00 0.  1.
    10030    2    1    2    0    0  0.00000000000E+00  0.00000000000E+00  0.10959303528E+04  0.24238866326E+04  0.21619812834E+04 0.  0.
        1    1    3    3  502    0  0.21858391246E+03 -0.26574562707E+03  0.16968703954E+04  0.17314065969E+04  0.50400001928E-02 0. -1.
       -1    1    3    3    0  502 -0.21858391246E+03  0.26574562707E+03 -0.60094004257E+03  0.69248003573E+03  0.50400001928E-02 0.  1.
</event>
<event>
 5   0  0.4615125E-05  0.2111388E+04  0.7818609E-02  0.8556243E-01
        3   -1    0    0  501    0  0.00000000000E+00  0.00000000000E+00  0.94956927974E+03  0.94956928511E+03  0.10100000352E+00 0.  1.
       -3   -1    0    0    0  501  0.00000000000E+00  0.00000000000E+00 -0.11736795790E+04  0.11736795834E+04  0.10100000352E+00 0. -1.
    10030    2    1    2    0    0  0.00000000000E+00  0.00000000000E+00 -0.22411029930E+03  0.21232488685E+04  0.21113882474E+04 0.  0.
        1    1    3    3  502    0  0.63538533522E+03 -0.71437046319E+03 -0.56228705221E+03  0.11091467045E+04  0.50400001928E-02 0. -1.
       -1    1    3    3    0  502 -0.63538533522E+03  0.71437046319E+03  0.33817675291E+03  0.10141021640E+04  0.50400001928E-02 0.  1.
</event>
<event>
 5   0  0.6221148E-05  0.2141121E+04  0.7818609E-02  0.8543342E-01
        1   -1    0    0  501    0  0.00000000000E+00  0.00000000000E+00  0.19712376902E+04  0.19712376902E+04  0.50400001928E-02 0. -1.
       -1   -1    0    0    0  501  0.00000000000E+00  0.00000000000E+00 -0.58141124418E+03  0.58141124420E+03  0.50400001928E-02 0.  1.
    10030    2    1    2    0    0  0.00000000000E+00  0.00000000000E+00  0.13898264460E+04  0.25526489344E+04  0.21411209756E+04 0.  0.
        3    1    3    3  502    0  0.52727322511E+03 -0.74661888131E+03  0.13593912562E+04  0.16381090945E+04  0.10100000352E+00 0. -1.
       -3    1    3    3    0  502 -0.52727322511E+03  0.74661888131E+03  0.30435189857E+02  0.91453983994E+03  0.10100000352E+00 0.  1.
</event>
<event>
 5   0  0.1325673E-04  0.2108391E+04  0.7818609E-02  0.8557556E-01
        2   -1    0    0  501    0  0.00000000000E+00  0.00000000000E+00  0.20368583210E+04  0.20368583210E+04  0.25500000920E-02 0. -1.
       -2   -1    0    0    0  501  0.00000000000E+00  0.00000000000E+00 -0.54560915438E+03  0.54560915438E+03  0.25500000920E-02 0.  1.
    10030    2    1    2    0    0  0.00000000000E+00  0.00000000000E+00  0.14912491666E+04  0.25824674754E+04  0.21083913736E+04 0.  0.
        5    1    3    3  502    0 -0.27544793253E+03 -0.98520419753E+03  0.10574392492E+04  0.14712915178E+04  0.46999998093E+01 0. -1.
       -5    1    3    3    0  502  0.27544793253E+03  0.98520419753E+03  0.43380991737E+03  0.11111759576E+04  0.46999998093E+01 0.  1.
</event>
<event>
 5   0  0.6263616E-05  0.2087764E+04  0.7818609E-02  0.8566653E-01
       -1   -1    0    0    0  501  0.00000000000E+00  0.00000000000E+00  0.81048135713E+03  0.81048135715E+03  0.50400001928E-02 0. -1.
        1   -1    0    0  501    0  0.00000000000E+00  0.00000000000E+00 -0.13444968705E+04  0.13444968706E+04  0.50400001928E-02 0.  1.
    10030    2    1    2    0    0  0.00000000000E+00  0.00000000000E+00 -0.53401551341E+03  0.21549782277E+04  0.20877640176E+04 0.  0.
        4    1    3    3  502    0  0.10421117846E+04 -0.31575594589E+02 -0.21343253823E+03  0.10642128787E+04  0.12699999809E+01 0. -1.
       -4    1    3    3    0  502 -0.10421117846E+04  0.31575594589E+02 -0.32058297518E+03  0.10907653490E+04  0.12699999809E+01 0.  1.
</event>
<event>
 5   0  0.1235817E-04  0.1982586E+04  0.7818609E-02  0.8614806E-01
       -2   -1    0    0    0  501  0.00000000000E+00  0.00000000000E+00  0.92528679060E+03  0.92528679060E+03  0.25500000920E-02 0.  1.
        2   -1    0    0  501    0  0.00000000000E+00  0.00000000000E+00 -0.10620082322E+04  0.10620082322E+04  0.25500000920E-02 0. -1.
    10030    2    1    2    0    0  0.00000000000E+00  0.00000000000E+00 -0.13672144164E+03  0.19872950228E+04  0.19825863803E+04 0.  0.
        1    1    3    3  502    0 -0.86546340599E+03  0.42895848368E+03  0.15494607022E+03  0.97828450490E+03  0.50400001928E-02 0.  1.
       -1    1    3    3    0  502  0.86546340599E+03 -0.42895848368E+03 -0.29166751186E+03  0.10090105179E+04  0.50400001928E-02 0. -1.
</event>
<event>
 5   0  0.1349252E-04  0.2068671E+04  0.7818609E-02  0.8575171E-01
        2   -1    0    0  501    0  0.00000000000E+00  0.00000000000E+00  0.14434355440E+04  0.14434355440E+04  0.25500000920E-02 0.  1.
       -2   -1    0    0    0  501  0.00000000000E+00  0.00000000000E+00 -0.74118300633E+03  0.74118300633E+03  0.25500000920E-02 0. -1.
    10030    2    1    2    0    0  0.00000000000E+00  0.00000000000E+00  0.70225253770E+03  0.21846185504E+04  0.20686709704E+04 0.  0.
        2    1    3    3  502    0 -0.10093087886E+04  0.79420717360E+02  0.12750794629E+03  0.10204264586E+04  0.25500000920E-02 0. -1.
       -2    1    3    3    0  502  0.10093087886E+04 -0.79420717360E+02  0.57474459141E+03  0.11641920917E+04  0.25500000920E-02 0.  1.
</event>
<event>
 5   0  0.5846187E-05  0.2114608E+04  0.7818609E-02  0.8554836E-01
        1   -1    0    0  501    0  0.00000000000E+00  0.00000000000E+00  0.13858572721E+04  0.13858572721E+04  0.50400001928E-02 0.  1.
       -1   -1    0    0    0  501  0.00000000000E+00  0.00000000000E+00 -0.80664256103E+03  0.80664256105E+03  0.50400001928E-02 0. -1.
    10030    2    1    2    0    0  0.00000000000E+00  0.00000000000E+00  0.57921471103E+03  0.21924998331E+04  0.21146077264E+04 0.  0.
        5    1    3    3  502    0 -0.11046943942E+03 -0.83394879011E+03  0.95366394053E+03  0.12716804170E+04  0.46999998093E+01 0.  1.
       -5    1    3    3    0  502  0.11046943942E+03  0.83394879011E+03 -0.37444922950E+03  0.92081941609E+03  0.46999998093E+01 0. -1.
</event>
<event>
 5   0  0.1252477E-04  0.2136758E+04  0.7818609E-02  0.8545222E-01
       -2   -1    0    0    0  501  0.00000000000E+00  0.00000000000E+00  0.76993575119E+03  0.76993575119E+03  0.25500000920E-02 0. -1.
        2   -1    0    0  501    0  0.00000000000E+00  0.00000000000E+00 -0.14825056146E+04  0.14825056146E+04  0.25500000920E-02 0.  1.
    10030    2    1    2    0    0  0.00000000000E+00  0.00000000000E+00 -0.71256986346E+03  0.22524413658E+04  0.21367583617E+04 0.  0.
        4    1    3    3  502    0  0.71104784777E+03  0.15697410999E+03  0.46783546030E+03  0.86550652444E+03  0.12699999809E+01 0. -1.
       -4    1    3    3    0  502 -0.71104784777E+03 -0.15697410999E+03 -0.11804053238E+04  0.13869348414E+04  0.12699999809E+01 0.  1.
</event>
<event>
 5   0  0.1325673E-04  0.2117886E+04  0.7818609E-02  0.8553405E-01
       -2   -1    0    0    0  501  0.00000000000E+00  0.00000000000E+00  0.62056951331E+03  0.62056951332E+03  0.25500000920E-02 0. -1.
        2   -1    0    0  501    0  0.00000000000E+00  0.00000000000E+00 -0.18069859833E+04  0.18069859833E+04  0.25500000920E-02 0.  1.
    10030    2    1    2    0    0  0.00000000000E+00  0.00000000000E+00 -0.11864164700E+04  0.24275554966E+04  0.21178861275E+04 0.  0.
        5    1    3    3  502    0  0.60928484586E+02  0.99075108196E+03 -0.10159714738E+04  0.14203943510E+04  0.46999998093E+01 0.  1.
       -5    1    3    3    0  502 -0.60928484586E+02 -0.99075108196E+03 -0.17044499619E+03  0.10071611457E+04  0.46999998093E+01 0. -1.
</event>
<event>
 5   0  0.6263616E-05  0.2112282E+04  0.7818609E-02  0.8555852E-01
        1   -1    0    0  501    0  0.00000000000E+00  0.00000000000E+00  0.18041445473E+04  0.18041445473E+04  0.50400001928E-02 0. -1.
       -1   -1    0    0    0  501  0.00000000000E+00  0.00000000000E+00 -0.61826168142E+03  0.61826168144E+03  0.50400001928E-02 0.  1.
    10030    2    1    2    0    0  0.00000000000E+00  0.00000000000E+00  0.11858828659E+04  0.24224062288E+04  0.21122816492E+04 0.  0.
        4    1    3    3  502    0 -0.92936792077E+03 -0.46769251413E+03  0.38470345053E+03  0.11092607348E+04  0.12699999809E+01 0. -1.
       -4    1    3    3    0  502  0.92936792077E+03  0.46769251413E+03  0.80117941539E+03  0.13131454940E+04  0.12699999809E+01 0.  1.
</event>
<event>
 5   0  0.1235817E-04  0.2152012E+04  0.7818609E-02  0.8538671E-01
        2   -1    0    0  501    0  0.00000000000E+00  0.00000000000E+00  0.10965113955E+04  0.10965113955E+04  0.25500000920E-02 0.  1.
       -2   -1    0    0    0  501  0.00000000000E+00  0.00000000000E+00 -0.10558842935E+04  0.10558842935E+04  0.25500000920E-02 0. -1.
    10030    2    1    2    0    0  0.00000000000E+00  0.00000000000E+00  0.40627101970E+02  0.21523956890E+04  0.21520122306E+04 0.  0.
        1    1    3    3  502    0  0.31251307730E+03  0.41949318905E+03 -0.92014661056E+03  0.10584463822E+04  0.50400001928E-02 0. -1.
       -1    1    3    3    0  502 -0.31251307730E+03 -0.41949318905E+03  0.96077371253E+03  0.10939493068E+04  0.50400001928E-02 0.  1.
</event>
<event>
 5   0  0.5846187E-05  0.2145472E+04  0.7818609E-02  0.8541473E-01
        1   -1    0    0  501    0  0.00000000000E+00  0.00000000000E+00  0.14272104106E+04  0.14272104106E+04  0.50400001928E-02 0. -1.
       -1   -1    0    0    0  501  0.00000000000E+00  0.00000000000E+00 -0.80630164850E+03  0.80630164852E+03  0.50400001928E-02 0.  1.
    10030    2    1    2    0    0  0.00000000000E+00  0.00000000000E+00  0.62090876212E+03  0.22335120592E+04  0.21454716096E+04 0.  0.
        5    1    3    3  502    0 -0.27509329172E+03  0.90573260491E+03  0.83585473038E+03  0.12628155412E+04  0.46999998093E+01 0. -1.
       -5    1    3    3    0  502  0.27509329172E+03 -0.90573260491E+03 -0.21494596826E+03  0.97069651798E+03  0.46999998093E+01 0.  1.
</event>
<event>
 5   0  0.6221148E-05  0.2038067E+04  0.7818609E-02  0.8589027E-01
       -1   -1    0    0    0  501  0.00000000000E+00  0.00000000000E+00  0.57347094155E+03  0.57347094158E+03  0.50400001928E-02 0. -1.
        1   -1    0    0  501    0  0.00000000000E+00  0.00000000000E+00 -0.18107795534E+04  0.18107795534E+04  0.50400001928E-02 0.  1.
    10030    2    1    2    0    0  0.00000000000E+00  0.00000000000E+00 -0.12373086118E+04  0.23842504950E+04  0.20380671780E+04 0.  0.
        3    1    3    3  502    0 -0.24400626973E+02  0.25020929534E+03 -0.17739330185E+04  0.17916580160E+04  0.10100000352E+00 0.  1.
       -3    1    3    3    0  502  0.24400626973E+02 -0.25020929534E+03  0.53662440667E+03  0.59259247894E+03  0.10100000352E+00 0. -1.
</event>
<event>
 5   0  0.6221148E-05  0.2086938E+04  0.7818609E-02  0.8567019E-01
        1   -1    0    0  501    0  0.00000000000E+00  0.00000000000E+00  0.13177010323E+04  0.13177010323E+04  0.50400001928E-02 0.  1.
       -1   -1    0    0    0  501  0.00000000000E+00  0.00000000000E+00 -0.82630828789E+03  0.82630828791E+03  0.50400001928E-02 0. -1.
    10030    2    1    2    0    0  0.00000000000E+00  0.00000000000E+00  0.49139274445E+03  0.21440093203E+04  0.20869377413E+04 0.  0.
        3    1    3    3  502    0 -0.15918434982E+03  0.65179755942E+02 -0.81164250588E+03  0.82966958807E+03  0.10100000352E+00 0. -1.
       -3    1    3    3    0  502  0.15918434982E+03 -0.65179755942E+02  0.13030352503E+04  0.13143397322E+04  0.10100000352E+00 0.  1.
</event>
<event>
 5   0  0.6052292E-05  0.2087466E+04  0.7818609E-02  0.8566785E-01
        1   -1    0    0  501    0  0.00000000000E+00  0.00000000000E+00  0.21445228442E+04  0.21445228442E+04  0.50400001928E-02 0.  1.
       -1   -1    0    0    0  501  0.00000000000E+00  0.00000000000E+00 -0.50798180119E+03  0.50798180121E+03  0.50400001928E-02 0. -1.
    10030    2    1    2    0    0  0.00000000000E+00  0.00000000000E+00  0.16365410430E+04  0.26525046454E+04  0.20874660018E+04 0.  0.
        1    1    3    3  502    0  0.52010344910E+03  0.65234183932E+03  0.16151825224E+04  0.18179307065E+04  0.50400001928E-02 0.  1.
       -1    1    3    3    0  502 -0.52010344910E+03 -0.65234183932E+03  0.21358520653E+02  0.83457393892E+03  0.50400001928E-02 0. -1.
</event>
<event>
 5   0  0.1281470E-04  0.2104625E+04  0.7818609E-02  0.8559209E-01
        2   -1    0    0  501    0  0.00000000000E+00  0.00000000000E+00  0.75913357825E+03  0.75913357825E+03  0.25500000920E-02 0. -1.
       -2   -1    0    0    0  501  0.00000000000E+00  0.00000000000E+00 -0.14587173279E+04  0.14587173279E+04  0.25500000920E-02 0.  1.
    10030    2    1    2    0    0  0.00000000000E+00  0.00000000000E+00 -0.69958374966E+03  0.22178509062E+04  0.21046247217E+04 0.  0.
        3    1    3    3  502    0 -0.79617765556E+03  0.50198545571E+03  0.14613553378E+03  0.95249349677E+03  0.10100000352E+00 0. -1.
       -3    1    3    3    0  502  0.79617765556E+03 -0.50198545571E+03 -0.84571928344E+03  0.12653574094E+04  0.10100000352E+00 0.  1.
</event>
<event>
 5   0  0.4615125E-05  0.2089335E+04  0.7818609E-02  0.8565956E-01
        3   -1    0    0  501    0  0.00000000000E+00  0.00000000000E+00  0.72531013436E+03  0.72531014139E+03  0.10100000352E+00 0.  1.
       -3   -1    0    0    0  501  0.00000000000E+00  0.00000000000E+00 -0.15046393576E+04  0.15046393610E+04  0.10100000352E+00 0. -1.
    10030    2    1    2    0    0  0.00000000000E+00  0.00000000000E+00 -0.77932922323E+03  0.22299495024E+04  0.20893350007E+04 0.  0.
        2    1    3    3  502    0 -0.62288205371E+02  0.25219827646E+03 -0.14696163592E+04  0.14923994219E+04  0.25500000920E-02 0. -1.
       -2    1    3    3    0  502  0.62288205371E+02 -0.25219827646E+03  0.69028713596E+03  0.73755008051E+03  0.25500000920E-02 0.  1.
</event>
<event>
 5   0  0.1281470E-04  0.2119633E+04  0.7818609E-02  0.8552644E-01
       -2   -1    0    0    0  501  0.00000000000E+00  0.00000000000E+00  0.15366975031E+04  0.15366975031E+04  0.25500000920E-02 0. -1.
        2   -1    0    0  501    0  0.00000000000E+00  0.00000000000E+00 -0.73092505126E+03  0.73092505127E+03  0.25500000920E-02 0.  1.
    10030    2    1    2    0    0  0.00000000000E+00  0.00000000000E+00  0.80577245188E+03  0.22676225544E+04  0.21196327052E+04 0.  0.
        3    1    3    3  502    0 -0.96184468364E+03  0.36218605530E+03  0.67956779236E+03  0.12321267503E+04  0.10100000352E+00 0. -1.
       -3    1    3    3    0  502  0.96184468364E+03 -0.36218605530E+03  0.12620465952E+03  0.10354958041E+04  0.10100000352E+00 0.  1.
</event>
<event>
 5   0  0.1325673E-04  0.2078217E+04  0.7818609E-02  0.8570900E-01
       -2   -1    0    0    0  501  0.00000000000E+00  0.00000000000E+00  0.50024879519E+03  0.50024879520E+03  0.25500000920E-02 0.  1.
        2   -1    0    0  501    0  0.00000000000E+00  0.00000000000E+00 -0.21584193845E+04  0.21584193845E+04  0.25500000920E-02 0. -1.
    10030    2    1    2    0    0  0.00000000000E+00  0.00000000000E+00 -0.16581705894E+04  0.26586681797E+04  0.20782172135E+04 0.  0.
        5    1    3    3  502    0 -0.52789052565E+03 -0.81511902728E+03 -0.35619801632E+03  0.10344015432E+04  0.46999998093E+01 0.  1.
       -5    1    3    3    0  502  0.52789052565E+03  0.81511902728E+03 -0.13019725730E+04  0.16242666366E+04  0.46999998093E+01 0. -1.
</event>
<event>
 5   0  0.5933905E-05  0.1705437E+04  0.7818609E-02  0.8758270E-01
       -1   -1    0    0    0  501  0.00000000000E+00  0.00000000000E+00  0.85689159907E+03  0.85689159909E+03  0.50400001928E-02 0. -1.
        1   -1    0    0  501    0  0.00000000000E+00  0.00000000000E+00 -0.84856553127E+03  0.84856553129E+03  0.50400001928E-02 0.  1.
    10030    2    1    2    0    0  0.00000000000E+00  0.00000000000E+00  0.83260678000E+01  0.17054571304E+04  0.17054368063E+04 0.  0.
        2    1    3    3  502    0  0.39936820136E+02  0.92421201647E+02 -0.84260088607E+03  0.84859465078E+03  0.25500000920E-02 0.  1.
       -2    1    3    3    0  502 -0.39936820136E+02 -0.92421201647E+02  0.85092695387E+03  0.85686247960E+03  0.25500000920E-02 0. -1.
</event>
<event>
 5   0  0.6263616E-05  0.1955901E+04  0.7818609E-02  0.8627521E-01
       -1   -1    0    0    0  501  0.00000000000E+00  0.00000000000E+00  0.66534653034E+03  0.66534653036E+03  0.50400001928E-02 0.  1.
        1   -1    0    0  501    0  0.00000000000E+00  0.00000000000E+00 -0.14374269787E+04  0.14374269787E+04  0.50400001928E-02 0. -1.
    10030    2    1    2    0    0  0.00000000000E+00  0.00000000000E+00 -0.77208044831E+03  0.21027735090E+04  0.19559008696E+04 0.  0.
        4    1    3    3  502    0 -0.52429525247E+03 -0.22133369196E+03 -0.12410671871E+04  0.13653290779E+04  0.12699999809E+01 0. -1.
       -4    1    3    3    0  502  0.52429525247E+03  0.22133369196E+03  0.46898673882E+03  0.73744443116E+03  0.12699999809E+01 0.  1.
</event>
<event>
 5   0  0.1349252E-04  0.2108145E+04  0.7818609E-02  0.8557664E-01
        2   -1    0    0  501    0  0.00000000000E+00  0.00000000000E+00  0.10414658460E+04  0.10414658460E+04  0.25500000920E-02 0. -1.
       -2   -1    0    0    0  501  0.00000000000E+00  0.00000000000E+00 -0.10668314885E+04  0.10668314885E+04  0.25500000920E-02 0.  1.
    10030    2    1    2    0    0  0.00000000000E+00  0.00000000000E+00 -0.25365642544E+02  0.21082973345E+04  0.21081447376E+04 0.  0.
        2    1    3    3  502    0  0.53002720220E+02  0.65313192856E+03  0.81301484951E+03  0.10442144176E+04  0.25500000920E-02 0. -1.
       -2    1    3    3    0  502 -0.53002720220E+02 -0.65313192856E+03 -0.83838049205E+03  0.10640829168E+04  0.25500000920E-02 0.  1.
</event>
<event>
 5   0  0.1281470E-04  0.2079790E+04  0.7818609E-02  0.8570199E-01
       -2   -1    0    0    0  501  0.00000000000E+00  0.00000000000E+00  0.15756282364E+04  0.15756282364E+04  0.25500000920E-02 0.  1.
        2   -1    0    0  501    0  0.00000000000E+00  0.00000000000E+00 -0.68631779942E+03  0.68631779942E+03  0.25500000920E-02 0. -1.
    10030    2    1    2    0    0  0.00000000000E+00  0.00000000000E+00  0.88931043695E+03  0.22619460358E+04  0.20797900893E+04 0.  0.
        3    1    3    3  502    0 -0.31328250570E+02  0.60721888648E+03 -0.47284627795E+03  0.77024661515E+03  0.10100000352E+00 0. -1.
       -3    1    3    3    0  502  0.31328250570E+02 -0.60721888648E+03  0.13621567149E+04  0.14916994206E+04  0.10100000352E+00 0.  1.
</event>
<event>
 5   0  0.6052292E-05  0.2111228E+04  0.7818609E-02  0.8556313E-01
        1   -1    0    0  501    0  0.00000000000E+00  0.00000000000E+00  0.97742990061E+03  0.97742990063E+03  0.50400001928E-02 0.  1.
       -1   -1    0    0    0  501  0.00000000000E+00  0.00000000000E+00 -0.11400520203E+04  0.11400520203E+04  0.50400001928E-02 0. -1.
    10030    2    1    2    0    0  0.00000000000E+00  0.00000000000E+00 -0.16262211969E+03  0.21174819209E+04  0.21112280151E+04 0.  0.
        1    1    3    3  502    0  0.81059314812E+03 -0.48151080016E+03 -0.55748793386E+03  0.10953112338E+04  0.50400001928E-02 0. -1.
       -1    1    3    3    0  502 -0.81059314812E+03  0.48151080016E+03  0.39486581417E+03  0.10221706872E+04  0.50400001928E-02 0.  1.
</event>
<event>
 5   0  0.1325673E-04  0.2042308E+04  0.7818609E-02  0.8587092E-01
       -2   -1    0    0    0  501  0.00000000000E+00  0.00000000000E+00  0.79416845807E+03  0.79416845807E+03  0.25500000920E-02 0.  1.
        2   -1    0    0  501    0  0.00000000000E+00  0.00000000000E+00 -0.13130154587E+04  0.13130154587E+04  0.25500000920E-02 0. -1.
    10030    2    1    2    0    0  0.00000000000E+00  0.00000000000E+00 -0.51884700064E+03  0.21071839168E+04  0.20423079712E+04 0.  0.
        5    1    3    3  502    0 -0.42200504529E+03 -0.41276185892E+03  0.60027520751E+03  0.84191034272E+03  0.46999998093E+01 0.  1.
       -5    1    3    3    0  502  0.42200504529E+03  0.41276185892E+03 -0.11191222082E+04  0.12652735741E+04  0.46999998093E+01 0. -1.
</event>
<event>
 5   0  0.6263616E-05  0.2119715E+04  0.7818609E-02  0.8552608E-01
       -1   -1    0    0    0  501  0.00000000000E+00  0.00000000000E+00  0.12146137624E+04  0.12146137624E+04  0.50400001928E-02 0. -1.
        1   -1    0    0  501    0  0.00000000000E+00  0.00000000000E+00 -0.92481940828E+03  0.92481940829E+03  0.50400001928E-02 0.  1.
    10030    2    1    2    0    0  0.00000000000E+00  0.00000000000E+00  0.28979435411E+03  0.21394331707E+04  0.21197154347E+04 0.  0.
        4    1    3    3  502    0  0.89145690689E+03  0.57298541342E+03  0.12773704390E+03  0.10673921801E+04  0.12699999809E+01 0. -1.
       -4    1    3    3    0  502 -0.89145690689E+03 -0.57298541342E+03  0.16205731021E+03  0.10720409906E+04  0.12699999809E+01 0.  1.
</event>
<event>
 5   0  0.5846187E-05  0.2064415E+04  0.7818609E-02  0.8577083E-01
        1   -1    0    0  501    0  0.00000000000E+00  0.00000000000E+00  0.10044009629E+04  0.10044009629E+04  0.50400001928E-02 0.  1.
       -1   -1    0    0    0  501  0.00000000000E+00  0.00000000000E+00 -0.10607834774E+04  0.10607834774E+04  0.50400001928E-02 0. -1.
    10030    2    1    2    0    0  0.00000000000E+00  0.00000000000E+00 -0.56382514510E+02  0.20651844404E+04  0.20644146349E+04 0.  0.
        5    1    3    3  502    0  0.88172450748E+03  0.53318793805E+03 -0.89061065278E+02  0.10342540538E+04  0.46999998093E+01 0.  1.
       -5    1    3    3    0  502 -0.88172450748E+03 -0.53318793805E+03  0.32678550768E+02  0.10309303866E+04  0.46999998093E+01 0. -1.
</event>
<event>
 5   0  0.1349252E-04  0.2101475E+04  0.7818609E-02  0.8560594E-01
        2   -1    0    0  501    0  0.00000000000E+00  0.00000000000E+00  0.77674995087E+03  0.77674995088E+03  0.25500000920E-02 0.  1.
       -2   -1    0    0    0  501  0.00000000000E+00  0.00000000000E+00 -0.14213696834E+04  0.14213696834E+04  0.25500000920E-02 0. -1.
    10030    2    1    2    0    0  0.00000000000E+00  0.00000000000E+00 -0.64461973253E+03  0.21981196343E+04  0.21014745602E+04 0.  0.
        2    1    3    3  502    0  0.46325680958E+02 -0.10468567285E+04 -0.24133008244E+03  0.10753117164E+04  0.25500000920E-02 0.  1.
       -2    1    3    3    0  502 -0.46325680958E+02  0.10468567285E+04 -0.40328965009E+03  0.11228079179E+04  0.25500000920E-02 0. -1.
</event>
<event>
 5   0  0.6052292E-05  0.2152736E+04  0.7818609E-02  0.8538362E-01
        1   -1    0    0  501    0  0.00000000000E+00  0.00000000000E+00  0.25920263847E+04  0.25920263847E+04  0.50400001928E-02 0.  1.
       -1   -1    0    0    0  501  0.00000000000E+00  0.00000000000E+00 -0.44697401327E+03  0.44697401330E+03  0.50400001928E-02 0. -1.
    10030    2    1    2    0    0  0.00000000000E+00  0.00000000000E+00  0.21450523714E+04  0.30390003980E+04  0.21527363384E+04 0.  0.
        1    1    3    3  502    0 -0.66252538265E+03  0.83558332936E+03  0.86587333448E+03  0.13736360560E+04  0.50400001928E-02 0.  1.
       -1    1    3    3    0  502  0.66252538265E+03 -0.83558332936E+03  0.12791790369E+04  0.16653643420E+04  0.50400001928E-02 0. -1.
</event>
<event>
 5   0  0.5933905E-05  0.2118038E+04  0.7818609E-02  0.8553339E-01
       -1   -1    0    0    0  501  0.00000000000E+00  0.00000000000E+00  0.83727732945E+03  0.83727732947E+03  0.50400001928E-02 0. -1.
        1   -1    0    0  501    0  0.00000000000E+00  0.00000000000E+00 -0.13394863671E+04  0.13394863671E+04  0.50400001928E-02 0.  1.
    10030    2    1    2    0    0  0.00000000000E+00  0.00000000000E+00 -0.50220903765E+03  0.21767636966E+04  0.21180383078E+04 0.  0.
        2    1    3    3  502    0  0.57079913443E+03 -0.39845596473E+02  0.66473874596E+03  0.87708433107E+03  0.25500000920E-02 0. -1.
       -2    1    3    3    0  502 -0.57079913443E+03  0.39845596473E+02 -0.11669477836E+04  0.12996793655E+04  0.25500000920E-02 0.  1.
</event>
<event>
 5   0  0.1325673E-04  0.2146003E+04  0.7818609E-02  0.8541245E-01
        2   -1    0    0  501    0  0.00000000000E+00  0.00000000000E+00  0.79335699394E+03  0.79335699395E+03  0.25500000920E-02 0.  1.
       -2   -1    0    0    0  501  0.00000000000E+00  0.00000000000E+00 -0.14512163711E+04  0.14512163711E+04  0.25500000920E-02 0. -1.
    10030    2    1    2    0    0  0.00000000000E+00  0.00000000000E+00 -0.65785937720E+03  0.22445733651E+04  0.21460034089E+04 0.  0.
        5    1    3    3  502    0 -0.97506610366E+03  0.32054814291E+03 -0.65603315463E+03  0.12181570541E+04  0.46999998093E+01 0. -1.
       -5    1    3    3    0  502  0.97506610366E+03 -0.32054814291E+03 -0.18262225679E+01  0.10264163110E+04  0.46999998093E+01 0.  1.
</event>
<event>
 5   0  0.1252477E-04  0.2056217E+04  0.7818609E-02  0.8580779E-01
        2   -1    0    0  501    0  0.00000000000E+00  0.00000000000E+00  0.90501664117E+03  0.90501664117E+03  0.25500000920E-02 0. -1.
       -2   -1    0    0    0  501  0.00000000000E+00  0.00000000000E+00 -0.11679417041E+04  0.11679417041E+04  0.25500000920E-02 0.  1.
    10030    2    1    2    0    0  0.00000000000E+00  0.00000000000E+00 -0.26292506295E+03  0.20729583453E+04  0.20562166016E+04 0.  0.
        4    1    3    3  502    0  0.97396654336E+03 -0.88290069170E+02  0.18829351435E+03  0.99592269998E+03  0.12699999809E+01 0. -1.
       -4    1    3    3    0  502 -0.97396654336E+03  0.88290069170E+02 -0.45121857730E+03  0.10770356453E+04  0.12699999809E+01 0.  1.
</event>
<event>
 5   0  0.5933905E-05  0.2146049E+04  0.7818609E-02  0.8541225E-01
        1   -1    0    0  501    0  0.00000000000E+00  0.00000000000E+00  0.72510359414E+03  0.72510359416E+03  0.50400001928E-02 0.  1.
       -1   -1    0    0    0  501  0.00000000000E+00  0.00000000000E+00 -0.15878862753E+04  0.15878862753E+04  0.50400001928E-02 0. -1.
    10030    2    1    2    0    0  0.00000000000E+00  0.00000000000E+00 -0.86278268117E+03  0.23129898695E+04  0.21460494359E+04 0.  0.
        2    1    3    3  502    0 -0.35598960271E+03  0.51533390104E+03 -0.13704204320E+04  0.15067679938E+04  0.25500000920E-02 0. -1.
       -2    1    3    3    0  502  0.35598960271E+03 -0.51533390104E+03  0.50763775078E+03  0.80622187568E+03  0.25500000920E-02 0.  1.
</event>
<event>
 5   0  0.6221148E-05  0.2120632E+04  0.7818609E-02  0.8552209E-01
        1   -1    0    0  501    0  0.00000000000E+00  0.00000000000E+00  0.68230452914E+03  0.68230452916E+03  0.50400001928E-02 0. -1.
       -1   -1    0    0    0  501  0.00000000000E+00  0.00000000000E+00 -0.16477536779E+04  0.16477536779E+04  0.50400001928E-02 0.  1.
    10030    2    1    2    0    0  0.00000000000E+00  0.00000000000E+00 -0.96544914875E+03  0.23300582071E+04  0.21206317902E+04 0.  0.
        3    1    3    3  502    0  0.15328211640E+03  0.73383961646E+03  0.34116252242E+03  0.82365518684E+03  0.10100000352E+00 0. -1.
       -3    1    3    3    0  502 -0.15328211640E+03 -0.73383961646E+03 -0.13066116712E+04  0.15064030202E+04  0.10100000352E+00 0.  1.
</event>
<event>
 5   0  0.5933905E-05  0.2070928E+04  0.7818609E-02  0.8574159E-01
        1   -1    0    0  501    0  0.00000000000E+00  0.00000000000E+00  0.87752507174E+03  0.87752507176E+03  0.50400001928E-02 0.  1.
       -1   -1    0    0    0  501  0.00000000000E+00  0.00000000000E+00 -0.12218293837E+04  0.12218293837E+04  0.50400001928E-02 0. -1.
    10030    2    1    2    0    0  0.00000000000E+00  0.00000000000E+00 -0.34430431195E+03  0.20993544555E+04  0.20709282147E+04 0.  0.
        2    1    3    3  502    0 -0.35600457965E+03  0.85783852179E+03 -0.63621269327E+03  0.11257854064E+04  0.25500000920E-02 0. -1.
       -2    1    3    3    0  502  0.35600457965E+03 -0.85783852179E+03  0.29190838132E+03  0.97356904906E+03  0.25500000920E-02 0.  1.
</event>
<event>
 5   0  0.1281470E-04  0.2099466E+04  0.7818609E-02  0.8561479E-01
       -2   -1    0    0    0  501  0.00000000000E+00  0.00000000000E+00  0.72355533527E+03  0.72355533528E+03  0.25500000920E-02 0. -1.
        2   -1    0    0  501    0  0.00000000000E+00  0.00000000000E+00 -0.15229503916E+04  0.15229503916E+04  0.25500000920E-02 0.  1.
    10030    2    1    2    0    0  0.00000000000E+00  0.00000000000E+00 -0.79939505636E+03  0.22465057269E+04  0.20994655332E+04 0.  0.
        3    1    3    3  502    0  0.68863032506E+03 -0.47132225911E+03  0.28175933702E+03  0.88076372014E+03  0.10100000352E+00 0. -1.
       -3    1    3    3    0  502 -0.68863032506E+03  0.47132225911E+03 -0.10811543934E+04  0.13657420068E+04  0.10100000352E+00 0.  1.
</event>
<event>
 5   0  0.5846187E-05  0.2145830E+04  0.7818609E-02  0.8541319E-01
       -1   -1    0    0    0  501  0.00000000000E+00  0.00000000000E+00  0.17625673763E+04  0.17625673763E+04  0.50400001928E-02 0.  1.
        1   -1    0    0  501    0  0.00000000000E+00  0.00000000000E+00 -0.65310786337E+03  0.65310786339E+03  0.50400001928E-02 0. -1.
    10030    2    1    2    0    0  0.00000000000E+00  0.00000000000E+00  0.11094595130E+04  0.24156752397E+04  0.21458300149E+04 0.  0.
        5    1    3    3  502    0  0.59383063523E+03  0.72808805039E+03  0.11379280925E+04  0.14756861002E+04  0.46999998093E+01 0.  1.
       -5    1    3    3    0  502 -0.59383063523E+03 -0.72808805039E+03 -0.28468579577E+02  0.93998913955E+03  0.46999998093E+01 0. -1.
</event>
<event>
 5   0  0.6263616E-05  0.2024723E+04  0.7818609E-02  0.8595148E-01
        1   -1    0    0  501    0  0.00000000000E+00  0.00000000000E+00  0.80879989595E+03  0.80879989596E+03  0.50400001928E-02 0.  1.
       -1   -1    0    0    0  501  0.00000000000E+00  0.00000000000E+00 -0.12671562453E+04  0.12671562453E+04  0.50400001928E-02 0. -1.
    10030    2    1    2    0    0  0.00000000000E+00  0.00000000000E+00 -0.45835634936E+03  0.20759561413E+04  0.20247230323E+04 0.  0.
        4    1    3    3  502    0 -0.11239816289E+03  0.90386628735E+03  0.22389312119E+03  0.93794315128E+03  0.12699999809E+01 0.  1.
       -4    1    3    3    0  502  0.11239816289E+03 -0.90386628735E+03 -0.68224947054E+03  0.11380129900E+04  0.12699999809E+01 0. -1.
</event>
<event>
 5   0  0.6221148E-05  0.2093628E+04  0.7818609E-02  0.8564055E-01
       -1   -1    0    0    0  501  0.00000000000E+00  0.00000000000E+00  0.91774162778E+03  0.91774162780E+03  0.50400001928E-02 0. -1.
        1   -1    0    0  501    0  0.00000000000E+00  0.00000000000E+00 -0.11940392918E+04  0.11940392918E+04  0.50400001928E-02 0.  1.
    10030    2    1    2    0    0  0.00000000000E+00  0.00000000000E+00 -0.27629766399E+03  0.21117809196E+04  0.20936280121E+04 0.  0.
        3    1    3    3  502    0 -0.10041544784E+04 -0.28101951427E+03 -0.23126048436E+03  0.10680728466E+04  0.10100000352E+00 0. -1.
       -3    1    3    3    0  502  0.10041544784E+04  0.28101951427E+03 -0.45037179629E+02  0.10437080730E+04  0.10100000352E+00 0.  1.
</event>
<event>
 5   0  0.1235817E-04  0.2103943E+04  0.7818609E-02  0.8559508E-01
        2   -1    0    0  501    0  0.00000000000E+00  0.00000000000E+00  0.13424161846E+04  0.13424161846E+04  0.25500000920E-02 0. -1.
       -2   -1    0    0    0  501  0.00000000000E+00  0.00000000000E+00 -0.82436768874E+03  0.82436768875E+03  0.25500000920E-02 0.  1.
    10030    2    1    2    0    0  0.00000000000E+00  0.00000000000E+00  0.51804849584E+03  0.21667838733E+04  0.21039434664E+04 0.  0.
        1    1    3    3  502    0 -0.20735221476E+03 -0.11147400385E+02 -0.80305138732E+03  0.82946412592E+03  0.50400001928E-02 0.  1.
       -1    1    3    3    0  502  0.20735221476E+03  0.11147400385E+02  0.13210998832E+04  0.13373197474E+04  0.50400001928E-02 0. -1.
</event>
<event>
 5   0  0.6052292E-05  0.2112480E+04  0.7818609E-02  0.8555766E-01
        1   -1    0    0  501    0  0.00000000000E+00  0.00000000000E+00  0.14199142745E+04  0.14199142745E+04  0.50400001928E-02 0. -1.
       -1   -1    0    0    0  501  0.00000000000E+00  0.00000000000E+00 -0.78571123773E+03  0.78571123775E+03  0.50400001928E-02 0.  1.
    10030    2    1    2    0    0  0.00000000000E+00  0.00000000000E+00  0.63420303673E+03  0.22056255122E+04  0.21124796823E+04 0.  0.
        1    1    3    3  502    0  0.67892140879E+03  0.28225710506E+03  0.11088513509E+04  0.13304715973E+04  0.50400001928E-02 0. -1.
       -1    1    3    3    0  502 -0.67892140879E+03 -0.28225710506E+03 -0.47464831418E+03  0.87515391495E+03  0.50400001928E-02 0.  1.
</event>
<event>
 5   0  0.1281470E-04  0.2077500E+04  0.7818609E-02  0.8571220E-01
        2   -1    0    0  501    0  0.00000000000E+00  0.00000000000E+00  0.11342629156E+04  0.11342629156E+04  0.25500000920E-02 0.  1.
       -2   -1    0    0    0  501  0.00000000000E+00  0.00000000000E+00 -0.95127967286E+03  0.95127967286E+03  0.25500000920E-02 0. -1.
    10030    2    1    2    0    0  0.00000000000E+00  0.00000000000E+00  0.18298324277E+03  0.20855425885E+04  0.20774997043E+04 0.  0.
        3    1    3    3  502    0 -0.74450214716E+01  0.43026620260E+03 -0.85758735192E+03  0.95950013539E+03  0.10100000352E+00 0. -1.
       -3    1    3    3    0  502  0.74450214716E+01 -0.43026620260E+03  0.10405705947E+04  0.11260424531E+04  0.10100000352E+00 0.  1.
</event>
<event>
 5   0  0.1281470E-04  0.2100137E+04  0.7818609E-02  0.8561183E-01
        2   -1    0    0  501    0  0.00000000000E+00  0.00000000000E+00  0.19049497379E+04  0.19049497379E+04  0.25500000920E-02 0.  1.
       -2   -1    0    0    0  501  0.00000000000E+00  0.00000000000E+00 -0.57883115535E+03  0.57883115536E+03  0.25500000920E-02 0. -1.
    10030    2    1    2    0    0  0.00000000000E+00  0.00000000000E+00  0.13261185826E+04  0.24837808933E+04  0.21001373838E+04 0.  0.
        3    1    3    3  502    0 -0.66554301392E+03 -0.80464108797E+03  0.53216397310E+03  0.11720039626E+04  0.10100000352E+00 0. -1.
       -3    1    3    3    0  502  0.66554301392E+03  0.80464108797E+03  0.79395460945E+03  0.13117769307E+04  0.10100000352E+00 0.  1.
</event>
<event>
 5   0  0.1252477E-04  0.1530231E+04  0.7818609E-02  0.8864595E-01
        2   -1    0    0  501    0  0.00000000000E+00  0.00000000000E+00  0.10739323385E+04  0.10739323385E+04  0.25500000920E-02 0.  1.
       -2   -1    0    0    0  501  0.00000000000E+00  0.00000000000E+00 -0.54510111712E+03  0.54510111712E+03  0.25500000920E-02 0. -1.
    10030    2    1    2    0    0  0.00000000000E+00  0.00000000000E+00  0.52883122136E+03  0.16190334556E+04  0.15302309857E+04 0.  0.
        4    1    3    3  502    0 -0.21864764696E+03  0.15936618894E+03  0.10216264246E+04  0.10568474535E+04  0.12699999809E+01 0.  1.
       -4    1    3    3    0  502  0.21864764696E+03 -0.15936618894E+03 -0.49279520323E+03  0.56218600207E+03  0.12699999809E+01 0. -1.
</event>
<event>
 5   0  0.6221148E-05  0.2123357E+04  0.7818609E-02  0.8551023E-01
       -1   -1    0    0    0  501  0.00000000000E+00  0.00000000000E+00  0.85864960943E+03  0.85864960945E+03  0.50400001928E-02 0.  1.
        1   -1    0    0  501    0  0.00000000000E+00  0.00000000000E+00 -0.13127143581E+04  0.13127143581E+04  0.50400001928E-02 0. -1.
    10030    2    1    2    0    0  0.00000000000E+00  0.00000000000E+00 -0.45406474868E+03  0.21713639676E+04  0.21233574084E+04 0.  0.
        3    1    3    3  502    0 -0.79257495824E+02 -0.61734808671E+02 -0.13078426651E+04  0.13116956141E+04  0.10100000352E+00 0. -1.
       -3    1    3    3    0  502  0.79257495824E+02  0.61734808671E+02  0.85377791639E+03  0.85966835348E+03  0.10100000352E+00 0.  1.
</event>
<event>
 5   0  0.1252477E-04  0.2062453E+04  0.7818609E-02  0.8577966E-01
       -2   -1    0    0    0  501  0.00000000000E+00  0.00000000000E+00  0.12004588720E+04  0.12004588720E+04  0.25500000920E-02 0.  1.
        2   -1    0    0  501    0  0.00000000000E+00  0.00000000000E+00 -0.88585146435E+03  0.88585146436E+03  0.25500000920E-02 0. -1.
    10030    2    1    2    0    0  0.00000000000E+00  0.00000000000E+00  0.31460740769E+03  0.20863103364E+04  0.20624531507E+04 0.  0.
        4    1    3    3  502    0 -0.86162582411E+03 -0.54872026734E+02  0.72775653210E+03  0.11291772151E+04  0.12699999809E+01 0. -1.
       -4    1    3    3    0  502  0.86162582411E+03  0.54872026734E+02 -0.41314912441E+03  0.95713312135E+03  0.12699999809E+01 0.  1.
</event>
<event>
 5   0  0.5846187E-05  0.1998377E+04  0.7818609E-02  0.8607380E-01
        1   -1    0    0  501    0  0.00000000000E+00  0.00000000000E+00  0.10993978023E+04  0.10993978023E+04  0.50400001928E-02 0. -1.
       -1   -1    0    0    0  501  0.00000000000E+00  0.00000000000E+00 -0.90811341737E+03  0.90811341738E+03  0.50400001928E-02 0.  1.
    10030    2    1    2    0    0  0.00000000000E+00  0.00000000000E+00  0.19128438494E+03  0.20075112197E+04  0.19983772370E+04 0.  0.
        5    1    3    3  502    0 -0.61915273998E+02 -0.44618434747E+03 -0.80030976045E+03  0.91838541786E+03  0.46999998093E+01 0.  1.
       -5    1    3    3    0  502  0.61915273998E+02  0.44618434747E+03  0.99159414539E+03  0.10891258018E+04  0.46999998093E+01 0. -1.
</event>
<event>
 5   0  0.1235817E-04  0.2101322E+04  0.7818609E-02  0.8560661E-01
       -2   -1    0    0    0  501  0.00000000000E+00  0.00000000000E+00  0.79548435136E+03  0.79548435137E+03  0.25500000920E-02 0. -1.
        2   -1    0    0  501    0  0.00000000000E+00  0.00000000000E+00 -0.13876935730E+04  0.13876935730E+04  0.25500000920E-02 0.  1.
    10030    2    1    2    0    0  0.00000000000E+00  0.00000000000E+00 -0.59220922160E+03  0.21831779243E+04  0.21013219856E+04 0.  0.
        1    1    3    3  502    0  0.10499594656E+04 -0.22400963300E+02 -0.26371589412E+03  0.10828031933E+04  0.50400001928E-02 0. -1.
       -1    1    3    3    0  502 -0.10499594656E+04  0.22400963300E+02 -0.32849332747E+03  0.11003747311E+04  0.50400001928E-02 0.  1.
</event>
<event>
 5   0  0.5933905E-05  0.2070975E+04  0.7818609E-02  0.8574138E-01
       -1   -1    0    0    0  501  0.00000000000E+00  0.00000000000E+00  0.58079153290E+03  0.58079153292E+03  0.50400001928E-02 0.  1.
        1   -1    0    0  501    0  0.00000000000E+00  0.00000000000E+00 -0.18461601410E+04  0.18461601410E+04  0.50400001928E-02 0. -1.
    10030    2    1    2    0    0  0.00000000000E+00  0.00000000000E+00 -0.12653686081E+04  0.24269516740E+04  0.20709748220E+04 0.  0.
        2    1    3    3  502    0  0.95687405182E+03  0.35702056916E+03 -0.43256039064E+03  0.11091348563E+04  0.25500000920E-02 0.  1.
       -2    1    3    3    0  502 -0.95687405182E+03 -0.35702056916E+03 -0.83280821749E+03  0.13178168177E+04  0.25500000920E-02 0. -1.
</event>
<event>
 5   0  0.1325673E-04  0.2126686E+04  0.7818609E-02  0.8549578E-01
        2   -1    0    0  501    0  0.00000000000E+00  0.00000000000E+00  0.14171465188E+04  0.14171465188E+04  0.25500000920E-02 0. -1.
       -2   -1    0    0    0  501  0.00000000000E+00  0.00000000000E+00 -0.79786978504E+03  0.79786978505E+03  0.25500000920E-02 0.  1.
    10030    2    1    2    0    0  0.00000000000E+00  0.00000000000E+00  0.61927673373E+03  0.22150163038E+04  0.21266860495E+04 0.  0.
        5    1    3    3  502    0  0.13567717105E+03  0.77259425205E+03 -0.43806869013E+03  0.89846337728E+03  0.46999998093E+01 0.  1.
       -5    1    3    3    0  502 -0.13567717105E+03 -0.77259425205E+03  0.10573454239E+04  0.13165529265E+04  0.46999998093E+01 0. -1.
</event>
<event>
 5   0  0.6221148E-05  0.1956259E+04  0.7818609E-02  0.8627348E-01
        1   -1    0    0  501    0  0.00000000000E+00  0.00000000000E+00  0.67304238804E+03  0.67304238805E+03  0.50400001928E-02 0. -1.
       -1   -1    0    0    0  501  0.00000000000E+00  0.00000000000E+00 -0.14215113017E+04  0.14215113017E+04  0.50400001928E-02 0.  1.
    10030    2    1    2    0    0  0.00000000000E+00  0.00000000000E+00 -0.74846891364E+03  0.20945536897E+04  0.19562590433E+04 0.  0.
        3    1    3    3  502    0 -0.15686365821E+03  0.86629560631E+03  0.82115963218E+02  0.88420434652E+03  0.10100000352E+00 0. -1.
       -3    1    3    3    0  502  0.15686365821E+03 -0.86629560631E+03 -0.83058487686E+03  0.12103493432E+04  0.10100000352E+00 0.  1.
</event>
<event>
 5   0  0.6221148E-05  0.2089100E+04  0.7818609E-02  0.8566060E-01
        1   -1    0    0  501    0  0.00000000000E+00  0.00000000000E+00  0.26785436026E+04  0.26785436026E+04  0.50400001928E-02 0. -1.
       -1   -1    0    0    0  501  0.00000000000E+00  0.00000000000E+00 -0.40734235415E+03  0.40734235418E+03  0.50400001928E-02 0.  1.
    10030    2    1    2    0    0  0.00000000000E+00  0.00000000000E+00  0.22712012484E+04  0.30858859568E+04  0.20890995733E+04 0.  0.
        3    1    3    3  502    0 -0.23536945134E+03  0.10099630570E+04  0.13204499539E+04  0.16789914371E+04  0.10100000352E+00 0. -1.
       -3    1    3    3    0  502  0.23536945134E+03 -0.10099630570E+04  0.95075129453E+03  0.14068945196E+04  0.10100000352E+00 0.  1.
</event>
<event>
 5   0  0.4615125E-05  0.2108057E+04  0.7818609E-02  0.8557703E-01
        3   -1    0    0  501    0  0.00000000000E+00  0.00000000000E+00  0.48407485589E+03  0.48407486643E+03  0.10100000352E+00 0.  1.
       -3   -1    0    0    0  501  0.00000000000E+00  0.00000000000E+00 -0.22950493063E+04  0.22950493086E+04  0.10100000352E+00 0. -1.
    10030    2    1    2    0    0  0.00000000000E+00  0.00000000000E+00 -0.18109744504E+04  0.27791241750E+04  0.21080566216E+04 0.  0.
        4    1    3    3  502    0  0.61604723703E+03  0.85489886921E+03 -0.87298573666E+03  0.13683829815E+04  0.12699999809E+01 0. -1.
       -4    1    3    3    0  502 -0.61604723703E+03 -0.85489886921E+03 -0.93798871378E+03  0.14107411935E+04  0.12699999809E+01 0.  1.
</event>
<event>
 5   0  0.6052292E-05  0.2075839E+04  0.7818609E-02  0.8571962E-01
       -1   -1    0    0    0  501  0.00000000000E+00  0.00000000000E+00  0.12316976917E+04  0.12316976917E+04  0.50400001928E-02 0. -1.
        1   -1    0    0  501    0  0.00000000000E+00  0.00000000000E+00 -0.87462740464E+03  0.87462740466E+03  0.50400001928E-02 0.  1.
    10030    2    1    2    0    0  0.00000000000E+00  0.00000000000E+00  0.35707028707E+03  0.21063250964E+04  0.20758386791E+04 0.  0.
        1    1    3    3  502    0 -0.91302718489E+03  0.47931058264E+03  0.29824783493E+03  0.10734565879E+04  0.50400001928E-02 0. -1.
       -1    1    3    3    0  502  0.91302718489E+03 -0.47931058264E+03  0.58822452139E+02  0.10328685085E+04  0.50400001928E-02 0.  1.
</event>
<event>
 5   0  0.5933905E-05  0.2114430E+04  0.7818609E-02  0.8554913E-01
       -1   -1    0    0    0  501  0.00000000000E+00  0.00000000000E+00  0.75743273607E+03  0.75743273609E+03  0.50400001928E-02 0. -1.
        1   -1    0    0  501    0  0.00000000000E+00  0.00000000000E+00 -0.14756479623E+04  0.14756479623E+04  0.50400001928E-02 0.  1.
    10030    2    1    2    0    0  0.00000000000E+00  0.00000000000E+00 -0.71821522620E+03  0.22330806984E+04  0.21144304894E+04 0.  0.
        2    1    3    3  502    0 -0.10227816896E+03 -0.10512762723E+04 -0.31115665303E+03  0.11011181078E+04  0.25500000920E-02 0.  1.
       -2    1    3    3    0  502  0.10227816896E+03  0.10512762723E+04 -0.40705857317E+03  0.11319625906E+04  0.25500000920E-02 0. -1.
</event>
<event>
 5   0  0.5846187E-05  0.2092006E+04  0.7818609E-02  0.8564773E-01
       -1   -1    0    0    0  501  0.00000000000E+00  0.00000000000E+00  0.96736477325E+03  0.96736477327E+03  0.50400001928E-02 0.  1.
        1   -1    0    0  501    0  0.00000000000E+00  0.00000000000E+00 -0.11310341984E+04  0.11310341984E+04  0.50400001928E-02 0. -1.
    10030    2    1    2    0    0  0.00000000000E+00  0.00000000000E+00 -0.16366942511E+03  0.20983989716E+04  0.20920063488E+04 0.  0.
        5    1    3    3  502    0 -0.86540431632E+02  0.10232575294E+04  0.11765825469E+03  0.10336395758E+04  0.46999998093E+01 0.  1.
       -5    1    3    3    0  502  0.86540431632E+02 -0.10232575294E+04 -0.28132767981E+03  0.10647593959E+04  0.46999998093E+01 0. -1.
</event>
<event>
 5   0  0.1325673E-04  0.2081960E+04  0.7818609E-02  0.8569232E-01
       -2   -1    0    0    0  501  0.00000000000E+00  0.00000000000E+00  0.15884677002E+04  0.15884677002E+04  0.25500000920E-02 0. -1.
        2   -1    0    0  501    0  0.00000000000E+00  0.00000000000E+00 -0.68219141744E+03  0.68219141744E+03  0.25500000920E-02 0.  1.
    10030    2    1    2    0    0  0.00000000000E+00  0.00000000000E+00  0.90627628272E+03  0.22706591176E+04  0.20819596845E+04 0.  0.
        5    1    3    3  502    0  0.58131063868E+03 -0.18281771308E+03  0.13735935081E+04  0.15027060891E+04  0.46999998093E+01 0. -1.
       -5    1    3    3    0  502 -0.58131063868E+03  0.18281771308E+03 -0.46731722535E+03  0.76795302849E+03  0.46999998093E+01 0.  1.
</event>
<event>
 5   0  0.5846187E-05  0.2066057E+04  0.7818609E-02  0.8576345E-01
       -1   -1    0    0    0  501  0.00000000000E+00  0.00000000000E+00  0.13697066074E+04  0.13697066074E+04  0.50400001928E-02 0. -1.
        1   -1    0    0  501    0  0.00000000000E+00  0.00000000000E+00 -0.77910703382E+03  0.77910703384E+03  0.50400001928E-02 0.  1.
    10030    2    1    2    0    0  0.00000000000E+00  0.00000000000E+00  0.59059957358E+03  0.21488136413E+04  0.20660571649E+04 0.  0.
        5    1    3    3  502    0  0.11257481826E+03 -0.92922028336E+03 -0.15924427354E+03  0.94947577819E+03  0.46999998093E+01 0.  1.
       -5    1    3    3    0  502 -0.11257481826E+03  0.92922028336E+03  0.74984384712E+03  0.11993378631E+04  0.46999998093E+01 0. -1.
</event>
<event>
 5   0  0.1235817E-04  0.2081469E+04  0.7818609E-02  0.8569450E-01
        2   -1    0    0  501    0  0.00000000000E+00  0.00000000000E+00  0.16991377266E+04  0.16991377266E+04  0.25500000920E-02 0. -1.
       -2   -1    0    0    0  501  0.00000000000E+00  0.00000000000E+00 -0.63745789065E+03  0.63745789065E+03  0.25500000920E-02 0.  1.
    10030    2    1    2    0    0  0.00000000000E+00  0.00000000000E+00  0.10616798359E+04  0.23365956172E+04  0.20814694340E+04 0.  0.
        1    1    3    3  502    0  0.79036711035E+03 -0.43739230217E+03  0.11110432002E+04  0.14319249938E+04  0.50400001928E-02 0. -1.
       -1    1    3    3    0  502 -0.79036711035E+03  0.43739230217E+03 -0.49363364300E+02  0.90467062342E+03  0.50400001928E-02 0.  1.
</event>
<event>
 5   0  0.6052292E-05  0.2089776E+04  0.7818609E-02  0.8565760E-01
        1   -1    0    0  501    0  0.00000000000E+00  0.00000000000E+00  0.90871837273E+03  0.90871837274E+03  0.50400001928E-02 0.  1.
       -1   -1    0    0    0  501  0.00000000000E+00  0.00000000000E+00 -0.12014624872E+04  0.12014624872E+04  0.50400001928E-02 0. -1.
    10030    2    1    2    0    0  0.00000000000E+00  0.00000000000E+00 -0.29274411443E+03  0.21101808599E+04  0.20897760992E+04 0.  0.
        1    1    3    3  502    0 -0.10329026750E+04  0.85163720773E+02 -0.28052346674E+03  0.10737011739E+04  0.50400001928E-02 0. -1.
       -1    1    3    3    0  502  0.10329026750E+04 -0.85163720773E+02 -0.12220647686E+02  0.10364796860E+04  0.50400001928E-02 0.  1.
</event>
<event>
 5   0  0.1252477E-04  0.2083910E+04  0.7818609E-02  0.8568364E-01
       -2   -1    0    0    0  501  0.00000000000E+00  0.00000000000E+00  0.10460781007E+04  0.10460781007E+04  0.25500000920E-02 0.  1.
        2   -1    0    0  501    0  0.00000000000E+00  0.00000000000E+00 -0.10378483469E+04  0.10378483469E+04  0.25500000920E-02 0. -1.
    10030    2    1    2    0    0  0.00000000000E+00  0.00000000000E+00  0.82297538043E+01  0.20839264475E+04  0.20839101972E+04 0.  0.
        4    1    3    3  502    0  0.32318719102E+03  0.52178267710E+03  0.84612007227E+03  0.10452884349E+04  0.12699999809E+01 0.  1.
       -4    1    3    3    0  502 -0.32318719102E+03 -0.52178267710E+03 -0.83789031847E+03  0.10386380126E+04  0.12699999809E+01 0. -1.
</event>
<event>
 5   0  0.1281470E-04  0.2111674E+04  0.7818609E-02  0.8556118E-01
        2   -1    0    0  501    0  0.00000000000E+00  0.00000000000E+00  0.19472881288E+04  0.19472881288E+04  0.25500000920E-02 0.  1.
       -2   -1    0    0    0  501  0.00000000000E+00  0.00000000000E+00 -0.57248443639E+03  0.57248443639E+03  0.25500000920E-02 0. -1.
    10030    2    1    2    0    0  0.00000000000E+00  0.00000000000E+00  0.13748036925E+04  0.25197725652E+04  0.21116743565E+04 0.  0.
        3    1    3    3  502    0  0.16356699871E+03 -0.49299956165E+03 -0.40948045531E+03  0.66142042933E+03  0.10100000352E+00 0. -1.
       -3    1    3    3    0  502 -0.16356699871E+03  0.49299956165E+03  0.17842841478E+04  0.18583521359E+04  0.10100000352E+00 0.  1.
</event>
<event>
 5   0  0.6221148E-05  0.2066381E+04  0.7818609E-02  0.8576199E-01
       -1   -1    0    0    0  501  0.00000000000E+00  0.00000000000E+00  0.76759159959E+03  0.76759159961E+03  0.50400001928E-02 0.  1.
        1   -1    0    0  501    0  0.00000000000E+00  0.00000000000E+00 -0.13906906649E+04  0.13906906649E+04  0.50400001928E-02 0. -1.
    10030    2    1    2    0    0  0.00000000000E+00  0.00000000000E+00 -0.62309906531E+03  0.21582822645E+04  0.20663808672E+04 0.  0.
        3    1    3    3  502    0  0.69601470315E+02  0.82137726601E+01 -0.13882050592E+04  0.13899730671E+04  0.10100000352E+00 0. -1.
       -3    1    3    3    0  502 -0.69601470315E+02 -0.82137726601E+01  0.76510599388E+03  0.76830919740E+03  0.10100000352E+00 0.  1.
</event>
<event>
 5   0  0.5846187E-05  0.2085547E+04  0.7818609E-02  0.8567637E-01
       -1   -1    0    0    0  501  0.00000000000E+00  0.00000000000E+00  0.92366295907E+03  0.92366295909E+03  0.50400001928E-02 0. -1.
        1   -1    0    0  501    0  0.00000000000E+00  0.00000000000E+00 -0.11772441216E+04  0.11772441216E+04  0.50400001928E-02 0.  1.
    10030    2    1    2    0    0  0.00000000000E+00  0.00000000000E+00 -0.25358116253E+03  0.21009070807E+04  0.20855472077E+04 0.  0.
        5    1    3    3  502    0  0.34800180401E+02  0.10351054911E+04 -0.24892820185E+03  0.10651956487E+04  0.46999998093E+01 0.  1.
       -5    1    3    3    0  502 -0.34800180401E+02 -0.10351054911E+04 -0.46529606772E+01  0.10357114320E+04  0.46999998093E+01 0. -1.
</event>
<event>
 5   0  0.4615125E-05  0.2135238E+04  0.7818609E-02  0.8545878E-01
        3   -1    0    0  501    0  0.00000000000E+00  0.00000000000E+00  0.97215369269E+03  0.97215369794E+03  0.10100000352E+00 0. -1.
       -3   -1    0    0    0  501  0.00000000000E+00  0.00000000000E+00 -0.11724584319E+04  0.11724584362E+04  0.10100000352E+00 0.  1.
    10030    2    1    2    0    0  0.00000000000E+00  0.00000000000E+00 -0.20030473916E+03  0.21446121341E+04  0.21352375084E+04 0.  0.
        3    1    3    3  502    0  0.23529063772E+03  0.25493847022E+02 -0.11457793394E+04  0.11699666343E+04  0.10100000352E+00 0.  1.
       -3    1    3    3    0  502 -0.23529063772E+03 -0.25493847022E+02  0.94547460028E+03  0.97464549986E+03  0.10100000352E+00 0. -1.
</event>
<event>
 5   0  0.5933905E-05  0.2088442E+04  0.7818609E-02  0.8566352E-01
       -1   -1    0    0    0  501  0.00000000000E+00  0.00000000000E+00  0.22305926174E+04  0.22305926175E+04  0.50400001928E-02 0. -1.
        1   -1    0    0  501    0  0.00000000000E+00  0.00000000000E+00 -0.48883779349E+03  0.48883779351E+03  0.50400001928E-02 0.  1.
    10030    2    1    2    0    0  0.00000000000E+00  0.00000000000E+00  0.17417548240E+04  0.27194304110E+04  0.20884424563E+04 0.  0.
        2    1    3    3  502    0  0.36949695849E+03  0.75331111950E+03  0.61465327890E+02  0.84129877668E+03  0.25500000920E-02 0.  1.
       -2    1    3    3    0  502 -0.36949695849E+03 -0.75331111950E+03  0.16802894961E+04  0.18781316343E+04  0.25500000920E-02 0. -1.
</event>
<event>
 5   0  0.1281470E-04  0.2108634E+04  0.7818609E-02  0.8557450E-01
        2   -1    0    0  501    0  0.00000000000E+00  0.00000000000E+00  0.10691337842E+04  0.10691337842E+04  0.25500000920E-02 0. -1.
       -2   -1    0    0    0  501  0.00000000000E+00  0.00000000000E+00 -0.10397053347E+04  0.10397053347E+04  0.25500000920E-02 0.  1.
    10030    2    1    2    0    0  0.00000000000E+00  0.00000000000E+00  0.29428449494E+02  0.21088391189E+04  0.21086337746E+04 0.  0.
        3    1    3    3  502    0  0.41692837777E+03  0.57325381026E+03  0.79526116732E+03  0.10653119438E+04  0.10100000352E+00 0. -1.
       -3    1    3    3    0  502 -0.41692837777E+03 -0.57325381026E+03 -0.76583271783E+03  0.10435271750E+04  0.10100000352E+00 0.  1.
</event>
<event>
 5   0  0.1349252E-04  0.2073068E+04  0.7818609E-02  0.8573201E-01
        2   -1    0    0  501    0  0.00000000000E+00  0.00000000000E+00  0.18439928272E+04  0.18439928273E+04  0.25500000920E-02 0.  1.
       -2   -1    0    0    0  501  0.00000000000E+00  0.00000000000E+00 -0.58264992479E+03  0.58264992480E+03  0.25500000920E-02 0. -1.
    10030    2    1    2    0    0  0.00000000000E+00  0.00000000000E+00  0.12613429025E+04  0.24266427520E+04  0.20730675649E+04 0.  0.
        2    1    3    3  502    0  0.45739310168E+03  0.32545803851E+03  0.16506493582E+04  0.17434949636E+04  0.25500000920E-02 0.  1.
       -2    1    3    3    0  502 -0.45739310168E+03 -0.32545803851E+03 -0.38930645579E+03  0.68314778842E+03  0.25500000920E-02 0. -1.
</event>
<event>
 5   0  0.1281470E-04  0.2210481E+04  0.7818609E-02  0.8514078E-01
       -2   -1    0    0    0  501  0.00000000000E+00  0.00000000000E+00  0.99446915602E+03  0.99446915603E+03  0.25500000920E-02 0. -1.
        2   -1    0    0  501    0  0.00000000000E+00  0.00000000000E+00 -0.12283502205E+04  0.12283502205E+04  0.25500000920E-02 0.  1.
    10030    2    1    2    0    0  0.00000000000E+00  0.00000000000E+00 -0.23388106452E+03  0.22228193766E+04  0.22104808591E+04 0.  0.
        3    1    3    3  502    0  0.10134751440E+04  0.42003683149E+03 -0.25182946594E+03  0.11256024597E+04  0.10100000352E+00 0. -1.
       -3    1    3    3    0  502 -0.10134751440E+04 -0.42003683149E+03  0.17948401421E+02  0.10972169168E+04  0.10100000352E+00 0.  1.
</event>
<event>
 5   0  0.1349252E-04  0.2108247E+04  0.7818609E-02  0.8557619E-01
        2   -1    0    0  501    0  0.00000000000E+00  0.00000000000E+00  0.13813495734E+04  0.13813495734E+04  0.25500000920E-02 0.  1.
       -2   -1    0    0    0  501  0.00000000000E+00  0.00000000000E+00 -0.80441362553E+03  0.80441362554E+03  0.25500000920E-02 0. -1.
    10030    2    1    2    0    0  0.00000000000E+00  0.00000000000E+00  0.57693594790E+03  0.21857631990E+04  0.21082470619E+04 0.  0.
        2    1    3    3  502    0  0.84035400312E+03 -0.62806590009E+03  0.18215605155E+03  0.10648203851E+04  0.25500000920E-02 0. -1.
       -2    1    3    3    0  502 -0.84035400312E+03  0.62806590009E+03  0.39477989635E+03  0.11209428139E+04  0.25500000920E-02 0.  1.
</event>
<event>
 5   0  0.1281470E-04  0.1610649E+04  0.7818609E-02  0.8814033E-01
       -2   -1    0    0    0  501  0.00000000000E+00  0.00000000000E+00  0.67805686865E+03  0.67805686865E+03  0.25500000920E-02 0.  1.
        2   -1    0    0  501    0  0.00000000000E+00  0.00000000000E+00 -0.95647957818E+03  0.95647957818E+03  0.25500000920E-02 0. -1.
    10030    2    1    2    0    0  0.00000000000E+00  0.00000000000E+00 -0.27842270953E+03  0.16345364468E+04  0.16106489968E+04 0.  0.
        3    1    3    3  502    0 -0.33872913467E+03 -0.48492140147E+03  0.41539291776E+03  0.72279836649E+03  0.10100000352E+00 0.  1.
       -3    1    3    3    0  502  0.33872913467E+03  0.48492140147E+03 -0.69381562729E+03  0.91173808034E+03  0.10100000352E+00 0. -1.
</event>
<event>
 5   0  0.1325673E-04  0.2112058E+04  0.7818609E-02  0.8555950E-01
        2   -1    0    0  501    0  0.00000000000E+00  0.00000000000E+00  0.16610519493E+04  0.16610519493E+04  0.25500000920E-02 0. -1.
       -2   -1    0    0    0  501  0.00000000000E+00  0.00000000000E+00 -0.67138025150E+03  0.67138025151E+03  0.25500000920E-02 0.  1.
    10030    2    1    2    0    0  0.00000000000E+00  0.00000000000E+00  0.98967169783E+03  0.23324322008E+04  0.21120582146E+04 0.  0.
        5    1    3    3  502    0  0.44170358215E+03  0.69081789108E+03 -0.24006460049E+03  0.85439131288E+03  0.46999998093E+01 0.  1.
       -5    1    3    3    0  502 -0.44170358215E+03 -0.69081789108E+03  0.12297362983E+04  0.14780408880E+04  0.46999998093E+01 0. -1.
</event>
<event>
 5   0  0.1252477E-04  0.2108156E+04  0.7818609E-02  0.8557659E-01
       -2   -1    0    0    0  501  0.00000000000E+00  0.00000000000E+00  0.46275268342E+03  0.46275268342E+03  0.25500000920E-02 0.  1.
        2   -1    0    0  501    0  0.00000000000E+00  0.00000000000E+00 -0.24010240245E+04  0.24010240245E+04  0.25500000920E-02 0. -1.
    10030    2    1    2    0    0  0.00000000000E+00  0.00000000000E+00 -0.19382713411E+04  0.28637767079E+04  0.21081558863E+04 0.  0.
        4    1    3    3  502    0 -0.10003502160E+04  0.34210989503E+02 -0.14180496840E+04  0.17357239025E+04  0.12699999809E+01 0. -1.
       -4    1    3    3    0  502  0.10003502160E+04 -0.34210989503E+02 -0.52022165702E+03  0.11280528054E+04  0.12699999809E+01 0.  1.
</event>
<event>
 5   0  0.1252477E-04  0.2105867E+04  0.7818609E-02  0.8558663E-01
       -2   -1    0    0    0  501  0.00000000000E+00  0.00000000000E+00  0.64771342272E+03  0.64771342273E+03  0.25500000920E-02 0.  1.
        2   -1    0    0  501    0  0.00000000000E+00  0.00000000000E+00 -0.17116658791E+04  0.17116658791E+04  0.25500000920E-02 0. -1.
    10030    2    1    2    0    0  0.00000000000E+00  0.00000000000E+00 -0.10639524564E+04  0.23593793019E+04  0.21058670092E+04 0.  0.
        4    1    3    3  502    0  0.16190305630E+03  0.94016341293E+03 -0.32748100871E+02  0.95456476661E+03  0.12699999809E+01 0.  1.
       -4    1    3    3    0  502 -0.16190305630E+03 -0.94016341293E+03 -0.10312043555E+04  0.14048145352E+04  0.12699999809E+01 0. -1.
</event>
<event>
 5   0  0.6052292E-05  0.2084146E+04  0.7818609E-02  0.8568260E-01
        1   -1    0    0  501    0  0.00000000000E+00  0.00000000000E+00  0.21570832840E+04  0.21570832840E+04  0.50400001928E-02 0.  1.
       -1   -1    0    0    0  501  0.00000000000E+00  0.00000000000E+00 -0.50341861491E+03  0.50341861494E+03  0.50400001928E-02 0. -1.
    10030    2    1    2    0    0  0.00000000000E+00  0.00000000000E+00  0.16536646691E+04  0.26605018989E+04  0.20841457522E+04 0.  0.
        1    1    3    3  502    0  0.52109340787E+03 -0.22095685006E+03 -0.29009226810E+03  0.63601398833E+03  0.50400001928E-02 0. -1.
       -1    1    3    3    0  502 -0.52109340787E+03  0.22095685006E+03  0.19437569372E+04  0.20244879106E+04  0.50400001928E-02 0.  1.
</event>
<event>
 5   0  0.1349252E-04  0.2085828E+04  0.7818609E-02  0.8567512E-01
       -2   -1    0    0    0  501  0.00000000000E+00  0.00000000000E+00  0.13031048691E+04  0.13031048691E+04  0.25500000920E-02 0. -1.
        2   -1    0    0  501    0  0.00000000000E+00  0.00000000000E+00 -0.83467545067E+03  0.83467545068E+03  0.25500000920E-02 0.  1.
    10030    2    1    2    0    0  0.00000000000E+00  0.00000000000E+00  0.46842941839E+03  0.21377803197E+04  0.20858280311E+04 0.  0.
        2    1    3    3  502    0 -0.91800022947E+02  0.68160159141E+03 -0.56931629928E+03  0.89282082315E+03  0.25500000920E-02 0.  1.
       -2    1    3    3    0  502  0.91800022947E+02 -0.68160159141E+03  0.10377457177E+04  0.12449594966E+04  0.25500000920E-02 0. -1.
</event>
<event>
 5   0  0.5846187E-05  0.2087971E+04  0.7818609E-02  0.8566561E-01
       -1   -1    0    0    0  501  0.00000000000E+00  0.00000000000E+00  0.38980443766E+03  0.38980443769E+03  0.50400001928E-02 0.  1.
        1   -1    0    0  501    0  0.00000000000E+00  0.00000000000E+00 -0.27960329276E+04  0.27960329276E+04  0.50400001928E-02 0. -1.
    10030    2    1    2    0    0  0.00000000000E+00  0.00000000000E+00 -0.24062284899E+04  0.31858373653E+04  0.20879713054E+04 0.  0.
        5    1    3    3  502    0 -0.10079641413E+04 -0.26806539018E+03 -0.11343143146E+04  0.15409548397E+04  0.46999998093E+01 0.  1.
       -5    1    3    3    0  502  0.10079641413E+04  0.26806539018E+03 -0.12719141753E+04  0.16448825256E+04  0.46999998093E+01 0. -1.
</event>
<event>
 5   0  0.6263616E-05  0.2128694E+04  0.7818609E-02  0.8548708E-01
        1   -1    0    0  501    0  0.00000000000E+00  0.00000000000E+00  0.10940645325E+04  0.10940645326E+04  0.50400001928E-02 0.  1.
       -1   -1    0    0    0  501  0.00000000000E+00  0.00000000000E+00 -0.10354363856E+04  0.10354363856E+04  0.50400001928E-02 0. -1.
    10030    2    1    2    0    0  0.00000000000E+00  0.00000000000E+00  0.58628146976E+02  0.21295009181E+04  0.21286937076E+04 0.  0.
        4    1    3    3  502    0 -0.58925245915E+03  0.49629464513E+03 -0.70533881663E+03  0.10445244346E+04  0.12699999809E+01 0. -1.
       -4    1    3    3    0  502  0.58925245915E+03 -0.49629464513E+03  0.76396696361E+03  0.10849764835E+04  0.12699999809E+01 0.  1.
</event>
<event>
 5   0  0.5846187E-05  0.2099542E+04  0.7818609E-02  0.8561445E-01
        1   -1    0    0  501    0  0.00000000000E+00  0.00000000000E+00  0.22844789029E+04  0.22844789029E+04  0.50400001928E-02 0. -1.
       -1   -1    0    0    0  501  0.00000000000E+00  0.00000000000E+00 -0.48239409096E+03  0.48239409098E+03  0.50400001928E-02 0.  1.
    10030    2    1    2    0    0  0.00000000000E+00  0.00000000000E+00  0.18020848119E+04  0.27668729939E+04  0.20995419726E+04 0.  0.
        5    1    3    3  502    0 -0.25474983539E+03  0.26809921876E+03  0.21957698424E+04  0.22267020368E+04  0.46999998093E+01 0. -1.
       -5    1    3    3    0  502  0.25474983539E+03 -0.26809921876E+03 -0.39368503045E+03  0.54017095713E+03  0.46999998093E+01 0.  1.
</event>
<event>
 5   0  0.1235817E-04  0.2104850E+04  0.7818609E-02  0.8559110E-01
       -2   -1    0    0    0  501  0.00000000000E+00  0.00000000000E+00  0.36572831944E+03  0.36572831945E+03  0.25500000920E-02 0. -1.
        2   -1    0    0  501    0  0.00000000000E+00  0.00000000000E+00 -0.30284720644E+04  0.30284720644E+04  0.25500000920E-02 0.  1.
    10030    2    1    2    0    0  0.00000000000E+00  0.00000000000E+00 -0.26627437450E+04  0.33942003839E+04  0.21048496370E+04 0.  0.
        1    1    3    3  502    0 -0.46785638563E+03 -0.10174891861E+03  0.17993124579E+03  0.51148577033E+03  0.50400001928E-02 0. -1.
       -1    1    3    3    0  502  0.46785638563E+03  0.10174891861E+03 -0.28426749908E+04  0.28827146136E+04  0.50400001928E-02 0.  1.
</event>
<event>
 5   0  0.1281470E-04  0.1858793E+04  0.7818609E-02  0.8675644E-01
       -2   -1    0    0    0  501  0.00000000000E+00  0.00000000000E+00  0.70796198268E+03  0.70796198268E+03  0.25500000920E-02 0. -1.
        2   -1    0    0  501    0  0.00000000000E+00  0.00000000000E+00 -0.12200910728E+04  0.12200910728E+04  0.25500000920E-02 0.  1.
    10030    2    1    2    0    0  0.00000000000E+00  0.00000000000E+00 -0.51212909010E+03  0.19280530555E+04  0.18587932590E+04 0.  0.
        3    1    3    3  502    0 -0.90352444609E+02  0.67037870868E+03 -0.91715600016E+03  0.11396255157E+04  0.10100000352E+00 0.  1.
       -3    1    3    3    0  502  0.90352444609E+02 -0.67037870868E+03  0.40502691007E+03  0.78842753972E+03  0.10100000352E+00 0. -1.
</event>
<event>
 5   0  0.1325673E-04  0.2086062E+04  0.7818609E-02  0.8567408E-01
        2   -1    0    0  501    0  0.00000000000E+00  0.00000000000E+00  0.10606882591E+04  0.10606882591E+04  0.25500000920E-02 0. -1.
       -2   -1    0    0    0  501  0.00000000000E+00  0.00000000000E+00 -0.10256676127E+04  0.10256676127E+04  0.25500000920E-02 0.  1.
    10030    2    1    2    0    0  0.00000000000E+00  0.00000000000E+00  0.35020646365E+02  0.20863558718E+04  0.20860619305E+04 0.  0.
        5    1    3    3  502    0  0.22639592742E+03 -0.54422172209E+03  0.87813090891E+03  0.10576239322E+04  0.46999998093E+01 0. -1.
       -5    1    3    3    0  502 -0.22639592742E+03  0.54422172209E+03 -0.84311026254E+03  0.10287319396E+04  0.46999998093E+01 0.  1.
</event>
<event>
 5   0  0.5846187E-05  0.2100071E+04  0.7818609E-02  0.8561212E-01
       -1   -1    0    0    0  501  0.00000000000E+00  0.00000000000E+00  0.10492550183E+04  0.10492550183E+04  0.50400001928E-02 0. -1.
        1   -1    0    0  501    0  0.00000000000E+00  0.00000000000E+00 -0.10508163898E+04  0.10508163898E+04  0.50400001928E-02 0.  1.
    10030    2    1    2    0    0  0.00000000000E+00  0.00000000000E+00 -0.15613714760E+01  0.21000714081E+04  0.21000708277E+04 0.  0.
        5    1    3    3  502    0 -0.65328249649E+03  0.21635244364E+03 -0.79385459648E+03  0.10506253426E+04  0.46999998093E+01 0.  1.
       -5    1    3    3    0  502  0.65328249649E+03 -0.21635244364E+03  0.79229322501E+03  0.10494460655E+04  0.46999998093E+01 0. -1.
</event>
<event>
 5   0  0.1281470E-04  0.2044783E+04  0.7818609E-02  0.8585965E-01
        2   -1    0    0  501    0  0.00000000000E+00  0.00000000000E+00  0.14004560607E+04  0.14004560607E+04  0.25500000920E-02 0. -1.
       -2   -1    0    0    0  501  0.00000000000E+00  0.00000000000E+00 -0.74638870038E+03  0.74638870038E+03  0.25500000920E-02 0.  1.
    10030    2    1    2    0    0  0.00000000000E+00  0.00000000000E+00  0.65406736036E+03  0.21468447611E+04  0.20447831955E+04 0.  0.
        3    1    3    3  502    0  0.73082354609E+01 -0.94085417632E+03 -0.92963832988E+02  0.94546405317E+03  0.10100000352E+00 0.  1.
       -3    1    3    3    0  502 -0.73082354609E+01  0.94085417632E+03  0.74703119334E+03  0.12013807079E+04  0.10100000352E+00 0. -1.
</event>
<event>
 5   0  0.1252477E-04  0.2082181E+04  0.7818609E-02  0.8569133E-01
        2   -1    0    0  501    0  0.00000000000E+00  0.00000000000E+00  0.35819865336E+03  0.35819865336E+03  0.25500000920E-02 0.  1.
       -2   -1    0    0    0  501  0.00000000000E+00  0.00000000000E+00 -0.30258906079E+04  0.30258906079E+04  0.25500000920E-02 0. -1.
    10030    2    1    2    0    0  0.00000000000E+00  0.00000000000E+00 -0.26676919546E+04  0.33840892613E+04  0.20821814916E+04 0.  0.
        4    1    3    3  502    0 -0.25056822358E+03 -0.97851562319E+03 -0.17436925328E+04  0.20151284131E+04  0.12699999809E+01 0. -1.
       -4    1    3    3    0  502  0.25056822358E+03  0.97851562319E+03 -0.92399942174E+03  0.13689608482E+04  0.12699999809E+01 0.  1.
</event>
<event>
 5   0  0.1325673E-04  0.2078344E+04  0.7818609E-02  0.8570844E-01
       -2   -1    0    0    0  501  0.00000000000E+00  0.00000000000E+00  0.95604337649E+03  0.95604337650E+03  0.25500000920E-02 0.  1.
        2   -1    0    0  501    0  0.00000000000E+00  0.00000000000E+00 -0.11295286043E+04  0.11295286043E+04  0.25500000920E-02 0. -1.
    10030    2    1    2    0    0  0.00000000000E+00  0.00000000000E+00 -0.17348522780E+03  0.20855719808E+04  0.20783438991E+04 0.  0.
        5    1    3    3  502    0 -0.76238049818E+03 -0.62867630063E+03 -0.40941704041E+03  0.10696271864E+04  0.46999998093E+01 0. -1.
       -5    1    3    3    0  502  0.76238049818E+03  0.62867630063E+03  0.23593181262E+03  0.10159447944E+04  0.46999998093E+01 0.  1.
</event>
<event>
 5   0  0.5846187E-05  0.2097541E+04  0.7818609E-02  0.8562327E-01
        1   -1    0    0  501    0  0.00000000000E+00  0.00000000000E+00  0.11160630812E+04  0.11160630812E+04  0.50400001928E-02 0.  1.
       -1   -1    0    0    0  501  0.00000000000E+00  0.00000000000E+00 -0.98553553098E+03  0.98553553099E+03  0.50400001928E-02 0. -1.
    10030    2    1    2    0    0  0.00000000000E+00  0.00000000000E+00  0.13052755023E+03  0.21015986122E+04  0.20975412476E+04 0.  0.
        5    1    3    3  502    0  0.75655925596E+03 -0.72627840234E+03  0.59293566265E+02  0.10504285042E+04  0.46999998093E+01 0.  1.
       -5    1    3    3    0  502 -0.75655925596E+03  0.72627840234E+03  0.71233983965E+02  0.10511701080E+04  0.46999998093E+01 0. -1.
</event>
<event>
 5   0  0.1281470E-04  0.2109639E+04  0.7818609E-02  0.8557009E-01
       -2   -1    0    0    0  501  0.00000000000E+00  0.00000000000E+00  0.84816072072E+03  0.84816072073E+03  0.25500000920E-02 0.  1.
        2   -1    0    0  501    0  0.00000000000E+00  0.00000000000E+00 -0.13118316285E+04  0.13118316285E+04  0.25500000920E-02 0. -1.
    10030    2    1    2    0    0  0.00000000000E+00  0.00000000000E+00 -0.46367090773E+03  0.21599923492E+04  0.21096388880E+04 0.  0.
        3    1    3    3  502    0  0.69252596249E+03  0.71075688503E+03  0.13429802788E+03  0.10014007833E+04  0.10100000352E+00 0. -1.
       -3    1    3    3    0  502 -0.69252596249E+03 -0.71075688503E+03 -0.59796893561E+03  0.11585915659E+04  0.10100000352E+00 0.  1.
</event>
<event>
 5   0  0.1235817E-04  0.2128347E+04  0.7818609E-02  0.8548858E-01
        2   -1    0    0  501    0  0.00000000000E+00  0.00000000000E+00  0.17597945075E+04  0.17597945075E+04  0.25500000920E-02 0. -1.
       -2   -1    0    0    0  501  0.00000000000E+00  0.00000000000E+00 -0.64352121842E+03  0.64352121842E+03  0.25500000920E-02 0.  1.
    10030    2    1    2    0    0  0.00000000000E+00  0.00000000000E+00  0.11162732890E+04  0.24033157259E+04  0.21283468755E+04 0.  0.
        1    1    3    3  502    0 -0.80522700729E+03 -0.66017720023E+03  0.80614992300E+03  0.13168531305E+04  0.50400001928E-02 0. -1.
       -1    1    3    3    0  502  0.80522700729E+03  0.66017720023E+03  0.31012336604E+03  0.10864625954E+04  0.50400001928E-02 0.  1.
</event>
<event>
 5   0  0.1252477E-04  0.1548978E+04  0.7818609E-02  0.8852521E-01
       -2   -1    0    0    0  501  0.00000000000E+00  0.00000000000E+00  0.44027079368E+03  0.44027079369E+03  0.25500000920E-02 0. -1.
        2   -1    0    0  501    0  0.00000000000E+00  0.00000000000E+00 -0.13624193661E+04  0.13624193661E+04  0.25500000920E-02 0.  1.
    10030    2    1    2    0    0  0.00000000000E+00  0.00000000000E+00 -0.92214857242E+03  0.18026901598E+04  0.15489783157E+04 0.  0.
        4    1    3    3  502    0 -0.65100522955E+03  0.28398070545E+03 -0.82049418366E+03  0.10852028236E+04  0.12699999809E+01 0.  1.
       -4    1    3    3    0  502  0.65100522955E+03 -0.28398070545E+03 -0.10165438876E+03  0.71748733621E+03  0.12699999809E+01 0. -1.
</event>
<event>
 5   0  0.1235817E-04  0.2123602E+04  0.7818609E-02  0.8550917E-01
       -2   -1    0    0    0  501  0.00000000000E+00  0.00000000000E+00  0.64625799105E+03  0.64625799106E+03  0.25500000920E-02 0. -1.
        2   -1    0    0  501    0  0.00000000000E+00  0.00000000000E+00 -0.17445375152E+04  0.17445375152E+04  0.25500000920E-02 0.  1.
    10030    2    1    2    0    0  0.00000000000E+00  0.00000000000E+00 -0.10982795242E+04  0.23907955063E+04  0.21236019495E+04 0.  0.
        1    1    3    3  502    0  0.83542466297E+02  0.22831970133E+03  0.61449955071E+03  0.66084712872E+03  0.50400001928E-02 0. -1.
       -1    1    3    3    0  502 -0.83542466297E+02 -0.22831970133E+03 -0.17127790749E+04  0.17299483776E+04  0.50400001928E-02 0.  1.
</event>
<event>
 5   0  0.1281470E-04  0.2093790E+04  0.7818609E-02  0.8563984E-01
       -2   -1    0    0    0  501  0.00000000000E+00  0.00000000000E+00  0.50675537008E+03  0.50675537008E+03  0.25500000920E-02 0. -1.
        2   -1    0    0  501    0  0.00000000000E+00  0.00000000000E+00 -0.21627579755E+04  0.21627579755E+04  0.25500000920E-02 0.  1.
    10030    2    1    2    0    0  0.00000000000E+00  0.00000000000E+00 -0.16560026054E+04  0.26695133455E+04  0.20937900738E+04 0.  0.
        3    1    3    3  502    0  0.21889205687E+03 -0.52039363649E+03 -0.19520465094E+04  0.20320454854E+04  0.10100000352E+00 0.  1.
       -3    1    3    3    0  502 -0.21889205687E+03  0.52039363649E+03  0.29604390403E+03  0.63746786018E+03  0.10100000352E+00 0. -1.
</event>
<event>
 5   0  0.1349252E-04  0.2122986E+04  0.7818609E-02  0.8551185E-01
        2   -1    0    0  501    0  0.00000000000E+00  0.00000000000E+00  0.19016706918E+04  0.19016706918E+04  0.25500000920E-02 0.  1.
       -2   -1    0    0    0  501  0.00000000000E+00  0.00000000000E+00 -0.59251429149E+03  0.59251429150E+03  0.25500000920E-02 0. -1.
    10030    2    1    2    0    0  0.00000000000E+00  0.00000000000E+00  0.13091564003E+04  0.24941849833E+04  0.21229856925E+04 0.  0.
        2    1    3    3  502    0  0.90869524495E+03 -0.53077479196E+03  0.49128647133E+03  0.11613833669E+04  0.25500000920E-02 0. -1.
       -2    1    3    3    0  502 -0.90869524495E+03  0.53077479196E+03  0.81786992899E+03  0.13328016164E+04  0.25500000920E-02 0.  1.
</event>
<event>
 5   0  0.1235817E-04  0.2003984E+04  0.7818609E-02  0.8604760E-01
       -2   -1    0    0    0  501  0.00000000000E+00  0.00000000000E+00  0.38042859227E+03  0.38042859228E+03  0.25500000920E-02 0. -1.
        2   -1    0    0  501    0  0.00000000000E+00  0.00000000000E+00 -0.26390980953E+04  0.26390980953E+04  0.25500000920E-02 0.  1.
    10030    2    1    2    0    0  0.00000000000E+00  0.00000000000E+00 -0.22586695030E+04  0.30195266876E+04  0.20039844044E+04 0.  0.
        1    1    3    3  502    0  0.22904487728E+03 -0.97254577402E+03 -0.10157611563E+04  0.14248079047E+04  0.50400001928E-02 0.  1.
       -1    1    3    3    0  502 -0.22904487728E+03  0.97254577402E+03 -0.12429083467E+04  0.15947187829E+04  0.50400001928E-02 0. -1.
</event>
<event>
 5   0  0.1349252E-04  0.2068970E+04  0.7818609E-02  0.8575037E-01
       -2   -1    0    0    0  501  0.00000000000E+00  0.00000000000E+00  0.95186436010E+03  0.95186436010E+03  0.25500000920E-02 0. -1.
        2   -1    0    0  501    0  0.00000000000E+00  0.00000000000E+00 -0.11242770492E+04  0.11242770492E+04  0.25500000920E-02 0.  1.
    10030    2    1    2    0    0  0.00000000000E+00  0.00000000000E+00 -0.17241268907E+03  0.20761414093E+04  0.20689700375E+04 0.  0.
        2    1    3    3  502    0 -0.27281948077E+03 -0.81664663757E+03 -0.66161964538E+03  0.10858557708E+04  0.25500000920E-02 0.  1.
       -2    1    3    3    0  502  0.27281948077E+03  0.81664663757E+03  0.48920695630E+03  0.99028563851E+03  0.25500000920E-02 0. -1.
</event>
<event>
 5   0  0.6052292E-05  0.2137565E+04  0.7818609E-02  0.8544874E-01
       -1   -1    0    0    0  501  0.00000000000E+00  0.00000000000E+00  0.60139281717E+03  0.60139281719E+03  0.50400001928E-02 0.  1.
        1   -1    0    0  501    0  0.00000000000E+00  0.00000000000E+00 -0.18994174513E+04  0.18994174513E+04  0.50400001928E-02 0. -1.
    10030    2    1    2    0    0  0.00000000000E+00  0.00000000000E+00 -0.12980246341E+04  0.25008102685E+04  0.21375649810E+04 0.  0.
        1    1    3    3  502    0 -0.87030981316E+03 -0.41709962271E+02 -0.13731600872E+04  0.16262679721E+04  0.50400001928E-02 0. -1.
       -1    1    3    3    0  502  0.87030981316E+03  0.41709962271E+02  0.75135453134E+02  0.87454229639E+03  0.50400001928E-02 0.  1.
</event>
<event>
 5   0  0.5933905E-05  0.2121386E+04  0.7818609E-02  0.8551881E-01
        1   -1    0    0  501    0  0.00000000000E+00  0.00000000000E+00  0.66814748787E+03  0.66814748789E+03  0.50400001928E-02 0. -1.
       -1   -1    0    0    0  501  0.00000000000E+00  0.00000000000E+00 -0.16838635092E+04  0.16838635092E+04  0.50400001928E-02 0.  1.
    10030    2    1    2    0    0  0.00000000000E+00  0.00000000000E+00 -0.10157160213E+04  0.23520109970E+04  0.21213855600E+04 0.  0.
        2    1    3    3  502    0 -0.17119407301E+03  0.58999685080E+03 -0.14665374299E+04  0.15900112352E+04  0.25500000920E-02 0.  1.
       -2    1    3    3    0  502  0.17119407301E+03 -0.58999685080E+03  0.45082140865E+03  0.76199976187E+03  0.25500000920E-02 0. -1.
</event>
<event>
 5   0  0.6263616E-05  0.1991083E+04  0.7818609E-02  0.8610801E-01
        1   -1    0    0  501    0  0.00000000000E+00  0.00000000000E+00  0.12393906134E+04  0.12393906134E+04  0.50400001928E-02 0. -1.
       -1   -1    0    0    0  501  0.00000000000E+00  0.00000000000E+00 -0.79966925790E+03  0.79966925791E+03  0.50400001928E-02 0.  1.
    10030    2    1    2    0    0  0.00000000000E+00  0.00000000000E+00  0.43972135548E+03  0.20390598713E+04  0.19910826925E+04 0.  0.
        4    1    3    3  502    0 -0.28844245060E+03  0.54540747136E+03 -0.58026745527E+03  0.84698305159E+03  0.12699999809E+01 0.  1.
       -4    1    3    3    0  502  0.28844245060E+03 -0.54540747136E+03  0.10199888107E+04  0.11920768197E+04  0.12699999809E+01 0. -1.
</event>
<event>
 5   0  0.5846187E-05  0.2105869E+04  0.7818609E-02  0.8558663E-01
       -1   -1    0    0    0  501  0.00000000000E+00  0.00000000000E+00  0.12264460498E+04  0.12264460498E+04  0.50400001928E-02 0.  1.
        1   -1    0    0  501    0  0.00000000000E+00  0.00000000000E+00 -0.90397015822E+03  0.90397015824E+03  0.50400001928E-02 0. -1.
    10030    2    1    2    0    0  0.00000000000E+00  0.00000000000E+00  0.32247589160E+03  0.21304162081E+04  0.21058685901E+04 0.  0.
        5    1    3    3  502    0 -0.38430462847E+03 -0.27518885280E+03 -0.79059591655E+03  0.92113133995E+03  0.46999998093E+01 0. -1.
       -5    1    3    3    0  502  0.38430462847E+03  0.27518885280E+03  0.11130718082E+04  0.12092848681E+04  0.46999998093E+01 0.  1.
</event>
<event>
 5   0  0.1281470E-04  0.2101028E+04  0.7818609E-02  0.8560791E-01
        2   -1    0    0  501    0  0.00000000000E+00  0.00000000000E+00  0.10271047055E+04  0.10271047055E+04  0.25500000920E-02 0.  1.
       -2   -1    0    0    0  501  0.00000000000E+00  0.00000000000E+00 -0.10744566471E+04  0.10744566471E+04  0.25500000920E-02 0. -1.
    10030    2    1    2    0    0  0.00000000000E+00  0.00000000000E+00 -0.47351941592E+02  0.21015613526E+04  0.21010278229E+04 0.  0.
        3    1    3    3  502    0 -0.32536653556E+03  0.15773001739E+03 -0.10102515987E+04  0.10730099924E+04  0.10100000352E+00 0. -1.
       -3    1    3    3    0  502  0.32536653556E+03 -0.15773001739E+03  0.96289965709E+03  0.10285513603E+04  0.10100000352E+00 0.  1.
</event>
<event>
 5   0  0.4615125E-05  0.2112274E+04  0.7818609E-02  0.8555856E-01
        3   -1    0    0  501    0  0.00000000000E+00  0.00000000000E+00  0.80817263102E+03  0.80817263733E+03  0.10100000352E+00 0.  1.
       -3   -1    0    0    0  501  0.00000000000E+00  0.00000000000E+00 -0.13801826850E+04  0.13801826887E+04  0.10100000352E+00 0. -1.
    10030    2    1    2    0    0  0.00000000000E+00  0.00000000000E+00 -0.57201005395E+03  0.21883553260E+04  0.21122744923E+04 0.  0.
        5    1    3    3  502    0 -0.52088061588E+03  0.53814721122E+03  0.48545298037E+03  0.89252771558E+03  0.46999998093E+01 0.  1.
       -5    1    3    3    0  502  0.52088061588E+03 -0.53814721122E+03 -0.10574630343E+04  0.12958276104E+04  0.46999998093E+01 0. -1.
</event>
<event>
 5   0  0.1281470E-04  0.2185695E+04  0.7818609E-02  0.8524406E-01
        2   -1    0    0  501    0  0.00000000000E+00  0.00000000000E+00  0.15950547624E+04  0.15950547624E+04  0.25500000920E-02 0.  1.
       -2   -1    0    0    0  501  0.00000000000E+00  0.00000000000E+00 -0.74876121344E+03  0.74876121344E+03  0.25500000920E-02 0. -1.
    10030    2    1    2    0    0  0.00000000000E+00  0.00000000000E+00  0.84629354892E+03  0.23438159758E+04  0.21856945252E+04 0.  0.
        3    1    3    3  502    0 -0.66491615428E+01 -0.43470073248E+03 -0.65203829334E+03  0.78368544988E+03  0.10100000352E+00 0. -1.
       -3    1    3    3    0  502  0.66491615428E+01  0.43470073248E+03  0.14983318423E+04  0.15601305259E+04  0.10100000352E+00 0.  1.
</event>
<event>
 5   0  0.6221148E-05  0.1968687E+04  0.7818609E-02  0.8621402E-01
        1   -1    0    0  501    0  0.00000000000E+00  0.00000000000E+00  0.12542770489E+04  0.12542770489E+04  0.50400001928E-02 0. -1.
       -1   -1    0    0    0  501  0.00000000000E+00  0.00000000000E+00 -0.77250223421E+03  0.77250223423E+03  0.50400001928E-02 0.  1.
    10030    2    1    2    0    0  0.00000000000E+00  0.00000000000E+00  0.48177481469E+03  0.20267792831E+04  0.19686866918E+04 0.  0.
        3    1    3    3  502    0  0.56992577606E+03  0.62168957565E+03 -0.28165118294E+03  0.88917980057E+03  0.10100000352E+00 0. -1.
       -3    1    3    3    0  502 -0.56992577606E+03 -0.62168957565E+03  0.76342599763E+03  0.11375994826E+04  0.10100000352E+00 0.  1.
</event>
<event>
 5   0  0.6263616E-05  0.2116742E+04  0.7818609E-02  0.8553904E-01
       -1   -1    0    0    0  501  0.00000000000E+00  0.00000000000E+00  0.13515521288E+04  0.13515521289E+04  0.50400001928E-02 0.  1.
        1   -1    0    0  501    0  0.00000000000E+00  0.00000000000E+00 -0.82878739293E+03  0.82878739295E+03  0.50400001928E-02 0. -1.
    10030    2    1    2    0    0  0.00000000000E+00  0.00000000000E+00  0.52276473591E+03  0.21803395218E+04  0.21167421811E+04 0.  0.
        4    1    3    3  502    0 -0.31391060310E+03  0.10028861895E+04  0.39096830894E+03  0.11212396743E+04  0.12699999809E+01 0.  1.
       -4    1    3    3    0  502  0.31391060310E+03 -0.10028861895E+04  0.13179642697E+03  0.10590998475E+04  0.12699999809E+01 0. -1.
</event>
<event>
 5   0  0.5846187E-05  0.2084150E+04  0.7818609E-02  0.8568258E-01
       -1   -1    0    0    0  501  0.00000000000E+00  0.00000000000E+00  0.82056318262E+03  0.82056318263E+03  0.50400001928E-02 0.  1.
        1   -1    0    0  501    0  0.00000000000E+00  0.00000000000E+00 -0.13233845570E+04  0.13233845570E+04  0.50400001928E-02 0. -1.
    10030    2    1    2    0    0  0.00000000000E+00  0.00000000000E+00 -0.50282137434E+03  0.21439477396E+04  0.20841503246E+04 0.  0.
        5    1    3    3  502    0  0.12947331418E+03  0.75729964825E+03  0.47280015810E+03  0.90212425742E+03  0.46999998093E+01 0.  1.
       -5    1    3    3    0  502 -0.12947331418E+03 -0.75729964825E+03 -0.97562153244E+03  0.12418234822E+04  0.46999998093E+01 0. -1.
</event>
<event>
 5   0  0.1252477E-04  0.2049621E+04  0.7818609E-02  0.8583766E-01
       -2   -1    0    0    0  501  0.00000000000E+00  0.00000000000E+00  0.11101242683E+04  0.11101242683E+04  0.25500000920E-02 0. -1.
        2   -1    0    0  501    0  0.00000000000E+00  0.00000000000E+00 -0.94605283276E+03  0.94605283276E+03  0.25500000920E-02 0.  1.
    10030    2    1    2    0    0  0.00000000000E+00  0.00000000000E+00  0.16407143556E+03  0.20561771011E+04  0.20496206564E+04 0.  0.
        4    1    3    3  502    0  0.97002952220E+03  0.22455844744E+03 -0.16133219020E+03  0.10086691523E+04  0.12699999809E+01 0.  1.
       -4    1    3    3    0  502 -0.97002952220E+03 -0.22455844744E+03  0.32540362575E+03  0.10475079488E+04  0.12699999809E+01 0. -1.
</event>
<event>
 5   0  0.1252477E-04  0.2100785E+04  0.7818609E-02  0.8560898E-01
        2   -1    0    0  501    0  0.00000000000E+00  0.00000000000E+00  0.17728168722E+04  0.17728168722E+04  0.25500000920E-02 0.  1.
       -2   -1    0    0    0  501  0.00000000000E+00  0.00000000000E+00 -0.62235669754E+03  0.62235669755E+03  0.25500000920E-02 0. -1.
    10030    2    1    2    0    0  0.00000000000E+00  0.00000000000E+00  0.11504601747E+04  0.23951735698E+04  0.21007850475E+04 0.  0.
        4    1    3    3  502    0  0.10075725084E+04 -0.25341359971E+03  0.75149779450E+03  0.12822524558E+04  0.12699999809E+01 0. -1.
       -4    1    3    3    0  502 -0.10075725084E+04  0.25341359971E+03  0.39896238018E+03  0.11129211140E+04  0.12699999809E+01 0.  1.
</event>
<event>
 5   0  0.1281470E-04  0.2092596E+04  0.7818609E-02  0.8564512E-01
        2   -1    0    0  501    0  0.00000000000E+00  0.00000000000E+00  0.25995776556E+04  0.25995776556E+04  0.25500000920E-02 0.  1.
       -2   -1    0    0    0  501  0.00000000000E+00  0.00000000000E+00 -0.42112191337E+03  0.42112191337E+03  0.25500000920E-02 0. -1.
    10030    2    1    2    0    0  0.00000000000E+00  0.00000000000E+00  0.21784557423E+04  0.30206995690E+04  0.20925956287E+04 0.  0.
        3    1    3    3  502    0  0.44290684862E+03  0.76480434327E+03  0.28079725667E+03  0.92732910533E+03  0.10100000352E+00 0. -1.
       -3    1    3    3    0  502 -0.44290684862E+03 -0.76480434327E+03  0.18976584856E+04  0.20933704637E+04  0.10100000352E+00 0.  1.
</event>
<event>
 5   0  0.6052292E-05  0.2107416E+04  0.7818609E-02  0.8557984E-01
        1   -1    0    0  501    0  0.00000000000E+00  0.00000000000E+00  0.68806173198E+03  0.68806173200E+03  0.50400001928E-02 0.  1.
       -1   -1    0    0    0  501  0.00000000000E+00  0.00000000000E+00 -0.16136640416E+04  0.16136640416E+04  0.50400001928E-02 0. -1.
    10030    2    1    2    0    0  0.00000000000E+00  0.00000000000E+00 -0.92560230960E+03  0.23017257736E+04  0.21074159298E+04 0.  0.
        1    1    3    3  502    0  0.45156674104E+03 -0.91193895674E+03 -0.16417743849E+03  0.10307761220E+04  0.50400001928E-02 0.  1.
       -1    1    3    3    0  502 -0.45156674104E+03  0.91193895674E+03 -0.76142487111E+03  0.12709496516E+04  0.50400001928E-02 0. -1.
</event>
<event>
 5   0  0.1252477E-04  0.1701135E+04  0.7818609E-02  0.8760717E-01
        2   -1    0    0  501    0  0.00000000000E+00  0.00000000000E+00  0.19597510801E+04  0.19597510801E+04  0.25500000920E-02 0.  1.
       -2   -1    0    0    0  501  0.00000000000E+00  0.00000000000E+00 -0.36916177246E+03  0.36916177247E+03  0.25500000920E-02 0. -1.
    10030    2    1    2    0    0  0.00000000000E+00  0.00000000000E+00  0.15905893077E+04  0.23289128526E+04  0.17011351296E+04 0.  0.
        4    1    3    3  502    0 -0.50387946696E+03 -0.65346385399E+03  0.10777077566E+04  0.13573375215E+04  0.12699999809E+01 0. -1.
       -4    1    3    3    0  502  0.50387946696E+03  0.65346385399E+03  0.51288155106E+03  0.97157533111E+03  0.12699999809E+01 0.  1.
</event>
<event>
 5   0  0.6263616E-05  0.2099452E+04  0.7818609E-02  0.8561485E-01
        1   -1    0    0  501    0  0.00000000000E+00  0.00000000000E+00  0.11782761524E+04  0.11782761525E+04  0.50400001928E-02 0. -1.
       -1   -1    0    0    0  501  0.00000000000E+00  0.00000000000E+00 -0.93520042988E+03  0.93520042990E+03  0.50400001928E-02 0.  1.
    10030    2    1    2    0    0  0.00000000000E+00  0.00000000000E+00  0.24307572256E+03  0.21134765824E+04  0.20994517040E+04 0.  0.
        4    1    3    3  502    0  0.89051253545E+03 -0.50480990020E+03 -0.11256051970E+03  0.10298141068E+04  0.12699999809E+01 0.  1.
       -4    1    3    3    0  502 -0.89051253545E+03  0.50480990020E+03  0.35563624226E+03  0.10836624755E+04  0.12699999809E+01 0. -1.
</event>
<event>
 5   0  0.1235817E-04  0.2097968E+04  0.7818609E-02  0.8562139E-01
       -2   -1    0    0    0  501  0.00000000000E+00  0.00000000000E+00  0.92557950253E+03  0.92557950254E+03  0.25500000920E-02 0.  1.
        2   -1    0    0  501    0  0.00000000000E+00  0.00000000000E+00 -0.11888411770E+04  0.11888411770E+04  0.25500000920E-02 0. -1.
    10030    2    1    2    0    0  0.00000000000E+00  0.00000000000E+00 -0.26326167445E+03  0.21144206795E+04  0.20979676119E+04 0.  0.
        1    1    3    3  502    0 -0.86279669783E+03  0.21174650965E+03 -0.69377953426E+03  0.11272021861E+04  0.50400001928E-02 0. -1.
       -1    1    3    3    0  502  0.86279669783E+03 -0.21174650965E+03  0.43051785981E+03  0.98721849343E+03  0.50400001928E-02 0.  1.
</event>
<event>
 5   0  0.1325673E-04  0.2115507E+04  0.7818609E-02  0.8554443E-01
       -2   -1    0    0    0  501  0.00000000000E+00  0.00000000000E+00  0.59205803799E+03  0.59205803799E+03  0.25500000920E-02 0.  1.
        2   -1    0    0  501    0  0.00000000000E+00  0.00000000000E+00 -0.18897519057E+04  0.18897519057E+04  0.25500000920E-02 0. -1.
    10030    2    1    2    0    0  0.00000000000E+00  0.00000000000E+00 -0.12976938677E+04  0.24818099437E+04  0.21155073203E+04 0.  0.
        5    1    3    3  502    0 -0.26819760458E+03 -0.16814453428E+03 -0.18328687336E+04  0.18600087162E+04  0.46999998093E+01 0. -1.
       -5    1    3    3    0  502  0.26819760458E+03  0.16814453428E+03  0.53517486589E+03  0.62180122755E+03  0.46999998093E+01 0.  1.
</event>
<event>
 5   0  0.6052292E-05  0.2114872E+04  0.7818609E-02  0.8554720E-01
       -1   -1    0    0    0  501  0.00000000000E+00  0.00000000000E+00  0.94455762953E+03  0.94455762955E+03  0.50400001928E-02 0.  1.
        1   -1    0    0  501    0  0.00000000000E+00  0.00000000000E+00 -0.11838034195E+04  0.11838034195E+04  0.50400001928E-02 0. -1.
    10030    2    1    2    0    0  0.00000000000E+00  0.00000000000E+00 -0.23924579000E+03  0.21283610491E+04  0.21148716763E+04 0.  0.
        1    1    3    3  502    0 -0.62952579216E+03 -0.50402029851E+03 -0.80796755895E+03  0.11415562889E+04  0.50400001928E-02 0. -1.
       -1    1    3    3    0  502  0.62952579216E+03  0.50402029851E+03  0.56872176895E+03  0.98680476023E+03  0.50400001928E-02 0.  1.
</event>
<event>
 5   0  0.6052292E-05  0.2072169E+04  0.7818609E-02  0.8573603E-01
       -1   -1    0    0    0  501  0.00000000000E+00  0.00000000000E+00  0.11436026677E+04  0.11436026677E+04  0.50400001928E-02 0.  1.
        1   -1    0    0  501    0  0.00000000000E+00  0.00000000000E+00 -0.93867506778E+03  0.93867506779E+03  0.50400001928E-02 0. -1.
    10030    2    1    2    0    0  0.00000000000E+00  0.00000000000E+00  0.20492759992E+03  0.20822777355E+04  0.20721692128E+04 0.  0.
        1    1    3    3  502    0 -0.23762442962E+03  0.33170393859E+03 -0.85453616118E+03  0.94695560784E+03  0.50400001928E-02 0. -1.
       -1    1    3    3    0  502  0.23762442962E+03 -0.33170393859E+03  0.10594637611E+04  0.11353221277E+04  0.50400001928E-02 0.  1.
</event>
<event>
 5   0  0.6263616E-05  0.2061226E+04  0.7818609E-02  0.8578518E-01
       -1   -1    0    0    0  501  0.00000000000E+00  0.00000000000E+00  0.79542988650E+03  0.79542988651E+03  0.50400001928E-02 0. -1.
        1   -1    0    0  501    0  0.00000000000E+00  0.00000000000E+00 -0.13353327757E+04  0.13353327757E+04  0.50400001928E-02 0.  1.
    10030    2    1    2    0    0  0.00000000000E+00  0.00000000000E+00 -0.53990288920E+03  0.21307626622E+04  0.20612264293E+04 0.  0.
        4    1    3    3  502    0 -0.29646331452E+03 -0.13214694445E+03  0.74121331932E+03  0.80916754101E+03  0.12699999809E+01 0. -1.
       -4    1    3    3    0  502  0.29646331452E+03  0.13214694445E+03 -0.12811162085E+04  0.13215951212E+04  0.12699999809E+01 0.  1.
</event>
<event>
 5   0  0.1252477E-04  0.2078342E+04  0.7818609E-02  0.8570844E-01
       -2   -1    0    0    0  501  0.00000000000E+00  0.00000000000E+00  0.41607700992E+03  0.41607700993E+03  0.25500000920E-02 0. -1.
        2   -1    0    0  501    0  0.00000000000E+00  0.00000000000E+00 -0.25953755766E+04  0.25953755766E+04  0.25500000920E-02 0.  1.
    10030    2    1    2    0    0  0.00000000000E+00  0.00000000000E+00 -0.21792985667E+04  0.30114525865E+04  0.20783417520E+04 0.  0.
        4    1    3    3  502    0  0.17551782088E+02  0.13010266552E+03  0.40401188949E+03  0.42480817833E+03  0.12699999809E+01 0. -1.
       -4    1    3    3    0  502 -0.17551782088E+02 -0.13010266552E+03 -0.25833104561E+04  0.25866444082E+04  0.12699999809E+01 0.  1.
</event>
<event>
 5   0  0.6052292E-05  0.2107578E+04  0.7818609E-02  0.8557912E-01
        1   -1    0    0  501    0  0.00000000000E+00  0.00000000000E+00  0.24643277283E+04  0.24643277283E+04  0.50400001928E-02 0. -1.
       -1   -1    0    0    0  501  0.00000000000E+00  0.00000000000E+00 -0.45061837625E+03  0.45061837628E+03  0.50400001928E-02 0.  1.
    10030    2    1    2    0    0  0.00000000000E+00  0.00000000000E+00  0.20137093520E+04  0.29149461045E+04  0.21075780977E+04 0.  0.
        1    1    3    3  502    0  0.21902391816E+03  0.53768975471E+03  0.22231695550E+04  0.22977303192E+04  0.50400001928E-02 0. -1.
       -1    1    3    3    0  502 -0.21902391816E+03 -0.53768975471E+03 -0.20946020305E+03  0.61721578539E+03  0.50400001928E-02 0.  1.
</event>
<event>
 5   0  0.1235817E-04  0.2174813E+04  0.7818609E-02  0.8528985E-01
        2   -1    0    0  501    0  0.00000000000E+00  0.00000000000E+00  0.19771056242E+04  0.19771056242E+04  0.25500000920E-02 0.  1.
       -2   -1    0    0    0  501  0.00000000000E+00  0.00000000000E+00 -0.59807289338E+03  0.59807289338E+03  0.25500000920E-02 0. -1.
    10030    2    1    2    0    0  0.00000000000E+00  0.00000000000E+00  0.13790327308E+04  0.25751785176E+04  0.21748133540E+04 0.  0.
        1    1    3    3  502    0 -0.39939066136E+03  0.52360686456E+03  0.17141329354E+04  0.18362812337E+04  0.50400001928E-02 0.  1.
       -1    1    3    3    0  502  0.39939066136E+03 -0.52360686456E+03 -0.33510020458E+03  0.73889728388E+03  0.50400001928E-02 0. -1.
</event>
<event>
 5   0  0.4615125E-05  0.2097979E+04  0.7818609E-02  0.8562134E-01
        3   -1    0    0  501    0  0.00000000000E+00  0.00000000000E+00  0.19747991788E+04  0.19747991814E+04  0.10100000352E+00 0.  1.
       -3   -1    0    0    0  501  0.00000000000E+00  0.00000000000E+00 -0.55721030888E+03  0.55721031803E+03  0.10100000352E+00 0. -1.
    10030    2    1    2    0    0  0.00000000000E+00  0.00000000000E+00  0.14175888699E+04  0.25320094994E+04  0.20979785273E+04 0.  0.
        1    1    3    3  502    0  0.21025226548E+03 -0.85811564915E+03  0.26282411396E+02  0.88388870772E+03  0.50400001928E-02 0. -1.
       -1    1    3    3    0  502 -0.21025226548E+03  0.85811564915E+03  0.13913064585E+04  0.16481207917E+04  0.50400001928E-02 0.  1.
</event>
<event>
 5   0  0.5846187E-05  0.2083042E+04  0.7818609E-02  0.8568751E-01
       -1   -1    0    0    0  501  0.00000000000E+00  0.00000000000E+00  0.69652219064E+03  0.69652219066E+03  0.50400001928E-02 0.  1.
        1   -1    0    0  501    0  0.00000000000E+00  0.00000000000E+00 -0.15574030003E+04  0.15574030003E+04  0.50400001928E-02 0. -1.
    10030    2    1    2    0    0  0.00000000000E+00  0.00000000000E+00 -0.86088080969E+03  0.22539251910E+04  0.20830417658E+04 0.  0.
        5    1    3    3  502    0  0.78032837896E+03 -0.63725234943E+03 -0.14469138824E+03  0.10178215088E+04  0.46999998093E+01 0.  1.
       -5    1    3    3    0  502 -0.78032837896E+03  0.63725234943E+03 -0.71618942145E+03  0.12361036822E+04  0.46999998093E+01 0. -1.
</event>
<event>
 5   0  0.1281470E-04  0.1962188E+04  0.7818609E-02  0.8624506E-01
       -2   -1    0    0    0  501  0.00000000000E+00  0.00000000000E+00  0.72646356464E+03  0.72646356464E+03  0.25500000920E-02 0.  1.
        2   -1    0    0  501    0  0.00000000000E+00  0.00000000000E+00 -0.13249742942E+04  0.13249742942E+04  0.25500000920E-02 0. -1.
    10030    2    1    2    0    0  0.00000000000E+00  0.00000000000E+00 -0.59851072953E+03  0.20514378588E+04  0.19621881141E+04 0.  0.
        3    1    3    3  502    0  0.49443256031E+03  0.37102593992E+03 -0.10957622943E+04  0.12581012760E+04  0.10100000352E+00 0. -1.
       -3    1    3    3    0  502 -0.49443256031E+03 -0.37102593992E+03  0.49725156477E+03  0.79333658283E+03  0.10100000352E+00 0.  1.
</event>
<event>
 5   0  0.6052292E-05  0.2162315E+04  0.7818609E-02  0.8534279E-01
        1   -1    0    0  501    0  0.00000000000E+00  0.00000000000E+00  0.28329822735E+04  0.28329822735E+04  0.50400001928E-02 0.  1.
       -1   -1    0    0    0  501  0.00000000000E+00  0.00000000000E+00 -0.41260470764E+03  0.41260470767E+03  0.50400001928E-02 0. -1.
    10030    2    1    2    0    0  0.00000000000E+00  0.00000000000E+00  0.24203775659E+04  0.32455869812E+04  0.21623152617E+04 0.  0.
        1    1    3    3  502    0  0.77032767223E+03 -0.30598571713E+03  0.22521201486E+04  0.23998077309E+04  0.50400001928E-02 0.  1.
       -1    1    3    3    0  502 -0.77032767223E+03  0.30598571713E+03  0.16825741730E+03  0.84577925027E+03  0.50400001928E-02 0. -1.
</event>
<event>
 5   0  0.5846187E-05  0.2124311E+04  0.7818609E-02  0.8550609E-01
       -1   -1    0    0    0  501  0.00000000000E+00  0.00000000000E+00  0.63338869360E+03  0.63338869362E+03  0.50400001928E-02 0. -1.
        1   -1    0    0  501    0  0.00000000000E+00  0.00000000000E+00 -0.17811724485E+04  0.17811724485E+04  0.50400001928E-02 0.  1.
    10030    2    1    2    0    0  0.00000000000E+00  0.00000000000E+00 -0.11477837549E+04  0.24145611421E+04  0.21243111733E+04 0.  0.
        5    1    3    3  502    0 -0.44670822747E+03  0.54958645605E+03  0.32581496005E+03  0.77959668506E+03  0.46999998093E+01 0. -1.
       -5    1    3    3    0  502  0.44670822747E+03 -0.54958645605E+03 -0.14735987149E+04  0.16349644570E+04  0.46999998093E+01 0.  1.
</event>
<event>
 5   0  0.1325673E-04  0.1991125E+04  0.7818609E-02  0.8610781E-01
        2   -1    0    0  501    0  0.00000000000E+00  0.00000000000E+00  0.96891955064E+03  0.96891955064E+03  0.25500000920E-02 0. -1.
       -2   -1    0    0    0  501  0.00000000000E+00  0.00000000000E+00 -0.10229376956E+04  0.10229376956E+04  0.25500000920E-02 0.  1.
    10030    2    1    2    0    0  0.00000000000E+00  0.00000000000E+00 -0.54018144987E+02  0.19918572463E+04  0.19911246394E+04 0.  0.
        5    1    3    3  502    0 -0.93820970231E+03  0.32598308763E+03  0.40985219084E+02  0.99408465289E+03  0.46999998093E+01 0.  1.
       -5    1    3    3    0  502  0.93820970231E+03 -0.32598308763E+03 -0.95003364071E+02  0.99777259339E+03  0.46999998093E+01 0. -1.
</event>
<event>
 5   0  0.6052292E-05  0.2108405E+04  0.7818609E-02  0.8557550E-01
       -1   -1    0    0    0  501  0.00000000000E+00  0.00000000000E+00  0.77799554734E+03  0.77799554736E+03  0.50400001928E-02 0. -1.
        1   -1    0    0  501    0  0.00000000000E+00  0.00000000000E+00 -0.14284690830E+04  0.14284690830E+04  0.50400001928E-02 0.  1.
    10030    2    1    2    0    0  0.00000000000E+00  0.00000000000E+00 -0.65047353569E+03  0.22064646304E+04  0.21084046918E+04 0.  0.
        1    1    3    3  502    0 -0.69704016213E+02 -0.94807962025E+03  0.15161892397E+03  0.96265357961E+03  0.50400001928E-02 0. -1.
       -1    1    3    3    0  502  0.69704016213E+02  0.94807962025E+03 -0.80209245966E+03  0.12438110508E+04  0.50400001928E-02 0.  1.
</event>
<event>
 5   0  0.5846187E-05  0.2099582E+04  0.7818609E-02  0.8561427E-01
        1   -1    0    0  501    0  0.00000000000E+00  0.00000000000E+00  0.17991274092E+04  0.17991274092E+04  0.50400001928E-02 0. -1.
       -1   -1    0    0    0  501  0.00000000000E+00  0.00000000000E+00 -0.61255338834E+03  0.61255338836E+03  0.50400001928E-02 0.  1.
    10030    2    1    2    0    0  0.00000000000E+00  0.00000000000E+00  0.11865740209E+04  0.24116807976E+04  0.20995824257E+04 0.  0.
        5    1    3    3  502    0  0.32714519546E+03  0.94548991205E+03  0.22812475101E+03  0.10261764686E+04  0.46999998093E+01 0. -1.
       -5    1    3    3    0  502 -0.32714519546E+03 -0.94548991205E+03  0.95844926988E+03  0.13855043290E+04  0.46999998093E+01 0.  1.
</event>
<event>
 5   0  0.6221148E-05  0.2111573E+04  0.7818609E-02  0.8556162E-01
       -1   -1    0    0    0  501  0.00000000000E+00  0.00000000000E+00  0.39633458734E+03  0.39633458737E+03  0.50400001928E-02 0.  1.
        1   -1    0    0  501    0  0.00000000000E+00  0.00000000000E+00 -0.28124849992E+04  0.28124849992E+04  0.50400001928E-02 0. -1.
    10030    2    1    2    0    0  0.00000000000E+00  0.00000000000E+00 -0.24161504119E+04  0.32088195866E+04  0.21115729508E+04 0.  0.
        3    1    3    3  502    0  0.40730025159E+03 -0.90696758553E+03 -0.66822750811E+03  0.11979197423E+04  0.10100000352E+00 0.  1.
       -3    1    3    3    0  502 -0.40730025159E+03  0.90696758553E+03 -0.17479229037E+04  0.20108998443E+04  0.10100000352E+00 0. -1.
</event>
<event>
 5   0  0.1252477E-04  0.2114716E+04  0.7818609E-02  0.8554788E-01
        2   -1    0    0  501    0  0.00000000000E+00  0.00000000000E+00  0.19847670496E+04  0.19847670496E+04  0.25500000920E-02 0.  1.
       -2   -1    0    0    0  501  0.00000000000E+00  0.00000000000E+00 -0.56329341596E+03  0.56329341596E+03  0.25500000920E-02 0. -1.
    10030    2    1    2    0    0  0.00000000000E+00  0.00000000000E+00  0.14214736336E+04  0.25480604655E+04  0.21147162564E+04 0.  0.
        4    1    3    3  502    0  0.57584511937E+03 -0.49793308913E+03 -0.17343819106E+03  0.78077998295E+03  0.12699999809E+01 0. -1.
       -4    1    3    3    0  502 -0.57584511937E+03  0.49793308913E+03  0.15949118247E+04  0.17672804826E+04  0.12699999809E+01 0.  1.
</event>
<event>
 5   0  0.5933905E-05  0.2016379E+04  0.7818609E-02  0.8599001E-01
        1   -1    0    0  501    0  0.00000000000E+00  0.00000000000E+00  0.13724595348E+04  0.13724595348E+04  0.50400001928E-02 0.  1.
       -1   -1    0    0    0  501  0.00000000000E+00  0.00000000000E+00 -0.74060176201E+03  0.74060176202E+03  0.50400001928E-02 0. -1.
    10030    2    1    2    0    0  0.00000000000E+00  0.00000000000E+00  0.63185777280E+03  0.21130612968E+04  0.20163788828E+04 0.  0.
        2    1    3    3  502    0 -0.78468059459E+02 -0.98607071992E+03  0.52008596072E+03  0.11175786807E+04  0.25500000920E-02 0.  1.
       -2    1    3    3    0  502  0.78468059459E+02  0.98607071992E+03  0.11177181208E+03  0.99548261613E+03  0.25500000920E-02 0. -1.
</event>
<event>
 5   0  0.4615125E-05  0.2121672E+04  0.7818609E-02  0.8551756E-01
       -3   -1    0    0    0  501  0.00000000000E+00  0.00000000000E+00  0.94277895616E+03  0.94277896157E+03  0.10100000352E+00 0.  1.
        3   -1    0    0  501    0  0.00000000000E+00  0.00000000000E+00 -0.11936767357E+04  0.11936767399E+04  0.10100000352E+00 0. -1.
    10030    2    1    2    0    0  0.00000000000E+00  0.00000000000E+00 -0.25089777949E+03  0.21364557015E+04  0.21216722812E+04 0.  0.
        4    1    3    3  502    0  0.57537139579E+03  0.71075536212E+03  0.41602110037E+03  0.10046395357E+04  0.12699999809E+01 0.  1.
       -4    1    3    3    0  502 -0.57537139579E+03 -0.71075536212E+03 -0.66691887986E+03  0.11318161658E+04  0.12699999809E+01 0. -1.
</event>
<event>
 5   0  0.1235817E-04  0.2042888E+04  0.7818609E-02  0.8586827E-01
        2   -1    0    0  501    0  0.00000000000E+00  0.00000000000E+00  0.19943039973E+04  0.19943039973E+04  0.25500000920E-02 0. -1.
       -2   -1    0    0    0  501  0.00000000000E+00  0.00000000000E+00 -0.52316412777E+03  0.52316412777E+03  0.25500000920E-02 0.  1.
    10030    2    1    2    0    0  0.00000000000E+00  0.00000000000E+00  0.14711398696E+04  0.25174681251E+04  0.20428884563E+04 0.  0.
        1    1    3    3  502    0 -0.17137176574E+03  0.31925854143E+03  0.19124429510E+04  0.19464666294E+04  0.50400001928E-02 0. -1.
       -1    1    3    3    0  502  0.17137176574E+03 -0.31925854143E+03 -0.44130308146E+03  0.57100149571E+03  0.50400001928E-02 0.  1.
</event>
<event>
 5   0  0.1252477E-04  0.2118544E+04  0.7818609E-02  0.8553118E-01
       -2   -1    0    0    0  501  0.00000000000E+00  0.00000000000E+00  0.69214077690E+03  0.69214077690E+03  0.25500000920E-02 0. -1.
        2   -1    0    0  501    0  0.00000000000E+00  0.00000000000E+00 -0.16211403101E+04  0.16211403101E+04  0.25500000920E-02 0.  1.
    10030    2    1    2    0    0  0.00000000000E+00  0.00000000000E+00 -0.92899953320E+03  0.23132810870E+04  0.21185441357E+04 0.  0.
        4    1    3    3  502    0 -0.44728597653E+03 -0.45655245744E+03 -0.13868658875E+04  0.15270571351E+04  0.12699999809E+01 0.  1.
       -4    1    3    3    0  502  0.44728597653E+03  0.45655245744E+03  0.45786635429E+03  0.78622395186E+03  0.12699999809E+01 0. -1.
</event>
<event>
 5   0  0.1252477E-04  0.1936841E+04  0.7818609E-02  0.8636733E-01
       -2   -1    0    0    0  501  0.00000000000E+00  0.00000000000E+00  0.85946171440E+03  0.85946171440E+03  0.25500000920E-02 0.  1.
        2   -1    0    0  501    0  0.00000000000E+00  0.00000000000E+00 -0.10911924363E+04  0.10911924363E+04  0.25500000920E-02 0. -1.
    10030    2    1    2    0    0  0.00000000000E+00  0.00000000000E+00 -0.23173072189E+03  0.19506541507E+04  0.19368408526E+04 0.  0.
        4    1    3    3  502    0 -0.49809282732E+03 -0.75543549091E+03 -0.46337294537E+03  0.10166097309E+04  0.12699999809E+01 0. -1.
       -4    1    3    3    0  502  0.49809282732E+03  0.75543549091E+03  0.23164222348E+03  0.93404441980E+03  0.12699999809E+01 0.  1.
</event>
<event>
 5   0  0.1252477E-04  0.2039313E+04  0.7818609E-02  0.8588458E-01
       -2   -1    0    0    0  501  0.00000000000E+00  0.00000000000E+00  0.14129631283E+04  0.14129631283E+04  0.25500000920E-02 0. -1.
        2   -1    0    0  501    0  0.00000000000E+00  0.00000000000E+00 -0.73582916023E+03  0.73582916023E+03  0.25500000920E-02 0.  1.
    10030    2    1    2    0    0  0.00000000000E+00  0.00000000000E+00  0.67713396807E+03  0.21487922885E+04  0.20393130923E+04 0.  0.
        4    1    3    3  502    0  0.15197820275E+03  0.71009144820E+03 -0.41566099466E+03  0.83672152733E+03  0.12699999809E+01 0.  1.
       -4    1    3    3    0  502 -0.15197820275E+03 -0.71009144820E+03  0.10927949627E+04  0.13120707612E+04  0.12699999809E+01 0. -1.
</event>
<event>
 5   0  0.1281470E-04  0.2095851E+04  0.7818609E-02  0.8563073E-01
        2   -1    0    0  501    0  0.00000000000E+00  0.00000000000E+00  0.20762064582E+04  0.20762064582E+04  0.25500000920E-02 0.  1.
       -2   -1    0    0    0  501  0.00000000000E+00  0.00000000000E+00 -0.52892037107E+03  0.52892037108E+03  0.25500000920E-02 0. -1.
    10030    2    1    2    0    0  0.00000000000E+00  0.00000000000E+00  0.15472860871E+04  0.26051268292E+04  0.20958510351E+04 0.  0.
        3    1    3    3  502    0 -0.98692072265E+03  0.26614049554E+02  0.12103334505E+04  0.15619308218E+04  0.10100000352E+00 0.  1.
       -3    1    3    3    0  502  0.98692072265E+03 -0.26614049554E+02  0.33695263656E+03  0.10431960074E+04  0.10100000352E+00 0. -1.
</event>
<event>
 5   0  0.6221148E-05  0.2103996E+04  0.7818609E-02  0.8559485E-01
       -1   -1    0    0    0  501  0.00000000000E+00  0.00000000000E+00  0.10450672830E+04  0.10450672831E+04  0.50400001928E-02 0.  1.
        1   -1    0    0  501    0  0.00000000000E+00  0.00000000000E+00 -0.10589742724E+04  0.10589742724E+04  0.50400001928E-02 0. -1.
    10030    2    1    2    0    0  0.00000000000E+00  0.00000000000E+00 -0.13906989393E+02  0.21040415555E+04  0.21039955948E+04 0.  0.
        3    1    3    3  502    0 -0.13116929610E+03 -0.23233704189E+03 -0.10245775467E+04  0.10587469219E+04  0.10100000352E+00 0. -1.
       -3    1    3    3    0  502  0.13116929610E+03  0.23233704189E+03  0.10106705573E+04  0.10452946336E+04  0.10100000352E+00 0.  1.
</event>
<event>
 5   0  0.6263616E-05  0.2068853E+04  0.7818609E-02  0.8575089E-01
       -1   -1    0    0    0  501  0.00000000000E+00  0.00000000000E+00  0.11720631525E+04  0.11720631525E+04  0.50400001928E-02 0. -1.
        1   -1    0    0  501    0  0.00000000000E+00  0.00000000000E+00 -0.91295294361E+03  0.91295294362E+03  0.50400001928E-02 0.  1.
    10030    2    1    2    0    0  0.00000000000E+00  0.00000000000E+00  0.25911020890E+03  0.20850160961E+04  0.20688533106E+04 0.  0.
        4    1    3    3  502    0  0.12977018571E+03 -0.93216202524E+03 -0.30306597771E+03  0.98874513508E+03  0.12699999809E+01 0.  1.
       -4    1    3    3    0  502 -0.12977018571E+03  0.93216202524E+03  0.56217618662E+03  0.10962709611E+04  0.12699999809E+01 0. -1.
</event>
<event>
 5   0  0.1281470E-04  0.2095426E+04  0.7818609E-02  0.8563261E-01
        2   -1    0    0  501    0  0.00000000000E+00  0.00000000000E+00  0.19565192530E+04  0.19565192530E+04  0.25500000920E-02 0.  1.
       -2   -1    0    0    0  501  0.00000000000E+00  0.00000000000E+00 -0.56104856504E+03  0.56104856504E+03  0.25500000920E-02 0. -1.
    10030    2    1    2    0    0  0.00000000000E+00  0.00000000000E+00  0.13954706879E+04  0.25175678180E+04  0.20954257986E+04 0.  0.
        3    1    3    3  502    0 -0.92012674054E+03 -0.15656868124E+03  0.12696036686E+04  0.15757666249E+04  0.10100000352E+00 0. -1.
       -3    1    3    3    0  502  0.92012674054E+03  0.15656868124E+03  0.12586701933E+03  0.94180119312E+03  0.10100000352E+00 0.  1.
</event>
<event>
 5   0  0.1349252E-04  0.2109723E+04  0.7818609E-02  0.8556972E-01
       -2   -1    0    0    0  501  0.00000000000E+00  0.00000000000E+00  0.46138019073E+03  0.46138019074E+03  0.25500000920E-02 0. -1.
        2   -1    0    0  501    0  0.00000000000E+00  0.00000000000E+00 -0.24117490372E+04  0.24117490372E+04  0.25500000920E-02 0.  1.
    10030    2    1    2    0    0  0.00000000000E+00  0.00000000000E+00 -0.19503688465E+04  0.28731292279E+04  0.21097234234E+04 0.  0.
        2    1    3    3  502    0  0.10321102033E+04  0.21697527726E+03 -0.10025399473E+04  0.14551343885E+04  0.25500000920E-02 0.  1.
       -2    1    3    3    0  502 -0.10321102033E+04 -0.21697527726E+03 -0.94782889912E+03  0.14179948394E+04  0.25500000920E-02 0. -1.
</event>
<event>
 5   0  0.6052292E-05  0.2060891E+04  0.7818609E-02  0.8578670E-01
        1   -1    0    0  501    0  0.00000000000E+00  0.00000000000E+00  0.13329281803E+04  0.13329281803E+04  0.50400001928E-02 0. -1.
       -1   -1    0    0    0  501  0.00000000000E+00  0.00000000000E+00 -0.79660540419E+03  0.79660540421E+03  0.50400001928E-02 0.  1.
    10030    2    1    2    0    0  0.00000000000E+00  0.00000000000E+00  0.53632277614E+03  0.21295335846E+04  0.20608908675E+04 0.  0.
        1    1    3    3  502    0 -0.49860958066E+03 -0.53565132662E+03 -0.48145583320E+03  0.87597578561E+03  0.50400001928E-02 0.  1.
       -1    1    3    3    0  502  0.49860958066E+03  0.53565132662E+03  0.10177786093E+04  0.12535577989E+04  0.50400001928E-02 0. -1.
</event>
<event>
 5   0  0.1235817E-04  0.2113075E+04  0.7818609E-02  0.8555505E-01
       -2   -1    0    0    0  501  0.00000000000E+00  0.00000000000E+00  0.72975724602E+03  0.72975724602E+03  0.25500000920E-02 0.  1.
        2   -1    0    0  501    0  0.00000000000E+00  0.00000000000E+00 -0.15296480357E+04  0.15296480357E+04  0.25500000920E-02 0. -1.
    10030    2    1    2    0    0  0.00000000000E+00  0.00000000000E+00 -0.79989078965E+03  0.22594052817E+04  0.21130752357E+04 0.  0.
        1    1    3    3  502    0  0.39676398044E+03  0.88099532932E+03  0.57085182768E+02  0.96790141264E+03  0.50400001928E-02 0.  1.
       -1    1    3    3    0  502 -0.39676398044E+03 -0.88099532932E+03 -0.85697597241E+03  0.12915038691E+04  0.50400001928E-02 0. -1.
</event>
<event>
 5   0  0.5933905E-05  0.2103980E+04  0.7818609E-02  0.8559492E-01
        1   -1    0    0  501    0  0.00000000000E+00  0.00000000000E+00  0.13048590117E+04  0.13048590117E+04  0.50400001928E-02 0. -1.
       -1   -1    0    0    0  501  0.00000000000E+00  0.00000000000E+00 -0.84812432645E+03  0.84812432646E+03  0.50400001928E-02 0.  1.
    10030    2    1    2    0    0  0.00000000000E+00  0.00000000000E+00  0.45673468522E+03  0.21529833381E+04  0.21039797246E+04 0.  0.
        2    1    3    3  502    0  0.16042731138E+03 -0.23241741312E+03 -0.80860958560E+03  0.85650699827E+03  0.25500000920E-02 0.  1.
       -2    1    3    3    0  502 -0.16042731138E+03  0.23241741312E+03  0.12653442708E+04  0.12964763399E+04  0.25500000920E-02 0. -1.
</event>
<event>
 5   0  0.1325673E-04  0.2050825E+04  0.7818609E-02  0.8583220E-01
        2   -1    0    0  501    0  0.00000000000E+00  0.00000000000E+00  0.14174624216E+04  0.14174624217E+04  0.25500000920E-02 0.  1.
       -2   -1    0    0    0  501  0.00000000000E+00  0.00000000000E+00 -0.74179804796E+03  0.74179804797E+03  0.25500000920E-02 0. -1.
    10030    2    1    2    0    0  0.00000000000E+00  0.00000000000E+00  0.67566437369E+03  0.21592604696E+04  0.20508250607E+04 0.  0.
        5    1    3    3  502    0  0.89301295274E+02  0.51735831200E+03  0.12652070988E+04  0.13698194908E+04  0.46999998093E+01 0.  1.
       -5    1    3    3    0  502 -0.89301295274E+02 -0.51735831200E+03 -0.58954272514E+03  0.78944097886E+03  0.46999998093E+01 0. -1.
</event>
<event>
 5   0  0.5933905E-05  0.2072724E+04  0.7818609E-02  0.8573355E-01
       -1   -1    0    0    0  501  0.00000000000E+00  0.00000000000E+00  0.10030727831E+04  0.10030727831E+04  0.50400001928E-02 0.  1.
        1   -1    0    0  501    0  0.00000000000E+00  0.00000000000E+00 -0.10707559308E+04  0.10707559308E+04  0.50400001928E-02 0. -1.
    10030    2    1    2    0    0  0.00000000000E+00  0.00000000000E+00 -0.67683147697E+02  0.20738287139E+04  0.20727239387E+04 0.  0.
        2    1    3    3  502    0 -0.50288448551E+03 -0.25244667717E+03  0.83692340011E+03  0.10084953685E+04  0.25500000920E-02 0.  1.
       -2    1    3    3    0  502  0.50288448551E+03  0.25244667717E+03 -0.90460654781E+03  0.10653333455E+04  0.25500000920E-02 0. -1.
</event>
<event>
 5   0  0.6221148E-05  0.2117968E+04  0.7818609E-02  0.8553369E-01
        1   -1    0    0  501    0  0.00000000000E+00  0.00000000000E+00  0.18884686987E+04  0.18884686987E+04  0.50400001928E-02 0. -1.
       -1   -1    0    0    0  501  0.00000000000E+00  0.00000000000E+00 -0.59383953851E+03  0.59383953853E+03  0.50400001928E-02 0.  1.
    10030    2    1    2    0    0  0.00000000000E+00  0.00000000000E+00  0.12946291602E+04  0.24823082372E+04  0.21179682533E+04 0.  0.
        3    1    3    3  502    0  0.73846969420E+03 -0.38416284280E+03  0.14145457976E+04  0.16412977800E+04  0.10100000352E+00 0. -1.
       -3    1    3    3    0  502 -0.73846969420E+03  0.38416284280E+03 -0.11991663738E+03  0.84101045722E+03  0.10100000352E+00 0.  1.
</event>
<event>
 5   0  0.5846187E-05  0.2079606E+04  0.7818609E-02  0.8570281E-01
       -1   -1    0    0    0  501  0.00000000000E+00  0.00000000000E+00  0.92288586226E+03  0.92288586228E+03  0.50400001928E-02 0. -1.
        1   -1    0    0  501    0  0.00000000000E+00  0.00000000000E+00 -0.11715323360E+04  0.11715323361E+04  0.50400001928E-02 0.  1.
    10030    2    1    2    0    0  0.00000000000E+00  0.00000000000E+00 -0.24864647379E+03  0.20944181983E+04  0.20796063379E+04 0.  0.
        5    1    3    3  502    0  0.51859961354E+03  0.59377152229E+03 -0.80713320438E+03  0.11282713678E+04  0.46999998093E+01 0.  1.
       -5    1    3    3    0  502 -0.51859961354E+03 -0.59377152229E+03  0.55848673059E+03  0.96614683051E+03  0.46999998093E+01 0. -1.
</event>
<event>
 5   0  0.1235817E-04  0.2152864E+04  0.7818609E-02  0.8538307E-01
       -2   -1    0    0    0  501  0.00000000000E+00  0.00000000000E+00  0.80071607907E+03  0.80071607907E+03  0.25500000920E-02 0.  1.
        2   -1    0    0  501    0  0.00000000000E+00  0.00000000000E+00 -0.14470868552E+04  0.14470868552E+04  0.25500000920E-02 0. -1.
    10030    2    1    2    0    0  0.00000000000E+00  0.00000000000E+00 -0.64637077612E+03  0.22478029343E+04  0.21528638719E+04 0.  0.
        1    1    3    3  502    0 -0.82618947833E+02  0.43314101129E+03 -0.13484611628E+04  0.14187263773E+04  0.50400001928E-02 0. -1.
       -1    1    3    3    0  502  0.82618947833E+02 -0.43314101129E+03  0.70209038665E+03  0.82907655693E+03  0.50400001928E-02 0.  1.
</event>
<event>
 5   0  0.6221148E-05  0.2121593E+04  0.7818609E-02  0.8551791E-01
        1   -1    0    0  501    0  0.00000000000E+00  0.00000000000E+00  0.15332126129E+04  0.15332126129E+04  0.50400001928E-02 0.  1.
       -1   -1    0    0    0  501  0.00000000000E+00  0.00000000000E+00 -0.73394195002E+03  0.73394195004E+03  0.50400001928E-02 0. -1.
    10030    2    1    2    0    0  0.00000000000E+00  0.00000000000E+00  0.79927066291E+03  0.22671545630E+04  0.21215928497E+04 0.  0.
        3    1    3    3  502    0  0.55695631959E+03 -0.54967716210E+03 -0.36570384503E+03  0.86376190986E+03  0.10100000352E+00 0. -1.
       -3    1    3    3    0  502 -0.55695631959E+03  0.54967716210E+03  0.11649745079E+04  0.14033926531E+04  0.10100000352E+00 0.  1.
</event>
<event>
 5   0  0.1349252E-04  0.2095070E+04  0.7818609E-02  0.8563418E-01
        2   -1    0    0  501    0  0.00000000000E+00  0.00000000000E+00  0.32575395853E+04  0.32575395853E+04  0.25500000920E-02 0.  1.
       -2   -1    0    0    0  501  0.00000000000E+00  0.00000000000E+00 -0.33685826939E+03  0.33685826940E+03  0.25500000920E-02 0. -1.
    10030    2    1    2    0    0  0.00000000000E+00  0.00000000000E+00  0.29206813159E+04  0.35943978547E+04  0.20950695904E+04 0.  0.
        2    1    3    3  502    0 -0.79948993804E+03  0.65200220006E+03  0.17721831830E+04  0.20505911987E+04  0.25500000920E-02 0. -1.
       -2    1    3    3    0  502  0.79948993804E+03 -0.65200220006E+03  0.11484981329E+04  0.15438066560E+04  0.25500000920E-02 0.  1.
</event>
<event>
 5   0  0.6263616E-05  0.2137475E+04  0.7818609E-02  0.8544912E-01
       -1   -1    0    0    0  501  0.00000000000E+00  0.00000000000E+00  0.93588964570E+03  0.93588964572E+03  0.50400001928E-02 0. -1.
        1   -1    0    0  501    0  0.00000000000E+00  0.00000000000E+00 -0.12204434361E+04  0.12204434361E+04  0.50400001928E-02 0.  1.
    10030    2    1    2    0    0  0.00000000000E+00  0.00000000000E+00 -0.28455379038E+03  0.21563330818E+04  0.21374754970E+04 0.  0.
        4    1    3    3  502    0 -0.27697712190E+03 -0.76430387520E+03 -0.84217137362E+03  0.11705259395E+04  0.12699999809E+01 0.  1.
       -4    1    3    3    0  502  0.27697712190E+03  0.76430387520E+03  0.55761758324E+03  0.98580714227E+03  0.12699999809E+01 0. -1.
</event>
<event>
 5   0  0.5846187E-05  0.2130380E+04  0.7818609E-02  0.8547978E-01
       -1   -1    0    0    0  501  0.00000000000E+00  0.00000000000E+00  0.17657351712E+04  0.17657351712E+04  0.50400001928E-02 0. -1.
        1   -1    0    0  501    0  0.00000000000E+00  0.00000000000E+00 -0.64258200336E+03  0.64258200338E+03  0.50400001928E-02 0.  1.
    10030    2    1    2    0    0  0.00000000000E+00  0.00000000000E+00  0.11231531679E+04  0.24083171746E+04  0.21303799133E+04 0.  0.
        5    1    3    3  502    0  0.66957540903E+03 -0.22258859402E+03 -0.34048149353E+03  0.78347089799E+03  0.46999998093E+01 0.  1.
       -5    1    3    3    0  502 -0.66957540903E+03  0.22258859402E+03  0.14636346614E+04  0.16248462766E+04  0.46999998093E+01 0. -1.
</event>
<event>
 5   0  0.1325673E-04  0.1886163E+04  0.7818609E-02  0.8661775E-01
        2   -1    0    0  501    0  0.00000000000E+00  0.00000000000E+00  0.10814794649E+04  0.10814794649E+04  0.25500000920E-02 0.  1.
       -2   -1    0    0    0  501  0.00000000000E+00  0.00000000000E+00 -0.82239421078E+03  0.82239421078E+03  0.25500000920E-02 0. -1.
    10030    2    1    2    0    0  0.00000000000E+00  0.00000000000E+00  0.25908525415E+03  0.19038736757E+04  0.18861627194E+04 0.  0.
        5    1    3    3  502    0 -0.76414390738E+02 -0.73927012916E+03  0.71552880926E+03  0.10316797225E+04  0.46999998093E+01 0.  1.
       -5    1    3    3    0  502  0.76414390738E+02  0.73927012916E+03 -0.45644355511E+03  0.87219395319E+03  0.46999998093E+01 0. -1.
</event>
<event>
 5   0  0.5846187E-05  0.2090447E+04  0.7818609E-02  0.8565463E-01
        1   -1    0    0  501    0  0.00000000000E+00  0.00000000000E+00  0.21336235304E+04  0.21336235304E+04  0.50400001928E-02 0.  1.
       -1   -1    0    0    0  501  0.00000000000E+00  0.00000000000E+00 -0.51203585480E+03  0.51203585483E+03  0.50400001928E-02 0. -1.
    10030    2    1    2    0    0  0.00000000000E+00  0.00000000000E+00  0.16215876756E+04  0.26456593852E+04  0.20904466013E+04 0.  0.
        5    1    3    3  502    0 -0.43915299709E+03 -0.51211202205E+03  0.18211761812E+04  0.19421171053E+04  0.46999998093E+01 0.  1.
       -5    1    3    3    0  502  0.43915299709E+03  0.51211202205E+03 -0.19958850561E+03  0.70354227986E+03  0.46999998093E+01 0. -1.
</event>
<event>
 5   0  0.5933905E-05  0.2112007E+04  0.7818609E-02  0.8555972E-01
        1   -1    0    0  501    0  0.00000000000E+00  0.00000000000E+00  0.10688360711E+04  0.10688360711E+04  0.50400001928E-02 0.  1.
       -1   -1    0    0    0  501  0.00000000000E+00  0.00000000000E+00 -0.10433251983E+04  0.10433251984E+04  0.50400001928E-02 0. -1.
    10030    2    1    2    0    0  0.00000000000E+00  0.00000000000E+00  0.25510872723E+02  0.21121612694E+04  0.21120072025E+04 0.  0.
        2    1    3    3  502    0 -0.55807234703E+02 -0.34726259059E+03  0.10085377941E+04  0.10681077831E+04  0.25500000920E-02 0.  1.
       -2    1    3    3    0  502  0.55807234703E+02  0.34726259059E+03 -0.98302692133E+03  0.10440534863E+04  0.25500000920E-02 0. -1.
</event>
<event>
 5   0  0.1235817E-04  0.2088560E+04  0.7818609E-02  0.8566299E-01
        2   -1    0    0  501    0  0.00000000000E+00  0.00000000000E+00  0.83756987162E+03  0.83756987162E+03  0.25500000920E-02 0.  1.
       -2   -1    0    0    0  501  0.00000000000E+00  0.00000000000E+00 -0.13020061491E+04  0.13020061491E+04  0.25500000920E-02 0. -1.
    10030    2    1    2    0    0  0.00000000000E+00  0.00000000000E+00 -0.46443627751E+03  0.21395760207E+04  0.20885603876E+04 0.  0.
        1    1    3    3  502    0  0.44917721542E+02  0.22629384457E+03  0.81113600998E+03  0.84330785157E+03  0.50400001928E-02 0.  1.
       -1    1    3    3    0  502 -0.44917721542E+02 -0.22629384457E+03 -0.12755722875E+04  0.12962681692E+04  0.50400001928E-02 0. -1.
</event>
<event>
 5   0  0.6263616E-05  0.2162368E+04  0.7818609E-02  0.8534257E-01
       -1   -1    0    0    0  501  0.00000000000E+00  0.00000000000E+00  0.59960675810E+03  0.59960675812E+03  0.50400001928E-02 0.  1.
        1   -1    0    0  501    0  0.00000000000E+00  0.00000000000E+00 -0.19495423745E+04  0.19495423745E+04  0.50400001928E-02 0. -1.
    10030    2    1    2    0    0  0.00000000000E+00  0.00000000000E+00 -0.13499356164E+04  0.25491491327E+04  0.21623679456E+04 0.  0.
        4    1    3    3  502    0  0.69749751508E+03 -0.81258634811E+03 -0.85044840370E+03  0.13675026351E+04  0.12699999809E+01 0. -1.
       -4    1    3    3    0  502 -0.69749751508E+03  0.81258634811E+03 -0.49948721274E+03  0.11816464976E+04  0.12699999809E+01 0.  1.
</event>
<event>
 5   0  0.1235817E-04  0.2094654E+04  0.7818609E-02  0.8563602E-01
        2   -1    0    0  501    0  0.00000000000E+00  0.00000000000E+00  0.23728104595E+04  0.23728104595E+04  0.25500000920E-02 0. -1.
       -2   -1    0    0    0  501  0.00000000000E+00  0.00000000000E+00 -0.46227622634E+03  0.46227622634E+03  0.25500000920E-02 0.  1.
    10030    2    1    2    0    0  0.00000000000E+00  0.00000000000E+00  0.19105342332E+04  0.28350866859E+04  0.20946540192E+04 0.  0.
        1    1    3    3  502    0 -0.78561528111E+03 -0.46047883504E+03  0.25502667467E+03  0.94565888789E+03  0.50400001928E-02 0. -1.
       -1    1    3    3    0  502  0.78561528111E+03  0.46047883504E+03  0.16555075585E+04  0.18894277980E+04  0.50400001928E-02 0.  1.
</event>
<event>
 5   0  0.1235817E-04  0.2074897E+04  0.7818609E-02  0.8572383E-01
       -2   -1    0    0    0  501  0.00000000000E+00  0.00000000000E+00  0.78584711519E+03  0.78584711520E+03  0.25500000920E-02 0.  1.
        2   -1    0    0  501    0  0.00000000000E+00  0.00000000000E+00 -0.13696034749E+04  0.13696034749E+04  0.25500000920E-02 0. -1.
    10030    2    1    2    0    0  0.00000000000E+00  0.00000000000E+00 -0.58375635970E+03  0.21554505901E+04  0.20748965658E+04 0.  0.
        1    1    3    3  502    0  0.46656234381E+03  0.55424422122E+03  0.47953587667E+03  0.86880477350E+03  0.50400001928E-02 0.  1.
       -1    1    3    3    0  502 -0.46656234381E+03 -0.55424422122E+03 -0.10632922364E+04  0.12866458166E+04  0.50400001928E-02 0. -1.
</event>
<event>
 5   0  0.6263616E-05  0.2125557E+04  0.7818609E-02  0.8550068E-01
       -1   -1    0    0    0  501  0.00000000000E+00  0.00000000000E+00  0.48720937004E+03  0.48720937007E+03  0.50400001928E-02 0.  1.
        1   -1    0    0  501    0  0.00000000000E+00  0.00000000000E+00 -0.23183022638E+04  0.23183022638E+04  0.50400001928E-02 0. -1.
    10030    2    1    2    0    0  0.00000000000E+00  0.00000000000E+00 -0.18310928937E+04  0.28055116338E+04  0.21255574192E+04 0.  0.
        4    1    3    3  502    0  0.69285244804E+03 -0.74710299477E+03 -0.13143415535E+04  0.16630402074E+04  0.12699999809E+01 0. -1.
       -4    1    3    3    0  502 -0.69285244804E+03  0.74710299477E+03 -0.51675134028E+03  0.11424714264E+04  0.12699999809E+01 0.  1.
</event>
<event>
 5   0  0.6221148E-05  0.2090539E+04  0.7818609E-02  0.8565423E-01
        1   -1    0    0  501    0  0.00000000000E+00  0.00000000000E+00  0.12651305060E+04  0.12651305060E+04  0.50400001928E-02 0.  1.
       -1   -1    0    0    0  501  0.00000000000E+00  0.00000000000E+00 -0.86361690501E+03  0.86361690503E+03  0.50400001928E-02 0. -1.
    10030    2    1    2    0    0  0.00000000000E+00  0.00000000000E+00  0.40151360099E+03  0.21287474110E+04  0.20905387746E+04 0.  0.
        3    1    3    3  502    0  0.44530337561E+03 -0.88956770141E+03  0.52749883020E+03  0.11260021393E+04  0.10100000352E+00 0.  1.
       -3    1    3    3    0  502 -0.44530337561E+03  0.88956770141E+03 -0.12598522922E+03  0.10027452717E+04  0.10100000352E+00 0. -1.
</event>
<event>
 5   0  0.1252477E-04  0.2074584E+04  0.7818609E-02  0.8572523E-01
       -2   -1    0    0    0  501  0.00000000000E+00  0.00000000000E+00  0.56014498793E+03  0.56014498793E+03  0.25500000920E-02 0. -1.
        2   -1    0    0  501    0  0.00000000000E+00  0.00000000000E+00 -0.19208860414E+04  0.19208860414E+04  0.25500000920E-02 0.  1.
    10030    2    1    2    0    0  0.00000000000E+00  0.00000000000E+00 -0.13607410534E+04  0.24810310293E+04  0.20745839954E+04 0.  0.
        4    1    3    3  502    0  0.66294564289E+03  0.73715983384E+02  0.26964420779E+03  0.71947243403E+03  0.12699999809E+01 0. -1.
       -4    1    3    3    0  502 -0.66294564289E+03 -0.73715983384E+02 -0.16303852612E+04  0.17615585953E+04  0.12699999809E+01 0.  1.
</event>
<event>
 5   0  0.6263616E-05  0.2092590E+04  0.7818609E-02  0.8564515E-01
       -1   -1    0    0    0  501  0.00000000000E+00  0.00000000000E+00  0.19142478989E+04  0.19142478989E+04  0.50400001928E-02 0. -1.
        1   -1    0    0  501    0  0.00000000000E+00  0.00000000000E+00 -0.57188685402E+03  0.57188685405E+03  0.50400001928E-02 0.  1.
    10030    2    1    2    0    0  0.00000000000E+00  0.00000000000E+00  0.13423610449E+04  0.24861347529E+04  0.20925899825E+04 0.  0.
        4    1    3    3  502    0 -0.64296702820E+03  0.80426366327E+03  0.89180584789E+03  0.13621915881E+04  0.12699999809E+01 0.  1.
       -4    1    3    3    0  502  0.64296702820E+03 -0.80426366327E+03  0.45055519699E+03  0.11239431649E+04  0.12699999809E+01 0. -1.
</event>
<event>
 5   0  0.6052292E-05  0.2059247E+04  0.7818609E-02  0.8579411E-01
       -1   -1    0    0    0  501  0.00000000000E+00  0.00000000000E+00  0.10928743965E+04  0.10928743965E+04  0.50400001928E-02 0. -1.
        1   -1    0    0  501    0  0.00000000000E+00  0.00000000000E+00 -0.97003326986E+03  0.97003326987E+03  0.50400001928E-02 0.  1.
    10030    2    1    2    0    0  0.00000000000E+00  0.00000000000E+00  0.12284112665E+03  0.20629076664E+04  0.20592469734E+04 0.  0.
        1    1    3    3  502    0  0.53364759621E+03  0.87540351685E+03 -0.33687400459E+02  0.10257903856E+04  0.50400001928E-02 0. -1.
       -1    1    3    3    0  502 -0.53364759621E+03 -0.87540351685E+03  0.15652852711E+03  0.10371172808E+04  0.50400001928E-02 0.  1.
</event>
<event>
 5   0  0.5846187E-05  0.1722469E+04  0.7818609E-02  0.8748652E-01
        1   -1    0    0  501    0  0.00000000000E+00  0.00000000000E+00  0.11380729423E+04  0.11380729423E+04  0.50400001928E-02 0. -1.
       -1   -1    0    0    0  501  0.00000000000E+00  0.00000000000E+00 -0.65173722833E+03  0.65173722835E+03  0.50400001928E-02 0.  1.
    10030    2    1    2    0    0  0.00000000000E+00  0.00000000000E+00  0.48633571394E+03  0.17898101706E+04  0.17224685832E+04 0.  0.
        5    1    3    3  502    0 -0.17088551915E+03 -0.68018742593E+03  0.76255540370E+03  0.10360355345E+04  0.46999998093E+01 0. -1.
       -5    1    3    3    0  502  0.17088551915E+03  0.68018742593E+03 -0.27621968976E+03  0.75377463612E+03  0.46999998093E+01 0.  1.
</event>
<event>
 5   0  0.1252477E-04  0.2157035E+04  0.7818609E-02  0.8536527E-01
        2   -1    0    0  501    0  0.00000000000E+00  0.00000000000E+00  0.11287925688E+04  0.11287925688E+04  0.25500000920E-02 0. -1.
       -2   -1    0    0    0  501  0.00000000000E+00  0.00000000000E+00 -0.10304813276E+04  0.10304813276E+04  0.25500000920E-02 0.  1.
    10030    2    1    2    0    0  0.00000000000E+00  0.00000000000E+00  0.98311241244E+02  0.21592738964E+04  0.21570346913E+04 0.  0.
        4    1    3    3  502    0  0.95664198961E+03  0.46937121864E+03 -0.11752493212E+03  0.10720480212E+04  0.12699999809E+01 0.  1.
       -4    1    3    3    0  502 -0.95664198961E+03 -0.46937121864E+03  0.21583617336E+03  0.10872258752E+04  0.12699999809E+01 0. -1.
</event>
<event>
 5   0  0.1349252E-04  0.2118725E+04  0.7818609E-02  0.8553039E-01
       -2   -1    0    0    0  501  0.00000000000E+00  0.00000000000E+00  0.77956751011E+03  0.77956751011E+03  0.25500000920E-02 0. -1.
        2   -1    0    0  501    0  0.00000000000E+00  0.00000000000E+00 -0.14395792865E+04  0.14395792865E+04  0.25500000920E-02 0.  1.
    10030    2    1    2    0    0  0.00000000000E+00  0.00000000000E+00 -0.66001177637E+03  0.22191467966E+04  0.21187253149E+04 0.  0.
        2    1    3    3  502    0 -0.51741830026E+03 -0.61942066405E+03 -0.10487108227E+04  0.13233283970E+04  0.25500000920E-02 0.  1.
       -2    1    3    3    0  502  0.51741830026E+03  0.61942066405E+03  0.38869904634E+03  0.89581839964E+03  0.25500000920E-02 0. -1.
</event>
<event>
 5   0  0.5846187E-05  0.2168726E+04  0.7818609E-02  0.8531559E-01
       -1   -1    0    0    0  501  0.00000000000E+00  0.00000000000E+00  0.68235604236E+03  0.68235604237E+03  0.50400001928E-02 0.  1.
        1   -1    0    0  501    0  0.00000000000E+00  0.00000000000E+00 -0.17232112702E+04  0.17232112702E+04  0.50400001928E-02 0. -1.
    10030    2    1    2    0    0  0.00000000000E+00  0.00000000000E+00 -0.10408552279E+04  0.24055673126E+04  0.21687264673E+04 0.  0.
        5    1    3    3  502    0  0.17740810152E+03  0.89353088673E+03  0.13198099873E+03  0.92049560240E+03  0.46999998093E+01 0.  1.
       -5    1    3    3    0  502 -0.17740810152E+03 -0.89353088673E+03 -0.11728362266E+04  0.14850717102E+04  0.46999998093E+01 0. -1.
</event>
<event>
 5   0  0.6052292E-05  0.2133945E+04  0.7818609E-02  0.8546436E-01
       -1   -1    0    0    0  501  0.00000000000E+00  0.00000000000E+00  0.77684384530E+03  0.77684384532E+03  0.50400001928E-02 0.  1.
        1   -1    0    0  501    0  0.00000000000E+00  0.00000000000E+00 -0.14654560119E+04  0.14654560119E+04  0.50400001928E-02 0. -1.
    10030    2    1    2    0    0  0.00000000000E+00  0.00000000000E+00 -0.68861216655E+03  0.22422998572E+04  0.21339451571E+04 0.  0.
        1    1    3    3  502    0 -0.93766812829E+03  0.44582167989E+03 -0.85951749013E+02  0.10418090959E+04  0.50400001928E-02 0. -1.
       -1    1    3    3    0  502  0.93766812829E+03 -0.44582167989E+03 -0.60266041754E+03  0.12004907613E+04  0.50400001928E-02 0.  1.
</event>
<event>
 5   0  0.1281470E-04  0.2099268E+04  0.7818609E-02  0.8561566E-01
       -2   -1    0    0    0  501  0.00000000000E+00  0.00000000000E+00  0.52214540454E+03  0.52214540454E+03  0.25500000920E-02 0. -1.
        2   -1    0    0  501    0  0.00000000000E+00  0.00000000000E+00 -0.21100093857E+04  0.21100093857E+04  0.25500000920E-02 0.  1.
    10030    2    1    2    0    0  0.00000000000E+00  0.00000000000E+00 -0.15878639811E+04  0.26321547902E+04  0.20992681623E+04 0.  0.
        3    1    3    3  502    0 -0.49374680828E+03  0.55990863795E+03  0.13123845246E+03  0.75796248927E+03  0.10100000352E+00 0. -1.
       -3    1    3    3    0  502  0.49374680828E+03 -0.55990863795E+03 -0.17191024336E+04  0.18741923009E+04  0.10100000352E+00 0.  1.
</event>
<event>
 5   0  0.1252477E-04  0.2084523E+04  0.7818609E-02  0.8568092E-01
       -2   -1    0    0    0  501  0.00000000000E+00  0.00000000000E+00  0.12211953855E+04  0.12211953855E+04  0.25500000920E-02 0. -1.
        2   -1    0    0  501    0  0.00000000000E+00  0.00000000000E+00 -0.88954547221E+03  0.88954547222E+03  0.25500000920E-02 0.  1.
    10030    2    1    2    0    0  0.00000000000E+00  0.00000000000E+00  0.33164991331E+03  0.21107408577E+04  0.20845228000E+04 0.  0.
        4    1    3    3  502    0  0.83017089773E+03  0.44464822758E+03 -0.28634667276E+03  0.98432301386E+03  0.12699999809E+01 0.  1.
       -4    1    3    3    0  502 -0.83017089773E+03 -0.44464822758E+03  0.61799658607E+03  0.11264178439E+04  0.12699999809E+01 0. -1.
</event>
<event>
 5   0  0.1252477E-04  0.2125390E+04  0.7818609E-02  0.8550141E-01
       -2   -1    0    0    0  501  0.00000000000E+00  0.00000000000E+00  0.99342168467E+03  0.99342168467E+03  0.25500000920E-02 0.  1.
        2   -1    0    0  501    0  0.00000000000E+00  0.00000000000E+00 -0.11367985994E+04  0.11367985994E+04  0.25500000920E-02 0. -1.
    10030    2    1    2    0    0  0.00000000000E+00  0.00000000000E+00 -0.14337691474E+03  0.21302202841E+04  0.21253897334E+04 0.  0.
        4    1    3    3  502    0  0.14735002791E+03 -0.96701928651E+03 -0.48794000146E+03  0.10931264287E+04  0.12699999809E+01 0. -1.
       -4    1    3    3    0  502 -0.14735002791E+03  0.96701928651E+03  0.34456308672E+03  0.10370938554E+04  0.12699999809E+01 0.  1.
</event>
<event>
 5   0  0.6221148E-05  0.2063612E+04  0.7818609E-02  0.8577444E-01
       -1   -1    0    0    0  501  0.00000000000E+00  0.00000000000E+00  0.12201258050E+04  0.12201258050E+04  0.50400001928E-02 0. -1.
        1   -1    0    0  501    0  0.00000000000E+00  0.00000000000E+00 -0.87255223605E+03  0.87255223607E+03  0.50400001928E-02 0.  1.
    10030    2    1    2    0    0  0.00000000000E+00  0.00000000000E+00  0.34757356893E+03  0.20926780411E+04  0.20636118816E+04 0.  0.
        3    1    3    3  502    0 -0.19624001419E+03  0.97139352704E+03  0.46507460534E+03  0.10947191084E+04  0.10100000352E+00 0. -1.
       -3    1    3    3    0  502  0.19624001419E+03 -0.97139352704E+03 -0.11750103641E+03  0.99795893267E+03  0.10100000352E+00 0.  1.
</event>
<event>
 5   0  0.6221148E-05  0.2081763E+04  0.7818609E-02  0.8569320E-01
       -1   -1    0    0    0  501  0.00000000000E+00  0.00000000000E+00  0.69981972599E+03  0.69981972601E+03  0.50400001928E-02 0.  1.
        1   -1    0    0  501    0  0.00000000000E+00  0.00000000000E+00 -0.15481620397E+04  0.15481620397E+04  0.50400001928E-02 0. -1.
    10030    2    1    2    0    0  0.00000000000E+00  0.00000000000E+00 -0.84834231373E+03  0.22479817657E+04  0.20817630359E+04 0.  0.
        3    1    3    3  502    0 -0.34693857170E+03 -0.73970730991E+03 -0.11205675263E+04  0.13867966210E+04  0.10100000352E+00 0. -1.
       -3    1    3    3    0  502  0.34693857170E+03  0.73970730991E+03  0.27222521261E+03  0.86118514469E+03  0.10100000352E+00 0.  1.
</event>
<event>
 5   0  0.6052292E-05  0.2077728E+04  0.7818609E-02  0.8571118E-01
       -1   -1    0    0    0  501  0.00000000000E+00  0.00000000000E+00  0.13981440593E+04  0.13981440593E+04  0.50400001928E-02 0.  1.
        1   -1    0    0  501    0  0.00000000000E+00  0.00000000000E+00 -0.77190801353E+03  0.77190801355E+03  0.50400001928E-02 0. -1.
    10030    2    1    2    0    0  0.00000000000E+00  0.00000000000E+00  0.62623604574E+03  0.21700520728E+04  0.20777281857E+04 0.  0.
        1    1    3    3  502    0 -0.10849321068E+03 -0.47819468786E+03 -0.64343716407E+03  0.80898227446E+03  0.50400001928E-02 0. -1.
       -1    1    3    3    0  502  0.10849321068E+03  0.47819468786E+03  0.12696732098E+04  0.13610697984E+04  0.50400001928E-02 0.  1.
</event>
<event>
 5   0  0.5933905E-05  0.1823205E+04  0.7818609E-02  0.8694056E-01
       -1   -1    0    0    0  501  0.00000000000E+00  0.00000000000E+00  0.55206187471E+03  0.55206187473E+03  0.50400001928E-02 0. -1.
        1   -1    0    0  501    0  0.00000000000E+00  0.00000000000E+00 -0.15053011788E+04  0.15053011788E+04  0.50400001928E-02 0.  1.
    10030    2    1    2    0    0  0.00000000000E+00  0.00000000000E+00 -0.95323930411E+03  0.20573630536E+04  0.18232052993E+04 0.  0.
        2    1    3    3  502    0 -0.70872859951E+03  0.19774661478E+03 -0.10838999846E+04  0.13100531012E+04  0.25500000920E-02 0.  1.
       -2    1    3    3    0  502  0.70872859951E+03 -0.19774661478E+03  0.13066068048E+03  0.74730995233E+03  0.25500000920E-02 0. -1.
</event>
<event>
 5   0  0.1281470E-04  0.1536908E+04  0.7818609E-02  0.8860274E-01
        2   -1    0    0  501    0  0.00000000000E+00  0.00000000000E+00  0.16911850806E+04  0.16911850806E+04  0.25500000920E-02 0.  1.
       -2   -1    0    0    0  501  0.00000000000E+00  0.00000000000E+00 -0.34917610162E+03  0.34917610163E+03  0.25500000920E-02 0. -1.
    10030    2    1    2    0    0  0.00000000000E+00  0.00000000000E+00  0.13420089790E+04  0.20403611823E+04  0.15369078223E+04 0.  0.
        3    1    3    3  502    0  0.28835649393E+03  0.70096780858E+03  0.50299370041E+03  0.90967467213E+03  0.10100000352E+00 0.  1.
       -3    1    3    3    0  502 -0.28835649393E+03 -0.70096780858E+03  0.83901527860E+03  0.11306865101E+04  0.10100000352E+00 0. -1.
</event>
<event>
 5   0  0.1281470E-04  0.1644615E+04  0.7818609E-02  0.8793599E-01
       -2   -1    0    0    0  501  0.00000000000E+00  0.00000000000E+00  0.63957923255E+03  0.63957923255E+03  0.25500000920E-02 0. -1.
        2   -1    0    0  501    0  0.00000000000E+00  0.00000000000E+00 -0.10572407616E+04  0.10572407616E+04  0.25500000920E-02 0.  1.
    10030    2    1    2    0    0  0.00000000000E+00  0.00000000000E+00 -0.41766152903E+03  0.16968199941E+04  0.16446145262E+04 0.  0.
        3    1    3    3  502    0 -0.33706184624E+03 -0.25807627890E+03 -0.93544118002E+03  0.10272605635E+04  0.10100000352E+00 0.  1.
       -3    1    3    3    0  502  0.33706184624E+03  0.25807627890E+03  0.51777965099E+03  0.66955943060E+03  0.10100000352E+00 0. -1.
</event>
<event>
 5   0  0.6221148E-05  0.2141823E+04  0.7818609E-02  0.8543041E-01
       -1   -1    0    0    0  501  0.00000000000E+00  0.00000000000E+00  0.83682881133E+03  0.83682881135E+03  0.50400001928E-02 0. -1.
        1   -1    0    0  501    0  0.00000000000E+00  0.00000000000E+00 -0.13704730251E+04  0.13704730251E+04  0.50400001928E-02 0.  1.
    10030    2    1    2    0    0  0.00000000000E+00  0.00000000000E+00 -0.53364421374E+03  0.22073018364E+04  0.21418228802E+04 0.  0.
        3    1    3    3  502    0 -0.51805558253E+03 -0.48323976549E+02  0.69781411215E+03  0.87043744095E+03  0.10100000352E+00 0. -1.
       -3    1    3    3    0  502  0.51805558253E+03  0.48323976549E+02 -0.12314583259E+04  0.13368643955E+04  0.10100000352E+00 0.  1.
</event>
<event>
 5   0  0.1252477E-04  0.2108219E+04  0.7818609E-02  0.8557632E-01
        2   -1    0    0  501    0  0.00000000000E+00  0.00000000000E+00  0.11398907949E+04  0.11398907949E+04  0.25500000920E-02 0. -1.
       -2   -1    0    0    0  501  0.00000000000E+00  0.00000000000E+00 -0.97478316116E+03  0.97478316116E+03  0.25500000920E-02 0.  1.
    10030    2    1    2    0    0  0.00000000000E+00  0.00000000000E+00  0.16510763374E+03  0.21146739561E+04  0.21082185394E+04 0.  0.
        4    1    3    3  502    0 -0.40546159531E+03  0.95574797143E+03  0.26557195800E+03  0.10716265058E+04  0.12699999809E+01 0.  1.
       -4    1    3    3    0  502  0.40546159531E+03 -0.95574797143E+03 -0.10046432426E+03  0.10430474503E+04  0.12699999809E+01 0. -1.
</event>
<event>
 5   0  0.1235817E-04  0.2104446E+04  0.7818609E-02  0.8559287E-01
       -2   -1    0    0    0  501  0.00000000000E+00  0.00000000000E+00  0.71178856077E+03  0.71178856077E+03  0.25500000920E-02 0. -1.
        2   -1    0    0  501    0  0.00000000000E+00  0.00000000000E+00 -0.15554811086E+04  0.15554811086E+04  0.25500000920E-02 0.  1.
    10030    2    1    2    0    0  0.00000000000E+00  0.00000000000E+00 -0.84369254785E+03  0.22672696694E+04  0.21044463972E+04 0.  0.
        1    1    3    3  502    0  0.57409659869E+03 -0.97536370130E+02  0.52235955183E+03  0.78227856262E+03  0.50400001928E-02 0. -1.
       -1    1    3    3    0  502 -0.57409659869E+03  0.97536370130E+02 -0.13660520997E+04  0.14849911068E+04  0.50400001928E-02 0.  1.
</event>
<event>
 5   0  0.1252477E-04  0.2164708E+04  0.7818609E-02  0.8533263E-01
        2   -1    0    0  501    0  0.00000000000E+00  0.00000000000E+00  0.19956425419E+04  0.19956425419E+04  0.25500000920E-02 0. -1.
       -2   -1    0    0    0  501  0.00000000000E+00  0.00000000000E+00 -0.58702415490E+03  0.58702415491E+03  0.25500000920E-02 0.  1.
    10030    2    1    2    0    0  0.00000000000E+00  0.00000000000E+00  0.14086183870E+04  0.25826666968E+04  0.21647081805E+04 0.  0.
        4    1    3    3  502    0  0.54120807209E+03  0.89965148123E+03  0.39043703268E+03  0.11201435865E+04  0.12699999809E+01 0. -1.
       -4    1    3    3    0  502 -0.54120807209E+03 -0.89965148123E+03  0.10181813543E+04  0.14625231103E+04  0.12699999809E+01 0.  1.
</event>
<event>
 5   0  0.5846187E-05  0.2103843E+04  0.7818609E-02  0.8559553E-01
       -1   -1    0    0    0  501  0.00000000000E+00  0.00000000000E+00  0.72763269116E+03  0.72763269118E+03  0.50400001928E-02 0. -1.
        1   -1    0    0  501    0  0.00000000000E+00  0.00000000000E+00 -0.15207377220E+04  0.15207377220E+04  0.50400001928E-02 0.  1.
    10030    2    1    2    0    0  0.00000000000E+00  0.00000000000E+00 -0.79310503084E+03  0.22483704132E+04  0.21038426569E+04 0.  0.
        5    1    3    3  502    0  0.17437182684E+03 -0.70299534890E+03  0.41868079597E+03  0.83661442342E+03  0.46999998093E+01 0. -1.
       -5    1    3    3    0  502 -0.17437182684E+03  0.70299534890E+03 -0.12117858268E+04  0.14117559898E+04  0.46999998093E+01 0.  1.
</event>
<event>
 5   0  0.1235817E-04  0.2085138E+04  0.7818609E-02  0.8567818E-01
       -2   -1    0    0    0  501  0.00000000000E+00  0.00000000000E+00  0.74034881517E+03  0.74034881518E+03  0.25500000920E-02 0. -1.
        2   -1    0    0  501    0  0.00000000000E+00  0.00000000000E+00 -0.14681601348E+04  0.14681601348E+04  0.25500000920E-02 0.  1.
    10030    2    1    2    0    0  0.00000000000E+00  0.00000000000E+00 -0.72781131965E+03  0.22085089500E+04  0.20851384763E+04 0.  0.
        1    1    3    3  502    0 -0.58815346346E+01 -0.48989508892E+03  0.61082618463E+03  0.78303283358E+03  0.50400001928E-02 0. -1.
       -1    1    3    3    0  502  0.58815346346E+01  0.48989508892E+03 -0.13386375043E+04  0.14254761164E+04  0.50400001928E-02 0.  1.
</event>
<event>
 5   0  0.1281470E-04  0.1963379E+04  0.7818609E-02  0.8623936E-01
        2   -1    0    0  501    0  0.00000000000E+00  0.00000000000E+00  0.11730610092E+04  0.11730610092E+04  0.25500000920E-02 0.  1.
       -2   -1    0    0    0  501  0.00000000000E+00  0.00000000000E+00 -0.82153788883E+03  0.82153788883E+03  0.25500000920E-02 0. -1.
    10030    2    1    2    0    0  0.00000000000E+00  0.00000000000E+00  0.35152312032E+03  0.19945988980E+04  0.19633787866E+04 0.  0.
        3    1    3    3  502    0  0.62643499284E+03  0.43682356250E+03  0.80239923302E+03  0.11077365049E+04  0.10100000352E+00 0.  1.
       -3    1    3    3    0  502 -0.62643499284E+03 -0.43682356250E+03 -0.45087611270E+03  0.88686239305E+03  0.10100000352E+00 0. -1.
</event>
<event>
 5   0  0.6263616E-05  0.2102427E+04  0.7818609E-02  0.8560175E-01
        1   -1    0    0  501    0  0.00000000000E+00  0.00000000000E+00  0.12013636257E+04  0.12013636257E+04  0.50400001928E-02 0.  1.
       -1   -1    0    0    0  501  0.00000000000E+00  0.00000000000E+00 -0.91982916829E+03  0.91982916830E+03  0.50400001928E-02 0. -1.
    10030    2    1    2    0    0  0.00000000000E+00  0.00000000000E+00  0.28153445739E+03  0.21211927940E+04  0.21024265073E+04 0.  0.
        4    1    3    3  502    0  0.89169069305E+03  0.74487557918E+02  0.69740461501E+03  0.11344758694E+04  0.12699999809E+01 0.  1.
       -4    1    3    3    0  502 -0.89169069305E+03 -0.74487557918E+02 -0.41587015762E+03  0.98671692458E+03  0.12699999809E+01 0. -1.
</event>
<event>
 5   0  0.1325673E-04  0.2124453E+04  0.7818609E-02  0.8550547E-01
        2   -1    0    0  501    0  0.00000000000E+00  0.00000000000E+00  0.14288194203E+04  0.14288194203E+04  0.25500000920E-02 0.  1.
       -2   -1    0    0    0  501  0.00000000000E+00  0.00000000000E+00 -0.78969074724E+03  0.78969074725E+03  0.25500000920E-02 0. -1.
    10030    2    1    2    0    0  0.00000000000E+00  0.00000000000E+00  0.63912867308E+03  0.22185101676E+04  0.21244533186E+04 0.  0.
        5    1    3    3  502    0 -0.17639123690E+03 -0.59828916226E+03 -0.57829197775E+03  0.85059243569E+03  0.46999998093E+01 0. -1.
       -5    1    3    3    0  502  0.17639123690E+03  0.59828916226E+03  0.12174206508E+04  0.13679177319E+04  0.46999998093E+01 0.  1.
</event>
<event>
 5   0  0.1349252E-04  0.2013245E+04  0.7818609E-02  0.8600453E-01
       -2   -1    0    0    0  501  0.00000000000E+00  0.00000000000E+00  0.81848157840E+03  0.81848157840E+03  0.25500000920E-02 0.  1.
        2   -1    0    0  501    0  0.00000000000E+00  0.00000000000E+00 -0.12380111555E+04  0.12380111555E+04  0.25500000920E-02 0. -1.
    10030    2    1    2    0    0  0.00000000000E+00  0.00000000000E+00 -0.41952957713E+03  0.20564927339E+04  0.20132454641E+04 0.  0.
        2    1    3    3  502    0 -0.22274375620E+03  0.89441558458E+03 -0.62304876066E+03  0.11125573140E+04  0.25500000920E-02 0.  1.
       -2    1    3    3    0  502  0.22274375620E+03 -0.89441558458E+03  0.20351918353E+03  0.94393541989E+03  0.25500000920E-02 0. -1.
</event>
<event>
 5   0  0.1349252E-04  0.2195979E+04  0.7818609E-02  0.8520104E-01
        2   -1    0    0  501    0  0.00000000000E+00  0.00000000000E+00  0.69150713955E+03  0.69150713956E+03  0.25500000920E-02 0. -1.
       -2   -1    0    0    0  501  0.00000000000E+00  0.00000000000E+00 -0.17434102575E+04  0.17434102575E+04  0.25500000920E-02 0.  1.
    10030    2    1    2    0    0  0.00000000000E+00  0.00000000000E+00 -0.10519031179E+04  0.24349173970E+04  0.21959787250E+04 0.  0.
        2    1    3    3  502    0  0.73631801435E+03 -0.32677739141E+03  0.30130565510E+03  0.86007719397E+03  0.25500000920E-02 0. -1.
       -2    1    3    3    0  502 -0.73631801435E+03  0.32677739141E+03 -0.13532087730E+04  0.15748402031E+04  0.25500000920E-02 0.  1.
</event>
<event>
 5   0  0.6221148E-05  0.2113477E+04  0.7818609E-02  0.8555330E-01
        1   -1    0    0  501    0  0.00000000000E+00  0.00000000000E+00  0.11769600627E+04  0.11769600627E+04  0.50400001928E-02 0. -1.
       -1   -1    0    0    0  501  0.00000000000E+00  0.00000000000E+00 -0.94879691445E+03  0.94879691446E+03  0.50400001928E-02 0.  1.
    10030    2    1    2    0    0  0.00000000000E+00  0.00000000000E+00  0.22816314821E+03  0.21257569771E+04  0.21134768283E+04 0.  0.
        3    1    3    3  502    0  0.30906330802E+03 -0.35910712186E+03  0.10641428479E+04  0.11648510911E+04  0.10100000352E+00 0. -1.
       -3    1    3    3    0  502 -0.30906330802E+03  0.35910712186E+03 -0.83597969972E+03  0.96090588607E+03  0.10100000352E+00 0.  1.
</event>
<event>
 5   0  0.5933905E-05  0.2078932E+04  0.7818609E-02  0.8570581E-01
        1   -1    0    0  501    0  0.00000000000E+00  0.00000000000E+00  0.12622921667E+04  0.12622921667E+04  0.50400001928E-02 0. -1.
       -1   -1    0    0    0  501  0.00000000000E+00  0.00000000000E+00 -0.85597398813E+03  0.85597398815E+03  0.50400001928E-02 0.  1.
    10030    2    1    2    0    0  0.00000000000E+00  0.00000000000E+00  0.40631817855E+03  0.21182661548E+04  0.20789317066E+04 0.  0.
        2    1    3    3  502    0 -0.96363813060E+03  0.38283915408E+03  0.27751233410E+03  0.10733952488E+04  0.25500000920E-02 0. -1.
       -2    1    3    3    0  502  0.96363813060E+03 -0.38283915408E+03  0.12880584445E+03  0.10448709060E+04  0.25500000920E-02 0.  1.
</event>
<event>
 5   0  0.1235817E-04  0.2083314E+04  0.7818609E-02  0.8568629E-01
       -2   -1    0    0    0  501  0.00000000000E+00  0.00000000000E+00  0.91990001668E+03  0.91990001669E+03  0.25500000920E-02 0.  1.
        2   -1    0    0  501    0  0.00000000000E+00  0.00000000000E+00 -0.11795301702E+04  0.11795301702E+04  0.25500000920E-02 0. -1.
    10030    2    1    2    0    0  0.00000000000E+00  0.00000000000E+00 -0.25963015352E+03  0.20994301869E+04  0.20833144969E+04 0.  0.
        1    1    3    3  502    0 -0.17560493902E+03  0.10598279800E+03 -0.11589792750E+04  0.11769887034E+04  0.50400001928E-02 0. -1.
       -1    1    3    3    0  502  0.17560493902E+03 -0.10598279800E+03  0.89934912148E+03  0.92244148347E+03  0.50400001928E-02 0.  1.
</event>
<event>
 5   0  0.4615125E-05  0.2057657E+04  0.7818609E-02  0.8580129E-01
        4   -1    0    0  501    0  0.00000000000E+00  0.00000000000E+00  0.14607896635E+04  0.14607902156E+04  0.12699999809E+01 0. -1.
       -4   -1    0    0    0  501  0.00000000000E+00  0.00000000000E+00 -0.72459874556E+03  0.72459985852E+03  0.12699999809E+01 0.  1.
    10030    2    1    2    0    0  0.00000000000E+00  0.00000000000E+00  0.73619091795E+03  0.21853900741E+04  0.20576570920E+04 0.  0.
        5    1    3    3  502    0  0.85161344716E+03  0.20117340490E+03 -0.20655575866E+03  0.89911265905E+03  0.46999998093E+01 0.  1.
       -5    1    3    3    0  502 -0.85161344716E+03 -0.20117340490E+03  0.94274667661E+03  0.12862774151E+04  0.46999998093E+01 0. -1.
</event>
<event>
 5   0  0.5846187E-05  0.2105084E+04  0.7818609E-02  0.8559007E-01
       -1   -1    0    0    0  501  0.00000000000E+00  0.00000000000E+00  0.52788361363E+03  0.52788361366E+03  0.50400001928E-02 0.  1.
        1   -1    0    0  501    0  0.00000000000E+00  0.00000000000E+00 -0.20986532200E+04  0.20986532200E+04  0.50400001928E-02 0. -1.
    10030    2    1    2    0    0  0.00000000000E+00  0.00000000000E+00 -0.15707696064E+04  0.26265368337E+04  0.21050839846E+04 0.  0.
        5    1    3    3  502    0  0.73061609573E+03 -0.73128975240E+03 -0.10325386404E+04  0.14610758759E+04  0.46999998093E+01 0. -1.
       -5    1    3    3    0  502 -0.73061609573E+03  0.73128975240E+03 -0.53823096598E+03  0.11654609578E+04  0.46999998093E+01 0.  1.
</event>
<event>
 5   0  0.1325673E-04  0.2062735E+04  0.7818609E-02  0.8577839E-01
       -2   -1    0    0    0  501  0.00000000000E+00  0.00000000000E+00  0.16499949596E+04  0.16499949596E+04  0.25500000920E-02 0.  1.
        2   -1    0    0  501    0  0.00000000000E+00  0.00000000000E+00 -0.64468031277E+03  0.64468031277E+03  0.25500000920E-02 0. -1.
    10030    2    1    2    0    0  0.00000000000E+00  0.00000000000E+00  0.10053146469E+04  0.22946752724E+04  0.20627353360E+04 0.  0.
        5    1    3    3  502    0 -0.70794738093E+03  0.15139856860E+03 -0.31450460852E+03  0.78933279389E+03  0.46999998093E+01 0. -1.
       -5    1    3    3    0  502  0.70794738093E+03 -0.15139856860E+03  0.13198192554E+04  0.15053424785E+04  0.46999998093E+01 0.  1.
</event>
<event>
 5   0  0.5933905E-05  0.2072034E+04  0.7818609E-02  0.8573664E-01
       -1   -1    0    0    0  501  0.00000000000E+00  0.00000000000E+00  0.11178090799E+04  0.11178090799E+04  0.50400001928E-02 0. -1.
        1   -1    0    0  501    0  0.00000000000E+00  0.00000000000E+00 -0.96020954719E+03  0.96020954720E+03  0.50400001928E-02 0.  1.
    10030    2    1    2    0    0  0.00000000000E+00  0.00000000000E+00  0.15759953274E+03  0.20780186271E+04  0.20720337357E+04 0.  0.
        2    1    3    3  502    0 -0.25603389948E+01 -0.64398639017E+03 -0.73508970548E+03  0.97728291767E+03  0.25500000920E-02 0.  1.
       -2    1    3    3    0  502  0.25603389948E+01  0.64398639017E+03  0.89268923822E+03  0.11007357095E+04  0.25500000920E-02 0. -1.
</event>
<event>
 5   0  0.6221148E-05  0.2131081E+04  0.7818609E-02  0.8547674E-01
       -1   -1    0    0    0  501  0.00000000000E+00  0.00000000000E+00  0.44073585477E+03  0.44073585480E+03  0.50400001928E-02 0.  1.
        1   -1    0    0  501    0  0.00000000000E+00  0.00000000000E+00 -0.25760934826E+04  0.25760934826E+04  0.50400001928E-02 0. -1.
    10030    2    1    2    0    0  0.00000000000E+00  0.00000000000E+00 -0.21353576278E+04  0.30168293374E+04  0.21310811933E+04 0.  0.
        3    1    3    3  502    0  0.13431230129E+03 -0.71116220103E+03  0.39401833779E+02  0.72480617075E+03  0.10100000352E+00 0.  1.
       -3    1    3    3    0  502 -0.13431230129E+03  0.71116220103E+03 -0.21747594616E+04  0.22920231667E+04  0.10100000352E+00 0. -1.
</event>
<event>
 5   0  0.5846187E-05  0.2096600E+04  0.7818609E-02  0.8562742E-01
       -1   -1    0    0    0  501  0.00000000000E+00  0.00000000000E+00  0.12990102422E+04  0.12990102422E+04  0.50400001928E-02 0.  1.
        1   -1    0    0  501    0  0.00000000000E+00  0.00000000000E+00 -0.84597738735E+03  0.84597738737E+03  0.50400001928E-02 0. -1.
    10030    2    1    2    0    0  0.00000000000E+00  0.00000000000E+00  0.45303285481E+03  0.21449876295E+04  0.20966003824E+04 0.  0.
        5    1    3    3  502    0  0.73899626734E+03  0.48867591894E+03  0.79979818355E+03  0.11935739865E+04  0.46999998093E+01 0.  1.
       -5    1    3    3    0  502 -0.73899626734E+03 -0.48867591894E+03 -0.34676532874E+03  0.95141364301E+03  0.46999998093E+01 0. -1.
</event>
<event>
 5   0  0.1349252E-04  0.1904590E+04  0.7818609E-02  0.8652575E-01
        2   -1    0    0  501    0  0.00000000000E+00  0.00000000000E+00  0.21824584567E+04  0.21824584567E+04  0.25500000920E-02 0. -1.
       -2   -1    0    0    0  501  0.00000000000E+00  0.00000000000E+00 -0.41552492361E+03  0.41552492362E+03  0.25500000920E-02 0.  1.
    10030    2    1    2    0    0  0.00000000000E+00  0.00000000000E+00  0.17669335331E+04  0.25979833803E+04  0.19045901223E+04 0.  0.
        2    1    3    3  502    0 -0.69301579061E+03  0.50014587601E+03  0.31048003557E+03  0.90929348168E+03  0.25500000920E-02 0.  1.
       -2    1    3    3    0  502  0.69301579061E+03 -0.50014587601E+03  0.14564534975E+04  0.16886898986E+04  0.25500000920E-02 0. -1.
</event>
<event>
 5   0  0.1235817E-04  0.2103485E+04  0.7818609E-02  0.8559710E-01
       -2   -1    0    0    0  501  0.00000000000E+00  0.00000000000E+00  0.68603114951E+03  0.68603114951E+03  0.25500000920E-02 0.  1.
        2   -1    0    0  501    0  0.00000000000E+00  0.00000000000E+00 -0.16124078986E+04  0.16124078986E+04  0.25500000920E-02 0. -1.
    10030    2    1    2    0    0  0.00000000000E+00  0.00000000000E+00 -0.92637674907E+03  0.22984390481E+04  0.21034847697E+04 0.  0.
        1    1    3    3  502    0  0.96785754117E+02 -0.10359336259E+04 -0.29519916472E+03  0.10815121388E+04  0.50400001928E-02 0.  1.
       -1    1    3    3    0  502 -0.96785754117E+02  0.10359336259E+04 -0.63117758435E+03  0.12169269093E+04  0.50400001928E-02 0. -1.
</event>
<event>
 5   0  0.6221148E-05  0.2013997E+04  0.7818609E-02  0.8600104E-01
        1   -1    0    0  501    0  0.00000000000E+00  0.00000000000E+00  0.13735529227E+04  0.13735529227E+04  0.50400001928E-02 0. -1.
       -1   -1    0    0    0  501  0.00000000000E+00  0.00000000000E+00 -0.73826519656E+03  0.73826519658E+03  0.50400001928E-02 0.  1.
    10030    2    1    2    0    0  0.00000000000E+00  0.00000000000E+00  0.63528772615E+03  0.21118181193E+04  0.20139973371E+04 0.  0.
        3    1    3    3  502    0  0.49776077899E+03  0.37848745570E+03  0.11453026288E+04  0.13048895237E+04  0.10100000352E+00 0. -1.
       -3    1    3    3    0  502 -0.49776077899E+03 -0.37848745570E+03 -0.51001490269E+03  0.80692859560E+03  0.10100000352E+00 0.  1.
</event>
<event>
 5   0  0.1235817E-04  0.2050907E+04  0.7818609E-02  0.8583183E-01
        2   -1    0    0  501    0  0.00000000000E+00  0.00000000000E+00  0.11432477826E+04  0.11432477826E+04  0.25500000920E-02 0. -1.
       -2   -1    0    0    0  501  0.00000000000E+00  0.00000000000E+00 -0.91979570124E+03  0.91979570124E+03  0.25500000920E-02 0.  1.
    10030    2    1    2    0    0  0.00000000000E+00  0.00000000000E+00  0.22345208141E+03  0.20630434839E+04  0.20509065273E+04 0.  0.
        1    1    3    3  502    0 -0.43217861149E+03 -0.55050614597E+03 -0.64218843483E+03  0.94986386121E+03  0.50400001928E-02 0.  1.
       -1    1    3    3    0  502  0.43217861149E+03  0.55050614597E+03  0.86564051624E+03  0.11131796227E+04  0.50400001928E-02 0. -1.
</event>
<event>
 5   0  0.1235817E-04  0.2095763E+04  0.7818609E-02  0.8563112E-01
       -2   -1    0    0    0  501  0.00000000000E+00  0.00000000000E+00  0.61951854693E+03  0.61951854694E+03  0.25500000920E-02 0. -1.
        2   -1    0    0  501    0  0.00000000000E+00  0.00000000000E+00 -0.17724331457E+04  0.17724331457E+04  0.25500000920E-02 0.  1.
    10030    2    1    2    0    0  0.00000000000E+00  0.00000000000E+00 -0.11529145988E+04  0.23919516926E+04  0.20957625886E+04 0.  0.
        1    1    3    3  502    0 -0.75835298872E+02 -0.92629459092E+03 -0.11288911569E+04  0.14622475529E+04  0.50400001928E-02 0.  1.
       -1    1    3    3    0  502  0.75835298872E+02  0.92629459092E+03 -0.24023441861E+02  0.92970413977E+03  0.50400001928E-02 0. -1.
</event>
<event>
 5   0  0.1325673E-04  0.2077039E+04  0.7818609E-02  0.8571426E-01
       -2   -1    0    0    0  501  0.00000000000E+00  0.00000000000E+00  0.11180571334E+04  0.11180571334E+04  0.25500000920E-02 0. -1.
        2   -1    0    0  501    0  0.00000000000E+00  0.00000000000E+00 -0.96464036712E+03  0.96464036712E+03  0.25500000920E-02 0.  1.
    10030    2    1    2    0    0  0.00000000000E+00  0.00000000000E+00  0.15341676625E+03  0.20826975005E+04  0.20770392809E+04 0.  0.
        5    1    3    3  502    0 -0.84518083495E+03 -0.45527795996E+03 -0.32046696556E+03  0.10120918094E+04  0.46999998093E+01 0.  1.
       -5    1    3    3    0  502  0.84518083495E+03  0.45527795996E+03  0.47388373181E+03  0.10706056911E+04  0.46999998093E+01 0. -1.
</event>
<event>
 5   0  0.1235817E-04  0.2059012E+04  0.7818609E-02  0.8579517E-01
        2   -1    0    0  501    0  0.00000000000E+00  0.00000000000E+00  0.13414932529E+04  0.13414932529E+04  0.25500000920E-02 0. -1.
       -2   -1    0    0    0  501  0.00000000000E+00  0.00000000000E+00 -0.79007696582E+03  0.79007696582E+03  0.25500000920E-02 0.  1.
    10030    2    1    2    0    0  0.00000000000E+00  0.00000000000E+00  0.55141628706E+03  0.21315702187E+04  0.20590123058E+04 0.  0.
        1    1    3    3  502    0 -0.86479197440E+03 -0.17109024539E+02  0.85370642494E+03  0.12153075898E+04  0.50400001928E-02 0. -1.
       -1    1    3    3    0  502  0.86479197440E+03  0.17109024539E+02 -0.30229013788E+03  0.91626262894E+03  0.50400001928E-02 0.  1.
</event>
<event>
 5   0  0.6052292E-05  0.2072379E+04  0.7818609E-02  0.8573509E-01
        1   -1    0    0  501    0  0.00000000000E+00  0.00000000000E+00  0.16324923954E+04  0.16324923954E+04  0.50400001928E-02 0. -1.
       -1   -1    0    0    0  501  0.00000000000E+00  0.00000000000E+00 -0.65769921036E+03  0.65769921038E+03  0.50400001928E-02 0.  1.
    10030    2    1    2    0    0  0.00000000000E+00  0.00000000000E+00  0.97479318505E+03  0.22901916058E+04  0.20723792697E+04 0.  0.
        1    1    3    3  502    0 -0.75613211659E+03  0.37406542292E+03 -0.17753015643E+03  0.86207753412E+03  0.50400001928E-02 0.  1.
       -1    1    3    3    0  502  0.75613211659E+03 -0.37406542292E+03  0.11523233415E+04  0.14281140717E+04  0.50400001928E-02 0. -1.
</event>
<event>
 5   0  0.6052292E-05  0.2095896E+04  0.7818609E-02  0.8563054E-01
        1   -1    0    0  501    0  0.00000000000E+00  0.00000000000E+00  0.12891547822E+04  0.12891547822E+04  0.50400001928E-02 0. -1.
       -1   -1    0    0    0  501  0.00000000000E+00  0.00000000000E+00 -0.85187186943E+03  0.85187186945E+03  0.50400001928E-02 0.  1.
    10030    2    1    2    0    0  0.00000000000E+00  0.00000000000E+00  0.43728291280E+03  0.21410266517E+04  0.20958956981E+04 0.  0.
        1    1    3    3  502    0  0.33089402234E+03 -0.49199211176E+03  0.11013355988E+04  0.12507946247E+04  0.50400001928E-02 0. -1.
       -1    1    3    3    0  502 -0.33089402234E+03  0.49199211176E+03 -0.66405268598E+03  0.89023202697E+03  0.50400001928E-02 0.  1.
</event>
<event>
 5   0  0.6052292E-05  0.2156754E+04  0.7818609E-02  0.8536647E-01
        1   -1    0    0  501    0  0.00000000000E+00  0.00000000000E+00  0.16940730174E+04  0.16940730174E+04  0.50400001928E-02 0.  1.
       -1   -1    0    0    0  501  0.00000000000E+00  0.00000000000E+00 -0.68645057733E+03  0.68645057735E+03  0.50400001928E-02 0. -1.
    10030    2    1    2    0    0  0.00000000000E+00  0.00000000000E+00  0.10076224400E+04  0.23805235947E+04  0.21567544142E+04 0.  0.
        1    1    3    3  502    0  0.52106422804E+03  0.54817276989E+02  0.15441440174E+04  0.16306114222E+04  0.50400001928E-02 0.  1.
       -1    1    3    3    0  502 -0.52106422804E+03 -0.54817276989E+02 -0.53652157734E+03  0.74991217257E+03  0.50400001928E-02 0. -1.
</event>
<event>
 5   0  0.1325673E-04  0.2116551E+04  0.7818609E-02  0.8553987E-01
       -2   -1    0    0    0  501  0.00000000000E+00  0.00000000000E+00  0.94327081576E+03  0.94327081576E+03  0.25500000920E-02 0. -1.
        2   -1    0    0  501    0  0.00000000000E+00  0.00000000000E+00 -0.11873019476E+04  0.11873019476E+04  0.25500000920E-02 0.  1.
    10030    2    1    2    0    0  0.00000000000E+00  0.00000000000E+00 -0.24403113186E+03  0.21305727634E+04  0.21165512294E+04 0.  0.
        5    1    3    3  502    0  0.84348885095E+03  0.19480289582E+03 -0.73473800966E+03  0.11354662667E+04  0.46999998093E+01 0.  1.
       -5    1    3    3    0  502 -0.84348885095E+03 -0.19480289582E+03  0.49070687780E+03  0.99510649672E+03  0.46999998093E+01 0. -1.
</event>
<event>
 5   0  0.1235817E-04  0.2015964E+04  0.7818609E-02  0.8599193E-01
       -2   -1    0    0    0  501  0.00000000000E+00  0.00000000000E+00  0.10830565230E+04  0.10830565230E+04  0.25500000920E-02 0.  1.
        2   -1    0    0  501    0  0.00000000000E+00  0.00000000000E+00 -0.93811184822E+03  0.93811184822E+03  0.25500000920E-02 0. -1.
    10030    2    1    2    0    0  0.00000000000E+00  0.00000000000E+00  0.14494467476E+03  0.20211683712E+04  0.20159644407E+04 0.  0.
        1    1    3    3  502    0  0.30944922691E+03 -0.22871297632E+03  0.10065207965E+04  0.10775678927E+04  0.50400001928E-02 0.  1.
       -1    1    3    3    0  502 -0.30944922691E+03  0.22871297632E+03 -0.86157612171E+03  0.94360047853E+03  0.50400001928E-02 0. -1.
</event>
<event>
 5   0  0.5846187E-05  0.2101022E+04  0.7818609E-02  0.8560793E-01
        1   -1    0    0  501    0  0.00000000000E+00  0.00000000000E+00  0.69500104290E+03  0.69500104291E+03  0.50400001928E-02 0.  1.
       -1   -1    0    0    0  501  0.00000000000E+00  0.00000000000E+00 -0.15878724747E+04  0.15878724747E+04  0.50400001928E-02 0. -1.
    10030    2    1    2    0    0  0.00000000000E+00  0.00000000000E+00 -0.89287143180E+03  0.22828735176E+04  0.21010216809E+04 0.  0.
        5    1    3    3  502    0 -0.91417304965E+03  0.40161744959E+03 -0.91776108246E+02  0.10027232343E+04  0.46999998093E+01 0.  1.
       -5    1    3    3    0  502  0.91417304965E+03 -0.40161744959E+03 -0.80109532355E+03  0.12801502833E+04  0.46999998093E+01 0. -1.
</event>
<event>
 5   0  0.6221148E-05  0.2147027E+04  0.7818609E-02  0.8540806E-01
        1   -1    0    0  501    0  0.00000000000E+00  0.00000000000E+00  0.11240219080E+04  0.11240219080E+04  0.50400001928E-02 0. -1.
       -1   -1    0    0    0  501  0.00000000000E+00  0.00000000000E+00 -0.10252742725E+04  0.10252742725E+04  0.50400001928E-02 0.  1.
    10030    2    1    2    0    0  0.00000000000E+00  0.00000000000E+00  0.98747635569E+02  0.21492961805E+04  0.21470265429E+04 0.  0.
        3    1    3    3  502    0 -0.77049854376E+03  0.72765417172E+03 -0.12192730793E+03  0.10667778017E+04  0.10100000352E+00 0. -1.
       -3    1    3    3    0  502  0.77049854376E+03 -0.72765417172E+03  0.22067494350E+03  0.10825183788E+04  0.10100000352E+00 0.  1.
</event>
<event>
 5   0  0.1235817E-04  0.2100398E+04  0.7818609E-02  0.8561068E-01
        2   -1    0    0  501    0  0.00000000000E+00  0.00000000000E+00  0.13011921070E+04  0.13011921070E+04  0.25500000920E-02 0.  1.
       -2   -1    0    0    0  501  0.00000000000E+00  0.00000000000E+00 -0.84762121627E+03  0.84762121628E+03  0.25500000920E-02 0. -1.
    10030    2    1    2    0    0  0.00000000000E+00  0.00000000000E+00  0.45357089073E+03  0.21488133233E+04  0.21003980921E+04 0.  0.
        1    1    3    3  502    0  0.12253159929E+03  0.61020292307E+03  0.10921896863E+04  0.12570759369E+04  0.50400001928E-02 0.  1.
       -1    1    3    3    0  502 -0.12253159929E+03 -0.61020292307E+03 -0.63861879561E+03  0.89173738639E+03  0.50400001928E-02 0. -1.
</event>
<event>
 5   0  0.6052292E-05  0.2116249E+04  0.7818609E-02  0.8554119E-01
       -1   -1    0    0    0  501  0.00000000000E+00  0.00000000000E+00  0.17004676198E+04  0.17004676198E+04  0.50400001928E-02 0. -1.
        1   -1    0    0  501    0  0.00000000000E+00  0.00000000000E+00 -0.65842343276E+03  0.65842343278E+03  0.50400001928E-02 0.  1.
    10030    2    1    2    0    0  0.00000000000E+00  0.00000000000E+00  0.10420441870E+04  0.23588910526E+04  0.21162492552E+04 0.  0.
        1    1    3    3  502    0 -0.33559533684E+03  0.99093776619E+03  0.69742627454E+03  0.12573723772E+04  0.50400001928E-02 0. -1.
       -1    1    3    3    0  502  0.33559533684E+03 -0.99093776619E+03  0.34461791250E+03  0.11015186754E+04  0.50400001928E-02 0.  1.
</event>
<event>
 5   0  0.5933905E-05  0.2126964E+04  0.7818609E-02  0.8549457E-01
        1   -1    0    0  501    0  0.00000000000E+00  0.00000000000E+00  0.13948037481E+04  0.13948037481E+04  0.50400001928E-02 0.  1.
       -1   -1    0    0    0  501  0.00000000000E+00  0.00000000000E+00 -0.81086281124E+03  0.81086281126E+03  0.50400001928E-02 0. -1.
    10030    2    1    2    0    0  0.00000000000E+00  0.00000000000E+00  0.58394093687E+03  0.22056665594E+04  0.21269644927E+04 0.  0.
        2    1    3    3  502    0 -0.47120325802E+03  0.82528086535E+03  0.78699475092E+03  0.12338888747E+04  0.25500000920E-02 0.  1.
       -2    1    3    3    0  502  0.47120325802E+03 -0.82528086535E+03 -0.20305381405E+03  0.97177768470E+03  0.25500000920E-02 0. -1.
</event>
<event>
 5   0  0.6263616E-05  0.2124999E+04  0.7818609E-02  0.8550310E-01
       -1   -1    0    0    0  501  0.00000000000E+00  0.00000000000E+00  0.14790814866E+04  0.14790814866E+04  0.50400001928E-02 0. -1.
        1   -1    0    0  501    0  0.00000000000E+00  0.00000000000E+00 -0.76324740950E+03  0.76324740952E+03  0.50400001928E-02 0.  1.
    10030    2    1    2    0    0  0.00000000000E+00  0.00000000000E+00  0.71583407712E+03  0.22423288961E+04  0.21249989300E+04 0.  0.
        4    1    3    3  502    0  0.58599891214E+02  0.70798127883E+03 -0.47579031750E+03  0.85501431424E+03  0.12699999809E+01 0.  1.
       -4    1    3    3    0  502 -0.58599891214E+02 -0.70798127883E+03  0.11916243946E+04  0.13873145819E+04  0.12699999809E+01 0. -1.
</event>
<event>
 5   0  0.6263616E-05  0.2166912E+04  0.7818609E-02  0.8532328E-01
        1   -1    0    0  501    0  0.00000000000E+00  0.00000000000E+00  0.16900082075E+04  0.16900082075E+04  0.50400001928E-02 0.  1.
       -1   -1    0    0    0  501  0.00000000000E+00  0.00000000000E+00 -0.69459839573E+03  0.69459839575E+03  0.50400001928E-02 0. -1.
    10030    2    1    2    0    0  0.00000000000E+00  0.00000000000E+00  0.99540981177E+03  0.23846066033E+04  0.21669120792E+04 0.  0.
        4    1    3    3  502    0  0.70353521929E+03 -0.26732865113E+03 -0.35998510030E+03  0.83427651162E+03  0.12699999809E+01 0. -1.
       -4    1    3    3    0  502 -0.70353521929E+03  0.26732865113E+03  0.13553949121E+04  0.15503300916E+04  0.12699999809E+01 0.  1.
</event>
<event>
 5   0  0.6052292E-05  0.2093134E+04  0.7818609E-02  0.8564274E-01
       -1   -1    0    0    0  501  0.00000000000E+00  0.00000000000E+00  0.47091951412E+03  0.47091951415E+03  0.50400001928E-02 0. -1.
        1   -1    0    0  501    0  0.00000000000E+00  0.00000000000E+00 -0.23258804931E+04  0.23258804931E+04  0.50400001928E-02 0.  1.
    10030    2    1    2    0    0  0.00000000000E+00  0.00000000000E+00 -0.18549609790E+04  0.27968000073E+04  0.20931340251E+04 0.  0.
        1    1    3    3  502    0  0.24116715011E+03 -0.10108973642E+04 -0.10923642076E+04  0.15077581495E+04  0.50400001928E-02 0. -1.
       -1    1    3    3    0  502 -0.24116715011E+03  0.10108973642E+04 -0.76259677136E+03  0.12890418578E+04  0.50400001928E-02 0.  1.
</event>
<event>
 5   0  0.6221148E-05  0.2166683E+04  0.7818609E-02  0.8532425E-01
        1   -1    0    0  501    0  0.00000000000E+00  0.00000000000E+00  0.89030637810E+03  0.89030637811E+03  0.50400001928E-02 0.  1.
       -1   -1    0    0    0  501  0.00000000000E+00  0.00000000000E+00 -0.13182297949E+04  0.13182297949E+04  0.50400001928E-02 0. -1.
    10030    2    1    2    0    0  0.00000000000E+00  0.00000000000E+00 -0.42792341677E+03  0.22085361730E+04  0.21666826202E+04 0.  0.
        3    1    3    3  502    0  0.79470669839E+03 -0.68076262326E+03  0.71868810226E+02  0.10488858955E+04  0.10100000352E+00 0.  1.
       -3    1    3    3    0  502 -0.79470669839E+03  0.68076262326E+03 -0.49979222700E+03  0.11596502775E+04  0.10100000352E+00 0. -1.
</event>
<event>
 5   0  0.6263616E-05  0.2072962E+04  0.7818609E-02  0.8573248E-01
       -1   -1    0    0    0  501  0.00000000000E+00  0.00000000000E+00  0.54108205851E+03  0.54108205853E+03  0.50400001928E-02 0.  1.
        1   -1    0    0  501    0  0.00000000000E+00  0.00000000000E+00 -0.19854532215E+04  0.19854532215E+04  0.50400001928E-02 0. -1.
    10030    2    1    2    0    0  0.00000000000E+00  0.00000000000E+00 -0.14443711630E+04  0.25265352800E+04  0.20729622439E+04 0.  0.
        4    1    3    3  502    0 -0.50793771898E+03 -0.80630476345E+03 -0.22536261120E+03  0.97924359449E+03  0.12699999809E+01 0.  1.
       -4    1    3    3    0  502  0.50793771898E+03  0.80630476345E+03 -0.12190085518E+04  0.15472916855E+04  0.12699999809E+01 0. -1.
</event>
<event>
 5   0  0.1281470E-04  0.2113998E+04  0.7818609E-02  0.8555102E-01
       -2   -1    0    0    0  501  0.00000000000E+00  0.00000000000E+00  0.96863814296E+03  0.96863814296E+03  0.25500000920E-02 0. -1.
        2   -1    0    0  501    0  0.00000000000E+00  0.00000000000E+00 -0.11534204758E+04  0.11534204758E+04  0.25500000920E-02 0.  1.
    10030    2    1    2    0    0  0.00000000000E+00  0.00000000000E+00 -0.18478233284E+03  0.21220586188E+04  0.21139981719E+04 0.  0.
        3    1    3    3  502    0  0.28114891231E+03  0.63271829228E+03 -0.89410398340E+03  0.11308399938E+04  0.10100000352E+00 0.  1.
       -3    1    3    3    0  502 -0.28114891231E+03 -0.63271829228E+03  0.70932165056E+03  0.99121862495E+03  0.10100000352E+00 0. -1.
</event>
<event>
 5   0  0.5933905E-05  0.2033637E+04  0.7818609E-02  0.8591054E-01
        1   -1    0    0  501    0  0.00000000000E+00  0.00000000000E+00  0.14001448778E+04  0.14001448778E+04  0.50400001928E-02 0.  1.
       -1   -1    0    0    0  501  0.00000000000E+00  0.00000000000E+00 -0.73843756694E+03  0.73843756696E+03  0.50400001928E-02 0. -1.
    10030    2    1    2    0    0  0.00000000000E+00  0.00000000000E+00  0.66170731081E+03  0.21385824447E+04  0.20336367197E+04 0.  0.
        2    1    3    3  502    0 -0.43011066890E+03  0.75142572185E+03  0.89155120560E+03  0.12427788843E+04  0.25500000920E-02 0.  1.
       -2    1    3    3    0  502  0.43011066890E+03 -0.75142572185E+03 -0.22984389479E+03  0.89580356046E+03  0.25500000920E-02 0. -1.
</event>
<event>
 5   0  0.6221148E-05  0.2097266E+04  0.7818609E-02  0.8562449E-01
       -1   -1    0    0    0  501  0.00000000000E+00  0.00000000000E+00  0.64569908417E+03  0.64569908419E+03  0.50400001928E-02 0.  1.
        1   -1    0    0  501    0  0.00000000000E+00  0.00000000000E+00 -0.17030085926E+04  0.17030085926E+04  0.50400001928E-02 0. -1.
    10030    2    1    2    0    0  0.00000000000E+00  0.00000000000E+00 -0.10573095084E+04  0.23487076768E+04  0.20972659236E+04 0.  0.
        3    1    3    3  502    0 -0.30630118966E+03 -0.95073030949E+03 -0.88618318438E+03  0.13353011595E+04  0.10100000352E+00 0. -1.
       -3    1    3    3    0  502  0.30630118966E+03  0.95073030949E+03 -0.17112632402E+03  0.10134065172E+04  0.10100000352E+00 0.  1.
</event>
<event>
 5   0  0.5933905E-05  0.2222963E+04  0.7818609E-02  0.8508931E-01
        1   -1    0    0  501    0  0.00000000000E+00  0.00000000000E+00  0.12518930136E+04  0.12518930136E+04  0.50400001928E-02 0. -1.
       -1   -1    0    0    0  501  0.00000000000E+00  0.00000000000E+00 -0.98681806714E+03  0.98681806715E+03  0.50400001928E-02 0.  1.
    10030    2    1    2    0    0  0.00000000000E+00  0.00000000000E+00  0.26507494650E+03  0.22387110808E+04  0.22229625674E+04 0.  0.
        2    1    3    3  502    0  0.38967186134E+03 -0.74529213928E+03 -0.59930611481E+03  0.10327014823E+04  0.25500000920E-02 0.  1.
       -2    1    3    3    0  502 -0.38967186134E+03  0.74529213928E+03  0.86438106131E+03  0.12060095984E+04  0.25500000920E-02 0. -1.
</event>
<event>
 5   0  0.1235817E-04  0.2087260E+04  0.7818609E-02  0.8566877E-01
        2   -1    0    0  501    0  0.00000000000E+00  0.00000000000E+00  0.27670830297E+04  0.27670830297E+04  0.25500000920E-02 0.  1.
       -2   -1    0    0    0  501  0.00000000000E+00  0.00000000000E+00 -0.39361416150E+03  0.39361416151E+03  0.25500000920E-02 0. -1.
    10030    2    1    2    0    0  0.00000000000E+00  0.00000000000E+00  0.23734688682E+04  0.31606971912E+04  0.20872595110E+04 0.  0.
        1    1    3    3  502    0 -0.89377652811E+02 -0.94105511523E+03  0.18564335627E+04  0.20832471451E+04  0.50400001928E-02 0.  1.
       -1    1    3    3    0  502  0.89377652811E+02  0.94105511523E+03  0.51703530546E+03  0.10774500461E+04  0.50400001928E-02 0. -1.
</event>
<event>
 5   0  0.6052292E-05  0.2051959E+04  0.7818609E-02  0.8582706E-01
        1   -1    0    0  501    0  0.00000000000E+00  0.00000000000E+00  0.20418093323E+04  0.20418093323E+04  0.50400001928E-02 0.  1.
       -1   -1    0    0    0  501  0.00000000000E+00  0.00000000000E+00 -0.51553980316E+03  0.51553980319E+03  0.50400001928E-02 0. -1.
    10030    2    1    2    0    0  0.00000000000E+00  0.00000000000E+00  0.15262695292E+04  0.25573491355E+04  0.20519590457E+04 0.  0.
        1    1    3    3  502    0  0.54873539342E+03  0.25064157722E+03 -0.27114275453E+03  0.66140012518E+03  0.50400001928E-02 0. -1.
       -1    1    3    3    0  502 -0.54873539342E+03 -0.25064157722E+03  0.17974122837E+04  0.18959490103E+04  0.50400001928E-02 0.  1.
</event>
<event>
 5   0  0.1349252E-04  0.2112876E+04  0.7818609E-02  0.8555592E-01
        2   -1    0    0  501    0  0.00000000000E+00  0.00000000000E+00  0.72021639070E+03  0.72021639071E+03  0.25500000920E-02 0. -1.
       -2   -1    0    0    0  501  0.00000000000E+00  0.00000000000E+00 -0.15496194513E+04  0.15496194513E+04  0.25500000920E-02 0.  1.
    10030    2    1    2    0    0  0.00000000000E+00  0.00000000000E+00 -0.82940306059E+03  0.22698358420E+04  0.21128760760E+04 0.  0.
        2    1    3    3  502    0  0.34422413559E+03 -0.35170003269E+03  0.58955777966E+03  0.76795933752E+03  0.25500000920E-02 0. -1.
       -2    1    3    3    0  502 -0.34422413559E+03  0.35170003269E+03 -0.14189608403E+04  0.15018765045E+04  0.25500000920E-02 0.  1.
</event>
<event>
 5   0  0.5846187E-05  0.2092892E+04  0.7818609E-02  0.8564381E-01
       -1   -1    0    0    0  501  0.00000000000E+00  0.00000000000E+00  0.11274831369E+04  0.11274831369E+04  0.50400001928E-02 0. -1.
        1   -1    0    0  501    0  0.00000000000E+00  0.00000000000E+00 -0.97123295173E+03  0.97123295174E+03  0.50400001928E-02 0.  1.
    10030    2    1    2    0    0  0.00000000000E+00  0.00000000000E+00  0.15625018515E+03  0.20987160886E+04  0.20928915644E+04 0.  0.
        5    1    3    3  502    0  0.76314112937E+03 -0.71529171850E+03  0.10983681396E+03  0.10517189936E+04  0.46999998093E+01 0. -1.
       -5    1    3    3    0  502 -0.76314112937E+03  0.71529171850E+03  0.46413371189E+02  0.10469970950E+04  0.46999998093E+01 0.  1.
</event>
<event>
 5   0  0.6263616E-05  0.1960817E+04  0.7818609E-02  0.8625162E-01
        1   -1    0    0  501    0  0.00000000000E+00  0.00000000000E+00  0.82052147539E+03  0.82052147540E+03  0.50400001928E-02 0. -1.
       -1   -1    0    0    0  501  0.00000000000E+00  0.00000000000E+00 -0.11714510897E+04  0.11714510897E+04  0.50400001928E-02 0.  1.
    10030    2    1    2    0    0  0.00000000000E+00  0.00000000000E+00 -0.35092961430E+03  0.19919725651E+04  0.19608169486E+04 0.  0.
        4    1    3    3  502    0  0.79128811747E+02  0.48814810736E+03 -0.10354671153E+04  0.11474945330E+04  0.12699999809E+01 0.  1.
       -4    1    3    3    0  502 -0.79128811747E+02 -0.48814810736E+03  0.68453750097E+03  0.84447803210E+03  0.12699999809E+01 0. -1.
</event>
<event>
 5   0  0.6221148E-05  0.1977516E+04  0.7818609E-02  0.8617206E-01
       -1   -1    0    0    0  501  0.00000000000E+00  0.00000000000E+00  0.11986492096E+04  0.11986492096E+04  0.50400001928E-02 0.  1.
        1   -1    0    0  501    0  0.00000000000E+00  0.00000000000E+00 -0.81561987899E+03  0.81561987900E+03  0.50400001928E-02 0. -1.
    10030    2    1    2    0    0  0.00000000000E+00  0.00000000000E+00  0.38302933063E+03  0.20142690886E+04  0.19775157378E+04 0.  0.
        3    1    3    3  502    0  0.58304231666E+03 -0.75588360734E+03 -0.70845274210E+02  0.95724470954E+03  0.10100000352E+00 0. -1.
       -3    1    3    3    0  502 -0.58304231666E+03  0.75588360734E+03  0.45387460484E+03  0.10570243791E+04  0.10100000352E+00 0.  1.
</event>
<event>
 5   0  0.1281470E-04  0.1628734E+04  0.7818609E-02  0.8803088E-01
        2   -1    0    0  501    0  0.00000000000E+00  0.00000000000E+00  0.16909787923E+04  0.16909787923E+04  0.25500000920E-02 0.  1.
       -2   -1    0    0    0  501  0.00000000000E+00  0.00000000000E+00 -0.39219498249E+03  0.39219498249E+03  0.25500000920E-02 0. -1.
    10030    2    1    2    0    0  0.00000000000E+00  0.00000000000E+00  0.12987838098E+04  0.20831737748E+04  0.16287337386E+04 0.  0.
        3    1    3    3  502    0 -0.26891685696E+03 -0.66279935593E+03  0.11473444339E+04  0.13520423523E+04  0.10100000352E+00 0.  1.
       -3    1    3    3    0  502  0.26891685696E+03  0.66279935593E+03  0.15143937591E+03  0.73113142249E+03  0.10100000352E+00 0. -1.
</event>
<event>
 5   0  0.1252477E-04  0.2248978E+04  0.7818609E-02  0.8498315E-01
        2   -1    0    0  501    0  0.00000000000E+00  0.00000000000E+00  0.13680087939E+04  0.13680087939E+04  0.25500000920E-02 0.  1.
       -2   -1    0    0    0  501  0.00000000000E+00  0.00000000000E+00 -0.92431801483E+03  0.92431801483E+03  0.25500000920E-02 0. -1.
    10030    2    1    2    0    0  0.00000000000E+00  0.00000000000E+00  0.44369077910E+03  0.22923268088E+04  0.22489776990E+04 0.  0.
        4    1    3    3  502    0  0.47398006841E+02 -0.26377558629E+03 -0.89128947826E+03  0.93071084550E+03  0.12699999809E+01 0. -1.
       -4    1    3    3    0  502 -0.47398006841E+02  0.26377558629E+03  0.13349802574E+04  0.13616159633E+04  0.12699999809E+01 0.  1.
</event>
<event>
 5   0  0.6052292E-05  0.2107837E+04  0.7818609E-02  0.8557799E-01
        1   -1    0    0  501    0  0.00000000000E+00  0.00000000000E+00  0.73577312044E+03  0.73577312046E+03  0.50400001928E-02 0.  1.
       -1   -1    0    0    0  501  0.00000000000E+00  0.00000000000E+00 -0.15096293962E+04  0.15096293962E+04  0.50400001928E-02 0. -1.
    10030    2    1    2    0    0  0.00000000000E+00  0.00000000000E+00 -0.77385627578E+03  0.22454025167E+04  0.21078375000E+04 0.  0.
        1    1    3    3  502    0 -0.92140081599E+03  0.37620536904E+03 -0.17549181697E+02  0.99539837111E+03  0.50400001928E-02 0. -1.
       -1    1    3    3    0  502  0.92140081599E+03 -0.37620536904E+03 -0.75630709408E+03  0.12500041456E+04  0.50400001928E-02 0.  1.
</event>
<event>
 5   0  0.5846187E-05  0.2086887E+04  0.7818609E-02  0.8567042E-01
        1   -1    0    0  501    0  0.00000000000E+00  0.00000000000E+00  0.11213633146E+04  0.11213633146E+04  0.50400001928E-02 0. -1.
       -1   -1    0    0    0  501  0.00000000000E+00  0.00000000000E+00 -0.97093774820E+03  0.97093774821E+03  0.50400001928E-02 0.  1.
    10030    2    1    2    0    0  0.00000000000E+00  0.00000000000E+00  0.15042556642E+03  0.20923010628E+04  0.20868866492E+04 0.  0.
        5    1    3    3  502    0 -0.84905027990E+03  0.10798112498E+03  0.67359086128E+03  0.10891708037E+04  0.46999998093E+01 0. -1.
       -5    1    3    3    0  502  0.84905027990E+03 -0.10798112498E+03 -0.52316529486E+03  0.10031302592E+04  0.46999998093E+01 0.  1.
</event>
<event>
 5   0  0.1281470E-04  0.2126731E+04  0.7818609E-02  0.8549559E-01
        2   -1    0    0  501    0  0.00000000000E+00  0.00000000000E+00  0.14251006661E+04  0.14251006661E+04  0.25500000920E-02 0.  1.
       -2   -1    0    0    0  501  0.00000000000E+00  0.00000000000E+00 -0.79344989720E+03  0.79344989720E+03  0.25500000920E-02 0. -1.
    10030    2    1    2    0    0  0.00000000000E+00  0.00000000000E+00  0.63165076889E+03  0.22185505633E+04  0.21267308029E+04 0.  0.
        3    1    3    3  502    0 -0.10275532835E+04  0.13294604331E+03  0.56532848870E+03  0.11803121245E+04  0.10100000352E+00 0.  1.
       -3    1    3    3    0  502  0.10275532835E+04 -0.13294604331E+03  0.66322280193E+02  0.10382384388E+04  0.10100000352E+00 0. -1.
</event>
<event>
 5   0  0.6263616E-05  0.1963260E+04  0.7818609E-02  0.8623993E-01
       -1   -1    0    0    0  501  0.00000000000E+00  0.00000000000E+00  0.58604300165E+03  0.58604300167E+03  0.50400001928E-02 0. -1.
        1   -1    0    0  501    0  0.00000000000E+00  0.00000000000E+00 -0.16442442084E+04  0.16442442084E+04  0.50400001928E-02 0.  1.
    10030    2    1    2    0    0  0.00000000000E+00  0.00000000000E+00 -0.10582012068E+04  0.22302872101E+04  0.19632603611E+04 0.  0.
        4    1    3    3  502    0  0.23531714386E+03 -0.39555549781E+03  0.45586687846E+03  0.64780748207E+03  0.12699999809E+01 0. -1.
       -4    1    3    3    0  502 -0.23531714386E+03  0.39555549781E+03 -0.15140680852E+04  0.15824797280E+04  0.12699999809E+01 0.  1.
</event>
<event>
 5   0  0.1281470E-04  0.2093662E+04  0.7818609E-02  0.8564040E-01
        2   -1    0    0  501    0  0.00000000000E+00  0.00000000000E+00  0.70359080725E+03  0.70359080726E+03  0.25500000920E-02 0.  1.
       -2   -1    0    0    0  501  0.00000000000E+00  0.00000000000E+00 -0.15575182914E+04  0.15575182914E+04  0.25500000920E-02 0. -1.
    10030    2    1    2    0    0  0.00000000000E+00  0.00000000000E+00 -0.85392748411E+03  0.22611090986E+04  0.20936623911E+04 0.  0.
        3    1    3    3  502    0 -0.10379824124E+04 -0.13103022223E+03 -0.46558913424E+03  0.11451417641E+04  0.10100000352E+00 0. -1.
       -3    1    3    3    0  502  0.10379824124E+04  0.13103022223E+03 -0.38833834987E+03  0.11159673346E+04  0.10100000352E+00 0.  1.
</event>
<event>
 5   0  0.5846187E-05  0.2099701E+04  0.7818609E-02  0.8561375E-01
        1   -1    0    0  501    0  0.00000000000E+00  0.00000000000E+00  0.10196717102E+04  0.10196717102E+04  0.50400001928E-02 0.  1.
       -1   -1    0    0    0  501  0.00000000000E+00  0.00000000000E+00 -0.10809228440E+04  0.10809228440E+04  0.50400001928E-02 0. -1.
    10030    2    1    2    0    0  0.00000000000E+00  0.00000000000E+00 -0.61251133722E+02  0.21005945542E+04  0.20997013549E+04 0.  0.
        5    1    3    3  502    0 -0.17801505171E+03 -0.30150239913E+02  0.10040125949E+04  0.10201283136E+04  0.46999998093E+01 0.  1.
       -5    1    3    3    0  502  0.17801505171E+03  0.30150239913E+02 -0.10652637286E+04  0.10804662406E+04  0.46999998093E+01 0. -1.
</event>
<event>
 5   0  0.5933905E-05  0.2172277E+04  0.7818609E-02  0.8530056E-01
       -1   -1    0    0    0  501  0.00000000000E+00  0.00000000000E+00  0.49378339495E+03  0.49378339497E+03  0.50400001928E-02 0.  1.
        1   -1    0    0  501    0  0.00000000000E+00  0.00000000000E+00 -0.23890974952E+04  0.23890974952E+04  0.50400001928E-02 0. -1.
    10030    2    1    2    0    0  0.00000000000E+00  0.00000000000E+00 -0.18953141002E+04  0.28828808902E+04  0.21722768443E+04 0.  0.
        2    1    3    3  502    0  0.27731276206E+02 -0.16326494390E+03 -0.23722443549E+04  0.23780176082E+04  0.25500000920E-02 0. -1.
       -2    1    3    3    0  502 -0.27731276206E+02  0.16326494390E+03  0.47693025469E+03  0.50486328192E+03  0.25500000920E-02 0.  1.
</event>
<event>
 5   0  0.1325673E-04  0.2098393E+04  0.7818609E-02  0.8561952E-01
        2   -1    0    0  501    0  0.00000000000E+00  0.00000000000E+00  0.25847308079E+04  0.25847308079E+04  0.25500000920E-02 0.  1.
       -2   -1    0    0    0  501  0.00000000000E+00  0.00000000000E+00 -0.42589081799E+03  0.42589081800E+03  0.25500000920E-02 0. -1.
    10030    2    1    2    0    0  0.00000000000E+00  0.00000000000E+00  0.21588399899E+04  0.30106216259E+04  0.20983928308E+04 0.  0.
        5    1    3    3  502    0  0.79857366369E+03 -0.12307979550E+03  0.20396401559E+04  0.21938602025E+04  0.46999998093E+01 0. -1.
       -5    1    3    3    0  502 -0.79857366369E+03  0.12307979550E+03  0.11919983402E+03  0.81676142344E+03  0.46999998093E+01 0.  1.
</event>
<event>
 5   0  0.6052292E-05  0.2088412E+04  0.7818609E-02  0.8566365E-01
        1   -1    0    0  501    0  0.00000000000E+00  0.00000000000E+00  0.68597196682E+03  0.68597196684E+03  0.50400001928E-02 0. -1.
       -1   -1    0    0    0  501  0.00000000000E+00  0.00000000000E+00 -0.15895201845E+04  0.15895201845E+04  0.50400001928E-02 0.  1.
    10030    2    1    2    0    0  0.00000000000E+00  0.00000000000E+00 -0.90354821771E+03  0.22754921514E+04  0.20884121119E+04 0.  0.
        1    1    3    3  502    0 -0.21975424512E+03 -0.84218099891E+03 -0.10803451978E+04  0.13873379219E+04  0.50400001928E-02 0.  1.
       -1    1    3    3    0  502  0.21975424512E+03  0.84218099891E+03  0.17679698005E+03  0.88815422948E+03  0.50400001928E-02 0. -1.
</event>
<event>
 5   0  0.6052292E-05  0.2116348E+04  0.7818609E-02  0.8554076E-01
        1   -1    0    0  501    0  0.00000000000E+00  0.00000000000E+00  0.13919237095E+04  0.13919237096E+04  0.50400001928E-02 0. -1.
       -1   -1    0    0    0  501  0.00000000000E+00  0.00000000000E+00 -0.80444940651E+03  0.80444940653E+03  0.50400001928E-02 0.  1.
    10030    2    1    2    0    0  0.00000000000E+00  0.00000000000E+00  0.58747430304E+03  0.21963731161E+04  0.21163479885E+04 0.  0.
        1    1    3    3  502    0 -0.38666280124E+03  0.33589768128E+03  0.12547074742E+04  0.13552218343E+04  0.50400001928E-02 0. -1.
       -1    1    3    3    0  502  0.38666280124E+03 -0.33589768128E+03 -0.66723317119E+03  0.84115128182E+03  0.50400001928E-02 0.  1.
</event>
<event>
 5   0  0.1281470E-04  0.2048568E+04  0.7818609E-02  0.8584244E-01
       -2   -1    0    0    0  501  0.00000000000E+00  0.00000000000E+00  0.57051030882E+03  0.57051030882E+03  0.25500000920E-02 0. -1.
        2   -1    0    0  501    0  0.00000000000E+00  0.00000000000E+00 -0.18389817762E+04  0.18389817762E+04  0.25500000920E-02 0.  1.
    10030    2    1    2    0    0  0.00000000000E+00  0.00000000000E+00 -0.12684714674E+04  0.24094920850E+04  0.20485683401E+04 0.  0.
        3    1    3    3  502    0  0.50316236887E+03  0.20798111072E+03  0.38622083840E+03  0.66752906909E+03  0.10100000352E+00 0. -1.
       -3    1    3    3    0  502 -0.50316236887E+03 -0.20798111072E+03 -0.16546923058E+04  0.17419630159E+04  0.10100000352E+00 0.  1.
</event>
<event>
 5   0  0.6263616E-05  0.2088763E+04  0.7818609E-02  0.8566210E-01
        1   -1    0    0  501    0  0.00000000000E+00  0.00000000000E+00  0.21281328554E+04  0.21281328554E+04  0.50400001928E-02 0.  1.
       -1   -1    0    0    0  501  0.00000000000E+00  0.00000000000E+00 -0.51253037551E+03  0.51253037554E+03  0.50400001928E-02 0. -1.
    10030    2    1    2    0    0  0.00000000000E+00  0.00000000000E+00  0.16156024799E+04  0.26406632309E+04  0.20887630134E+04 0.  0.
        4    1    3    3  502    0 -0.82630893208E+03 -0.24188175005E+03  0.15551250935E+04  0.17775570037E+04  0.12699999809E+01 0.  1.
       -4    1    3    3    0  502  0.82630893208E+03  0.24188175005E+03  0.60477386381E+02  0.86310622719E+03  0.12699999809E+01 0. -1.
</event>
<event>
 5   0  0.6052292E-05  0.2134029E+04  0.7818609E-02  0.8546400E-01
       -1   -1    0    0    0  501  0.00000000000E+00  0.00000000000E+00  0.11391239493E+04  0.11391239493E+04  0.50400001928E-02 0. -1.
        1   -1    0    0  501    0  0.00000000000E+00  0.00000000000E+00 -0.99946987346E+03  0.99946987347E+03  0.50400001928E-02 0.  1.
    10030    2    1    2    0    0  0.00000000000E+00  0.00000000000E+00  0.13965407587E+03  0.21385938228E+04  0.21340291184E+04 0.  0.
        1    1    3    3  502    0 -0.98198425173E+03 -0.31779175931E+03  0.34102628897E+03  0.10870067170E+04  0.50400001928E-02 0. -1.
       -1    1    3    3    0  502  0.98198425173E+03  0.31779175931E+03 -0.20137221311E+03  0.10515871058E+04  0.50400001928E-02 0.  1.
</event>
<event>
 5   0  0.1325673E-04  0.2080758E+04  0.7818609E-02  0.8569767E-01
       -2   -1    0    0    0  501  0.00000000000E+00  0.00000000000E+00  0.17311598479E+04  0.17311598479E+04  0.25500000920E-02 0.  1.
        2   -1    0    0  501    0  0.00000000000E+00  0.00000000000E+00 -0.62523864723E+03  0.62523864724E+03  0.25500000920E-02 0. -1.
    10030    2    1    2    0    0  0.00000000000E+00  0.00000000000E+00  0.11059212006E+04  0.23563984951E+04  0.20807575942E+04 0.  0.
        5    1    3    3  502    0  0.97564688003E+03 -0.15765473279E+03  0.18490895503E+03  0.10054627099E+04  0.46999998093E+01 0. -1.
       -5    1    3    3    0  502 -0.97564688003E+03  0.15765473279E+03  0.92101224559E+03  0.13509357852E+04  0.46999998093E+01 0.  1.
</event>
<event>
 5   0  0.5846187E-05  0.2223563E+04  0.7818609E-02  0.8508684E-01
       -1   -1    0    0    0  501  0.00000000000E+00  0.00000000000E+00  0.82593802458E+03  0.82593802460E+03  0.50400001928E-02 0.  1.
        1   -1    0    0  501    0  0.00000000000E+00  0.00000000000E+00 -0.14965503299E+04  0.14965503299E+04  0.50400001928E-02 0. -1.
    10030    2    1    2    0    0  0.00000000000E+00  0.00000000000E+00 -0.67061230530E+03  0.23224883545E+04  0.22235627476E+04 0.  0.
        5    1    3    3  502    0  0.23689726519E+02  0.44693102965E+03 -0.13982904356E+04  0.14681780480E+04  0.46999998093E+01 0. -1.
       -5    1    3    3    0  502 -0.23689726519E+02 -0.44693102965E+03  0.72767813030E+03  0.85431030646E+03  0.46999998093E+01 0.  1.
</event>
<event>
 5   0  0.1281470E-04  0.2107824E+04  0.7818609E-02  0.8557805E-01
        2   -1    0    0  501    0  0.00000000000E+00  0.00000000000E+00  0.16505922814E+04  0.16505922814E+04  0.25500000920E-02 0. -1.
       -2   -1    0    0    0  501  0.00000000000E+00  0.00000000000E+00 -0.67292825739E+03  0.67292825740E+03  0.25500000920E-02 0.  1.
    10030    2    1    2    0    0  0.00000000000E+00  0.00000000000E+00  0.97766402396E+03  0.23235205387E+04  0.21078237000E+04 0.  0.
        3    1    3    3  502    0  0.35504167021E+03  0.49181338936E+03 -0.46121866304E+03  0.76200896509E+03  0.10100000352E+00 0.  1.
       -3    1    3    3    0  502 -0.35504167021E+03 -0.49181338936E+03  0.14388826870E+04  0.15615115737E+04  0.10100000352E+00 0. -1.
</event>
<event>
 5   0  0.5933905E-05  0.1995604E+04  0.7818609E-02  0.8608679E-01
        1   -1    0    0  501    0  0.00000000000E+00  0.00000000000E+00  0.16049836623E+04  0.16049836623E+04  0.50400001928E-02 0.  1.
       -1   -1    0    0    0  501  0.00000000000E+00  0.00000000000E+00 -0.62032309960E+03  0.62032309962E+03  0.50400001928E-02 0. -1.
    10030    2    1    2    0    0  0.00000000000E+00  0.00000000000E+00  0.98466056267E+03  0.22253067619E+04  0.19956036082E+04 0.  0.
        2    1    3    3  502    0  0.34901225963E+03 -0.14133454295E+03 -0.53805498775E+03  0.65672534613E+03  0.25500000920E-02 0. -1.
       -2    1    3    3    0  502 -0.34901225963E+03  0.14133454295E+03  0.15227155504E+04  0.15685814158E+04  0.25500000920E-02 0.  1.
</event>
<event>
 5   0  0.6263616E-05  0.2090927E+04  0.7818609E-02  0.8565251E-01
        1   -1    0    0  501    0  0.00000000000E+00  0.00000000000E+00  0.14221949404E+04  0.14221949405E+04  0.50400001928E-02 0.  1.
       -1   -1    0    0    0  501  0.00000000000E+00  0.00000000000E+00 -0.76852604667E+03  0.76852604669E+03  0.50400001928E-02 0. -1.
    10030    2    1    2    0    0  0.00000000000E+00  0.00000000000E+00  0.65366889377E+03  0.21907209871E+04  0.20909269286E+04 0.  0.
        4    1    3    3  502    0 -0.75643998779E+03 -0.60989371983E+03 -0.77349910641E+02  0.97475967612E+03  0.12699999809E+01 0. -1.
       -4    1    3    3    0  502  0.75643998779E+03  0.60989371983E+03  0.73101880441E+03  0.12159613110E+04  0.12699999809E+01 0.  1.
</event>
<event>
 5   0  0.6052292E-05  0.2162128E+04  0.7818609E-02  0.8534358E-01
        1   -1    0    0  501    0  0.00000000000E+00  0.00000000000E+00  0.22057856981E+04  0.22057856981E+04  0.50400001928E-02 0. -1.
       -1   -1    0    0    0  501  0.00000000000E+00  0.00000000000E+00 -0.52983381283E+03  0.52983381286E+03  0.50400001928E-02 0.  1.
    10030    2    1    2    0    0  0.00000000000E+00  0.00000000000E+00  0.16759518853E+04  0.27356195110E+04  0.21621284391E+04 0.  0.
        1    1    3    3  502    0 -0.79076577004E+03 -0.30505550090E+03 -0.11086981523E+02  0.84763924100E+03  0.50400001928E-02 0.  1.
       -1    1    3    3    0  502  0.79076577004E+03  0.30505550090E+03  0.16870388668E+04  0.18879802700E+04  0.50400001928E-02 0. -1.
</event>
<event>
 5   0  0.6263616E-05  0.2120693E+04  0.7818609E-02  0.8552182E-01
       -1   -1    0    0    0  501  0.00000000000E+00  0.00000000000E+00  0.37021983744E+03  0.37021983748E+03  0.50400001928E-02 0.  1.
        1   -1    0    0  501    0  0.00000000000E+00  0.00000000000E+00 -0.30369381070E+04  0.30369381070E+04  0.50400001928E-02 0. -1.
    10030    2    1    2    0    0  0.00000000000E+00  0.00000000000E+00 -0.26667182696E+04  0.34071579445E+04  0.21206930305E+04 0.  0.
        4    1    3    3  502    0 -0.68129324505E+03  0.69720134338E+02 -0.26339432053E+04  0.27215215973E+04  0.12699999809E+01 0. -1.
       -4    1    3    3    0  502  0.68129324505E+03 -0.69720134338E+02 -0.32775064290E+02  0.68563634722E+03  0.12699999809E+01 0.  1.
</event>
<event>
 5   0  0.1349252E-04  0.2190181E+04  0.7818609E-02  0.8522526E-01
       -2   -1    0    0    0  501  0.00000000000E+00  0.00000000000E+00  0.81173955382E+03  0.81173955382E+03  0.25500000920E-02 0. -1.
        2   -1    0    0  501    0  0.00000000000E+00  0.00000000000E+00 -0.14773492529E+04  0.14773492529E+04  0.25500000920E-02 0.  1.
    10030    2    1    2    0    0  0.00000000000E+00  0.00000000000E+00 -0.66560969905E+03  0.22890888067E+04  0.21901806532E+04 0.  0.
        2    1    3    3  502    0 -0.32816544264E+03  0.32230003924E+02  0.75862001691E+03  0.82718538488E+03  0.25500000920E-02 0. -1.
       -2    1    3    3    0  502  0.32816544264E+03 -0.32230003924E+02 -0.14242297160E+04  0.14619034218E+04  0.25500000920E-02 0.  1.
</event>
<event>
 5   0  0.1235817E-04  0.2092683E+04  0.7818609E-02  0.8564473E-01
        2   -1    0    0  501    0  0.00000000000E+00  0.00000000000E+00  0.11335031668E+04  0.11335031668E+04  0.25500000920E-02 0.  1.
       -2   -1    0    0    0  501  0.00000000000E+00  0.00000000000E+00 -0.96588210443E+03  0.96588210443E+03  0.25500000920E-02 0. -1.
    10030    2    1    2    0    0  0.00000000000E+00  0.00000000000E+00  0.16762106240E+03  0.20993852713E+04  0.20926828944E+04 0.  0.
        1    1    3    3  502    0  0.76622573150E+02 -0.10291762267E+04  0.25686140849E+03  0.10635095240E+04  0.50400001928E-02 0. -1.
       -1    1    3    3    0  502 -0.76622573150E+02  0.10291762267E+04 -0.89240346090E+02  0.10358757473E+04  0.50400001928E-02 0.  1.
</event>
<event>
 5   0  0.1281470E-04  0.2059658E+04  0.7818609E-02  0.8579226E-01
       -2   -1    0    0    0  501  0.00000000000E+00  0.00000000000E+00  0.42639139655E+03  0.42639139655E+03  0.25500000920E-02 0. -1.
        2   -1    0    0  501    0  0.00000000000E+00  0.00000000000E+00 -0.24872627747E+04  0.24872627747E+04  0.25500000920E-02 0.  1.
    10030    2    1    2    0    0  0.00000000000E+00  0.00000000000E+00 -0.20608713781E+04  0.29136541712E+04  0.20596576881E+04 0.  0.
        3    1    3    3  502    0 -0.68567678979E+03  0.47953250976E+03 -0.18797363545E+04  0.20575502085E+04  0.10100000352E+00 0.  1.
       -3    1    3    3    0  502  0.68567678979E+03 -0.47953250976E+03 -0.18113502364E+03  0.85610396271E+03  0.10100000352E+00 0. -1.
</event>
<event>
 5   0  0.1235817E-04  0.2114595E+04  0.7818609E-02  0.8554841E-01
       -2   -1    0    0    0  501  0.00000000000E+00  0.00000000000E+00  0.77686033754E+03  0.77686033754E+03  0.25500000920E-02 0. -1.
        2   -1    0    0  501    0  0.00000000000E+00  0.00000000000E+00 -0.14389693202E+04  0.14389693202E+04  0.25500000920E-02 0.  1.
    10030    2    1    2    0    0  0.00000000000E+00  0.00000000000E+00 -0.66210898269E+03  0.22158296578E+04  0.21145951781E+04 0.  0.
        1    1    3    3  502    0  0.12637643463E+03 -0.22502552308E+03  0.74334653376E+03  0.78687455070E+03  0.50400001928E-02 0. -1.
       -1    1    3    3    0  502 -0.12637643463E+03  0.22502552308E+03 -0.14054555165E+04  0.14289551071E+04  0.50400001928E-02 0.  1.
</event>
<event>
 5   0  0.1252477E-04  0.2062747E+04  0.7818609E-02  0.8577834E-01
        2   -1    0    0  501    0  0.00000000000E+00  0.00000000000E+00  0.68482364111E+03  0.68482364111E+03  0.25500000920E-02 0.  1.
       -2   -1    0    0    0  501  0.00000000000E+00  0.00000000000E+00 -0.15532917905E+04  0.15532917905E+04  0.25500000920E-02 0. -1.
    10030    2    1    2    0    0  0.00000000000E+00  0.00000000000E+00 -0.86846814936E+03  0.22381154316E+04  0.20627466540E+04 0.  0.
        4    1    3    3  502    0 -0.19229969445E+03 -0.18871346386E+02 -0.15334769217E+04  0.15456029188E+04  0.12699999809E+01 0. -1.
       -4    1    3    3    0  502  0.19229969445E+03  0.18871346386E+02  0.66500877235E+03  0.69251251281E+03  0.12699999809E+01 0.  1.
</event>
<event>
 5   0  0.6221148E-05  0.2098557E+04  0.7818609E-02  0.8561879E-01
        1   -1    0    0  501    0  0.00000000000E+00  0.00000000000E+00  0.20209939239E+04  0.20209939239E+04  0.50400001928E-02 0. -1.
       -1   -1    0    0    0  501  0.00000000000E+00  0.00000000000E+00 -0.54477413565E+03  0.54477413568E+03  0.50400001928E-02 0.  1.
    10030    2    1    2    0    0  0.00000000000E+00  0.00000000000E+00  0.14762197882E+04  0.25657680596E+04  0.20985568547E+04 0.  0.
        3    1    3    3  502    0  0.38074569901E+03 -0.81048395946E+02  0.19294410324E+04  0.19683187845E+04  0.10100000352E+00 0. -1.
       -3    1    3    3    0  502 -0.38074569901E+03  0.81048395946E+02 -0.45322124421E+03  0.59744927501E+03  0.10100000352E+00 0.  1.
</event>
<event>
 5   0  0.6052292E-05  0.1957784E+04  0.7818609E-02  0.8626616E-01
        1   -1    0    0  501    0  0.00000000000E+00  0.00000000000E+00  0.99924138958E+03  0.99924138959E+03  0.50400001928E-02 0. -1.
       -1   -1    0    0    0  501  0.00000000000E+00  0.00000000000E+00 -0.95895710227E+03  0.95895710229E+03  0.50400001928E-02 0.  1.
    10030    2    1    2    0    0  0.00000000000E+00  0.00000000000E+00  0.40284287309E+02  0.19581984919E+04  0.19577840815E+04 0.  0.
        1    1    3    3  502    0 -0.16616838837E+03 -0.91074818453E+03  0.33825889397E+03  0.98564358076E+03  0.50400001928E-02 0.  1.
       -1    1    3    3    0  502  0.16616838837E+03  0.91074818453E+03 -0.29797460666E+03  0.97255491112E+03  0.50400001928E-02 0. -1.
</event>
<event>
 5   0  0.5846187E-05  0.2115829E+04  0.7818609E-02  0.8554303E-01
       -1   -1    0    0    0  501  0.00000000000E+00  0.00000000000E+00  0.20888274182E+04  0.20888274182E+04  0.50400001928E-02 0.  1.
        1   -1    0    0  501    0  0.00000000000E+00  0.00000000000E+00 -0.53579485030E+03  0.53579485032E+03  0.50400001928E-02 0. -1.
    10030    2    1    2    0    0  0.00000000000E+00  0.00000000000E+00  0.15530325679E+04  0.26246222686E+04  0.21158288909E+04 0.  0.
        5    1    3    3  502    0  0.48694124316E+03  0.65384868525E+03 -0.59795129010E+02  0.81745178753E+03  0.46999998093E+01 0. -1.
       -5    1    3    3    0  502 -0.48694124316E+03 -0.65384868525E+03  0.16128276970E+04  0.18071704810E+04  0.46999998093E+01 0.  1.
</event>
<event>
 5   0  0.6052292E-05  0.2058227E+04  0.7818609E-02  0.8579871E-01
        1   -1    0    0  501    0  0.00000000000E+00  0.00000000000E+00  0.84977077057E+03  0.84977077058E+03  0.50400001928E-02 0. -1.
       -1   -1    0    0    0  501  0.00000000000E+00  0.00000000000E+00 -0.12463061642E+04  0.12463061642E+04  0.50400001928E-02 0.  1.
    10030    2    1    2    0    0  0.00000000000E+00  0.00000000000E+00 -0.39653539365E+03  0.20960769348E+04  0.20582269550E+04 0.  0.
        1    1    3    3  502    0 -0.45832184520E+03 -0.85785668492E+03 -0.54075189959E+03  0.11128295568E+04  0.50400001928E-02 0.  1.
       -1    1    3    3    0  502  0.45832184520E+03  0.85785668492E+03  0.14421650594E+03  0.98324737796E+03  0.50400001928E-02 0. -1.
</event>
<event>
 5   0  0.6263616E-05  0.2110093E+04  0.7818609E-02  0.8556810E-01
        1   -1    0    0  501    0  0.00000000000E+00  0.00000000000E+00  0.23165710337E+04  0.23165710337E+04  0.50400001928E-02 0. -1.
       -1   -1    0    0    0  501  0.00000000000E+00  0.00000000000E+00 -0.48050447563E+03  0.48050447565E+03  0.50400001928E-02 0.  1.
    10030    2    1    2    0    0  0.00000000000E+00  0.00000000000E+00  0.18360665581E+04  0.27970755094E+04  0.21100926519E+04 0.  0.
        4    1    3    3  502    0  0.39686913790E+03 -0.59122706256E+03 -0.11392665382E+03  0.72113483307E+03  0.12699999809E+01 0.  1.
       -4    1    3    3    0  502 -0.39686913790E+03  0.59122706256E+03  0.19499932119E+04  0.20759406763E+04  0.12699999809E+01 0. -1.
</event>
<event>
 5   0  0.6221148E-05  0.2106870E+04  0.7818609E-02  0.8558223E-01
       -1   -1    0    0    0  501  0.00000000000E+00  0.00000000000E+00  0.90898397940E+03  0.90898397941E+03  0.50400001928E-02 0.  1.
        1   -1    0    0  501    0  0.00000000000E+00  0.00000000000E+00 -0.12208418165E+04  0.12208418165E+04  0.50400001928E-02 0. -1.
    10030    2    1    2    0    0  0.00000000000E+00  0.00000000000E+00 -0.31185783705E+03  0.21298257959E+04  0.21068703354E+04 0.  0.
        3    1    3    3  502    0  0.52552575532E+03  0.24928144598E+03 -0.10437962684E+04  0.11949180805E+04  0.10100000352E+00 0. -1.
       -3    1    3    3    0  502 -0.52552575532E+03 -0.24928144598E+03  0.73193843138E+03  0.93490771542E+03  0.10100000352E+00 0.  1.
</event>
<event>
 5   0  0.1252477E-04  0.2132249E+04  0.7818609E-02  0.8547169E-01
       -2   -1    0    0    0  501  0.00000000000E+00  0.00000000000E+00  0.11162725805E+04  0.11162725805E+04  0.25500000920E-02 0. -1.
        2   -1    0    0  501    0  0.00000000000E+00  0.00000000000E+00 -0.10182297599E+04  0.10182297599E+04  0.25500000920E-02 0.  1.
    10030    2    1    2    0    0  0.00000000000E+00  0.00000000000E+00  0.98042820586E+02  0.21345023403E+04  0.21322494803E+04 0.  0.
        4    1    3    3  502    0 -0.82218291877E+02 -0.64869954734E+03 -0.79391898108E+03  0.10285328928E+04  0.12699999809E+01 0.  1.
       -4    1    3    3    0  502  0.82218291877E+02  0.64869954734E+03  0.89196180166E+03  0.11059694475E+04  0.12699999809E+01 0. -1.
</event>
<event>
 5   0  0.5933905E-05  0.2111099E+04  0.7818609E-02  0.8556370E-01
       -1   -1    0    0    0  501  0.00000000000E+00  0.00000000000E+00  0.12544879860E+04  0.12544879860E+04  0.50400001928E-02 0.  1.
        1   -1    0    0  501    0  0.00000000000E+00  0.00000000000E+00 -0.88815907279E+03  0.88815907281E+03  0.50400001928E-02 0. -1.
    10030    2    1    2    0    0  0.00000000000E+00  0.00000000000E+00  0.36632891322E+03  0.21426470588E+04  0.21110991322E+04 0.  0.
        2    1    3    3  502    0  0.96423664004E+03 -0.41906344378E+03  0.87854698643E+02  0.10550283958E+04  0.25500000920E-02 0.  1.
       -2    1    3    3    0  502 -0.96423664004E+03  0.41906344378E+03  0.27847421458E+03  0.10876186630E+04  0.25500000920E-02 0. -1.
</event>
<event>
 5   0  0.6221148E-05  0.2163499E+04  0.7818609E-02  0.8533776E-01
       -1   -1    0    0    0  501  0.00000000000E+00  0.00000000000E+00  0.11162359558E+04  0.11162359558E+04  0.50400001928E-02 0.  1.
        1   -1    0    0  501    0  0.00000000000E+00  0.00000000000E+00 -0.10483289736E+04  0.10483289736E+04  0.50400001928E-02 0. -1.
    10030    2    1    2    0    0  0.00000000000E+00  0.00000000000E+00  0.67906982250E+02  0.21645649294E+04  0.21634994743E+04 0.  0.
        3    1    3    3  502    0 -0.82125432949E+03  0.39926016493E+03 -0.54625893666E+03  0.10640799731E+04  0.10100000352E+00 0. -1.
       -3    1    3    3    0  502  0.82125432949E+03 -0.39926016493E+03  0.61416591891E+03  0.11004849564E+04  0.10100000352E+00 0.  1.
</event>
<event>
 5   0  0.1325673E-04  0.2064872E+04  0.7818609E-02  0.8576877E-01
        2   -1    0    0  501    0  0.00000000000E+00  0.00000000000E+00  0.20170217666E+04  0.20170217666E+04  0.25500000920E-02 0. -1.
       -2   -1    0    0    0  501  0.00000000000E+00  0.00000000000E+00 -0.52846421053E+03  0.52846421054E+03  0.25500000920E-02 0.  1.
    10030    2    1    2    0    0  0.00000000000E+00  0.00000000000E+00  0.14885575561E+04  0.25454859771E+04  0.20648717302E+04 0.  0.
        5    1    3    3  502    0  0.51617820396E+03  0.11707964040E+02 -0.35786752965E+03  0.62822629159E+03  0.46999998093E+01 0.  1.
       -5    1    3    3    0  502 -0.51617820396E+03 -0.11707964040E+02  0.18464250857E+04  0.19172596855E+04  0.46999998093E+01 0. -1.
</event>
<event>
 5   0  0.5933905E-05  0.2097292E+04  0.7818609E-02  0.8562437E-01
        1   -1    0    0  501    0  0.00000000000E+00  0.00000000000E+00  0.10953737135E+04  0.10953737135E+04  0.50400001928E-02 0. -1.
       -1   -1    0    0    0  501  0.00000000000E+00  0.00000000000E+00 -0.10039114110E+04  0.10039114110E+04  0.50400001928E-02 0.  1.
    10030    2    1    2    0    0  0.00000000000E+00  0.00000000000E+00  0.91462302462E+02  0.20992851245E+04  0.20972917492E+04 0.  0.
        2    1    3    3  502    0 -0.22286522495E+03 -0.80629639887E+03  0.67868917903E+03  0.10772194730E+04  0.25500000920E-02 0. -1.
       -2    1    3    3    0  502  0.22286522495E+03  0.80629639887E+03 -0.58722687657E+03  0.10220656515E+04  0.25500000920E-02 0.  1.
</event>
<event>
 5   0  0.5846187E-05  0.1916519E+04  0.7818609E-02  0.8646677E-01
        1   -1    0    0  501    0  0.00000000000E+00  0.00000000000E+00  0.98164451591E+03  0.98164451592E+03  0.50400001928E-02 0. -1.
       -1   -1    0    0    0  501  0.00000000000E+00  0.00000000000E+00 -0.93543201962E+03  0.93543201964E+03  0.50400001928E-02 0.  1.
    10030    2    1    2    0    0  0.00000000000E+00  0.00000000000E+00  0.46212496282E+02  0.19170765356E+04  0.19165194620E+04 0.  0.
        5    1    3    3  502    0  0.66442251092E+02 -0.25669173658E+03  0.94420744264E+03  0.98074206858E+03  0.46999998093E+01 0. -1.
       -5    1    3    3    0  502 -0.66442251092E+02  0.25669173658E+03 -0.89799494636E+03  0.93633446697E+03  0.46999998093E+01 0.  1.
</event>
<event>
 5   0  0.5846187E-05  0.2149359E+04  0.7818609E-02  0.8539807E-01
       -1   -1    0    0    0  501  0.00000000000E+00  0.00000000000E+00  0.47413827406E+03  0.47413827408E+03  0.50400001928E-02 0.  1.
        1   -1    0    0  501    0  0.00000000000E+00  0.00000000000E+00 -0.24358629356E+04  0.24358629356E+04  0.50400001928E-02 0. -1.
    10030    2    1    2    0    0  0.00000000000E+00  0.00000000000E+00 -0.19617246615E+04  0.29100012097E+04  0.21493588329E+04 0.  0.
        5    1    3    3  502    0 -0.16099662906E+03  0.36778581921E+03 -0.23305021499E+04  0.23648358684E+04  0.46999998093E+01 0. -1.
       -5    1    3    3    0  502  0.16099662906E+03 -0.36778581921E+03  0.36877748843E+03  0.54516534130E+03  0.46999998093E+01 0.  1.
</event>
<event>
 5   0  0.1349252E-04  0.2093679E+04  0.7818609E-02  0.8564033E-01
        2   -1    0    0  501    0  0.00000000000E+00  0.00000000000E+00  0.15689656092E+04  0.15689656092E+04  0.25500000920E-02 0. -1.
       -2   -1    0    0    0  501  0.00000000000E+00  0.00000000000E+00 -0.69846836233E+03  0.69846836233E+03  0.25500000920E-02 0.  1.
    10030    2    1    2    0    0  0.00000000000E+00  0.00000000000E+00  0.87049724683E+03  0.22674339715E+04  0.20936789053E+04 0.  0.
        2    1    3    3  502    0 -0.78829908106E+03  0.67839782722E+03  0.56445525182E+03  0.11833210826E+04  0.25500000920E-02 0.  1.
       -2    1    3    3    0  502  0.78829908106E+03 -0.67839782722E+03  0.30604199501E+03  0.10841128889E+04  0.25500000920E-02 0. -1.
</event>
<event>
 5   0  0.1349252E-04  0.2098228E+04  0.7818609E-02  0.8562024E-01
       -2   -1    0    0    0  501  0.00000000000E+00  0.00000000000E+00  0.13231534141E+04  0.13231534141E+04  0.25500000920E-02 0.  1.
        2   -1    0    0  501    0  0.00000000000E+00  0.00000000000E+00 -0.83183087278E+03  0.83183087279E+03  0.25500000920E-02 0. -1.
    10030    2    1    2    0    0  0.00000000000E+00  0.00000000000E+00  0.49132254130E+03  0.21549842869E+04  0.20982276895E+04 0.  0.
        2    1    3    3  502    0 -0.84972434207E+02 -0.29179946109E+03 -0.78562795542E+03  0.84236484044E+03  0.25500000920E-02 0. -1.
       -2    1    3    3    0  502  0.84972434207E+02  0.29179946109E+03  0.12769504967E+04  0.13126194464E+04  0.25500000920E-02 0.  1.
</event>
<event>
 5   0  0.1281470E-04  0.2109339E+04  0.7818609E-02  0.8557141E-01
        2   -1    0    0  501    0  0.00000000000E+00  0.00000000000E+00  0.17471875097E+04  0.17471875097E+04  0.25500000920E-02 0.  1.
       -2   -1    0    0    0  501  0.00000000000E+00  0.00000000000E+00 -0.63663886420E+03  0.63663886421E+03  0.25500000920E-02 0. -1.
    10030    2    1    2    0    0  0.00000000000E+00  0.00000000000E+00  0.11105486455E+04  0.23838263739E+04  0.21093387321E+04 0.  0.
        3    1    3    3  502    0 -0.67674196112E+03  0.69745041862E+03  0.92182118345E+02  0.97617330506E+03  0.10100000352E+00 0.  1.
       -3    1    3    3    0  502  0.67674196112E+03 -0.69745041862E+03  0.10183665271E+04  0.14076530688E+04  0.10100000352E+00 0. -1.
</event>
<event>
 5   0  0.1252477E-04  0.2112626E+04  0.7818609E-02  0.8555702E-01
       -2   -1    0    0    0  501  0.00000000000E+00  0.00000000000E+00  0.46734568778E+03  0.46734568779E+03  0.25500000920E-02 0.  1.
        2   -1    0    0  501    0  0.00000000000E+00  0.00000000000E+00 -0.23875207505E+04  0.23875207505E+04  0.25500000920E-02 0. -1.
    10030    2    1    2    0    0  0.00000000000E+00  0.00000000000E+00 -0.19201750627E+04  0.28548664383E+04  0.21126263534E+04 0.  0.
        4    1    3    3  502    0 -0.31438612968E+03  0.22062301155E+03  0.36964472039E+03  0.53305908113E+03  0.12699999809E+01 0.  1.
       -4    1    3    3    0  502  0.31438612968E+03 -0.22062301155E+03 -0.22898197831E+04  0.23218073572E+04  0.12699999809E+01 0. -1.
</event>
<event>
 5   0  0.6052292E-05  0.2041188E+04  0.7818609E-02  0.8587603E-01
       -1   -1    0    0    0  501  0.00000000000E+00  0.00000000000E+00  0.45409655738E+03  0.45409655741E+03  0.50400001928E-02 0.  1.
        1   -1    0    0  501    0  0.00000000000E+00  0.00000000000E+00 -0.22938110593E+04  0.22938110593E+04  0.50400001928E-02 0. -1.
    10030    2    1    2    0    0  0.00000000000E+00  0.00000000000E+00 -0.18397145019E+04  0.27479076167E+04  0.20411876007E+04 0.  0.
        1    1    3    3  502    0 -0.57963769438E+02 -0.91481372067E+03 -0.15239646840E+04  0.17784016138E+04  0.50400001928E-02 0.  1.
       -1    1    3    3    0  502  0.57963769438E+02  0.91481372067E+03 -0.31574981798E+03  0.96950600290E+03  0.50400001928E-02 0. -1.
</event>
<event>
 5   0  0.1252477E-04  0.2077795E+04  0.7818609E-02  0.8571088E-01
        2   -1    0    0  501    0  0.00000000000E+00  0.00000000000E+00  0.12297818274E+04  0.12297818274E+04  0.25500000920E-02 0.  1.
       -2   -1    0    0    0  501  0.00000000000E+00  0.00000000000E+00 -0.87764171816E+03  0.87764171817E+03  0.25500000920E-02 0. -1.
    10030    2    1    2    0    0  0.00000000000E+00  0.00000000000E+00  0.35214010920E+03  0.21074235455E+04  0.20777948272E+04 0.  0.
        4    1    3    3  502    0  0.31030287942E+03 -0.66358482340E+03  0.92323843704E+03  0.11785599346E+04  0.12699999809E+01 0.  1.
       -4    1    3    3    0  502 -0.31030287942E+03  0.66358482340E+03 -0.57109832784E+03  0.92886361097E+03  0.12699999809E+01 0. -1.
</event>
<event>
 5   0  0.6263616E-05  0.2101297E+04  0.7818609E-02  0.8560672E-01
        1   -1    0    0  501    0  0.00000000000E+00  0.00000000000E+00  0.93377695119E+03  0.93377695120E+03  0.50400001928E-02 0. -1.
       -1   -1    0    0    0  501  0.00000000000E+00  0.00000000000E+00 -0.11821473184E+04  0.11821473184E+04  0.50400001928E-02 0.  1.
    10030    2    1    2    0    0  0.00000000000E+00  0.00000000000E+00 -0.24837036719E+03  0.21159242696E+04  0.21012966652E+04 0.  0.
        4    1    3    3  502    0  0.52143005732E+03  0.54153533965E+03 -0.86326349803E+03  0.11447162568E+04  0.12699999809E+01 0.  1.
       -4    1    3    3    0  502 -0.52143005732E+03 -0.54153533965E+03  0.61489313083E+03  0.97120801274E+03  0.12699999809E+01 0. -1.
</event>
<event>
 5   0  0.1235817E-04  0.2105353E+04  0.7818609E-02  0.8558889E-01
       -2   -1    0    0    0  501  0.00000000000E+00  0.00000000000E+00  0.59028375486E+03  0.59028375486E+03  0.25500000920E-02 0. -1.
        2   -1    0    0  501    0  0.00000000000E+00  0.00000000000E+00 -0.18772803064E+04  0.18772803064E+04  0.25500000920E-02 0.  1.
    10030    2    1    2    0    0  0.00000000000E+00  0.00000000000E+00 -0.12869965515E+04  0.24675640612E+04  0.21053532418E+04 0.  0.
        1    1    3    3  502    0 -0.79731267220E+03  0.23209160534E+03  0.11476363554E+03  0.83829869533E+03  0.50400001928E-02 0.  1.
       -1    1    3    3    0  502  0.79731267220E+03 -0.23209160534E+03 -0.14017601870E+04  0.16292653659E+04  0.50400001928E-02 0. -1.
</event>
<event>
 5   0  0.6221148E-05  0.2095399E+04  0.7818609E-02  0.8563273E-01
       -1   -1    0    0    0  501  0.00000000000E+00  0.00000000000E+00  0.11405821874E+04  0.11405821874E+04  0.50400001928E-02 0.  1.
        1   -1    0    0  501    0  0.00000000000E+00  0.00000000000E+00 -0.96238073187E+03  0.96238073189E+03  0.50400001928E-02 0. -1.
    10030    2    1    2    0    0  0.00000000000E+00  0.00000000000E+00  0.17820145549E+03  0.21029629193E+04  0.20953990744E+04 0.  0.
        3    1    3    3  502    0 -0.65061875408E+03 -0.32133056522E+03  0.84755100170E+03  0.11157512294E+04  0.10100000352E+00 0.  1.
       -3    1    3    3    0  502  0.65061875408E+03  0.32133056522E+03 -0.66934954621E+03  0.98721168982E+03  0.10100000352E+00 0. -1.
</event>
<event>
 5   0  0.1281470E-04  0.2154065E+04  0.7818609E-02  0.8537794E-01
       -2   -1    0    0    0  501  0.00000000000E+00  0.00000000000E+00  0.75236388732E+03  0.75236388732E+03  0.25500000920E-02 0. -1.
        2   -1    0    0  501    0  0.00000000000E+00  0.00000000000E+00 -0.15418057510E+04  0.15418057510E+04  0.25500000920E-02 0.  1.
    10030    2    1    2    0    0  0.00000000000E+00  0.00000000000E+00 -0.78944186366E+03  0.22941696383E+04  0.21540649649E+04 0.  0.
        3    1    3    3  502    0 -0.86198331750E+03 -0.45601167210E+03  0.92222361794E+02  0.97952379193E+03  0.10100000352E+00 0. -1.
       -3    1    3    3    0  502  0.86198331750E+03  0.45601167210E+03 -0.88166422545E+03  0.13146458464E+04  0.10100000352E+00 0.  1.
</event>
<event>
 5   0  0.5846187E-05  0.2133496E+04  0.7818609E-02  0.8546630E-01
       -1   -1    0    0    0  501  0.00000000000E+00  0.00000000000E+00  0.94371752877E+03  0.94371752878E+03  0.50400001928E-02 0.  1.
        1   -1    0    0  501    0  0.00000000000E+00  0.00000000000E+00 -0.12058174662E+04  0.12058174662E+04  0.50400001928E-02 0. -1.
    10030    2    1    2    0    0  0.00000000000E+00  0.00000000000E+00 -0.26209993746E+03  0.21495349950E+04  0.21334957974E+04 0.  0.
        5    1    3    3  502    0 -0.91211646012E+03  0.17555667449E+03  0.39744320982E+03  0.10103265699E+04  0.46999998093E+01 0.  1.
       -5    1    3    3    0  502  0.91211646012E+03 -0.17555667449E+03 -0.65954314727E+03  0.11392084251E+04  0.46999998093E+01 0. -1.
</event>
<event>
 5   0  0.1235817E-04  0.2123375E+04  0.7818609E-02  0.8551016E-01
       -2   -1    0    0    0  501  0.00000000000E+00  0.00000000000E+00  0.92310492572E+03  0.92310492572E+03  0.25500000920E-02 0. -1.
        2   -1    0    0  501    0  0.00000000000E+00  0.00000000000E+00 -0.12210747349E+04  0.12210747349E+04  0.25500000920E-02 0.  1.
    10030    2    1    2    0    0  0.00000000000E+00  0.00000000000E+00 -0.29796980920E+03  0.21441796606E+04  0.21233747691E+04 0.  0.
        1    1    3    3  502    0  0.58121324755E+03 -0.27410683871E+03  0.70442091833E+03  0.95349474480E+03  0.50400001928E-02 0. -1.
       -1    1    3    3    0  502 -0.58121324755E+03  0.27410683871E+03 -0.10023907275E+04  0.11906849158E+04  0.50400001928E-02 0.  1.
</event>
<event>
 5   0  0.1281470E-04  0.2097743E+04  0.7818609E-02  0.8562238E-01
        2   -1    0    0  501    0  0.00000000000E+00  0.00000000000E+00  0.15497869929E+04  0.15497869929E+04  0.25500000920E-02 0. -1.
       -2   -1    0    0    0  501  0.00000000000E+00  0.00000000000E+00 -0.70985944906E+03  0.70985944906E+03  0.25500000920E-02 0.  1.
    10030    2    1    2    0    0  0.00000000000E+00  0.00000000000E+00  0.83992754382E+03  0.22596464419E+04  0.20977425399E+04 0.  0.
        3    1    3    3  502    0  0.14790397196E+03 -0.11227398813E+03  0.15319401986E+04  0.15431532055E+04  0.10100000352E+00 0. -1.
       -3    1    3    3    0  502 -0.14790397196E+03  0.11227398813E+03 -0.69201265477E+03  0.71649323646E+03  0.10100000352E+00 0.  1.
</event>
<event>
 5   0  0.5846187E-05  0.2079254E+04  0.7818609E-02  0.8570438E-01
        1   -1    0    0  501    0  0.00000000000E+00  0.00000000000E+00  0.18356503797E+04  0.18356503797E+04  0.50400001928E-02 0.  1.
       -1   -1    0    0    0  501  0.00000000000E+00  0.00000000000E+00 -0.58879643914E+03  0.58879643916E+03  0.50400001928E-02 0. -1.
    10030    2    1    2    0    0  0.00000000000E+00  0.00000000000E+00  0.12468539406E+04  0.24244468189E+04  0.20792541039E+04 0.  0.
        5    1    3    3  502    0 -0.72751102980E+02 -0.10292960198E+04  0.47566306171E+03  0.11362308118E+04  0.46999998093E+01 0. -1.
       -5    1    3    3    0  502  0.72751102980E+02  0.10292960198E+04  0.77119087888E+03  0.12882160071E+04  0.46999998093E+01 0.  1.
</event>
<event>
 5   0  0.6263616E-05  0.2113528E+04  0.7818609E-02  0.8555307E-01
       -1   -1    0    0    0  501  0.00000000000E+00  0.00000000000E+00  0.16408933508E+04  0.16408933508E+04  0.50400001928E-02 0.  1.
        1   -1    0    0  501    0  0.00000000000E+00  0.00000000000E+00 -0.68057473885E+03  0.68057473887E+03  0.50400001928E-02 0. -1.
    10030    2    1    2    0    0  0.00000000000E+00  0.00000000000E+00  0.96031861199E+03  0.23214680897E+04  0.21135283899E+04 0.  0.
        4    1    3    3  502    0  0.76026789328E+03 -0.38492181703E+03 -0.20628909267E+03  0.87677185027E+03  0.12699999809E+01 0. -1.
       -4    1    3    3    0  502 -0.76026789328E+03  0.38492181703E+03  0.11666077047E+04  0.14446962394E+04  0.12699999809E+01 0.  1.
</event>
<event>
 5   0  0.5933905E-05  0.2151429E+04  0.7818609E-02  0.8538921E-01
       -1   -1    0    0    0  501  0.00000000000E+00  0.00000000000E+00  0.12853711724E+04  0.12853711724E+04  0.50400001928E-02 0. -1.
        1   -1    0    0  501    0  0.00000000000E+00  0.00000000000E+00 -0.90025462716E+03  0.90025462717E+03  0.50400001928E-02 0.  1.
    10030    2    1    2    0    0  0.00000000000E+00  0.00000000000E+00  0.38511654524E+03  0.21856257996E+04  0.21514286840E+04 0.  0.
        2    1    3    3  502    0  0.45492946045E+03 -0.22348966798E+03  0.11564563599E+04  0.12626558351E+04  0.25500000920E-02 0. -1.
       -2    1    3    3    0  502 -0.45492946045E+03  0.22348966798E+03 -0.77133981462E+03  0.92296996446E+03  0.25500000920E-02 0.  1.
</event>
<event>
 5   0  0.1252477E-04  0.1923548E+04  0.7818609E-02  0.8643223E-01
       -2   -1    0    0    0  501  0.00000000000E+00  0.00000000000E+00  0.80607588370E+03  0.80607588370E+03  0.25500000920E-02 0. -1.
        2   -1    0    0  501    0  0.00000000000E+00  0.00000000000E+00 -0.11475456333E+04  0.11475456333E+04  0.25500000920E-02 0.  1.
    10030    2    1    2    0    0  0.00000000000E+00  0.00000000000E+00 -0.34146974958E+03  0.19536215170E+04  0.19235476188E+04 0.  0.
        4    1    3    3  502    0  0.49342094461E+03 -0.73611339057E+03 -0.55031612249E+03  0.10431570351E+04  0.12699999809E+01 0.  1.
       -4    1    3    3    0  502 -0.49342094461E+03  0.73611339057E+03  0.20884637291E+03  0.91046448186E+03  0.12699999809E+01 0. -1.
</event>
<event>
 5   0  0.1235817E-04  0.2115839E+04  0.7818609E-02  0.8554298E-01
       -2   -1    0    0    0  501  0.00000000000E+00  0.00000000000E+00  0.38449251543E+03  0.38449251544E+03  0.25500000920E-02 0.  1.
        2   -1    0    0  501    0  0.00000000000E+00  0.00000000000E+00 -0.29108343745E+04  0.29108343745E+04  0.25500000920E-02 0. -1.
    10030    2    1    2    0    0  0.00000000000E+00  0.00000000000E+00 -0.25263418591E+04  0.32953268900E+04  0.21158393424E+04 0.  0.
        1    1    3    3  502    0 -0.44884540845E+03 -0.64984298889E+03 -0.23594208104E+04  0.24880965961E+04  0.50400001928E-02 0. -1.
       -1    1    3    3    0  502  0.44884540845E+03  0.64984298889E+03 -0.16692104874E+03  0.80723029392E+03  0.50400001928E-02 0.  1.
</event>
<event>
 5   0  0.6052292E-05  0.2051725E+04  0.7818609E-02  0.8582812E-01
        1   -1    0    0  501    0  0.00000000000E+00  0.00000000000E+00  0.98354891942E+03  0.98354891944E+03  0.50400001928E-02 0. -1.
       -1   -1    0    0    0  501  0.00000000000E+00  0.00000000000E+00 -0.10699964678E+04  0.10699964678E+04  0.50400001928E-02 0.  1.
    10030    2    1    2    0    0  0.00000000000E+00  0.00000000000E+00 -0.86447548401E+02  0.20535453873E+04  0.20517250008E+04 0.  0.
        1    1    3    3  502    0  0.61740073948E+03 -0.81918032376E+03 -0.55636138711E+02  0.10272952136E+04  0.50400001928E-02 0.  1.
       -1    1    3    3    0  502 -0.61740073948E+03  0.81918032376E+03 -0.30811409689E+02  0.10262501737E+04  0.50400001928E-02 0. -1.
</event>
<event>
 5   0  0.1325673E-04  0.2070115E+04  0.7818609E-02  0.8574524E-01
       -2   -1    0    0    0  501  0.00000000000E+00  0.00000000000E+00  0.79291977766E+03  0.79291977767E+03  0.25500000920E-02 0.  1.
        2   -1    0    0  501    0  0.00000000000E+00  0.00000000000E+00 -0.13511376829E+04  0.13511376829E+04  0.25500000920E-02 0. -1.
    10030    2    1    2    0    0  0.00000000000E+00  0.00000000000E+00 -0.55821790520E+03  0.21440574605E+04  0.20701147708E+04 0.  0.
        5    1    3    3  502    0  0.18191504389E+03  0.44385344532E+03  0.67083393904E+03  0.82470554011E+03  0.46999998093E+01 0.  1.
       -5    1    3    3    0  502 -0.18191504389E+03 -0.44385344532E+03 -0.12290518442E+04  0.13193519204E+04  0.46999998093E+01 0. -1.
</event>
<event>
 5   0  0.6263616E-05  0.2102636E+04  0.7818609E-02  0.8560083E-01
        1   -1    0    0  501    0  0.00000000000E+00  0.00000000000E+00  0.98684262951E+03  0.98684262952E+03  0.50400001928E-02 0.  1.
       -1   -1    0    0    0  501  0.00000000000E+00  0.00000000000E+00 -0.11200059544E+04  0.11200059544E+04  0.50400001928E-02 0. -1.
    10030    2    1    2    0    0  0.00000000000E+00  0.00000000000E+00 -0.13316332488E+03  0.21068485839E+04  0.21026360799E+04 0.  0.
        4    1    3    3  502    0  0.19608901458E+03  0.70344647066E+03  0.69122723203E+03  0.10055269951E+04  0.12699999809E+01 0.  1.
       -4    1    3    3    0  502 -0.19608901458E+03 -0.70344647066E+03 -0.82439055691E+03  0.11013215888E+04  0.12699999809E+01 0. -1.
</event>
<event>
 5   0  0.6221148E-05  0.1909075E+04  0.7818609E-02  0.8650352E-01
        1   -1    0    0  501    0  0.00000000000E+00  0.00000000000E+00  0.74920032358E+03  0.74920032360E+03  0.50400001928E-02 0. -1.
       -1   -1    0    0    0  501  0.00000000000E+00  0.00000000000E+00 -0.12161530438E+04  0.12161530438E+04  0.50400001928E-02 0.  1.
    10030    2    1    2    0    0  0.00000000000E+00  0.00000000000E+00 -0.46695272019E+03  0.19653533674E+04  0.19090754348E+04 0.  0.
        3    1    3    3  502    0 -0.57192784049E+03  0.76419671607E+03 -0.24031818961E+03  0.98430224933E+03  0.10100000352E+00 0. -1.
       -3    1    3    3    0  502  0.57192784049E+03 -0.76419671607E+03 -0.22663453058E+03  0.98105111805E+03  0.10100000352E+00 0.  1.
</event>
<event>
 5   0  0.5933905E-05  0.2101997E+04  0.7818609E-02  0.8560364E-01
        1   -1    0    0  501    0  0.00000000000E+00  0.00000000000E+00  0.10811217025E+04  0.10811217025E+04  0.50400001928E-02 0. -1.
       -1   -1    0    0    0  501  0.00000000000E+00  0.00000000000E+00 -0.10217145209E+04  0.10217145209E+04  0.50400001928E-02 0.  1.
    10030    2    1    2    0    0  0.00000000000E+00  0.00000000000E+00  0.59407181649E+02  0.21028362234E+04  0.21019969004E+04 0.  0.
        2    1    3    3  502    0 -0.57405098483E+03  0.51814467644E+03 -0.68233148156E+03  0.10313024239E+04  0.25500000920E-02 0.  1.
       -2    1    3    3    0  502  0.57405098483E+03 -0.51814467644E+03  0.74173866321E+03  0.10715337995E+04  0.25500000920E-02 0. -1.
</event>
<event>
 5   0  0.1252477E-04  0.2124409E+04  0.7818609E-02  0.8550567E-01
       -2   -1    0    0    0  501  0.00000000000E+00  0.00000000000E+00  0.58839791970E+03  0.58839791971E+03  0.25500000920E-02 0.  1.
        2   -1    0    0  501    0  0.00000000000E+00  0.00000000000E+00 -0.19175434475E+04  0.19175434475E+04  0.25500000920E-02 0. -1.
    10030    2    1    2    0    0  0.00000000000E+00  0.00000000000E+00 -0.13291455278E+04  0.25059413672E+04  0.21244091653E+04 0.  0.
        4    1    3    3  502    0 -0.51250309383E+03  0.32467593845E+03  0.36391126096E+03  0.70746512631E+03  0.12699999809E+01 0.  1.
       -4    1    3    3    0  502  0.51250309383E+03 -0.32467593845E+03 -0.16930567887E+04  0.17984762409E+04  0.12699999809E+01 0. -1.
</event>
<event>
 5   0  0.6052292E-05  0.2080459E+04  0.7818609E-02  0.8569900E-01
        1   -1    0    0  501    0  0.00000000000E+00  0.00000000000E+00  0.26751828853E+04  0.26751828853E+04  0.50400001928E-02 0.  1.
       -1   -1    0    0    0  501  0.00000000000E+00  0.00000000000E+00 -0.40448737527E+03  0.40448737530E+03  0.50400001928E-02 0. -1.
    10030    2    1    2    0    0  0.00000000000E+00  0.00000000000E+00  0.22706955101E+04  0.30796702606E+04  0.20804592798E+04 0.  0.
        1    1    3    3  502    0 -0.72683225484E+02  0.96620203947E+02  0.26647463257E+04  0.26674878248E+04  0.50400001928E-02 0.  1.
       -1    1    3    3    0  502  0.72683225484E+02 -0.96620203947E+02 -0.39405081564E+03  0.41218243583E+03  0.50400001928E-02 0. -1.
</event>
<event>
 5   0  0.6221148E-05  0.2056628E+04  0.7818609E-02  0.8580593E-01
       -1   -1    0    0    0  501  0.00000000000E+00  0.00000000000E+00  0.75791147990E+03  0.75791147992E+03  0.50400001928E-02 0.  1.
        1   -1    0    0  501    0  0.00000000000E+00  0.00000000000E+00 -0.13951894982E+04  0.13951894982E+04  0.50400001928E-02 0. -1.
    10030    2    1    2    0    0  0.00000000000E+00  0.00000000000E+00 -0.63727801828E+03  0.21531009781E+04  0.20566284422E+04 0.  0.
        3    1    3    3  502    0 -0.15785574580E+03 -0.49032328856E+03  0.61310612133E+03  0.80077118454E+03  0.10100000352E+00 0.  1.
       -3    1    3    3    0  502  0.15785574580E+03  0.49032328856E+03 -0.12503841396E+04  0.13523297936E+04  0.10100000352E+00 0. -1.
</event>
<event>
 5   0  0.1349252E-04  0.2119452E+04  0.7818609E-02  0.8552723E-01
       -2   -1    0    0    0  501  0.00000000000E+00  0.00000000000E+00  0.85434787520E+03  0.85434787520E+03  0.25500000920E-02 0.  1.
        2   -1    0    0  501    0  0.00000000000E+00  0.00000000000E+00 -0.13144753968E+04  0.13144753968E+04  0.25500000920E-02 0. -1.
    10030    2    1    2    0    0  0.00000000000E+00  0.00000000000E+00 -0.46012752159E+03  0.21688232720E+04  0.21194520634E+04 0.  0.
        2    1    3    3  502    0 -0.92746483977E+03  0.41002099463E+03  0.84856655453E+02  0.10175995760E+04  0.25500000920E-02 0.  1.
       -2    1    3    3    0  502  0.92746483977E+03 -0.41002099463E+03 -0.54498417704E+03  0.11512236960E+04  0.25500000920E-02 0. -1.
</event>
<event>
 5   0  0.1252477E-04  0.2132166E+04  0.7818609E-02  0.8547205E-01
       -2   -1    0    0    0  501  0.00000000000E+00  0.00000000000E+00  0.62484114837E+03  0.62484114838E+03  0.25500000920E-02 0. -1.
        2   -1    0    0  501    0  0.00000000000E+00  0.00000000000E+00 -0.18189151395E+04  0.18189151395E+04  0.25500000920E-02 0.  1.
    10030    2    1    2    0    0  0.00000000000E+00  0.00000000000E+00 -0.11940739912E+04  0.24437562879E+04  0.21321660579E+04 0.  0.
        4    1    3    3  502    0  0.59583178671E+03  0.83387830662E+03 -0.93346870965E+03  0.13862662057E+04  0.12699999809E+01 0.  1.
       -4    1    3    3    0  502 -0.59583178671E+03 -0.83387830662E+03 -0.26060528151E+03  0.10574900822E+04  0.12699999809E+01 0. -1.
</event>
<event>
 5   0  0.5846187E-05  0.2106156E+04  0.7818609E-02  0.8558537E-01
       -1   -1    0    0    0  501  0.00000000000E+00  0.00000000000E+00  0.78488393281E+03  0.78488393282E+03  0.50400001928E-02 0. -1.
        1   -1    0    0  501    0  0.00000000000E+00  0.00000000000E+00 -0.14129133498E+04  0.14129133499E+04  0.50400001928E-02 0.  1.
    10030    2    1    2    0    0  0.00000000000E+00  0.00000000000E+00 -0.62802941704E+03  0.21977972827E+04  0.21061557272E+04 0.  0.
        5    1    3    3  502    0 -0.45541931161E+03  0.26938540042E+03 -0.12641119138E+04  0.13703927408E+04  0.46999998093E+01 0.  1.
       -5    1    3    3    0  502  0.45541931161E+03 -0.26938540042E+03  0.63608249674E+03  0.82740454193E+03  0.46999998093E+01 0. -1.
</event>
<event>
 5   0  0.1252477E-04  0.2080227E+04  0.7818609E-02  0.8570004E-01
       -2   -1    0    0    0  501  0.00000000000E+00  0.00000000000E+00  0.87209332412E+03  0.87209332413E+03  0.25500000920E-02 0.  1.
        2   -1    0    0  501    0  0.00000000000E+00  0.00000000000E+00 -0.12405047598E+04  0.12405047598E+04  0.25500000920E-02 0. -1.
    10030    2    1    2    0    0  0.00000000000E+00  0.00000000000E+00 -0.36841143563E+03  0.21125980839E+04  0.20802268333E+04 0.  0.
        4    1    3    3  502    0 -0.84228324940E+03 -0.92779293064E+02 -0.79673763427E+03  0.11631171653E+04  0.12699999809E+01 0. -1.
       -4    1    3    3    0  502  0.84228324940E+03  0.92779293064E+02  0.42832619864E+03  0.94948091860E+03  0.12699999809E+01 0.  1.
</event>
<event>
 5   0  0.5933905E-05  0.2111484E+04  0.7818609E-02  0.8556202E-01
        1   -1    0    0  501    0  0.00000000000E+00  0.00000000000E+00  0.16567359807E+04  0.16567359807E+04  0.50400001928E-02 0. -1.
       -1   -1    0    0    0  501  0.00000000000E+00  0.00000000000E+00 -0.67276311877E+03  0.67276311879E+03  0.50400001928E-02 0.  1.
    10030    2    1    2    0    0  0.00000000000E+00  0.00000000000E+00  0.98397286190E+03  0.23294990995E+04  0.21114837109E+04 0.  0.
        2    1    3    3  502    0 -0.49292893235E+03 -0.68229341721E+03  0.11950339654E+04  0.14617145473E+04  0.25500000920E-02 0. -1.
       -2    1    3    3    0  502  0.49292893235E+03  0.68229341721E+03 -0.21106110347E+03  0.86778455213E+03  0.25500000920E-02 0.  1.
</event>
<event>
 5   0  0.1325673E-04  0.2062420E+04  0.7818609E-02  0.8577981E-01
        2   -1    0    0  501    0  0.00000000000E+00  0.00000000000E+00  0.14238969639E+04  0.14238969639E+04  0.25500000920E-02 0.  1.
       -2   -1    0    0    0  501  0.00000000000E+00  0.00000000000E+00 -0.74681967669E+03  0.74681967670E+03  0.25500000920E-02 0. -1.
    10030    2    1    2    0    0  0.00000000000E+00  0.00000000000E+00  0.67707728718E+03  0.21707166406E+04  0.20624201999E+04 0.  0.
        5    1    3    3  502    0  0.34009338272E+03  0.27263700501E+03  0.13221579399E+04  0.13921631203E+04  0.46999998093E+01 0.  1.
       -5    1    3    3    0  502 -0.34009338272E+03 -0.27263700501E+03 -0.64508065270E+03  0.77855352029E+03  0.46999998093E+01 0. -1.
</event>
<event>
 5   0  0.6263616E-05  0.1663703E+04  0.7818609E-02  0.8782341E-01
       -1   -1    0    0    0  501  0.00000000000E+00  0.00000000000E+00  0.29673781445E+03  0.29673781449E+03  0.50400001928E-02 0. -1.
        1   -1    0    0  501    0  0.00000000000E+00  0.00000000000E+00 -0.23319467803E+04  0.23319467803E+04  0.50400001928E-02 0.  1.
    10030    2    1    2    0    0  0.00000000000E+00  0.00000000000E+00 -0.20352089659E+04  0.26286845948E+04  0.16637028474E+04 0.  0.
        4    1    3    3  502    0  0.56258143794E+03  0.50683926324E+03 -0.15617174440E+04  0.17356113911E+04  0.12699999809E+01 0.  1.
       -4    1    3    3    0  502 -0.56258143794E+03 -0.50683926324E+03 -0.47349152191E+03  0.89307320377E+03  0.12699999809E+01 0. -1.
</event>
<event>
 5   0  0.1281470E-04  0.2121054E+04  0.7818609E-02  0.8552025E-01
        2   -1    0    0  501    0  0.00000000000E+00  0.00000000000E+00  0.16347607234E+04  0.16347607234E+04  0.25500000920E-02 0.  1.
       -2   -1    0    0    0  501  0.00000000000E+00  0.00000000000E+00 -0.68800157442E+03  0.68800157442E+03  0.25500000920E-02 0. -1.
    10030    2    1    2    0    0  0.00000000000E+00  0.00000000000E+00  0.94675914898E+03  0.23227622978E+04  0.21210544090E+04 0.  0.
        3    1    3    3  502    0  0.10004740930E+04 -0.13029165680E+03  0.83124982911E+03  0.13072492552E+04  0.10100000352E+00 0.  1.
       -3    1    3    3    0  502 -0.10004740930E+04  0.13029165680E+03  0.11550931986E+03  0.10155130426E+04  0.10100000352E+00 0. -1.
</event>
<event>
 5   0  0.4615125E-05  0.2112445E+04  0.7818609E-02  0.8555781E-01
        4   -1    0    0  501    0  0.00000000000E+00  0.00000000000E+00  0.15091058104E+04  0.15091063448E+04  0.12699999809E+01 0.  1.
       -4   -1    0    0    0  501  0.00000000000E+00  0.00000000000E+00 -0.73924843765E+03  0.73924952855E+03  0.12699999809E+01 0. -1.
    10030    2    1    2    0    0  0.00000000000E+00  0.00000000000E+00  0.76985737273E+03  0.22483558733E+04  0.21124449718E+04 0.  0.
        4    1    3    3  502    0 -0.35918764353E+03 -0.64288347800E+03 -0.42094430998E+03  0.84823973885E+03  0.12699999809E+01 0. -1.
       -4    1    3    3    0  502  0.35918764353E+03  0.64288347800E+03  0.11908016827E+04  0.14001161345E+04  0.12699999809E+01 0.  1.
</event>
<event>
 5   0  0.1349252E-04  0.2105405E+04  0.7818609E-02  0.8558866E-01
        2   -1    0    0  501    0  0.00000000000E+00  0.00000000000E+00  0.15246550168E+04  0.15246550168E+04  0.25500000920E-02 0. -1.
       -2   -1    0    0    0  501  0.00000000000E+00  0.00000000000E+00 -0.72684178100E+03  0.72684178100E+03  0.25500000920E-02 0.  1.
    10030    2    1    2    0    0  0.00000000000E+00  0.00000000000E+00  0.79781323581E+03  0.22514967978E+04  0.21054053936E+04 0.  0.
        2    1    3    3  502    0 -0.40317584239E+03  0.56985340947E+03  0.12415546045E+04  0.14243389710E+04  0.25500000920E-02 0. -1.
       -2    1    3    3    0  502  0.40317584239E+03 -0.56985340947E+03 -0.44374136873E+03  0.82715782684E+03  0.25500000920E-02 0.  1.
</event>
<event>
 5   0  0.4615125E-05  0.1776773E+04  0.7818609E-02  0.8718750E-01
        3   -1    0    0  501    0  0.00000000000E+00  0.00000000000E+00  0.51470678778E+03  0.51470679769E+03  0.10100000352E+00 0.  1.
       -3   -1    0    0    0  501  0.00000000000E+00  0.00000000000E+00 -0.15333592884E+04  0.15333592917E+04  0.10100000352E+00 0. -1.
    10030    2    1    2    0    0  0.00000000000E+00  0.00000000000E+00 -0.10186525006E+04  0.20480660894E+04  0.17767728582E+04 0.  0.
        4    1    3    3  502    0 -0.29708362788E+03 -0.83626226251E+03 -0.46270884854E+03  0.10008468140E+04  0.12699999809E+01 0. -1.
       -4    1    3    3    0  502  0.29708362788E+03  0.83626226251E+03 -0.55594365208E+03  0.10472192754E+04  0.12699999809E+01 0.  1.
</event>
<event>
 5   0  0.1252477E-04  0.2075329E+04  0.7818609E-02  0.8572190E-01
        2   -1    0    0  501    0  0.00000000000E+00  0.00000000000E+00  0.10970384567E+04  0.10970384567E+04  0.25500000920E-02 0. -1.
       -2   -1    0    0    0  501  0.00000000000E+00  0.00000000000E+00 -0.98150415236E+03  0.98150415236E+03  0.25500000920E-02 0.  1.
    10030    2    1    2    0    0  0.00000000000E+00  0.00000000000E+00  0.11553430431E+03  0.20785426090E+04  0.20753291792E+04 0.  0.
        4    1    3    3  502    0  0.78828130457E+03  0.57503647595E+03 -0.29589690769E+03  0.10196131407E+04  0.12699999809E+01 0.  1.
       -4    1    3    3    0  502 -0.78828130457E+03 -0.57503647595E+03  0.41143121200E+03  0.10589294683E+04  0.12699999809E+01 0. -1.
</event>
<event>
 5   0  0.1325673E-04  0.2078976E+04  0.7818609E-02  0.8570562E-01
        2   -1    0    0  501    0  0.00000000000E+00  0.00000000000E+00  0.73636521821E+03  0.73636521822E+03  0.25500000920E-02 0. -1.
       -2   -1    0    0    0  501  0.00000000000E+00  0.00000000000E+00 -0.14673904100E+04  0.14673904100E+04  0.25500000920E-02 0.  1.
    10030    2    1    2    0    0  0.00000000000E+00  0.00000000000E+00 -0.73102519177E+03  0.22037556282E+04  0.20789759589E+04 0.  0.
        5    1    3    3  502    0  0.25984057896E+03  0.49820342135E+03  0.56149842108E+03  0.79437166515E+03  0.46999998093E+01 0. -1.
       -5    1    3    3    0  502 -0.25984057896E+03 -0.49820342135E+03 -0.12925236128E+04  0.14093839630E+04  0.46999998093E+01 0.  1.
</event>
<event>
 5   0  0.6263616E-05  0.2141279E+04  0.7818609E-02  0.8543275E-01
       -1   -1    0    0    0  501  0.00000000000E+00  0.00000000000E+00  0.65566221018E+03  0.65566221020E+03  0.50400001928E-02 0. -1.
        1   -1    0    0  501    0  0.00000000000E+00  0.00000000000E+00 -0.17482609653E+04  0.17482609653E+04  0.50400001928E-02 0.  1.
    10030    2    1    2    0    0  0.00000000000E+00  0.00000000000E+00 -0.10925987551E+04  0.24039231755E+04  0.21412787287E+04 0.  0.
        4    1    3    3  502    0  0.93573179572E+03 -0.28646505782E+03 -0.58736451401E+02  0.98036105925E+03  0.12699999809E+01 0.  1.
       -4    1    3    3    0  502 -0.93573179572E+03  0.28646505782E+03 -0.10338623037E+04  0.14235621162E+04  0.12699999809E+01 0. -1.
</event>
<event>
 5   0  0.4615125E-05  0.2097682E+04  0.7818609E-02  0.8562265E-01
        4   -1    0    0  501    0  0.00000000000E+00  0.00000000000E+00  0.93522069956E+03  0.93522156187E+03  0.12699999809E+01 0.  1.
       -4   -1    0    0    0  501  0.00000000000E+00  0.00000000000E+00 -0.11762637224E+04  0.11762644080E+04  0.12699999809E+01 0. -1.
    10030    2    1    2    0    0  0.00000000000E+00  0.00000000000E+00 -0.24104302284E+03  0.21114859699E+04  0.20976823549E+04 0.  0.
        5    1    3    3  502    0  0.88076077622E+03 -0.56410843218E+03 -0.41983353997E+02  0.10467772257E+04  0.46999998093E+01 0. -1.
       -5    1    3    3    0  502 -0.88076077622E+03  0.56410843218E+03 -0.19905966884E+03  0.10647087442E+04  0.46999998093E+01 0.  1.
</event>
<event>
 5   0  0.1325673E-04  0.2089007E+04  0.7818609E-02  0.8566101E-01
       -2   -1    0    0    0  501  0.00000000000E+00  0.00000000000E+00  0.14574187704E+04  0.14574187704E+04  0.25500000920E-02 0.  1.
        2   -1    0    0  501    0  0.00000000000E+00  0.00000000000E+00 -0.74857523197E+03  0.74857523197E+03  0.25500000920E-02 0. -1.
    10030    2    1    2    0    0  0.00000000000E+00  0.00000000000E+00  0.70884353843E+03  0.22059940024E+04  0.20890070312E+04 0.  0.
        5    1    3    3  502    0  0.34964242732E+03 -0.24293678733E+03 -0.65277169988E+03  0.77935941117E+03  0.46999998093E+01 0. -1.
       -5    1    3    3    0  502 -0.34964242732E+03  0.24293678733E+03  0.13616152383E+04  0.14266345912E+04  0.46999998093E+01 0.  1.
</event>
<event>
 5   0  0.6221148E-05  0.1965894E+04  0.7818609E-02  0.8622734E-01
       -1   -1    0    0    0  501  0.00000000000E+00  0.00000000000E+00  0.16578094706E+04  0.16578094706E+04  0.50400001928E-02 0. -1.
        1   -1    0    0  501    0  0.00000000000E+00  0.00000000000E+00 -0.58280830480E+03  0.58280830482E+03  0.50400001928E-02 0.  1.
    10030    2    1    2    0    0  0.00000000000E+00  0.00000000000E+00  0.10750011658E+04  0.22406177754E+04  0.19658943281E+04 0.  0.
        3    1    3    3  502    0 -0.43221998988E+03 -0.88281647071E+03  0.54031010992E+03  0.11216568395E+04  0.10100000352E+00 0.  1.
       -3    1    3    3    0  502  0.43221998988E+03  0.88281647071E+03  0.53469105588E+03  0.11189609359E+04  0.10100000352E+00 0. -1.
</event>
<event>
 5   0  0.1235817E-04  0.2093692E+04  0.7818609E-02  0.8564027E-01
       -2   -1    0    0    0  501  0.00000000000E+00  0.00000000000E+00  0.36050357083E+03  0.36050357084E+03  0.25500000920E-02 0.  1.
        2   -1    0    0  501    0  0.00000000000E+00  0.00000000000E+00 -0.30398769958E+04  0.30398769958E+04  0.25500000920E-02 0. -1.
    10030    2    1    2    0    0  0.00000000000E+00  0.00000000000E+00 -0.26793734249E+04  0.34003805666E+04  0.20936919658E+04 0.  0.
        1    1    3    3  502    0 -0.16011826218E+03 -0.24588114142E+03  0.29235221077E+03  0.41420430799E+03  0.50400001928E-02 0.  1.
       -1    1    3    3    0  502  0.16011826218E+03  0.24588114142E+03 -0.29717256357E+04  0.29861762586E+04  0.50400001928E-02 0. -1.
</event>
<event>
 5   0  0.6052292E-05  0.2138591E+04  0.7818609E-02  0.8544432E-01
        1   -1    0    0  501    0  0.00000000000E+00  0.00000000000E+00  0.18897568808E+04  0.18897568808E+04  0.50400001928E-02 0. -1.
       -1   -1    0    0    0  501  0.00000000000E+00  0.00000000000E+00 -0.60504732828E+03  0.60504732831E+03  0.50400001928E-02 0.  1.
    10030    2    1    2    0    0  0.00000000000E+00  0.00000000000E+00  0.12847095526E+04  0.24948042091E+04  0.21385905189E+04 0.  0.
        1    1    3    3  502    0 -0.29093934341E+03  0.10063936847E+04  0.89233302011E+03  0.13761294158E+04  0.50400001928E-02 0. -1.
       -1    1    3    3    0  502  0.29093934341E+03 -0.10063936847E+04  0.39237653244E+03  0.11186747934E+04  0.50400001928E-02 0.  1.
</event>
<event>
 5   0  0.1235817E-04  0.2543769E+04  0.7818609E-02  0.8387556E-01
        2   -1    0    0  501    0  0.00000000000E+00  0.00000000000E+00  0.17120512039E+04  0.17120512039E+04  0.25500000920E-02 0. -1.
       -2   -1    0    0    0  501  0.00000000000E+00  0.00000000000E+00 -0.94488439872E+03  0.94488439873E+03  0.25500000920E-02 0.  1.
    10030    2    1    2    0    0  0.00000000000E+00  0.00000000000E+00  0.76716680521E+03  0.26569356027E+04  0.25437692289E+04 0.  0.
        1    1    3    3  502    0  0.19655652950E+03  0.10806388700E+04 -0.28625464146E+03  0.11350579529E+04  0.50400001928E-02 0.  1.
       -1    1    3    3    0  502 -0.19655652950E+03 -0.10806388700E+04  0.10534214467E+04  0.15218776498E+04  0.50400001928E-02 0. -1.
</event>
<event>
 5   0  0.1235817E-04  0.2098644E+04  0.7818609E-02  0.8561841E-01
       -2   -1    0    0    0  501  0.00000000000E+00  0.00000000000E+00  0.18421265467E+04  0.18421265467E+04  0.25500000920E-02 0.  1.
        2   -1    0    0  501    0  0.00000000000E+00  0.00000000000E+00 -0.59772050737E+03  0.59772050738E+03  0.25500000920E-02 0. -1.
    10030    2    1    2    0    0  0.00000000000E+00  0.00000000000E+00  0.12444060393E+04  0.24398470541E+04  0.20986441472E+04 0.  0.
        1    1    3    3  502    0  0.66706784033E+01 -0.20891723850E+03  0.18176781791E+04  0.18296570371E+04  0.50400001928E-02 0.  1.
       -1    1    3    3    0  502 -0.66706784033E+01  0.20891723850E+03 -0.57327213982E+03  0.61019001697E+03  0.50400001928E-02 0. -1.
</event>
<event>
 5   0  0.1325673E-04  0.2101023E+04  0.7818609E-02  0.8560793E-01
       -2   -1    0    0    0  501  0.00000000000E+00  0.00000000000E+00  0.52739685532E+03  0.52739685533E+03  0.25500000920E-02 0. -1.
        2   -1    0    0  501    0  0.00000000000E+00  0.00000000000E+00 -0.20924929055E+04  0.20924929055E+04  0.25500000920E-02 0.  1.
    10030    2    1    2    0    0  0.00000000000E+00  0.00000000000E+00 -0.15650960502E+04  0.26198897608E+04  0.21010227777E+04 0.  0.
        5    1    3    3  502    0 -0.48915230421E+03  0.23964610050E+03 -0.19026283240E+04  0.19790696955E+04  0.46999998093E+01 0.  1.
       -5    1    3    3    0  502  0.48915230421E+03 -0.23964610050E+03  0.33753227388E+03  0.64082006531E+03  0.46999998093E+01 0. -1.
</event>
<event>
 5   0  0.1281470E-04  0.2104118E+04  0.7818609E-02  0.8559431E-01
       -2   -1    0    0    0  501  0.00000000000E+00  0.00000000000E+00  0.10452489816E+04  0.10452489816E+04  0.25500000920E-02 0.  1.
        2   -1    0    0  501    0  0.00000000000E+00  0.00000000000E+00 -0.10589134957E+04  0.10589134957E+04  0.25500000920E-02 0. -1.
    10030    2    1    2    0    0  0.00000000000E+00  0.00000000000E+00 -0.13664514113E+02  0.21041624773E+04  0.21041181079E+04 0.  0.
        3    1    3    3  502    0 -0.51496884378E+03  0.64381398973E+03  0.64674015185E+03  0.10478369137E+04  0.10100000352E+00 0.  1.
       -3    1    3    3    0  502  0.51496884378E+03 -0.64381398973E+03 -0.66040466596E+03  0.10563255637E+04  0.10100000352E+00 0. -1.
</event>
<event>
 5   0  0.5933905E-05  0.2019589E+04  0.7818609E-02  0.8597516E-01
        1   -1    0    0  501    0  0.00000000000E+00  0.00000000000E+00  0.75275032701E+03  0.75275032703E+03  0.50400001928E-02 0. -1.
       -1   -1    0    0    0  501  0.00000000000E+00  0.00000000000E+00 -0.13546130594E+04  0.13546130594E+04  0.50400001928E-02 0.  1.
    10030    2    1    2    0    0  0.00000000000E+00  0.00000000000E+00 -0.60186273238E+03  0.21073633864E+04  0.20195894865E+04 0.  0.
        2    1    3    3  502    0  0.30209864582E+03 -0.94246536817E+03 -0.91767841907E+02  0.99394461557E+03  0.25500000920E-02 0.  1.
       -2    1    3    3    0  502 -0.30209864582E+03  0.94246536817E+03 -0.51009489047E+03  0.11134187709E+04  0.25500000920E-02 0. -1.
</event>
<event>
 5   0  0.6221148E-05  0.2111229E+04  0.7818609E-02  0.8556313E-01
       -1   -1    0    0    0  501  0.00000000000E+00  0.00000000000E+00  0.69424325343E+03  0.69424325345E+03  0.50400001928E-02 0. -1.
        1   -1    0    0  501    0  0.00000000000E+00  0.00000000000E+00 -0.16050891477E+04  0.16050891477E+04  0.50400001928E-02 0.  1.
    10030    2    1    2    0    0  0.00000000000E+00  0.00000000000E+00 -0.91084589424E+03  0.22993324011E+04  0.21112293215E+04 0.  0.
        3    1    3    3  502    0 -0.36053740743E+03 -0.16251820960E+03  0.61051428188E+03  0.72741122426E+03  0.10100000352E+00 0. -1.
       -3    1    3    3    0  502  0.36053740743E+03  0.16251820960E+03 -0.15213601761E+04  0.15719211769E+04  0.10100000352E+00 0.  1.
</event>
<event>
 5   0  0.4615125E-05  0.1803255E+04  0.7818609E-02  0.8704571E-01
       -3   -1    0    0    0  501  0.00000000000E+00  0.00000000000E+00  0.77897938349E+03  0.77897939004E+03  0.10100000352E+00 0.  1.
        3   -1    0    0  501    0  0.00000000000E+00  0.00000000000E+00 -0.10435859019E+04  0.10435859068E+04  0.10100000352E+00 0. -1.
    10030    2    1    2    0    0  0.00000000000E+00  0.00000000000E+00 -0.26460651844E+03  0.18225652969E+04  0.18032547384E+04 0.  0.
        1    1    3    3  502    0  0.27346332731E+03  0.58502702430E+03  0.50363504166E+03  0.81895486186E+03  0.50400001928E-02 0.  1.
       -1    1    3    3    0  502 -0.27346332731E+03 -0.58502702430E+03 -0.76824156010E+03  0.10036104350E+04  0.50400001928E-02 0. -1.
</event>
<event>
 5   0  0.5933905E-05  0.2207520E+04  0.7818609E-02  0.8515305E-01
       -1   -1    0    0    0  501  0.00000000000E+00  0.00000000000E+00  0.14457800512E+04  0.14457800512E+04  0.50400001928E-02 0. -1.
        1   -1    0    0  501    0  0.00000000000E+00  0.00000000000E+00 -0.84264976552E+03  0.84264976553E+03  0.50400001928E-02 0.  1.
    10030    2    1    2    0    0  0.00000000000E+00  0.00000000000E+00  0.60313028569E+03  0.22884298168E+04  0.22075200757E+04 0.  0.
        2    1    3    3  502    0  0.51061262161E+03  0.57080261040E+03  0.11255210344E+04  0.13613737431E+04  0.25500000920E-02 0. -1.
       -2    1    3    3    0  502 -0.51061262161E+03 -0.57080261040E+03 -0.52239074873E+03  0.92705607368E+03  0.25500000920E-02 0.  1.
</event>
<event>
 5   0  0.6052292E-05  0.2110570E+04  0.7818609E-02  0.8556601E-01
       -1   -1    0    0    0  501  0.00000000000E+00  0.00000000000E+00  0.80824875585E+03  0.80824875586E+03  0.50400001928E-02 0. -1.
        1   -1    0    0  501    0  0.00000000000E+00  0.00000000000E+00 -0.13778269274E+04  0.13778269274E+04  0.50400001928E-02 0.  1.
    10030    2    1    2    0    0  0.00000000000E+00  0.00000000000E+00 -0.56957817155E+03  0.21860756833E+04  0.21105704441E+04 0.  0.
        1    1    3    3  502    0  0.10510722621E+04  0.24277001275E+02 -0.37906523156E+03  0.11176013255E+04  0.50400001928E-02 0.  1.
       -1    1    3    3    0  502 -0.10510722621E+04 -0.24277001275E+02 -0.19051293999E+03  0.10684743578E+04  0.50400001928E-02 0. -1.
</event>
<event>
 5   0  0.1235817E-04  0.2074922E+04  0.7818609E-02  0.8572372E-01
       -2   -1    0    0    0  501  0.00000000000E+00  0.00000000000E+00  0.10572514547E+04  0.10572514547E+04  0.25500000920E-02 0. -1.
        2   -1    0    0  501    0  0.00000000000E+00  0.00000000000E+00 -0.10180410835E+04  0.10180410835E+04  0.25500000920E-02 0.  1.
    10030    2    1    2    0    0  0.00000000000E+00  0.00000000000E+00  0.39210371219E+02  0.20752925382E+04  0.20749220867E+04 0.  0.
        1    1    3    3  502    0 -0.17584848067E+03 -0.69382016376E+03 -0.73153909001E+03  0.10234542237E+04  0.50400001928E-02 0.  1.
       -1    1    3    3    0  502  0.17584848067E+03  0.69382016376E+03  0.77074946123E+03  0.10518383145E+04  0.50400001928E-02 0. -1.
</event>
<event>
 5   0  0.6221148E-05  0.2347311E+04  0.7818609E-02  0.8459497E-01
        1   -1    0    0  501    0  0.00000000000E+00  0.00000000000E+00  0.20674841608E+04  0.20674841608E+04  0.50400001928E-02 0. -1.
       -1   -1    0    0    0  501  0.00000000000E+00  0.00000000000E+00 -0.66625294507E+03  0.66625294509E+03  0.50400001928E-02 0.  1.
    10030    2    1    2    0    0  0.00000000000E+00  0.00000000000E+00  0.14012312157E+04  0.27337371059E+04  0.23473111520E+04 0.  0.
        3    1    3    3  502    0 -0.96250139124E+02 -0.65159063155E+03  0.18319412651E+04  0.19467519743E+04  0.10100000352E+00 0. -1.
       -3    1    3    3    0  502  0.96250139124E+02  0.65159063155E+03 -0.43071004943E+03  0.78698513156E+03  0.10100000352E+00 0.  1.
</event>
<event>
 5   0  0.1349252E-04  0.2073001E+04  0.7818609E-02  0.8573231E-01
       -2   -1    0    0    0  501  0.00000000000E+00  0.00000000000E+00  0.39816462553E+03  0.39816462554E+03  0.25500000920E-02 0. -1.
        2   -1    0    0  501    0  0.00000000000E+00  0.00000000000E+00 -0.26982142488E+04  0.26982142488E+04  0.25500000920E-02 0.  1.
    10030    2    1    2    0    0  0.00000000000E+00  0.00000000000E+00 -0.23000496233E+04  0.30963788744E+04  0.20730011732E+04 0.  0.
        2    1    3    3  502    0  0.31963994637E+03  0.63745366459E+02 -0.26196775391E+04  0.26398756744E+04  0.25500000920E-02 0.  1.
       -2    1    3    3    0  502 -0.31963994637E+03 -0.63745366459E+02  0.31962791581E+03  0.45650320003E+03  0.25500000920E-02 0. -1.
</event>
<event>
 5   0  0.5846187E-05  0.2118932E+04  0.7818609E-02  0.8552949E-01
        1   -1    0    0  501    0  0.00000000000E+00  0.00000000000E+00  0.38294783782E+03  0.38294783786E+03  0.50400001928E-02 0. -1.
       -1   -1    0    0    0  501  0.00000000000E+00  0.00000000000E+00 -0.29311262416E+04  0.29311262416E+04  0.50400001928E-02 0.  1.
    10030    2    1    2    0    0  0.00000000000E+00  0.00000000000E+00 -0.25481784038E+04  0.33140740795E+04  0.21189322374E+04 0.  0.
        5    1    3    3  502    0 -0.62761903873E+03  0.29684190197E+02  0.60074935886E+02  0.63120353044E+03  0.46999998093E+01 0. -1.
       -5    1    3    3    0  502  0.62761903873E+03 -0.29684190197E+02 -0.26082533397E+04  0.26828705491E+04  0.46999998093E+01 0.  1.
</event>
<event>
 5   0  0.1252477E-04  0.2314014E+04  0.7818609E-02  0.8472416E-01
        2   -1    0    0  501    0  0.00000000000E+00  0.00000000000E+00  0.20597481056E+04  0.20597481056E+04  0.25500000920E-02 0.  1.
       -2   -1    0    0    0  501  0.00000000000E+00  0.00000000000E+00 -0.64991694957E+03  0.64991694957E+03  0.25500000920E-02 0. -1.
    10030    2    1    2    0    0  0.00000000000E+00  0.00000000000E+00  0.14098311561E+04  0.27096650552E+04  0.23140140066E+04 0.  0.
        4    1    3    3  502    0 -0.55527554395E+03  0.49181485078E+03 -0.33485357869E+03  0.81384354100E+03  0.12699999809E+01 0. -1.
       -4    1    3    3    0  502  0.55527554395E+03 -0.49181485078E+03  0.17446847348E+04  0.18958215142E+04  0.12699999809E+01 0.  1.
</event>
<event>
 5   0  0.1235817E-04  0.2034401E+04  0.7818609E-02  0.8590704E-01
        2   -1    0    0  501    0  0.00000000000E+00  0.00000000000E+00  0.16003503333E+04  0.16003503333E+04  0.25500000920E-02 0.  1.
       -2   -1    0    0    0  501  0.00000000000E+00  0.00000000000E+00 -0.64654382984E+03  0.64654382985E+03  0.25500000920E-02 0. -1.
    10030    2    1    2    0    0  0.00000000000E+00  0.00000000000E+00  0.95380650341E+03  0.22468941631E+04  0.20344007801E+04 0.  0.
        1    1    3    3  502    0 -0.54371851988E+03 -0.85875822248E+03  0.52109671575E+03  0.11422072057E+04  0.50400001928E-02 0. -1.
       -1    1    3    3    0  502  0.54371851988E+03  0.85875822248E+03  0.43270978766E+03  0.11046869574E+04  0.50400001928E-02 0.  1.
</event>
<event>
 5   0  0.1235817E-04  0.2014868E+04  0.7818609E-02  0.8599701E-01
       -2   -1    0    0    0  501  0.00000000000E+00  0.00000000000E+00  0.43737353105E+03  0.43737353106E+03  0.25500000920E-02 0. -1.
        2   -1    0    0  501    0  0.00000000000E+00  0.00000000000E+00 -0.23204946782E+04  0.23204946782E+04  0.25500000920E-02 0.  1.
    10030    2    1    2    0    0  0.00000000000E+00  0.00000000000E+00 -0.18831211471E+04  0.27578682092E+04  0.20148676891E+04 0.  0.
        1    1    3    3  502    0 -0.23604412924E+03 -0.97652681040E+03 -0.10440029127E+04  0.14488835440E+04  0.50400001928E-02 0. -1.
       -1    1    3    3    0  502  0.23604412924E+03  0.97652681040E+03 -0.83911823442E+03  0.13089846652E+04  0.50400001928E-02 0.  1.
</event>
<event>
 5   0  0.6263616E-05  0.2098023E+04  0.7818609E-02  0.8562115E-01
        1   -1    0    0  501    0  0.00000000000E+00  0.00000000000E+00  0.93369840306E+03  0.93369840308E+03  0.50400001928E-02 0. -1.
       -1   -1    0    0    0  501  0.00000000000E+00  0.00000000000E+00 -0.11785656007E+04  0.11785656007E+04  0.50400001928E-02 0.  1.
    10030    2    1    2    0    0  0.00000000000E+00  0.00000000000E+00 -0.24486719761E+03  0.21122640038E+04  0.20980227065E+04 0.  0.
        4    1    3    3  502    0 -0.10396770445E+04 -0.48384193370E+02 -0.25429522583E+03  0.10714182478E+04  0.12699999809E+01 0.  1.
       -4    1    3    3    0  502  0.10396770445E+04  0.48384193370E+02  0.94280282219E+01  0.10408457559E+04  0.12699999809E+01 0. -1.
</event>
<event>
 5   0  0.1252477E-04  0.2053784E+04  0.7818609E-02  0.8581880E-01
       -2   -1    0    0    0  501  0.00000000000E+00  0.00000000000E+00  0.60155943471E+03  0.60155943472E+03  0.25500000920E-02 0. -1.
        2   -1    0    0  501    0  0.00000000000E+00  0.00000000000E+00 -0.17529561553E+04  0.17529561553E+04  0.25500000920E-02 0.  1.
    10030    2    1    2    0    0  0.00000000000E+00  0.00000000000E+00 -0.11513967206E+04  0.23545155900E+04  0.20537841307E+04 0.  0.
        4    1    3    3  502    0  0.40669061722E+03  0.86464421833E+03 -0.14445424338E+03  0.96637235254E+03  0.12699999809E+01 0. -1.
       -4    1    3    3    0  502 -0.40669061722E+03 -0.86464421833E+03 -0.10069424772E+04  0.13881432374E+04  0.12699999809E+01 0.  1.
</event>
<event>
 5   0  0.1252477E-04  0.2100994E+04  0.7818609E-02  0.8560805E-01
       -2   -1    0    0    0  501  0.00000000000E+00  0.00000000000E+00  0.74202994299E+03  0.74202994299E+03  0.25500000920E-02 0.  1.
        2   -1    0    0  501    0  0.00000000000E+00  0.00000000000E+00 -0.14871966373E+04  0.14871966373E+04  0.25500000920E-02 0. -1.
    10030    2    1    2    0    0  0.00000000000E+00  0.00000000000E+00 -0.74516669434E+03  0.22292265803E+04  0.21009944655E+04 0.  0.
        4    1    3    3  502    0  0.72953934913E+03  0.74098089965E+03 -0.53089611941E+03  0.11675327225E+04  0.12699999809E+01 0. -1.
       -4    1    3    3    0  502 -0.72953934913E+03 -0.74098089965E+03 -0.21427057493E+03  0.10616938578E+04  0.12699999809E+01 0.  1.
</event>
<event>
 5   0  0.5933905E-05  0.2001945E+04  0.7818609E-02  0.8605712E-01
        1   -1    0    0  501    0  0.00000000000E+00  0.00000000000E+00  0.11217142786E+04  0.11217142786E+04  0.50400001928E-02 0.  1.
       -1   -1    0    0    0  501  0.00000000000E+00  0.00000000000E+00 -0.89322734175E+03  0.89322734176E+03  0.50400001928E-02 0. -1.
    10030    2    1    2    0    0  0.00000000000E+00  0.00000000000E+00  0.22848693689E+03  0.20149416204E+04  0.20019449177E+04 0.  0.
        2    1    3    3  502    0  0.92680703702E+03  0.33555793755E+02  0.49331646866E+03  0.10504562882E+04  0.25500000920E-02 0.  1.
       -2    1    3    3    0  502 -0.92680703702E+03 -0.33555793755E+02 -0.26482953177E+03  0.96448533222E+03  0.25500000920E-02 0. -1.
</event>
<event>
 5   0  0.1235817E-04  0.2123670E+04  0.7818609E-02  0.8550888E-01
       -2   -1    0    0    0  501  0.00000000000E+00  0.00000000000E+00  0.63607251686E+03  0.63607251686E+03  0.25500000920E-02 0.  1.
        2   -1    0    0  501    0  0.00000000000E+00  0.00000000000E+00 -0.17725862875E+04  0.17725862875E+04  0.25500000920E-02 0. -1.
    10030    2    1    2    0    0  0.00000000000E+00  0.00000000000E+00 -0.11365137706E+04  0.24086588044E+04  0.21236698625E+04 0.  0.
        1    1    3    3  502    0 -0.64819923776E+03 -0.10440707874E+03  0.37825728394E+03  0.75772136225E+03  0.50400001928E-02 0.  1.
       -1    1    3    3    0  502  0.64819923776E+03  0.10440707874E+03 -0.15147710546E+04  0.16509374421E+04  0.50400001928E-02 0. -1.
</event>
<event>
 5   0  0.5846187E-05  0.2048558E+04  0.7818609E-02  0.8584249E-01
       -1   -1    0    0    0  501  0.00000000000E+00  0.00000000000E+00  0.39299957067E+03  0.39299957070E+03  0.50400001928E-02 0. -1.
        1   -1    0    0  501    0  0.00000000000E+00  0.00000000000E+00 -0.26695898627E+04  0.26695898627E+04  0.50400001928E-02 0.  1.
    10030    2    1    2    0    0  0.00000000000E+00  0.00000000000E+00 -0.22765902920E+04  0.30625894334E+04  0.20485581954E+04 0.  0.
        5    1    3    3  502    0 -0.97509885863E+03 -0.23695792929E+03 -0.14452568962E+04  0.17594761807E+04  0.46999998093E+01 0.  1.
       -5    1    3    3    0  502  0.97509885863E+03  0.23695792929E+03 -0.83133339577E+03  0.13031132527E+04  0.46999998093E+01 0. -1.
</event>
<event>
 5   0  0.5846187E-05  0.2287427E+04  0.7818609E-02  0.8482895E-01
       -1   -1    0    0    0  501  0.00000000000E+00  0.00000000000E+00  0.10850362259E+04  0.10850362259E+04  0.50400001928E-02 0. -1.
        1   -1    0    0  501    0  0.00000000000E+00  0.00000000000E+00 -0.12055635060E+04  0.12055635060E+04  0.50400001928E-02 0.  1.
    10030    2    1    2    0    0  0.00000000000E+00  0.00000000000E+00 -0.12052728009E+03  0.22905997319E+04  0.22874265685E+04 0.  0.
        5    1    3    3  502    0 -0.50442670013E+03 -0.10222357498E+04 -0.15337522044E+03  0.11501992315E+04  0.46999998093E+01 0. -1.
       -5    1    3    3    0  502  0.50442670013E+03  0.10222357498E+04  0.32847940345E+02  0.11404005003E+04  0.46999998093E+01 0.  1.
</event>
<event>
 5   0  0.5846187E-05  0.2097574E+04  0.7818609E-02  0.8562313E-01
        1   -1    0    0  501    0  0.00000000000E+00  0.00000000000E+00  0.16819303448E+04  0.16819303448E+04  0.50400001928E-02 0. -1.
       -1   -1    0    0    0  501  0.00000000000E+00  0.00000000000E+00 -0.65398336474E+03  0.65398336476E+03  0.50400001928E-02 0.  1.
    10030    2    1    2    0    0  0.00000000000E+00  0.00000000000E+00  0.10279469801E+04  0.23359137096E+04  0.20975742811E+04 0.  0.
        5    1    3    3  502    0  0.84141913694E+03 -0.61216890058E+02 -0.17987793900E+03  0.86261917123E+03  0.46999998093E+01 0.  1.
       -5    1    3    3    0  502 -0.84141913694E+03  0.61216890058E+02  0.12078249191E+04  0.14732945384E+04  0.46999998093E+01 0. -1.
</event>
<event>
 5   0  0.5933905E-05  0.2102108E+04  0.7818609E-02  0.8560315E-01
       -1   -1    0    0    0  501  0.00000000000E+00  0.00000000000E+00  0.10100962380E+04  0.10100962380E+04  0.50400001928E-02 0.  1.
        1   -1    0    0  501    0  0.00000000000E+00  0.00000000000E+00 -0.10936729269E+04  0.10936729269E+04  0.50400001928E-02 0. -1.
    10030    2    1    2    0    0  0.00000000000E+00  0.00000000000E+00 -0.83576688873E+02  0.21037691650E+04  0.21021083789E+04 0.  0.
        2    1    3    3  502    0 -0.52427067931E+03 -0.85224649232E+03 -0.36380501461E+03  0.10646773772E+04  0.25500000920E-02 0. -1.
       -2    1    3    3    0  502  0.52427067931E+03  0.85224649232E+03  0.28022832573E+03  0.10390917878E+04  0.25500000920E-02 0.  1.
</event>
<event>
 5   0  0.1281470E-04  0.2104100E+04  0.7818609E-02  0.8559439E-01
       -2   -1    0    0    0  501  0.00000000000E+00  0.00000000000E+00  0.13533571086E+04  0.13533571087E+04  0.25500000920E-02 0.  1.
        2   -1    0    0  501    0  0.00000000000E+00  0.00000000000E+00 -0.81782512083E+03  0.81782512083E+03  0.25500000920E-02 0. -1.
    10030    2    1    2    0    0  0.00000000000E+00  0.00000000000E+00  0.53553198782E+03  0.21711822295E+04  0.21041002266E+04 0.  0.
        3    1    3    3  502    0  0.60455488854E+03  0.67531725837E+03 -0.28336833192E+03  0.94965132256E+03  0.10100000352E+00 0. -1.
       -3    1    3    3    0  502 -0.60455488854E+03 -0.67531725837E+03  0.81890031974E+03  0.12215309069E+04  0.10100000352E+00 0.  1.
</event>
<event>
 5   0  0.1325673E-04  0.2129558E+04  0.7818609E-02  0.8548334E-01
       -2   -1    0    0    0  501  0.00000000000E+00  0.00000000000E+00  0.55311366215E+03  0.55311366216E+03  0.25500000920E-02 0. -1.
        2   -1    0    0  501    0  0.00000000000E+00  0.00000000000E+00 -0.20497669634E+04  0.20497669634E+04  0.25500000920E-02 0.  1.
    10030    2    1    2    0    0  0.00000000000E+00  0.00000000000E+00 -0.14966533012E+04  0.26028806256E+04  0.21295578055E+04 0.  0.
        5    1    3    3  502    0  0.75353404709E+03 -0.71180782610E+03 -0.45081638270E+03  0.11303722583E+04  0.46999998093E+01 0. -1.
       -5    1    3    3    0  502 -0.75353404709E+03  0.71180782610E+03 -0.10458369186E+04  0.14725083673E+04  0.46999998093E+01 0.  1.
</event>
<event>
 5   0  0.1349252E-04  0.2062553E+04  0.7818609E-02  0.8577921E-01
       -2   -1    0    0    0  501  0.00000000000E+00  0.00000000000E+00  0.84738395963E+03  0.84738395964E+03  0.25500000920E-02 0.  1.
        2   -1    0    0  501    0  0.00000000000E+00  0.00000000000E+00 -0.12550764807E+04  0.12550764807E+04  0.25500000920E-02 0. -1.
    10030    2    1    2    0    0  0.00000000000E+00  0.00000000000E+00 -0.40769252104E+03  0.21024604403E+04  0.20625534445E+04 0.  0.
        2    1    3    3  502    0  0.52421729313E+03 -0.82804701933E+02 -0.11051896024E+04  0.12260116012E+04  0.25500000920E-02 0. -1.
       -2    1    3    3    0  502 -0.52421729313E+03  0.82804701933E+02  0.69749708134E+03  0.87644883910E+03  0.25500000920E-02 0.  1.
</event>
<event>
 5   0  0.5933905E-05  0.2200764E+04  0.7818609E-02  0.8518110E-01
       -1   -1    0    0    0  501  0.00000000000E+00  0.00000000000E+00  0.74562006200E+03  0.74562006202E+03  0.50400001928E-02 0.  1.
        1   -1    0    0  501    0  0.00000000000E+00  0.00000000000E+00 -0.16239373900E+04  0.16239373900E+04  0.50400001928E-02 0. -1.
    10030    2    1    2    0    0  0.00000000000E+00  0.00000000000E+00 -0.87831732796E+03  0.23695574520E+04  0.22007637742E+04 0.  0.
        2    1    3    3  502    0 -0.28874425869E+03 -0.45672287287E+03 -0.14712571719E+04  0.15673438345E+04  0.25500000920E-02 0. -1.
       -2    1    3    3    0  502  0.28874425869E+03  0.45672287287E+03  0.59293984397E+03  0.80221361750E+03  0.25500000920E-02 0.  1.
</event>
<event>
 5   0  0.1235817E-04  0.2147333E+04  0.7818609E-02  0.8540675E-01
       -2   -1    0    0    0  501  0.00000000000E+00  0.00000000000E+00  0.76729459963E+03  0.76729459964E+03  0.25500000920E-02 0.  1.
        2   -1    0    0  501    0  0.00000000000E+00  0.00000000000E+00 -0.15023688623E+04  0.15023688623E+04  0.25500000920E-02 0. -1.
    10030    2    1    2    0    0  0.00000000000E+00  0.00000000000E+00 -0.73507426268E+03  0.22696634620E+04  0.21473327779E+04 0.  0.
        1    1    3    3  502    0  0.85427965359E+03 -0.25161289392E+03  0.26634165014E+03  0.92953786881E+03  0.50400001928E-02 0.  1.
       -1    1    3    3    0  502 -0.85427965359E+03  0.25161289392E+03 -0.10014159128E+04  0.13401255931E+04  0.50400001928E-02 0. -1.
</event>
<event>
 5   0  0.4615125E-05  0.2077342E+04  0.7818609E-02  0.8571290E-01
        3   -1    0    0  501    0  0.00000000000E+00  0.00000000000E+00  0.11258362290E+04  0.11258362336E+04  0.10100000352E+00 0. -1.
       -3   -1    0    0    0  501  0.00000000000E+00  0.00000000000E+00 -0.95825464207E+03  0.95825464740E+03  0.10100000352E+00 0.  1.
    10030    2    1    2    0    0  0.00000000000E+00  0.00000000000E+00  0.16758158695E+03  0.20840908809E+04  0.20773423434E+04 0.  0.
        3    1    3    3  502    0 -0.10949091053E+02  0.19985431811E+03 -0.93872392243E+03  0.95982511106E+03  0.10100000352E+00 0.  1.
       -3    1    3    3    0  502  0.10949091053E+02 -0.19985431811E+03  0.11063055094E+04  0.11242657699E+04  0.10100000352E+00 0. -1.
</event>
<event>
 5   0  0.4615125E-05  0.2098887E+04  0.7818609E-02  0.8561734E-01
       -4   -1    0    0    0  501  0.00000000000E+00  0.00000000000E+00  0.61600365320E+03  0.61600496237E+03  0.12699999809E+01 0. -1.
        4   -1    0    0  501    0  0.00000000000E+00  0.00000000000E+00 -0.17878618990E+04  0.17878623500E+04  0.12699999809E+01 0.  1.
    10030    2    1    2    0    0  0.00000000000E+00  0.00000000000E+00 -0.11718582458E+04  0.24038673124E+04  0.20988869211E+04 0.  0.
        5    1    3    3  502    0  0.70160266577E+03 -0.51459034644E+03  0.86063814535E+02  0.87434466627E+03  0.46999998093E+01 0. -1.
       -5    1    3    3    0  502 -0.70160266577E+03  0.51459034644E+03 -0.12579220603E+04  0.15295226461E+04  0.46999998093E+01 0.  1.
</event>
<event>
 5   0  0.6052292E-05  0.2120158E+04  0.7818609E-02  0.8552415E-01
        1   -1    0    0  501    0  0.00000000000E+00  0.00000000000E+00  0.17486799421E+04  0.17486799421E+04  0.50400001928E-02 0.  1.
       -1   -1    0    0    0  501  0.00000000000E+00  0.00000000000E+00 -0.64263749017E+03  0.64263749019E+03  0.50400001928E-02 0. -1.
    10030    2    1    2    0    0  0.00000000000E+00  0.00000000000E+00  0.11060424520E+04  0.23913174323E+04  0.21201578141E+04 0.  0.
        1    1    3    3  502    0 -0.79581706121E+03  0.66900461879E+03  0.31947508312E+03  0.10876379469E+04  0.50400001928E-02 0. -1.
       -1    1    3    3    0  502  0.79581706121E+03 -0.66900461879E+03  0.78656736885E+03  0.13036794854E+04  0.50400001928E-02 0.  1.
</event>
<event>
 5   0  0.6221148E-05  0.2098376E+04  0.7818609E-02  0.8561959E-01
        1   -1    0    0  501    0  0.00000000000E+00  0.00000000000E+00  0.86713521688E+03  0.86713521689E+03  0.50400001928E-02 0. -1.
       -1   -1    0    0    0  501  0.00000000000E+00  0.00000000000E+00 -0.12694617912E+04  0.12694617913E+04  0.50400001928E-02 0.  1.
    10030    2    1    2    0    0  0.00000000000E+00  0.00000000000E+00 -0.40232657436E+03  0.21365970081E+04  0.20983755867E+04 0.  0.
        3    1    3    3  502    0  0.75380198066E+03 -0.72964378035E+03 -0.18685227069E+03  0.10656037038E+04  0.10100000352E+00 0.  1.
       -3    1    3    3    0  502 -0.75380198066E+03  0.72964378035E+03 -0.21547430367E+03  0.10709933044E+04  0.10100000352E+00 0. -1.
</event>
<event>
 5   0  0.5933905E-05  0.2109978E+04  0.7818609E-02  0.8556861E-01
       -1   -1    0    0    0  501  0.00000000000E+00  0.00000000000E+00  0.49746351590E+03  0.49746351592E+03  0.50400001928E-02 0. -1.
        1   -1    0    0  501    0  0.00000000000E+00  0.00000000000E+00 -0.22373536051E+04  0.22373536051E+04  0.50400001928E-02 0.  1.
    10030    2    1    2    0    0  0.00000000000E+00  0.00000000000E+00 -0.17398900892E+04  0.27348171210E+04  0.21099780006E+04 0.  0.
        2    1    3    3  502    0 -0.20123817021E+03 -0.52233252524E+03 -0.20290073325E+04  0.21048037494E+04  0.25500000920E-02 0.  1.
       -2    1    3    3    0  502  0.20123817021E+03  0.52233252524E+03  0.28911724329E+03  0.63001337165E+03  0.25500000920E-02 0. -1.
</event>
<event>
 5   0  0.6221148E-05  0.2055700E+04  0.7818609E-02  0.8581013E-01
       -1   -1    0    0    0  501  0.00000000000E+00  0.00000000000E+00  0.11510752263E+04  0.11510752263E+04  0.50400001928E-02 0.  1.
        1   -1    0    0  501    0  0.00000000000E+00  0.00000000000E+00 -0.91781661487E+03  0.91781661488E+03  0.50400001928E-02 0. -1.
    10030    2    1    2    0    0  0.00000000000E+00  0.00000000000E+00  0.23325861140E+03  0.20688918412E+04  0.20557003358E+04 0.  0.
        3    1    3    3  502    0 -0.89581294681E+03  0.43508534689E+03  0.37261531757E+03  0.10633072368E+04  0.10100000352E+00 0.  1.
       -3    1    3    3    0  502  0.89581294681E+03 -0.43508534689E+03 -0.13935670617E+03  0.10055846044E+04  0.10100000352E+00 0. -1.
</event>
<event>
 5   0  0.6263616E-05  0.2096009E+04  0.7818609E-02  0.8563004E-01
        1   -1    0    0  501    0  0.00000000000E+00  0.00000000000E+00  0.98536483859E+03  0.98536483860E+03  0.50400001928E-02 0.  1.
       -1   -1    0    0    0  501  0.00000000000E+00  0.00000000000E+00 -0.11146257074E+04  0.11146257074E+04  0.50400001928E-02 0. -1.
    10030    2    1    2    0    0  0.00000000000E+00  0.00000000000E+00 -0.12926086878E+03  0.20999905460E+04  0.20960085689E+04 0.  0.
        4    1    3    3  502    0 -0.55541314626E+02 -0.40188784250E+03 -0.10327542791E+04  0.11095862695E+04  0.12699999809E+01 0. -1.
       -4    1    3    3    0  502  0.55541314626E+02  0.40188784250E+03  0.90349341029E+03  0.99040427650E+03  0.12699999809E+01 0.  1.
</event>
<event>
 5   0  0.5933905E-05  0.2078729E+04  0.7818609E-02  0.8570672E-01
        1   -1    0    0  501    0  0.00000000000E+00  0.00000000000E+00  0.28051286723E+04  0.28051286723E+04  0.50400001928E-02 0.  1.
       -1   -1    0    0    0  501  0.00000000000E+00  0.00000000000E+00 -0.38510821596E+03  0.38510821599E+03  0.50400001928E-02 0. -1.
    10030    2    1    2    0    0  0.00000000000E+00  0.00000000000E+00  0.24200204563E+04  0.31902368883E+04  0.20787285523E+04 0.  0.
        2    1    3    3  502    0 -0.90613513526E+03  0.29030054048E+02  0.19900794486E+04  0.21868561542E+04  0.25500000920E-02 0.  1.
       -2    1    3    3    0  502  0.90613513526E+03 -0.29030054048E+02  0.42994100771E+03  0.10033807341E+04  0.25500000920E-02 0. -1.
</event>
<event>
 5   0  0.1349252E-04  0.2168661E+04  0.7818609E-02  0.8531586E-01
        2   -1    0    0  501    0  0.00000000000E+00  0.00000000000E+00  0.16957974442E+04  0.16957974442E+04  0.25500000920E-02 0.  1.
       -2   -1    0    0    0  501  0.00000000000E+00  0.00000000000E+00 -0.69334495452E+03  0.69334495452E+03  0.25500000920E-02 0. -1.
    10030    2    1    2    0    0  0.00000000000E+00  0.00000000000E+00  0.10024524897E+04  0.23891423987E+04  0.21686609710E+04 0.  0.
        2    1    3    3  502    0  0.59627802213E+03  0.84385342867E+03  0.86349973285E+03  0.13465763541E+04  0.25500000920E-02 0.  1.
       -2    1    3    3    0  502 -0.59627802213E+03 -0.84385342867E+03  0.13895275681E+03  0.10425660446E+04  0.25500000920E-02 0. -1.
</event>
<event>
 5   0  0.5933905E-05  0.2226015E+04  0.7818609E-02  0.8507677E-01
        1   -1    0    0  501    0  0.00000000000E+00  0.00000000000E+00  0.19695910646E+04  0.19695910646E+04  0.50400001928E-02 0. -1.
       -1   -1    0    0    0  501  0.00000000000E+00  0.00000000000E+00 -0.62895592730E+03  0.62895592732E+03  0.50400001928E-02 0.  1.
    10030    2    1    2    0    0  0.00000000000E+00  0.00000000000E+00  0.13406351373E+04  0.25985469919E+04  0.22260152511E+04 0.  0.
        2    1    3    3  502    0  0.77322373028E+03 -0.79181191430E+03  0.80816878585E+03  0.13703933126E+04  0.25500000920E-02 0.  1.
       -2    1    3    3    0  502 -0.77322373028E+03  0.79181191430E+03  0.53246635147E+03  0.12281536794E+04  0.25500000920E-02 0. -1.
</event>
<event>
 5   0  0.5846187E-05  0.2089296E+04  0.7818609E-02  0.8565973E-01
       -1   -1    0    0    0  501  0.00000000000E+00  0.00000000000E+00  0.12765663777E+04  0.12765663777E+04  0.50400001928E-02 0.  1.
        1   -1    0    0  501    0  0.00000000000E+00  0.00000000000E+00 -0.85486311462E+03  0.85486311464E+03  0.50400001928E-02 0. -1.
    10030    2    1    2    0    0  0.00000000000E+00  0.00000000000E+00  0.42170326304E+03  0.21314294923E+04  0.20892960629E+04 0.  0.
        5    1    3    3  502    0 -0.77167535030E+03  0.68616471239E+03  0.37203326516E+03  0.10976045277E+04  0.46999998093E+01 0.  1.
       -5    1    3    3    0  502  0.77167535030E+03 -0.68616471239E+03  0.49669997883E+02  0.10338249646E+04  0.46999998093E+01 0. -1.
</event>
<event>
 5   0  0.4615125E-05  0.2087271E+04  0.7818609E-02  0.8566871E-01
       -3   -1    0    0    0  501  0.00000000000E+00  0.00000000000E+00  0.17470505419E+04  0.17470505448E+04  0.10100000352E+00 0. -1.
        3   -1    0    0  501    0  0.00000000000E+00  0.00000000000E+00 -0.62343639491E+03  0.62343640309E+03  0.10100000352E+00 0.  1.
    10030    2    1    2    0    0  0.00000000000E+00  0.00000000000E+00  0.11236141470E+04  0.23704869479E+04  0.20872708542E+04 0.  0.
        4    1    3    3  502    0 -0.84695672359E+03 -0.58297634077E+03  0.35872476456E+03  0.10889821739E+04  0.12699999809E+01 0.  1.
       -4    1    3    3    0  502  0.84695672359E+03  0.58297634077E+03  0.76488938245E+03  0.12815047740E+04  0.12699999809E+01 0. -1.
</event>
<event>
 5   0  0.1281470E-04  0.1947295E+04  0.7818609E-02  0.8631666E-01
       -2   -1    0    0    0  501  0.00000000000E+00  0.00000000000E+00  0.55171654006E+03  0.55171654007E+03  0.25500000920E-02 0.  1.
        2   -1    0    0  501    0  0.00000000000E+00  0.00000000000E+00 -0.17182539859E+04  0.17182539859E+04  0.25500000920E-02 0. -1.
    10030    2    1    2    0    0  0.00000000000E+00  0.00000000000E+00 -0.11665374458E+04  0.22699705260E+04  0.19472946814E+04 0.  0.
        3    1    3    3  502    0 -0.32285960858E+03  0.28363589702E+03 -0.16017114102E+04  0.16583627772E+04  0.10100000352E+00 0. -1.
       -3    1    3    3    0  502  0.32285960858E+03 -0.28363589702E+03  0.43517396436E+03  0.61160774880E+03  0.10100000352E+00 0.  1.
</event>
<event>
 5   0  0.1281470E-04  0.2088386E+04  0.7818609E-02  0.8566377E-01
        2   -1    0    0  501    0  0.00000000000E+00  0.00000000000E+00  0.11262132319E+04  0.11262132319E+04  0.25500000920E-02 0.  1.
       -2   -1    0    0    0  501  0.00000000000E+00  0.00000000000E+00 -0.96814636838E+03  0.96814636838E+03  0.25500000920E-02 0. -1.
    10030    2    1    2    0    0  0.00000000000E+00  0.00000000000E+00  0.15806686356E+03  0.20943596003E+04  0.20883862196E+04 0.  0.
        3    1    3    3  502    0  0.43656161419E+03 -0.57350683799E+03 -0.67866922942E+03  0.98999397441E+03  0.10100000352E+00 0. -1.
       -3    1    3    3    0  502 -0.43656161419E+03  0.57350683799E+03  0.83673609298E+03  0.11043656259E+04  0.10100000352E+00 0.  1.
</event>
<event>
 5   0  0.1252477E-04  0.2093558E+04  0.7818609E-02  0.8564086E-01
        2   -1    0    0  501    0  0.00000000000E+00  0.00000000000E+00  0.15761882430E+04  0.15761882430E+04  0.25500000920E-02 0.  1.
       -2   -1    0    0    0  501  0.00000000000E+00  0.00000000000E+00 -0.69518773570E+03  0.69518773570E+03  0.25500000920E-02 0. -1.
    10030    2    1    2    0    0  0.00000000000E+00  0.00000000000E+00  0.88100050733E+03  0.22713759787E+04  0.20935584403E+04 0.  0.
        4    1    3    3  502    0  0.71053378420E+03  0.65440500081E+03  0.87804140333E+03  0.13053974423E+04  0.12699999809E+01 0.  1.
       -4    1    3    3    0  502 -0.71053378420E+03 -0.65440500081E+03  0.29591040004E+01  0.96597853640E+03  0.12699999809E+01 0. -1.
</event>
<event>
 5   0  0.1281470E-04  0.2091018E+04  0.7818609E-02  0.8565211E-01
       -2   -1    0    0    0  501  0.00000000000E+00  0.00000000000E+00  0.50736774198E+03  0.50736774199E+03  0.25500000920E-02 0. -1.
        2   -1    0    0  501    0  0.00000000000E+00  0.00000000000E+00 -0.21544306827E+04  0.21544306827E+04  0.25500000920E-02 0.  1.
    10030    2    1    2    0    0  0.00000000000E+00  0.00000000000E+00 -0.16470629407E+04  0.26617984247E+04  0.20910175807E+04 0.  0.
        3    1    3    3  502    0  0.34112488338E+02 -0.10448372764E+04 -0.84325321045E+03  0.13431025959E+04  0.10100000352E+00 0. -1.
       -3    1    3    3    0  502 -0.34112488338E+02  0.10448372764E+04 -0.80380973025E+03  0.13186958287E+04  0.10100000352E+00 0.  1.
</event>
<event>
 5   0  0.1235817E-04  0.2081051E+04  0.7818609E-02  0.8569637E-01
        2   -1    0    0  501    0  0.00000000000E+00  0.00000000000E+00  0.15999762748E+04  0.15999762748E+04  0.25500000920E-02 0.  1.
       -2   -1    0    0    0  501  0.00000000000E+00  0.00000000000E+00 -0.67669349688E+03  0.67669349688E+03  0.25500000920E-02 0. -1.
    10030    2    1    2    0    0  0.00000000000E+00  0.00000000000E+00  0.92328277789E+03  0.22766697716E+04  0.20810512154E+04 0.  0.
        1    1    3    3  502    0 -0.43462308486E+02 -0.10419654611E+03 -0.66997319772E+03  0.67941885326E+03  0.50400001928E-02 0. -1.
       -1    1    3    3    0  502  0.43462308486E+02  0.10419654611E+03  0.15932559756E+04  0.15972509184E+04  0.50400001928E-02 0.  1.
</event>
<event>
 5   0  0.1281470E-04  0.2138863E+04  0.7818609E-02  0.8544315E-01
       -2   -1    0    0    0  501  0.00000000000E+00  0.00000000000E+00  0.10653820250E+04  0.10653820250E+04  0.25500000920E-02 0.  1.
        2   -1    0    0  501    0  0.00000000000E+00  0.00000000000E+00 -0.10734961337E+04  0.10734961337E+04  0.25500000920E-02 0. -1.
    10030    2    1    2    0    0  0.00000000000E+00  0.00000000000E+00 -0.81141087022E+01  0.21388781587E+04  0.21388627677E+04 0.  0.
        3    1    3    3  502    0 -0.51955329008E+03  0.58925620727E+03  0.72156857447E+03  0.10666863255E+04  0.10100000352E+00 0.  1.
       -3    1    3    3    0  502  0.51955329008E+03 -0.58925620727E+03 -0.72968268317E+03  0.10721918333E+04  0.10100000352E+00 0. -1.
</event>
<event>
 5   0  0.1325673E-04  0.1992093E+04  0.7818609E-02  0.8610326E-01
       -2   -1    0    0    0  501  0.00000000000E+00  0.00000000000E+00  0.77735549675E+03  0.77735549676E+03  0.25500000920E-02 0.  1.
        2   -1    0    0  501    0  0.00000000000E+00  0.00000000000E+00 -0.12762609157E+04  0.12762609157E+04  0.25500000920E-02 0. -1.
    10030    2    1    2    0    0  0.00000000000E+00  0.00000000000E+00 -0.49890541897E+03  0.20536164125E+04  0.19920928072E+04 0.  0.
        5    1    3    3  502    0 -0.64330170470E+03 -0.66552894638E+03 -0.62867297174E+03  0.11189359486E+04  0.46999998093E+01 0. -1.
       -5    1    3    3    0  502  0.64330170470E+03  0.66552894638E+03  0.12976755277E+03  0.93468046385E+03  0.46999998093E+01 0.  1.
</event>
<event>
 5   0  0.6221148E-05  0.2079445E+04  0.7818609E-02  0.8570352E-01
        1   -1    0    0  501    0  0.00000000000E+00  0.00000000000E+00  0.19250031798E+04  0.19250031798E+04  0.50400001928E-02 0.  1.
       -1   -1    0    0    0  501  0.00000000000E+00  0.00000000000E+00 -0.56156958864E+03  0.56156958866E+03  0.50400001928E-02 0. -1.
    10030    2    1    2    0    0  0.00000000000E+00  0.00000000000E+00  0.13634335912E+04  0.24865727685E+04  0.20794453528E+04 0.  0.
        3    1    3    3  502    0  0.46633195436E+03  0.84838673254E+03  0.11351670212E+04  0.14919214845E+04  0.10100000352E+00 0.  1.
       -3    1    3    3    0  502 -0.46633195436E+03 -0.84838673254E+03  0.22826656998E+03  0.99465128401E+03  0.10100000352E+00 0. -1.
</event>
<event>
 5   0  0.6052292E-05  0.2141906E+04  0.7818609E-02  0.8543005E-01
       -1   -1    0    0    0  501  0.00000000000E+00  0.00000000000E+00  0.98954587695E+03  0.98954587697E+03  0.50400001928E-02 0.  1.
        1   -1    0    0  501    0  0.00000000000E+00  0.00000000000E+00 -0.11590573668E+04  0.11590573668E+04  0.50400001928E-02 0. -1.
    10030    2    1    2    0    0  0.00000000000E+00  0.00000000000E+00 -0.16951148986E+03  0.21486032438E+04  0.21419061030E+04 0.  0.
        1    1    3    3  502    0  0.98298636517E+03 -0.32919644180E+03 -0.35449789479E+03  0.10955826070E+04  0.50400001928E-02 0. -1.
       -1    1    3    3    0  502 -0.98298636517E+03  0.32919644180E+03  0.18498640493E+03  0.10530206368E+04  0.50400001928E-02 0.  1.
</event>
<event>
 5   0  0.6221148E-05  0.2097307E+04  0.7818609E-02  0.8562431E-01
        1   -1    0    0  501    0  0.00000000000E+00  0.00000000000E+00  0.67523424062E+03  0.67523424064E+03  0.50400001928E-02 0. -1.
       -1   -1    0    0    0  501  0.00000000000E+00  0.00000000000E+00 -0.16285814595E+04  0.16285814595E+04  0.50400001928E-02 0.  1.
    10030    2    1    2    0    0  0.00000000000E+00  0.00000000000E+00 -0.95334721885E+03  0.23038157001E+04  0.20973068112E+04 0.  0.
        3    1    3    3  502    0  0.90773115460E+03 -0.51384355780E+03 -0.35804508824E+03  0.11028179117E+04  0.10100000352E+00 0. -1.
       -3    1    3    3    0  502 -0.90773115460E+03  0.51384355780E+03 -0.59530213062E+03  0.12009977884E+04  0.10100000352E+00 0.  1.
</event>
<event>
 5   0  0.6052292E-05  0.2139736E+04  0.7818609E-02  0.8543939E-01
        1   -1    0    0  501    0  0.00000000000E+00  0.00000000000E+00  0.21690671860E+04  0.21690671860E+04  0.50400001928E-02 0.  1.
       -1   -1    0    0    0  501  0.00000000000E+00  0.00000000000E+00 -0.52770023469E+03  0.52770023471E+03  0.50400001928E-02 0. -1.
    10030    2    1    2    0    0  0.00000000000E+00  0.00000000000E+00  0.16413669513E+04  0.26967674207E+04  0.21397357436E+04 0.  0.
        1    1    3    3  502    0 -0.55765863400E+02 -0.18861439865E+03 -0.50471837159E+03  0.54168797065E+03  0.50400001928E-02 0. -1.
       -1    1    3    3    0  502  0.55765863400E+02  0.18861439865E+03  0.21460853229E+04  0.21550794500E+04  0.50400001928E-02 0.  1.
</event>
<event>
 5   0  0.6263616E-05  0.2116964E+04  0.7818609E-02  0.8553807E-01
        1   -1    0    0  501    0  0.00000000000E+00  0.00000000000E+00  0.16918732499E+04  0.16918732499E+04  0.50400001928E-02 0.  1.
       -1   -1    0    0    0  501  0.00000000000E+00  0.00000000000E+00 -0.66221516154E+03  0.66221516156E+03  0.50400001928E-02 0. -1.
    10030    2    1    2    0    0  0.00000000000E+00  0.00000000000E+00  0.10296580884E+04  0.23540884115E+04  0.21169639747E+04 0.  0.
        4    1    3    3  502    0  0.78491128340E+03  0.54215319967E+03  0.47966172284E+01  0.95396039496E+03  0.12699999809E+01 0. -1.
       -4    1    3    3    0  502 -0.78491128340E+03 -0.54215319967E+03  0.10248614712E+04  0.14001280165E+04  0.12699999809E+01 0.  1.
</event>
<event>
 5   0  0.1252477E-04  0.2123742E+04  0.7818609E-02  0.8550856E-01
       -2   -1    0    0    0  501  0.00000000000E+00  0.00000000000E+00  0.91105033432E+03  0.91105033433E+03  0.25500000920E-02 0.  1.
        2   -1    0    0  501    0  0.00000000000E+00  0.00000000000E+00 -0.12376591138E+04  0.12376591138E+04  0.25500000920E-02 0. -1.
    10030    2    1    2    0    0  0.00000000000E+00  0.00000000000E+00 -0.32660877943E+03  0.21487094481E+04  0.21237417445E+04 0.  0.
        4    1    3    3  502    0 -0.94321978566E+03 -0.21640336103E+03 -0.60556368212E+03  0.11415791539E+04  0.12699999809E+01 0. -1.
       -4    1    3    3    0  502  0.94321978566E+03  0.21640336103E+03  0.27895490269E+03  0.10071302941E+04  0.12699999809E+01 0.  1.
</event>
<event>
 5   0  0.1325673E-04  0.2102337E+04  0.7818609E-02  0.8560215E-01
       -2   -1    0    0    0  501  0.00000000000E+00  0.00000000000E+00  0.65382799280E+03  0.65382799280E+03  0.25500000920E-02 0. -1.
        2   -1    0    0  501    0  0.00000000000E+00  0.00000000000E+00 -0.16899788252E+04  0.16899788252E+04  0.25500000920E-02 0.  1.
    10030    2    1    2    0    0  0.00000000000E+00  0.00000000000E+00 -0.10361508324E+04  0.23438068180E+04  0.21023372357E+04 0.  0.
        5    1    3    3  502    0 -0.21412766797E+03  0.10180455693E+04 -0.35023125483E+03  0.10977028110E+04  0.46999998093E+01 0. -1.
       -5    1    3    3    0  502  0.21412766797E+03 -0.10180455693E+04 -0.68591957756E+03  0.12461040070E+04  0.46999998093E+01 0.  1.
</event>
<event>
 5   0  0.6052292E-05  0.2106658E+04  0.7818609E-02  0.8558316E-01
        1   -1    0    0  501    0  0.00000000000E+00  0.00000000000E+00  0.13873355445E+04  0.13873355445E+04  0.50400001928E-02 0. -1.
       -1   -1    0    0    0  501  0.00000000000E+00  0.00000000000E+00 -0.79973555699E+03  0.79973555700E+03  0.50400001928E-02 0.  1.
    10030    2    1    2    0    0  0.00000000000E+00  0.00000000000E+00  0.58759998754E+03  0.21870711015E+04  0.21066576034E+04 0.  0.
        1    1    3    3  502    0 -0.63947107927E+03 -0.17255626243E+03 -0.55648855139E+03  0.86508868492E+03  0.50400001928E-02 0.  1.
       -1    1    3    3    0  502  0.63947107927E+03  0.17255626243E+03  0.11440885389E+04  0.13219824166E+04  0.50400001928E-02 0. -1.
</event>
<event>
 5   0  0.1281470E-04  0.2066329E+04  0.7818609E-02  0.8576222E-01
        2   -1    0    0  501    0  0.00000000000E+00  0.00000000000E+00  0.17999921350E+04  0.17999921350E+04  0.25500000920E-02 0. -1.
       -2   -1    0    0    0  501  0.00000000000E+00  0.00000000000E+00 -0.59301866573E+03  0.59301866573E+03  0.25500000920E-02 0.  1.
    10030    2    1    2    0    0  0.00000000000E+00  0.00000000000E+00  0.12069734692E+04  0.23930108007E+04  0.20663290485E+04 0.  0.
        3    1    3    3  502    0  0.54675763219E+03 -0.36384603826E+03 -0.32016498442E+03  0.73063908693E+03  0.10100000352E+00 0.  1.
       -3    1    3    3    0  502 -0.54675763219E+03  0.36384603826E+03  0.15271384537E+04  0.16623717138E+04  0.10100000352E+00 0. -1.
</event>
<event>
 5   0  0.1235817E-04  0.2077572E+04  0.7818609E-02  0.8571188E-01
        2   -1    0    0  501    0  0.00000000000E+00  0.00000000000E+00  0.14303011366E+04  0.14303011366E+04  0.25500000920E-02 0.  1.
       -2   -1    0    0    0  501  0.00000000000E+00  0.00000000000E+00 -0.75443998451E+03  0.75443998451E+03  0.25500000920E-02 0. -1.
    10030    2    1    2    0    0  0.00000000000E+00  0.00000000000E+00  0.67586115211E+03  0.21847411211E+04  0.20775720131E+04 0.  0.
        1    1    3    3  502    0 -0.23100209405E+03 -0.10063164816E+04  0.21784016961E+03  0.10552199620E+04  0.50400001928E-02 0. -1.
       -1    1    3    3    0  502  0.23100209405E+03  0.10063164816E+04  0.45802098250E+03  0.11295211592E+04  0.50400001928E-02 0.  1.
</event>
<event>
 5   0  0.1349252E-04  0.2149476E+04  0.7818609E-02  0.8539757E-01
        2   -1    0    0  501    0  0.00000000000E+00  0.00000000000E+00  0.16057581899E+04  0.16057581899E+04  0.25500000920E-02 0.  1.
       -2   -1    0    0    0  501  0.00000000000E+00  0.00000000000E+00 -0.71932463098E+03  0.71932463098E+03  0.25500000920E-02 0. -1.
    10030    2    1    2    0    0  0.00000000000E+00  0.00000000000E+00  0.88643355889E+03  0.23250828209E+04  0.21494756732E+04 0.  0.
        2    1    3    3  502    0 -0.81433169241E+03  0.69297387768E+03  0.56028284149E+03  0.12071726318E+04  0.25500000920E-02 0.  1.
       -2    1    3    3    0  502  0.81433169241E+03 -0.69297387768E+03  0.32615071741E+03  0.11179101891E+04  0.25500000920E-02 0. -1.
</event>
<event>
 5   0  0.5933905E-05  0.2100815E+04  0.7818609E-02  0.8560884E-01
        1   -1    0    0  501    0  0.00000000000E+00  0.00000000000E+00  0.15357553542E+04  0.15357553542E+04  0.50400001928E-02 0.  1.
       -1   -1    0    0    0  501  0.00000000000E+00  0.00000000000E+00 -0.71844543568E+03  0.71844543570E+03  0.50400001928E-02 0. -1.
    10030    2    1    2    0    0  0.00000000000E+00  0.00000000000E+00  0.81730991847E+03  0.22542007899E+04  0.21008154841E+04 0.  0.
        2    1    3    3  502    0 -0.71940356078E+03 -0.58642747634E+03  0.93641749872E+03  0.13184522745E+04  0.25500000920E-02 0. -1.
       -2    1    3    3    0  502  0.71940356078E+03  0.58642747634E+03 -0.11910758025E+03  0.93574851534E+03  0.25500000920E-02 0.  1.
</event>
<event>
 5   0  0.6263616E-05  0.2094653E+04  0.7818609E-02  0.8563603E-01
        1   -1    0    0  501    0  0.00000000000E+00  0.00000000000E+00  0.13989721763E+04  0.13989721763E+04  0.50400001928E-02 0. -1.
       -1   -1    0    0    0  501  0.00000000000E+00  0.00000000000E+00 -0.78407035847E+03  0.78407035848E+03  0.50400001928E-02 0.  1.
    10030    2    1    2    0    0  0.00000000000E+00  0.00000000000E+00  0.61490181780E+03  0.21830425348E+04  0.20946528264E+04 0.  0.
        4    1    3    3  502    0  0.52216082330E+03  0.83712333203E+03  0.67365198945E+03  0.11946698348E+04  0.12699999809E+01 0. -1.
       -4    1    3    3    0  502 -0.52216082330E+03 -0.83712333203E+03 -0.58750171651E+02  0.98837269994E+03  0.12699999809E+01 0.  1.
</event>
<event>
 5   0  0.1325673E-04  0.2166712E+04  0.7818609E-02  0.8532412E-01
       -2   -1    0    0    0  501  0.00000000000E+00  0.00000000000E+00  0.68212039871E+03  0.68212039872E+03  0.25500000920E-02 0.  1.
        2   -1    0    0  501    0  0.00000000000E+00  0.00000000000E+00 -0.17206063637E+04  0.17206063637E+04  0.25500000920E-02 0. -1.
    10030    2    1    2    0    0  0.00000000000E+00  0.00000000000E+00 -0.10384859650E+04  0.24027267624E+04  0.21667124395E+04 0.  0.
        5    1    3    3  502    0 -0.47051385645E+03  0.21781749663E+03  0.53558589521E+03  0.74545428572E+03  0.46999998093E+01 0.  1.
       -5    1    3    3    0  502  0.47051385645E+03 -0.21781749663E+03 -0.15740718602E+04  0.16572724767E+04  0.46999998093E+01 0. -1.
</event>
<event>
 5   0  0.4615125E-05  0.2028360E+04  0.7818609E-02  0.8593475E-01
       -4   -1    0    0    0  501  0.00000000000E+00  0.00000000000E+00  0.13527548094E+04  0.13527554055E+04  0.12699999809E+01 0.  1.
        4   -1    0    0  501    0  0.00000000000E+00  0.00000000000E+00 -0.76034428101E+03  0.76034534164E+03  0.12699999809E+01 0. -1.
    10030    2    1    2    0    0  0.00000000000E+00  0.00000000000E+00  0.59241052837E+03  0.21131007472E+04  0.20283600601E+04 0.  0.
        4    1    3    3  502    0 -0.57205100979E+03 -0.51084861992E+03  0.98751802385E+03  0.12503608002E+04  0.12699999809E+01 0.  1.
       -4    1    3    3    0  502  0.57205100979E+03  0.51084861992E+03 -0.39510749548E+03  0.86273994700E+03  0.12699999809E+01 0. -1.
</event>
<event>
 5   0  0.5846187E-05  0.2106899E+04  0.7818609E-02  0.8558211E-01
       -1   -1    0    0    0  501  0.00000000000E+00  0.00000000000E+00  0.58010751832E+03  0.58010751834E+03  0.50400001928E-02 0. -1.
        1   -1    0    0  501    0  0.00000000000E+00  0.00000000000E+00 -0.19130168698E+04  0.19130168698E+04  0.50400001928E-02 0.  1.
    10030    2    1    2    0    0  0.00000000000E+00  0.00000000000E+00 -0.13329093515E+04  0.24931243882E+04  0.21068986391E+04 0.  0.
        5    1    3    3  502    0  0.22373904915E+03 -0.10292830311E+04 -0.68518915777E+03  0.12565782873E+04  0.46999998093E+01 0. -1.
       -5    1    3    3    0  502 -0.22373904915E+03  0.10292830311E+04 -0.64772019374E+03  0.12365461009E+04  0.46999998093E+01 0.  1.
</event>
<event>
 5   0  0.6263616E-05  0.2076098E+04  0.7818609E-02  0.8571846E-01
        1   -1    0    0  501    0  0.00000000000E+00  0.00000000000E+00  0.15665859487E+04  0.15665859487E+04  0.50400001928E-02 0. -1.
       -1   -1    0    0    0  501  0.00000000000E+00  0.00000000000E+00 -0.68783032204E+03  0.68783032206E+03  0.50400001928E-02 0.  1.
    10030    2    1    2    0    0  0.00000000000E+00  0.00000000000E+00  0.87875562662E+03  0.22544162707E+04  0.20760976062E+04 0.  0.
        4    1    3    3  502    0  0.33586347945E+02 -0.49787545623E+03 -0.54904316301E+03  0.74192858176E+03  0.12699999809E+01 0.  1.
       -4    1    3    3    0  502 -0.33586347945E+02  0.49787545623E+03  0.14277987896E+04  0.15124876890E+04  0.12699999809E+01 0. -1.
</event>
<event>
 5   0  0.6221148E-05  0.2069594E+04  0.7818609E-02  0.8574757E-01
        1   -1    0    0  501    0  0.00000000000E+00  0.00000000000E+00  0.99139646048E+03  0.99139646049E+03  0.50400001928E-02 0.  1.
       -1   -1    0    0    0  501  0.00000000000E+00  0.00000000000E+00 -0.10800977740E+04  0.10800977740E+04  0.50400001928E-02 0. -1.
    10030    2    1    2    0    0  0.00000000000E+00  0.00000000000E+00 -0.88701313544E+02  0.20714942345E+04  0.20695942696E+04 0.  0.
        3    1    3    3  502    0  0.10068730510E+04 -0.85839777600E+02 -0.26736294878E+03  0.10452964961E+04  0.10100000352E+00 0. -1.
       -3    1    3    3    0  502 -0.10068730510E+04  0.85839777600E+02  0.17866163524E+03  0.10261977384E+04  0.10100000352E+00 0.  1.
</event>
<event>
 5   0  0.5846187E-05  0.2157275E+04  0.7818609E-02  0.8536425E-01
       -1   -1    0    0    0  501  0.00000000000E+00  0.00000000000E+00  0.12932534696E+04  0.12932534697E+04  0.50400001928E-02 0.  1.
        1   -1    0    0  501    0  0.00000000000E+00  0.00000000000E+00 -0.89963712329E+03  0.89963712331E+03  0.50400001928E-02 0. -1.
    10030    2    1    2    0    0  0.00000000000E+00  0.00000000000E+00  0.39361634635E+03  0.21928905930E+04  0.21572749766E+04 0.  0.
        5    1    3    3  502    0 -0.21867467015E+03  0.87830680418E+03  0.79317560559E+03  0.12034912068E+04  0.46999998093E+01 0.  1.
       -5    1    3    3    0  502  0.21867467015E+03 -0.87830680418E+03 -0.39955925924E+03  0.98939938613E+03  0.46999998093E+01 0. -1.
</event>
<event>
 5   0  0.6052292E-05  0.2160199E+04  0.7818609E-02  0.8535179E-01
       -1   -1    0    0    0  501  0.00000000000E+00  0.00000000000E+00  0.77040684550E+03  0.77040684552E+03  0.50400001928E-02 0.  1.
        1   -1    0    0  501    0  0.00000000000E+00  0.00000000000E+00 -0.15142845677E+04  0.15142845677E+04  0.50400001928E-02 0. -1.
    10030    2    1    2    0    0  0.00000000000E+00  0.00000000000E+00 -0.74387772215E+03  0.22846914132E+04  0.21601992473E+04 0.  0.
        1    1    3    3  502    0  0.85802959185E+03  0.44686772236E+03  0.13606454491E+03  0.97694375589E+03  0.50400001928E-02 0.  1.
       -1    1    3    3    0  502 -0.85802959185E+03 -0.44686772236E+03 -0.87994226706E+03  0.13077476573E+04  0.50400001928E-02 0. -1.
</event>
<event>
 5   0  0.4615125E-05  0.2159431E+04  0.7818609E-02  0.8535506E-01
       -3   -1    0    0    0  501  0.00000000000E+00  0.00000000000E+00  0.14424873948E+04  0.14424873983E+04  0.10100000352E+00 0.  1.
        3   -1    0    0  501    0  0.00000000000E+00  0.00000000000E+00 -0.80817752757E+03  0.80817753389E+03  0.10100000352E+00 0. -1.
    10030    2    1    2    0    0  0.00000000000E+00  0.00000000000E+00  0.63430986723E+03  0.22506649322E+04  0.21594313209E+04 0.  0.
        1    1    3    3  502    0  0.14426496267E+03  0.71988015296E+03  0.11422752219E+04  0.13578779388E+04  0.50400001928E-02 0.  1.
       -1    1    3    3    0  502 -0.14426496267E+03 -0.71988015296E+03 -0.50796535466E+03  0.89278699343E+03  0.50400001928E-02 0. -1.
</event>
<event>
 5   0  0.1235817E-04  0.2076896E+04  0.7818609E-02  0.8571490E-01
       -2   -1    0    0    0  501  0.00000000000E+00  0.00000000000E+00  0.11527996457E+04  0.11527996457E+04  0.25500000920E-02 0. -1.
        2   -1    0    0  501    0  0.00000000000E+00  0.00000000000E+00 -0.93543922453E+03  0.93543922453E+03  0.25500000920E-02 0.  1.
    10030    2    1    2    0    0  0.00000000000E+00  0.00000000000E+00  0.21736042118E+03  0.20882388702E+04  0.20768957669E+04 0.  0.
        1    1    3    3  502    0  0.13647709188E+02  0.73832102701E+02 -0.93270646532E+03  0.93572367173E+03  0.50400001928E-02 0.  1.
       -1    1    3    3    0  502 -0.13647709188E+02 -0.73832102701E+02  0.11500668865E+04  0.11525151985E+04  0.50400001928E-02 0. -1.
</event>
<event>
 5   0  0.6052292E-05  0.1918230E+04  0.7818609E-02  0.8645835E-01
       -1   -1    0    0    0  501  0.00000000000E+00  0.00000000000E+00  0.51305167298E+03  0.51305167300E+03  0.50400001928E-02 0.  1.
        1   -1    0    0  501    0  0.00000000000E+00  0.00000000000E+00 -0.17929994485E+04  0.17929994485E+04  0.50400001928E-02 0. -1.
    10030    2    1    2    0    0  0.00000000000E+00  0.00000000000E+00 -0.12799477755E+04  0.23060511215E+04  0.19182297743E+04 0.  0.
        1    1    3    3  502    0  0.93357114458E+03  0.15993115090E+03 -0.45857537713E+03  0.10523423547E+04  0.50400001928E-02 0.  1.
       -1    1    3    3    0  502 -0.93357114458E+03 -0.15993115090E+03 -0.82137239838E+03  0.12537087668E+04  0.50400001928E-02 0. -1.
</event>
<event>
 5   0  0.1252477E-04  0.2095517E+04  0.7818609E-02  0.8563221E-01
       -2   -1    0    0    0  501  0.00000000000E+00  0.00000000000E+00  0.15471151193E+04  0.15471151193E+04  0.25500000920E-02 0. -1.
        2   -1    0    0  501    0  0.00000000000E+00  0.00000000000E+00 -0.70957745789E+03  0.70957745789E+03  0.25500000920E-02 0.  1.
    10030    2    1    2    0    0  0.00000000000E+00  0.00000000000E+00  0.83753766140E+03  0.22566925772E+04  0.20955171327E+04 0.  0.
        4    1    3    3  502    0 -0.22472220972E+03  0.89295834540E+03 -0.11960406473E+03  0.92853724931E+03  0.12699999809E+01 0.  1.
       -4    1    3    3    0  502  0.22472220972E+03 -0.89295834540E+03  0.95714172613E+03  0.13281553279E+04  0.12699999809E+01 0. -1.
</event>
<event>
 5   0  0.1325673E-04  0.2090081E+04  0.7818609E-02  0.8565625E-01
       -2   -1    0    0    0  501  0.00000000000E+00  0.00000000000E+00  0.66744221594E+03  0.66744221595E+03  0.25500000920E-02 0.  1.
        2   -1    0    0  501    0  0.00000000000E+00  0.00000000000E+00 -0.16362611424E+04  0.16362611424E+04  0.25500000920E-02 0. -1.
    10030    2    1    2    0    0  0.00000000000E+00  0.00000000000E+00 -0.96881892649E+03  0.23037033584E+04  0.20900811111E+04 0.  0.
        5    1    3    3  502    0  0.16106459816E+03  0.60512940196E+03 -0.14065590001E+04  0.15396602575E+04  0.46999998093E+01 0. -1.
       -5    1    3    3    0  502 -0.16106459816E+03 -0.60512940196E+03  0.43774007361E+03  0.76404310084E+03  0.46999998093E+01 0.  1.
</event>
<event>
 5   0  0.5933905E-05  0.2111497E+04  0.7818609E-02  0.8556196E-01
       -1   -1    0    0    0  501  0.00000000000E+00  0.00000000000E+00  0.74405509576E+03  0.74405509578E+03  0.50400001928E-02 0.  1.
        1   -1    0    0  501    0  0.00000000000E+00  0.00000000000E+00 -0.14980144591E+04  0.14980144591E+04  0.50400001928E-02 0. -1.
    10030    2    1    2    0    0  0.00000000000E+00  0.00000000000E+00 -0.75395936333E+03  0.22420695549E+04  0.21114973757E+04 0.  0.
        2    1    3    3  502    0 -0.60182434888E+02  0.10514979456E+04 -0.45454070430E+03  0.11471168671E+04  0.25500000920E-02 0.  1.
       -2    1    3    3    0  502  0.60182434888E+02 -0.10514979456E+04 -0.29941865903E+03  0.10949526877E+04  0.25500000920E-02 0. -1.
</event>
<event>
 5   0  0.6052292E-05  0.2117644E+04  0.7818609E-02  0.8553511E-01
       -1   -1    0    0    0  501  0.00000000000E+00  0.00000000000E+00  0.70149483562E+03  0.70149483564E+03  0.50400001928E-02 0.  1.
        1   -1    0    0  501    0  0.00000000000E+00  0.00000000000E+00 -0.15981642433E+04  0.15981642433E+04  0.50400001928E-02 0. -1.
    10030    2    1    2    0    0  0.00000000000E+00  0.00000000000E+00 -0.89666940770E+03  0.22996590790E+04  0.21176439391E+04 0.  0.
        1    1    3    3  502    0 -0.64944225024E+03 -0.54524746127E+03  0.24022542753E+03  0.88135026322E+03  0.50400001928E-02 0.  1.
       -1    1    3    3    0  502  0.64944225024E+03  0.54524746127E+03 -0.11368948352E+04  0.14183088157E+04  0.50400001928E-02 0. -1.
</event>
<event>
 5   0  0.1349252E-04  0.2051388E+04  0.7818609E-02  0.8582965E-01
       -2   -1    0    0    0  501  0.00000000000E+00  0.00000000000E+00  0.82479330559E+03  0.82479330560E+03  0.25500000920E-02 0.  1.
        2   -1    0    0  501    0  0.00000000000E+00  0.00000000000E+00 -0.12755290546E+04  0.12755290546E+04  0.25500000920E-02 0. -1.
    10030    2    1    2    0    0  0.00000000000E+00  0.00000000000E+00 -0.45073574903E+03  0.21003223602E+04  0.20513876526E+04 0.  0.
        2    1    3    3  502    0  0.42649022655E+03 -0.34622859864E+03 -0.11122171345E+04  0.12404818057E+04  0.25500000920E-02 0. -1.
       -2    1    3    3    0  502 -0.42649022655E+03  0.34622859864E+03  0.66148138550E+03  0.85984055454E+03  0.25500000920E-02 0.  1.
</event>
<event>
 5   0  0.6221148E-05  0.2093711E+04  0.7818609E-02  0.8564019E-01
        1   -1    0    0  501    0  0.00000000000E+00  0.00000000000E+00  0.16257496631E+04  0.16257496631E+04  0.50400001928E-02 0. -1.
       -1   -1    0    0    0  501  0.00000000000E+00  0.00000000000E+00 -0.67409309967E+03  0.67409309969E+03  0.50400001928E-02 0.  1.
    10030    2    1    2    0    0  0.00000000000E+00  0.00000000000E+00  0.95165656338E+03  0.22998427627E+04  0.20937111832E+04 0.  0.
        3    1    3    3  502    0  0.32257324469E+03  0.23337225835E+03 -0.58768189114E+03  0.70984936750E+03  0.10100000352E+00 0.  1.
       -3    1    3    3    0  502 -0.32257324469E+03 -0.23337225835E+03  0.15393384545E+04  0.15899933953E+04  0.10100000352E+00 0. -1.
</event>
<event>
 5   0  0.6221148E-05  0.2078991E+04  0.7818609E-02  0.8570555E-01
        1   -1    0    0  501    0  0.00000000000E+00  0.00000000000E+00  0.13882944305E+04  0.13882944305E+04  0.50400001928E-02 0.  1.
       -1   -1    0    0    0  501  0.00000000000E+00  0.00000000000E+00 -0.77832960614E+03  0.77832960616E+03  0.50400001928E-02 0. -1.
    10030    2    1    2    0    0  0.00000000000E+00  0.00000000000E+00  0.60996482432E+03  0.21666240366E+04  0.20789907718E+04 0.  0.
        3    1    3    3  502    0 -0.50255327356E+03 -0.73976537839E+03 -0.24719880093E+03  0.92785767509E+03  0.10100000352E+00 0. -1.
       -3    1    3    3    0  502  0.50255327356E+03  0.73976537839E+03  0.85716362525E+03  0.12387663615E+04  0.10100000352E+00 0.  1.
</event>
<event>
 5   0  0.1349252E-04  0.2186193E+04  0.7818609E-02  0.8524197E-01
       -2   -1    0    0    0  501  0.00000000000E+00  0.00000000000E+00  0.13534267414E+04  0.13534267414E+04  0.25500000920E-02 0.  1.
        2   -1    0    0  501    0  0.00000000000E+00  0.00000000000E+00 -0.88284036565E+03  0.88284036565E+03  0.25500000920E-02 0. -1.
    10030    2    1    2    0    0  0.00000000000E+00  0.00000000000E+00  0.47058637575E+03  0.22362671070E+04  0.21861928179E+04 0.  0.
        2    1    3    3  502    0  0.48679362031E+03 -0.50487751525E+03  0.10929428435E+04  0.12986121027E+04  0.25500000920E-02 0.  1.
       -2    1    3    3    0  502 -0.48679362031E+03  0.50487751525E+03 -0.62235646775E+03  0.93765500433E+03  0.25500000920E-02 0. -1.
</event>
<event>
 5   0  0.5846187E-05  0.2097500E+04  0.7818609E-02  0.8562345E-01
       -1   -1    0    0    0  501  0.00000000000E+00  0.00000000000E+00  0.14642885628E+04  0.14642885628E+04  0.50400001928E-02 0. -1.
        1   -1    0    0  501    0  0.00000000000E+00  0.00000000000E+00 -0.75113404746E+03  0.75113404748E+03  0.50400001928E-02 0.  1.
    10030    2    1    2    0    0  0.00000000000E+00  0.00000000000E+00  0.71315451529E+03  0.22154226102E+04  0.20975004122E+04 0.  0.
        5    1    3    3  502    0  0.37255984583E+03  0.13559747054E+03  0.13820727865E+04  0.14378229341E+04  0.46999998093E+01 0. -1.
       -5    1    3    3    0  502 -0.37255984583E+03 -0.13559747054E+03 -0.66891827120E+03  0.77759967611E+03  0.46999998093E+01 0.  1.
</event>
<event>
 5   0  0.1281470E-04  0.2066382E+04  0.7818609E-02  0.8576199E-01
        2   -1    0    0  501    0  0.00000000000E+00  0.00000000000E+00  0.19569282392E+04  0.19569282392E+04  0.25500000920E-02 0.  1.
       -2   -1    0    0    0  501  0.00000000000E+00  0.00000000000E+00 -0.54548931805E+03  0.54548931805E+03  0.25500000920E-02 0. -1.
    10030    2    1    2    0    0  0.00000000000E+00  0.00000000000E+00  0.14114389211E+04  0.25024175572E+04  0.20663818143E+04 0.  0.
        3    1    3    3  502    0  0.63902797685E+03 -0.31829533835E+03  0.16101895497E+04  0.17613571682E+04  0.10100000352E+00 0.  1.
       -3    1    3    3    0  502 -0.63902797685E+03  0.31829533835E+03 -0.19875062863E+03  0.74106038903E+03  0.10100000352E+00 0. -1.
</event>
<event>
 5   0  0.1281470E-04  0.2146848E+04  0.7818609E-02  0.8540883E-01
        2   -1    0    0  501    0  0.00000000000E+00  0.00000000000E+00  0.25066431836E+04  0.25066431836E+04  0.25500000920E-02 0.  1.
       -2   -1    0    0    0  501  0.00000000000E+00  0.00000000000E+00 -0.45967417324E+03  0.45967417324E+03  0.25500000920E-02 0. -1.
    10030    2    1    2    0    0  0.00000000000E+00  0.00000000000E+00  0.20469690104E+04  0.29663173568E+04  0.21468480459E+04 0.  0.
        3    1    3    3  502    0 -0.18696996727E+03 -0.69153249897E+03 -0.81073523867E+02  0.72093542864E+03  0.10100000352E+00 0. -1.
       -3    1    3    3    0  502  0.18696996727E+03  0.69153249897E+03  0.21280425342E+04  0.22453819282E+04  0.10100000352E+00 0.  1.
</event>
<event>
 5   0  0.1349252E-04  0.2150153E+04  0.7818609E-02  0.8539467E-01
       -2   -1    0    0    0  501  0.00000000000E+00  0.00000000000E+00  0.81469634001E+03  0.81469634001E+03  0.25500000920E-02 0. -1.
        2   -1    0    0  501    0  0.00000000000E+00  0.00000000000E+00 -0.14186753109E+04  0.14186753109E+04  0.25500000920E-02 0.  1.
    10030    2    1    2    0    0  0.00000000000E+00  0.00000000000E+00 -0.60397897088E+03  0.22333716509E+04  0.21501530954E+04 0.  0.
        2    1    3    3  502    0 -0.64175910117E+03 -0.86211125251E+03 -0.32945190772E+03  0.11241125901E+04  0.25500000920E-02 0.  1.
       -2    1    3    3    0  502  0.64175910117E+03  0.86211125251E+03 -0.27452706316E+03  0.11092590608E+04  0.25500000920E-02 0. -1.
</event>
<event>
 5   0  0.6263616E-05  0.2108986E+04  0.7818609E-02  0.8557295E-01
        1   -1    0    0  501    0  0.00000000000E+00  0.00000000000E+00  0.13925024862E+04  0.13925024863E+04  0.50400001928E-02 0.  1.
       -1   -1    0    0    0  501  0.00000000000E+00  0.00000000000E+00 -0.79853068493E+03  0.79853068495E+03  0.50400001928E-02 0. -1.
    10030    2    1    2    0    0  0.00000000000E+00  0.00000000000E+00  0.59397180131E+03  0.21910331712E+04  0.21089864524E+04 0.  0.
        4    1    3    3  502    0  0.85086987445E+03  0.60460599327E+03  0.45256632561E+03  0.11376932110E+04  0.12699999809E+01 0.  1.
       -4    1    3    3    0  502 -0.85086987445E+03 -0.60460599327E+03  0.14140547570E+03  0.10533399602E+04  0.12699999809E+01 0. -1.
</event>
<event>
 5   0  0.1235817E-04  0.2039131E+04  0.7818609E-02  0.8588541E-01
        2   -1    0    0  501    0  0.00000000000E+00  0.00000000000E+00  0.21856457134E+04  0.21856457134E+04  0.25500000920E-02 0. -1.
       -2   -1    0    0    0  501  0.00000000000E+00  0.00000000000E+00 -0.47560937609E+03  0.47560937610E+03  0.25500000920E-02 0.  1.
    10030    2    1    2    0    0  0.00000000000E+00  0.00000000000E+00  0.17100363374E+04  0.26612550895E+04  0.20391307895E+04 0.  0.
        1    1    3    3  502    0 -0.45857275561E+03  0.90325261362E+03  0.10058642005E+04  0.14275563198E+04  0.50400001928E-02 0.  1.
       -1    1    3    3    0  502  0.45857275561E+03 -0.90325261362E+03  0.70417213681E+03  0.12336987698E+04  0.50400001928E-02 0. -1.
</event>
<event>
 5   0  0.1349252E-04  0.2085614E+04  0.7818609E-02  0.8567607E-01
       -2   -1    0    0    0  501  0.00000000000E+00  0.00000000000E+00  0.83732981781E+03  0.83732981781E+03  0.25500000920E-02 0. -1.
        2   -1    0    0  501    0  0.00000000000E+00  0.00000000000E+00 -0.12987070299E+04  0.12987070299E+04  0.25500000920E-02 0.  1.
    10030    2    1    2    0    0  0.00000000000E+00  0.00000000000E+00 -0.46137721207E+03  0.21360368477E+04  0.20856136945E+04 0.  0.
        2    1    3    3  502    0  0.51836777572E+03  0.27963379090E+02  0.69558788794E+03  0.86794562695E+03  0.25500000920E-02 0. -1.
       -2    1    3    3    0  502 -0.51836777572E+03 -0.27963379090E+02 -0.11569651000E+04  0.12680912207E+04  0.25500000920E-02 0.  1.
</event>
<event>
 5   0  0.1235817E-04  0.2109770E+04  0.7818609E-02  0.8556952E-01
       -2   -1    0    0    0  501  0.00000000000E+00  0.00000000000E+00  0.60655082096E+03  0.60655082097E+03  0.25500000920E-02 0.  1.
        2   -1    0    0  501    0  0.00000000000E+00  0.00000000000E+00 -0.18346074690E+04  0.18346074690E+04  0.25500000920E-02 0. -1.
    10030    2    1    2    0    0  0.00000000000E+00  0.00000000000E+00 -0.12280566480E+04  0.24411582899E+04  0.21097702875E+04 0.  0.
        1    1    3    3  502    0  0.24732436743E+03  0.97536022908E+03 -0.98044934169E+03  0.14049120367E+04  0.50400001928E-02 0. -1.
       -1    1    3    3    0  502 -0.24732436743E+03 -0.97536022908E+03 -0.24760730632E+03  0.10362462532E+04  0.50400001928E-02 0.  1.
</event>
<event>
 5   0  0.1281470E-04  0.1919984E+04  0.7818609E-02  0.8644973E-01
        2   -1    0    0  501    0  0.00000000000E+00  0.00000000000E+00  0.84074672573E+03  0.84074672573E+03  0.25500000920E-02 0.  1.
       -2   -1    0    0    0  501  0.00000000000E+00  0.00000000000E+00 -0.10961499643E+04  0.10961499643E+04  0.25500000920E-02 0. -1.
    10030    2    1    2    0    0  0.00000000000E+00  0.00000000000E+00 -0.25540323858E+03  0.19368966900E+04  0.19199838472E+04 0.  0.
        3    1    3    3  502    0  0.57008808870E+03  0.50335364312E+03  0.46330813228E+03  0.89051656613E+03  0.10100000352E+00 0.  1.
       -3    1    3    3    0  502 -0.57008808870E+03 -0.50335364312E+03 -0.71871137086E+03  0.10463801239E+04  0.10100000352E+00 0. -1.
</event>
<event>
 5   0  0.5933905E-05  0.2096741E+04  0.7818609E-02  0.8562680E-01
        1   -1    0    0  501    0  0.00000000000E+00  0.00000000000E+00  0.21166097839E+04  0.21166097839E+04  0.50400001928E-02 0.  1.
       -1   -1    0    0    0  501  0.00000000000E+00  0.00000000000E+00 -0.51926470480E+03  0.51926470482E+03  0.50400001928E-02 0. -1.
    10030    2    1    2    0    0  0.00000000000E+00  0.00000000000E+00  0.15973450791E+04  0.26358744887E+04  0.20967410471E+04 0.  0.
        2    1    3    3  502    0  0.27599711067E+03 -0.74343233965E+03  0.16607137603E+04  0.18403359048E+04  0.25500000920E-02 0.  1.
       -2    1    3    3    0  502 -0.27599711067E+03  0.74343233965E+03 -0.63368681239E+02  0.79553858392E+03  0.25500000920E-02 0. -1.
</event>
<event>
 5   0  0.1235817E-04  0.2121052E+04  0.7818609E-02  0.8552026E-01
        2   -1    0    0  501    0  0.00000000000E+00  0.00000000000E+00  0.87678413182E+03  0.87678413182E+03  0.25500000920E-02 0. -1.
       -2   -1    0    0    0  501  0.00000000000E+00  0.00000000000E+00 -0.12827733403E+04  0.12827733403E+04  0.25500000920E-02 0.  1.
    10030    2    1    2    0    0  0.00000000000E+00  0.00000000000E+00 -0.40598920848E+03  0.21595574721E+04  0.21210519178E+04 0.  0.
        1    1    3    3  502    0 -0.60102092373E+03 -0.49534069924E+03 -0.93587224973E+03  0.12175571555E+04  0.50400001928E-02 0.  1.
       -1    1    3    3    0  502  0.60102092373E+03  0.49534069924E+03  0.52988304124E+03  0.94200031662E+03  0.50400001928E-02 0. -1.
</event>
<event>
 5   0  0.1252477E-04  0.2080923E+04  0.7818609E-02  0.8569694E-01
       -2   -1    0    0    0  501  0.00000000000E+00  0.00000000000E+00  0.91944675118E+03  0.91944675118E+03  0.25500000920E-02 0.  1.
        2   -1    0    0  501    0  0.00000000000E+00  0.00000000000E+00 -0.11774032965E+04  0.11774032965E+04  0.25500000920E-02 0. -1.
    10030    2    1    2    0    0  0.00000000000E+00  0.00000000000E+00 -0.25795654527E+03  0.20968500476E+04  0.20809225221E+04 0.  0.
        4    1    3    3  502    0 -0.22532809846E+03 -0.83837949666E+03  0.44891383160E+03  0.97733217151E+03  0.12699999809E+01 0.  1.
       -4    1    3    3    0  502  0.22532809846E+03  0.83837949666E+03 -0.70687037687E+03  0.11195178761E+04  0.12699999809E+01 0. -1.
</event>
<event>
 5   0  0.6052292E-05  0.2047030E+04  0.7818609E-02  0.8584943E-01
       -1   -1    0    0    0  501  0.00000000000E+00  0.00000000000E+00  0.15621924918E+04  0.15621924918E+04  0.50400001928E-02 0. -1.
        1   -1    0    0  501    0  0.00000000000E+00  0.00000000000E+00 -0.67058496543E+03  0.67058496545E+03  0.50400001928E-02 0.  1.
    10030    2    1    2    0    0  0.00000000000E+00  0.00000000000E+00  0.89160752640E+03  0.22327774573E+04  0.20470298465E+04 0.  0.
        1    1    3    3  502    0  0.69977746019E+03 -0.33021533219E+03  0.11765606439E+04  0.14081994206E+04  0.50400001928E-02 0. -1.
       -1    1    3    3    0  502 -0.69977746019E+03  0.33021533219E+03 -0.28495311748E+03  0.82457803669E+03  0.50400001928E-02 0.  1.
</event>
<event>
 5   0  0.5933905E-05  0.2099678E+04  0.7818609E-02  0.8561385E-01
        1   -1    0    0  501    0  0.00000000000E+00  0.00000000000E+00  0.23296884483E+04  0.23296884483E+04  0.50400001928E-02 0. -1.
       -1   -1    0    0    0  501  0.00000000000E+00  0.00000000000E+00 -0.47309420552E+03  0.47309420554E+03  0.50400001928E-02 0.  1.
    10030    2    1    2    0    0  0.00000000000E+00  0.00000000000E+00  0.18565942428E+04  0.28027826538E+04  0.20996781711E+04 0.  0.
        2    1    3    3  502    0  0.96346266333E+03 -0.98236138362E+02  0.38730453813E+03  0.10430318537E+04  0.25500000920E-02 0.  1.
       -2    1    3    3    0  502 -0.96346266333E+03  0.98236138362E+02  0.14692897046E+04  0.17597508002E+04  0.25500000920E-02 0. -1.
</event>
<event>
 5   0  0.5846187E-05  0.2099911E+04  0.7818609E-02  0.8561283E-01
       -1   -1    0    0    0  501  0.00000000000E+00  0.00000000000E+00  0.11159486595E+04  0.11159486595E+04  0.50400001928E-02 0.  1.
        1   -1    0    0  501    0  0.00000000000E+00  0.00000000000E+00 -0.98786482836E+03  0.98786482837E+03  0.50400001928E-02 0. -1.
    10030    2    1    2    0    0  0.00000000000E+00  0.00000000000E+00  0.12808383115E+03  0.21038134879E+04  0.20999108848E+04 0.  0.
        5    1    3    3  502    0 -0.46117972650E+03  0.44731773920E+03 -0.76792564942E+03  0.10012551088E+04  0.46999998093E+01 0. -1.
       -5    1    3    3    0  502  0.46117972650E+03 -0.44731773920E+03  0.89600948057E+03  0.11025583790E+04  0.46999998093E+01 0.  1.
</event>
<event>
 5   0  0.4615125E-05  0.2171042E+04  0.7818609E-02  0.8530579E-01
        3   -1    0    0  501    0  0.00000000000E+00  0.00000000000E+00  0.82473976616E+03  0.82473977234E+03  0.10100000352E+00 0. -1.
       -3   -1    0    0    0  501  0.00000000000E+00  0.00000000000E+00 -0.14287609497E+04  0.14287609533E+04  0.10100000352E+00 0.  1.
    10030    2    1    2    0    0  0.00000000000E+00  0.00000000000E+00 -0.60402118357E+03  0.22535007256E+04  0.21710421300E+04 0.  0.
        4    1    3    3  502    0  0.12786152415E+03 -0.10443409437E+04 -0.24735946997E+02  0.10524305469E+04  0.12699999809E+01 0. -1.
       -4    1    3    3    0  502 -0.12786152415E+03  0.10443409437E+04 -0.57928523657E+03  0.12010701787E+04  0.12699999809E+01 0.  1.
</event>
<event>
 5   0  0.6221148E-05  0.2037097E+04  0.7818609E-02  0.8589470E-01
        1   -1    0    0  501    0  0.00000000000E+00  0.00000000000E+00  0.12255240778E+04  0.12255240778E+04  0.50400001928E-02 0.  1.
       -1   -1    0    0    0  501  0.00000000000E+00  0.00000000000E+00 -0.84652874402E+03  0.84652874403E+03  0.50400001928E-02 0. -1.
    10030    2    1    2    0    0  0.00000000000E+00  0.00000000000E+00  0.37899533380E+03  0.20720528219E+04  0.20370973059E+04 0.  0.
        3    1    3    3  502    0  0.88479085145E+03  0.44728110736E+03  0.42701280749E+03  0.10794698642E+04  0.10100000352E+00 0. -1.
       -3    1    3    3    0  502 -0.88479085145E+03 -0.44728110736E+03 -0.48017473691E+02  0.99258295764E+03  0.10100000352E+00 0.  1.
</event>
<event>
 5   0  0.1252477E-04  0.2055424E+04  0.7818609E-02  0.8581138E-01
        2   -1    0    0  501    0  0.00000000000E+00  0.00000000000E+00  0.64985739541E+03  0.64985739541E+03  0.25500000920E-02 0.  1.
       -2   -1    0    0    0  501  0.00000000000E+00  0.00000000000E+00 -0.16252669780E+04  0.16252669780E+04  0.25500000920E-02 0. -1.
    10030    2    1    2    0    0  0.00000000000E+00  0.00000000000E+00 -0.97540958254E+03  0.22751243734E+04  0.20554238153E+04 0.  0.
        4    1    3    3  502    0  0.43448432562E+02 -0.87650795274E+03  0.10428505080E+03  0.88375955001E+03  0.12699999809E+01 0.  1.
       -4    1    3    3    0  502 -0.43448432562E+02  0.87650795274E+03 -0.10796946333E+04  0.13913648234E+04  0.12699999809E+01 0. -1.
</event>
<event>
 5   0  0.6052292E-05  0.2308182E+04  0.7818609E-02  0.8474702E-01
        1   -1    0    0  501    0  0.00000000000E+00  0.00000000000E+00  0.72240018137E+03  0.72240018138E+03  0.50400001928E-02 0. -1.
       -1   -1    0    0    0  501  0.00000000000E+00  0.00000000000E+00 -0.18437513374E+04  0.18437513374E+04  0.50400001928E-02 0.  1.
    10030    2    1    2    0    0  0.00000000000E+00  0.00000000000E+00 -0.11213511560E+04  0.25661515188E+04  0.23081822290E+04 0.  0.
        1    1    3    3  502    0 -0.48625549073E+03  0.47512049315E+03  0.47615435770E+03  0.83000413111E+03  0.50400001928E-02 0. -1.
       -1    1    3    3    0  502  0.48625549073E+03 -0.47512049315E+03 -0.15975055137E+04  0.17361473876E+04  0.50400001928E-02 0.  1.
</event>
<event>
 5   0  0.1325673E-04  0.2110239E+04  0.7818609E-02  0.8556746E-01
       -2   -1    0    0    0  501  0.00000000000E+00  0.00000000000E+00  0.43050528881E+03  0.43050528882E+03  0.25500000920E-02 0. -1.
        2   -1    0    0  501    0  0.00000000000E+00  0.00000000000E+00 -0.25859778674E+04  0.25859778674E+04  0.25500000920E-02 0.  1.
    10030    2    1    2    0    0  0.00000000000E+00  0.00000000000E+00 -0.21554725786E+04  0.30164831562E+04  0.21102389900E+04 0.  0.
        5    1    3    3  502    0 -0.78135981175E+03 -0.13295760848E+03 -0.20732892912E+04  0.22196286753E+04  0.46999998093E+01 0.  1.
       -5    1    3    3    0  502  0.78135981175E+03  0.13295760848E+03 -0.82183287364E+02  0.79685448094E+03  0.46999998093E+01 0. -1.
</event>
<event>
 5   0  0.1325673E-04  0.2103233E+04  0.7818609E-02  0.8559821E-01
       -2   -1    0    0    0  501  0.00000000000E+00  0.00000000000E+00  0.52427276800E+03  0.52427276800E+03  0.25500000920E-02 0.  1.
        2   -1    0    0  501    0  0.00000000000E+00  0.00000000000E+00 -0.21093921865E+04  0.21093921865E+04  0.25500000920E-02 0. -1.
    10030    2    1    2    0    0  0.00000000000E+00  0.00000000000E+00 -0.15851194185E+04  0.26336649545E+04  0.21032326361E+04 0.  0.
        5    1    3    3  502    0 -0.57527380501E+03  0.31038221904E+02 -0.18941895417E+04  0.19798685390E+04  0.46999998093E+01 0. -1.
       -5    1    3    3    0  502  0.57527380501E+03 -0.31038221904E+02  0.30907012314E+03  0.65379641554E+03  0.46999998093E+01 0.  1.
</event>
<event>
 5   0  0.1325673E-04  0.2119918E+04  0.7818609E-02  0.8552520E-01
       -2   -1    0    0    0  501  0.00000000000E+00  0.00000000000E+00  0.47791634776E+03  0.47791634776E+03  0.25500000920E-02 0. -1.
        2   -1    0    0  501    0  0.00000000000E+00  0.00000000000E+00 -0.23508564374E+04  0.23508564374E+04  0.25500000920E-02 0.  1.
    10030    2    1    2    0    0  0.00000000000E+00  0.00000000000E+00 -0.18729400896E+04  0.28287727852E+04  0.21199176613E+04 0.  0.
        5    1    3    3  502    0  0.17179979382E+03 -0.52180269175E+03 -0.21460512563E+04  0.22152542299E+04  0.46999998093E+01 0.  1.
       -5    1    3    3    0  502 -0.17179979382E+03  0.52180269175E+03  0.27311116670E+03  0.61351855526E+03  0.46999998093E+01 0. -1.
</event>
<event>
 5   0  0.1349252E-04  0.2070915E+04  0.7818609E-02  0.8574165E-01
        2   -1    0    0  501    0  0.00000000000E+00  0.00000000000E+00  0.19385062292E+04  0.19385062292E+04  0.25500000920E-02 0.  1.
       -2   -1    0    0    0  501  0.00000000000E+00  0.00000000000E+00 -0.55309202987E+03  0.55309202988E+03  0.25500000920E-02 0. -1.
    10030    2    1    2    0    0  0.00000000000E+00  0.00000000000E+00  0.13854141994E+04  0.24915982591E+04  0.20709151072E+04 0.  0.
        2    1    3    3  502    0  0.46202410699E+03 -0.86497790099E+03  0.10926838858E+04  0.14681999588E+04  0.25500000920E-02 0.  1.
       -2    1    3    3    0  502 -0.46202410699E+03  0.86497790099E+03  0.29273031352E+03  0.10233983003E+04  0.25500000920E-02 0. -1.
</event>
<event>
 5   0  0.6263616E-05  0.2122665E+04  0.7818609E-02  0.8551324E-01
        1   -1    0    0  501    0  0.00000000000E+00  0.00000000000E+00  0.11726523742E+04  0.11726523742E+04  0.50400001928E-02 0. -1.
       -1   -1    0    0    0  501  0.00000000000E+00  0.00000000000E+00 -0.96058057639E+03  0.96058057641E+03  0.50400001928E-02 0.  1.
    10030    2    1    2    0    0  0.00000000000E+00  0.00000000000E+00  0.21207179779E+03  0.21332329506E+04  0.21226653938E+04 0.  0.
        4    1    3    3  502    0  0.24035052751E+03 -0.30256088328E+03 -0.88737601768E+03  0.96785808558E+03  0.12699999809E+01 0.  1.
       -4    1    3    3    0  502 -0.24035052751E+03  0.30256088328E+03  0.10994478155E+04  0.11653748650E+04  0.12699999809E+01 0. -1.
</event>
<event>
 5   0  0.1235817E-04  0.2085633E+04  0.7818609E-02  0.8567599E-01
        2   -1    0    0  501    0  0.00000000000E+00  0.00000000000E+00  0.16726349965E+04  0.16726349965E+04  0.25500000920E-02 0.  1.
       -2   -1    0    0    0  501  0.00000000000E+00  0.00000000000E+00 -0.65015143547E+03  0.65015143547E+03  0.25500000920E-02 0. -1.
    10030    2    1    2    0    0  0.00000000000E+00  0.00000000000E+00  0.10224835611E+04  0.23227864320E+04  0.20856327999E+04 0.  0.
        1    1    3    3  502    0  0.70601970169E+03 -0.10805269478E+03 -0.33497631204E+03  0.78889057142E+03  0.50400001928E-02 0. -1.
       -1    1    3    3    0  502 -0.70601970169E+03  0.10805269478E+03  0.13574598731E+04  0.15338958606E+04  0.50400001928E-02 0.  1.
</event>
<event>
 5   0  0.1325673E-04  0.2063889E+04  0.7818609E-02  0.8577320E-01
        2   -1    0    0  501    0  0.00000000000E+00  0.00000000000E+00  0.94345355343E+03  0.94345355344E+03  0.25500000920E-02 0. -1.
       -2   -1    0    0    0  501  0.00000000000E+00  0.00000000000E+00 -0.11287352990E+04  0.11287352990E+04  0.25500000920E-02 0.  1.
    10030    2    1    2    0    0  0.00000000000E+00  0.00000000000E+00 -0.18528174559E+03  0.20721888525E+04  0.20638888815E+04 0.  0.
        5    1    3    3  502    0  0.27621865609E+03 -0.78873884606E+03 -0.70045258563E+03  0.10904410245E+04  0.46999998093E+01 0.  1.
       -5    1    3    3    0  502 -0.27621865609E+03  0.78873884606E+03  0.51517084004E+03  0.98174782794E+03  0.46999998093E+01 0. -1.
</event>
<event>
 5   0  0.1252477E-04  0.2122860E+04  0.7818609E-02  0.8551240E-01
       -2   -1    0    0    0  501  0.00000000000E+00  0.00000000000E+00  0.49036981754E+03  0.49036981754E+03  0.25500000920E-02 0.  1.
        2   -1    0    0  501    0  0.00000000000E+00  0.00000000000E+00 -0.22975175243E+04  0.22975175243E+04  0.25500000920E-02 0. -1.
    10030    2    1    2    0    0  0.00000000000E+00  0.00000000000E+00 -0.18071477068E+04  0.27878873419E+04  0.21228596272E+04 0.  0.
        4    1    3    3  502    0 -0.49447173057E+02  0.67596089428E+03 -0.19763339762E+04  0.20893218402E+04  0.12699999809E+01 0. -1.
       -4    1    3    3    0  502  0.49447173057E+02 -0.67596089428E+03  0.16918626939E+03  0.69856550170E+03  0.12699999809E+01 0.  1.
</event>
<event>
 5   0  0.1281470E-04  0.2152290E+04  0.7818609E-02  0.8538553E-01
        2   -1    0    0  501    0  0.00000000000E+00  0.00000000000E+00  0.16577281572E+04  0.16577281572E+04  0.25500000920E-02 0.  1.
       -2   -1    0    0    0  501  0.00000000000E+00  0.00000000000E+00 -0.69859955788E+03  0.69859955788E+03  0.25500000920E-02 0. -1.
    10030    2    1    2    0    0  0.00000000000E+00  0.00000000000E+00  0.95912859931E+03  0.23563277151E+04  0.21522900898E+04 0.  0.
        3    1    3    3  502    0  0.60511141302E+03  0.31526773455E+03 -0.43151382163E+03  0.80731515226E+03  0.10100000352E+00 0. -1.
       -3    1    3    3    0  502 -0.60511141302E+03 -0.31526773455E+03  0.13906424209E+04  0.15490125628E+04  0.10100000352E+00 0.  1.
</event>
<event>
 5   0  0.1325673E-04  0.2143147E+04  0.7818609E-02  0.8542471E-01
       -2   -1    0    0    0  501  0.00000000000E+00  0.00000000000E+00  0.12819601157E+04  0.12819601157E+04  0.25500000920E-02 0. -1.
        2   -1    0    0  501    0  0.00000000000E+00  0.00000000000E+00 -0.89571408375E+03  0.89571408375E+03  0.25500000920E-02 0.  1.
    10030    2    1    2    0    0  0.00000000000E+00  0.00000000000E+00  0.38624603195E+03  0.21776741995E+04  0.21431469669E+04 0.  0.
        5    1    3    3  502    0  0.77980684333E+03 -0.62966531596E+03  0.57826847319E+03  0.11571489274E+04  0.46999998093E+01 0.  1.
       -5    1    3    3    0  502 -0.77980684333E+03  0.62966531596E+03 -0.19202244124E+03  0.10205252721E+04  0.46999998093E+01 0. -1.
</event>
<event>
 5   0  0.6263616E-05  0.2039004E+04  0.7818609E-02  0.8588599E-01
       -1   -1    0    0    0  501  0.00000000000E+00  0.00000000000E+00  0.56130847132E+03  0.56130847134E+03  0.50400001928E-02 0.  1.
        1   -1    0    0  501    0  0.00000000000E+00  0.00000000000E+00 -0.18517173046E+04  0.18517173046E+04  0.50400001928E-02 0. -1.
    10030    2    1    2    0    0  0.00000000000E+00  0.00000000000E+00 -0.12904088333E+04  0.24130257759E+04  0.20390042762E+04 0.  0.
        4    1    3    3  502    0  0.33296485220E+03  0.60693096139E+03  0.24051640071E+03  0.73285778743E+03  0.12699999809E+01 0.  1.
       -4    1    3    3    0  502 -0.33296485220E+03 -0.60693096139E+03 -0.15309252340E+04  0.16801679885E+04  0.12699999809E+01 0. -1.
</event>
<event>
 5   0  0.6221148E-05  0.2097005E+04  0.7818609E-02  0.8562564E-01
        1   -1    0    0  501    0  0.00000000000E+00  0.00000000000E+00  0.17329053936E+04  0.17329053936E+04  0.50400001928E-02 0.  1.
       -1   -1    0    0    0  501  0.00000000000E+00  0.00000000000E+00 -0.63440123514E+03  0.63440123516E+03  0.50400001928E-02 0. -1.
    10030    2    1    2    0    0  0.00000000000E+00  0.00000000000E+00  0.10985041584E+04  0.23673066287E+04  0.20970048375E+04 0.  0.
        3    1    3    3  502    0  0.52410577152E+03  0.78677850470E+03  0.10611925666E+04  0.14212096780E+04  0.10100000352E+00 0.  1.
       -3    1    3    3    0  502 -0.52410577152E+03 -0.78677850470E+03  0.37311591866E+02  0.94609695078E+03  0.10100000352E+00 0. -1.
</event>
<event>
 5   0  0.5846187E-05  0.2131266E+04  0.7818609E-02  0.8547594E-01
        1   -1    0    0  501    0  0.00000000000E+00  0.00000000000E+00  0.26941452379E+04  0.26941452379E+04  0.50400001928E-02 0. -1.
       -1   -1    0    0    0  501  0.00000000000E+00  0.00000000000E+00 -0.42149702266E+03  0.42149702269E+03  0.50400001928E-02 0.  1.
    10030    2    1    2    0    0  0.00000000000E+00  0.00000000000E+00  0.22726482153E+04  0.31156422606E+04  0.21312664746E+04 0.  0.
        5    1    3    3  502    0 -0.32236389102E+03  0.34084844109E+03  0.25350369512E+04  0.25780866107E+04  0.46999998093E+01 0. -1.
       -5    1    3    3    0  502  0.32236389102E+03 -0.34084844109E+03 -0.26238873597E+03  0.53755564994E+03  0.46999998093E+01 0.  1.
</event>
<event>
 5   0  0.1235817E-04  0.2120129E+04  0.7818609E-02  0.8552428E-01
       -2   -1    0    0    0  501  0.00000000000E+00  0.00000000000E+00  0.61243399343E+03  0.61243399343E+03  0.25500000920E-02 0.  1.
        2   -1    0    0  501    0  0.00000000000E+00  0.00000000000E+00 -0.18348704064E+04  0.18348704064E+04  0.25500000920E-02 0. -1.
    10030    2    1    2    0    0  0.00000000000E+00  0.00000000000E+00 -0.12224364129E+04  0.24473043998E+04  0.21201292512E+04 0.  0.
        1    1    3    3  502    0  0.20330844511E+03 -0.52300431966E+03  0.42694299399E+03  0.70508734379E+03  0.50400001928E-02 0.  1.
       -1    1    3    3    0  502 -0.20330844511E+03  0.52300431966E+03 -0.16493794069E+04  0.17422170560E+04  0.50400001928E-02 0. -1.
</event>
<event>
 5   0  0.1325673E-04  0.2103589E+04  0.7818609E-02  0.8559664E-01
       -2   -1    0    0    0  501  0.00000000000E+00  0.00000000000E+00  0.44992799046E+03  0.44992799047E+03  0.25500000920E-02 0. -1.
        2   -1    0    0  501    0  0.00000000000E+00  0.00000000000E+00 -0.24587760180E+04  0.24587760180E+04  0.25500000920E-02 0.  1.
    10030    2    1    2    0    0  0.00000000000E+00  0.00000000000E+00 -0.20088480275E+04  0.29087040084E+04  0.21035894588E+04 0.  0.
        5    1    3    3  502    0  0.89874669827E+03 -0.37864452493E+03 -0.45980813235E+03  0.10782221072E+04  0.46999998093E+01 0.  1.
       -5    1    3    3    0  502 -0.89874669827E+03  0.37864452493E+03 -0.15490398952E+04  0.18304819012E+04  0.46999998093E+01 0. -1.
</event>
<event>
 5   0  0.5846187E-05  0.2094792E+04  0.7818609E-02  0.8563541E-01
       -1   -1    0    0    0  501  0.00000000000E+00  0.00000000000E+00  0.63727912205E+03  0.63727912207E+03  0.50400001928E-02 0. -1.
        1   -1    0    0  501    0  0.00000000000E+00  0.00000000000E+00 -0.17214413510E+04  0.17214413510E+04  0.50400001928E-02 0.  1.
    10030    2    1    2    0    0  0.00000000000E+00  0.00000000000E+00 -0.10841622289E+04  0.23587204731E+04  0.20947922406E+04 0.  0.
        5    1    3    3  502    0 -0.56211149548E+02  0.75264353219E+03  0.27562873096E+03  0.80350810028E+03  0.46999998093E+01 0. -1.
       -5    1    3    3    0  502  0.56211149548E+02 -0.75264353219E+03 -0.13597909599E+04  0.15552123728E+04  0.46999998093E+01 0.  1.
</event>
<event>
 5   0  0.6052292E-05  0.2161965E+04  0.7818609E-02  0.8534428E-01
        1   -1    0    0  501    0  0.00000000000E+00  0.00000000000E+00  0.14368868699E+04  0.14368868699E+04  0.50400001928E-02 0.  1.
       -1   -1    0    0    0  501  0.00000000000E+00  0.00000000000E+00 -0.81323241432E+03  0.81323241433E+03  0.50400001928E-02 0. -1.
    10030    2    1    2    0    0  0.00000000000E+00  0.00000000000E+00  0.62365445556E+03  0.22501192842E+04  0.21619648270E+04 0.  0.
        1    1    3    3  502    0  0.63068472622E+03 -0.70850348314E+03  0.85140924533E+03  0.12746129266E+04  0.50400001928E-02 0.  1.
       -1    1    3    3    0  502 -0.63068472622E+03  0.70850348314E+03 -0.22775478977E+03  0.97550635765E+03  0.50400001928E-02 0. -1.
</event>
<event>
 5   0  0.1252477E-04  0.2022661E+04  0.7818609E-02  0.8596098E-01
        2   -1    0    0  501    0  0.00000000000E+00  0.00000000000E+00  0.10354881216E+04  0.10354881216E+04  0.25500000920E-02 0.  1.
       -2   -1    0    0    0  501  0.00000000000E+00  0.00000000000E+00 -0.98773683511E+03  0.98773683511E+03  0.25500000920E-02 0. -1.
    10030    2    1    2    0    0  0.00000000000E+00  0.00000000000E+00  0.47751286515E+02  0.20232249567E+04  0.20226613756E+04 0.  0.
        4    1    3    3  502    0  0.21708236862E+03  0.85675898742E+03  0.51556873819E+03  0.10232172076E+04  0.12699999809E+01 0.  1.
       -4    1    3    3    0  502 -0.21708236862E+03 -0.85675898742E+03 -0.46781745167E+03  0.10000077491E+04  0.12699999809E+01 0. -1.
</event>
<event>
 5   0  0.6052292E-05  0.2099644E+04  0.7818609E-02  0.8561400E-01
        1   -1    0    0  501    0  0.00000000000E+00  0.00000000000E+00  0.17047410088E+04  0.17047410088E+04  0.50400001928E-02 0.  1.
       -1   -1    0    0    0  501  0.00000000000E+00  0.00000000000E+00 -0.64650632334E+03  0.64650632336E+03  0.50400001928E-02 0. -1.
    10030    2    1    2    0    0  0.00000000000E+00  0.00000000000E+00  0.10582346854E+04  0.23512473321E+04  0.20996436287E+04 0.  0.
        1    1    3    3  502    0  0.80028010929E+03 -0.22176739265E+03  0.12483394457E+04  0.14993266494E+04  0.50400001928E-02 0.  1.
       -1    1    3    3    0  502 -0.80028010929E+03  0.22176739265E+03 -0.19010476031E+03  0.85192068275E+03  0.50400001928E-02 0. -1.
</event>
<event>
 5   0  0.1252477E-04  0.2120948E+04  0.7818609E-02  0.8552072E-01
       -2   -1    0    0    0  501  0.00000000000E+00  0.00000000000E+00  0.12208280050E+04  0.12208280050E+04  0.25500000920E-02 0. -1.
        2   -1    0    0  501    0  0.00000000000E+00  0.00000000000E+00 -0.92118190597E+03  0.92118190597E+03  0.25500000920E-02 0.  1.
    10030    2    1    2    0    0  0.00000000000E+00  0.00000000000E+00  0.29964609900E+03  0.21420099109E+04  0.21209475887E+04 0.  0.
        4    1    3    3  502    0  0.68793220534E+03 -0.48024940756E+03  0.80488809233E+03  0.11626421060E+04  0.12699999809E+01 0. -1.
       -4    1    3    3    0  502 -0.68793220534E+03  0.48024940756E+03 -0.50524199333E+03  0.97936780493E+03  0.12699999809E+01 0.  1.
</event>
<event>
 5   0  0.1235817E-04  0.2117281E+04  0.7818609E-02  0.8553669E-01
        2   -1    0    0  501    0  0.00000000000E+00  0.00000000000E+00  0.11817130676E+04  0.11817130676E+04  0.25500000920E-02 0. -1.
       -2   -1    0    0    0  501  0.00000000000E+00  0.00000000000E+00 -0.94838575423E+03  0.94838575424E+03  0.25500000920E-02 0.  1.
    10030    2    1    2    0    0  0.00000000000E+00  0.00000000000E+00  0.23332731340E+03  0.21300988219E+04  0.21172811235E+04 0.  0.
        1    1    3    3  502    0 -0.83329080890E+03  0.47479820082E+03 -0.33428300456E+03  0.10156534994E+04  0.50400001928E-02 0.  1.
       -1    1    3    3    0  502  0.83329080890E+03 -0.47479820082E+03  0.56761031796E+03  0.11144453225E+04  0.50400001928E-02 0. -1.
</event>
<event>
 5   0  0.4615125E-05  0.2108322E+04  0.7818609E-02  0.8557586E-01
        4   -1    0    0  501    0  0.00000000000E+00  0.00000000000E+00  0.16165098011E+04  0.16165103000E+04  0.12699999809E+01 0. -1.
       -4   -1    0    0    0  501  0.00000000000E+00  0.00000000000E+00 -0.68744018424E+03  0.68744135736E+03  0.12699999809E+01 0.  1.
    10030    2    1    2    0    0  0.00000000000E+00  0.00000000000E+00  0.92906961690E+03  0.23039516574E+04  0.21083222919E+04 0.  0.
        2    1    3    3  502    0  0.70217645083E+03 -0.12732773215E+03  0.13124093163E+04  0.14938816329E+04  0.25500000920E-02 0. -1.
       -2    1    3    3    0  502 -0.70217645083E+03  0.12732773215E+03 -0.38333969941E+03  0.81007002452E+03  0.25500000920E-02 0.  1.
</event>
<event>
 5   0  0.6052292E-05  0.2083003E+04  0.7818609E-02  0.8568768E-01
       -1   -1    0    0    0  501  0.00000000000E+00  0.00000000000E+00  0.11027513347E+04  0.11027513347E+04  0.50400001928E-02 0.  1.
        1   -1    0    0  501    0  0.00000000000E+00  0.00000000000E+00 -0.98365370224E+03  0.98365370225E+03  0.50400001928E-02 0. -1.
    10030    2    1    2    0    0  0.00000000000E+00  0.00000000000E+00  0.11909763249E+03  0.20864050370E+04  0.20830030562E+04 0.  0.
        1    1    3    3  502    0  0.99273949077E+03 -0.17630073319E+03  0.32095740702E+03  0.10581244266E+04  0.50400001928E-02 0. -1.
       -1    1    3    3    0  502 -0.99273949077E+03  0.17630073319E+03 -0.20185977453E+03  0.10282806104E+04  0.50400001928E-02 0.  1.
</event>
<event>
 5   0  0.4615125E-05  0.2094828E+04  0.7818609E-02  0.8563525E-01
       -3   -1    0    0    0  501  0.00000000000E+00  0.00000000000E+00  0.10138250812E+04  0.10138250863E+04  0.10100000352E+00 0.  1.
        3   -1    0    0  501    0  0.00000000000E+00  0.00000000000E+00 -0.10821157627E+04  0.10821157674E+04  0.10100000352E+00 0. -1.
    10030    2    1    2    0    0  0.00000000000E+00  0.00000000000E+00 -0.68290681430E+02  0.20959408536E+04  0.20948280227E+04 0.  0.
        2    1    3    3  502    0 -0.51486541169E+03 -0.43982685260E+03  0.76536742439E+03  0.10219204209E+04  0.25500000920E-02 0.  1.
       -2    1    3    3    0  502  0.51486541169E+03  0.43982685260E+03 -0.83365810582E+03  0.10740204327E+04  0.25500000920E-02 0. -1.
</event>
<event>
 5   0  0.1252477E-04  0.2152119E+04  0.7818609E-02  0.8538626E-01
       -2   -1    0    0    0  501  0.00000000000E+00  0.00000000000E+00  0.84819677449E+03  0.84819677450E+03  0.25500000920E-02 0.  1.
        2   -1    0    0  501    0  0.00000000000E+00  0.00000000000E+00 -0.13651354811E+04  0.13651354811E+04  0.25500000920E-02 0. -1.
    10030    2    1    2    0    0  0.00000000000E+00  0.00000000000E+00 -0.51693870665E+03  0.22133322556E+04  0.21521185022E+04 0.  0.
        4    1    3    3  502    0  0.11716728458E+03 -0.63055766862E+02  0.83970301404E+03  0.85018054965E+03  0.12699999809E+01 0.  1.
       -4    1    3    3    0  502 -0.11716728458E+03  0.63055766862E+02 -0.13566417207E+04  0.13631517060E+04  0.12699999809E+01 0. -1.
</event>
<event>
 5   0  0.6263616E-05  0.2078284E+04  0.7818609E-02  0.8570870E-01
       -1   -1    0    0    0  501  0.00000000000E+00  0.00000000000E+00  0.11645220184E+04  0.11645220184E+04  0.50400001928E-02 0.  1.
        1   -1    0    0  501    0  0.00000000000E+00  0.00000000000E+00 -0.92726116899E+03  0.92726116900E+03  0.50400001928E-02 0. -1.
    10030    2    1    2    0    0  0.00000000000E+00  0.00000000000E+00  0.23726084938E+03  0.20917831874E+04  0.20782839537E+04 0.  0.
        4    1    3    3  502    0  0.51611893374E+03 -0.18583575208E+03 -0.76965563363E+03  0.94513760257E+03  0.12699999809E+01 0. -1.
       -4    1    3    3    0  502 -0.51611893374E+03  0.18583575208E+03  0.10069164830E+04  0.11466455848E+04  0.12699999809E+01 0.  1.
</event>
<event>
 5   0  0.1252477E-04  0.2113593E+04  0.7818609E-02  0.8555279E-01
        2   -1    0    0  501    0  0.00000000000E+00  0.00000000000E+00  0.14449911688E+04  0.14449911688E+04  0.25500000920E-02 0.  1.
       -2   -1    0    0    0  501  0.00000000000E+00  0.00000000000E+00 -0.77289006419E+03  0.77289006420E+03  0.25500000920E-02 0. -1.
    10030    2    1    2    0    0  0.00000000000E+00  0.00000000000E+00  0.67210110456E+03  0.22178812330E+04  0.21135934493E+04 0.  0.
        4    1    3    3  502    0 -0.89428410868E+03 -0.35842579317E+03 -0.11966406439E+03  0.97084201467E+03  0.12699999809E+01 0. -1.
       -4    1    3    3    0  502  0.89428410868E+03  0.35842579317E+03  0.79176516895E+03  0.12470392183E+04  0.12699999809E+01 0.  1.
</event>
<event>
 5   0  0.5933905E-05  0.2087803E+04  0.7818609E-02  0.8566636E-01
        1   -1    0    0  501    0  0.00000000000E+00  0.00000000000E+00  0.73963423007E+03  0.73963423009E+03  0.50400001928E-02 0. -1.
       -1   -1    0    0    0  501  0.00000000000E+00  0.00000000000E+00 -0.14733362672E+04  0.14733362672E+04  0.50400001928E-02 0.  1.
    10030    2    1    2    0    0  0.00000000000E+00  0.00000000000E+00 -0.73370203715E+03  0.22129704973E+04  0.20878026110E+04 0.  0.
        2    1    3    3  502    0  0.77508316270E+03  0.66037710404E+03 -0.61058952044E+03  0.11872958313E+04  0.25500000920E-02 0.  1.
       -2    1    3    3    0  502 -0.77508316270E+03 -0.66037710404E+03 -0.12311251671E+03  0.10256746660E+04  0.25500000920E-02 0. -1.
</event>
<event>
 5   0  0.1235817E-04  0.2099295E+04  0.7818609E-02  0.8561554E-01
       -2   -1    0    0    0  501  0.00000000000E+00  0.00000000000E+00  0.88226900207E+03  0.88226900207E+03  0.25500000920E-02 0. -1.
        2   -1    0    0  501    0  0.00000000000E+00  0.00000000000E+00 -0.12487801655E+04  0.12487801655E+04  0.25500000920E-02 0.  1.
    10030    2    1    2    0    0  0.00000000000E+00  0.00000000000E+00 -0.36651116339E+03  0.21310491675E+04  0.20992951488E+04 0.  0.
        1    1    3    3  502    0 -0.26309277582E+03 -0.12260787560E+03  0.84071908103E+03  0.88941501735E+03  0.50400001928E-02 0. -1.
       -1    1    3    3    0  502  0.26309277582E+03  0.12260787560E+03 -0.12072302444E+04  0.12416341502E+04  0.50400001928E-02 0.  1.
</event>
<event>
 5   0  0.6221148E-05  0.2078278E+04  0.7818609E-02  0.8570873E-01
        1   -1    0    0  501    0  0.00000000000E+00  0.00000000000E+00  0.11921921611E+04  0.11921921611E+04  0.50400001928E-02 0.  1.
       -1   -1    0    0    0  501  0.00000000000E+00  0.00000000000E+00 -0.90573487288E+03  0.90573487290E+03  0.50400001928E-02 0. -1.
    10030    2    1    2    0    0  0.00000000000E+00  0.00000000000E+00  0.28645728823E+03  0.20979270340E+04  0.20782781484E+04 0.  0.
        3    1    3    3  502    0 -0.54285091582E+03  0.72784321564E+03 -0.36688767348E+03  0.97931069560E+03  0.10100000352E+00 0. -1.
       -3    1    3    3    0  502  0.54285091582E+03 -0.72784321564E+03  0.65334496171E+03  0.11186163384E+04  0.10100000352E+00 0.  1.
</event>
<event>
 5   0  0.6052292E-05  0.2152590E+04  0.7818609E-02  0.8538425E-01
        1   -1    0    0  501    0  0.00000000000E+00  0.00000000000E+00  0.10237711686E+04  0.10237711686E+04  0.50400001928E-02 0. -1.
       -1   -1    0    0    0  501  0.00000000000E+00  0.00000000000E+00 -0.11315130747E+04  0.11315130747E+04  0.50400001928E-02 0.  1.
    10030    2    1    2    0    0  0.00000000000E+00  0.00000000000E+00 -0.10774190607E+03  0.21552842433E+04  0.21525895687E+04 0.  0.
        1    1    3    3  502    0 -0.66202443758E+03 -0.81367253121E+03 -0.29515211694E+03  0.10897036827E+04  0.50400001928E-02 0.  1.
       -1    1    3    3    0  502  0.66202443758E+03  0.81367253121E+03  0.18741021086E+03  0.10655805606E+04  0.50400001928E-02 0. -1.
</event>
<event>
 5   0  0.6221148E-05  0.2003583E+04  0.7818609E-02  0.8604947E-01
       -1   -1    0    0    0  501  0.00000000000E+00  0.00000000000E+00  0.88594976890E+03  0.88594976892E+03  0.50400001928E-02 0. -1.
        1   -1    0    0  501    0  0.00000000000E+00  0.00000000000E+00 -0.11327801776E+04  0.11327801776E+04  0.50400001928E-02 0.  1.
    10030    2    1    2    0    0  0.00000000000E+00  0.00000000000E+00 -0.24683040871E+03  0.20187299465E+04  0.20035831269E+04 0.  0.
        3    1    3    3  502    0  0.99235118411E+03 -0.85027963514E+02 -0.23191260423E+03  0.10226309664E+04  0.10100000352E+00 0.  1.
       -3    1    3    3    0  502 -0.99235118411E+03  0.85027963514E+02 -0.14917804476E+02  0.99609898016E+03  0.10100000352E+00 0. -1.
</event>
<event>
 5   0  0.1281470E-04  0.2186483E+04  0.7818609E-02  0.8524076E-01
       -2   -1    0    0    0  501  0.00000000000E+00  0.00000000000E+00  0.18275943062E+04  0.18275943062E+04  0.25500000920E-02 0. -1.
        2   -1    0    0  501    0  0.00000000000E+00  0.00000000000E+00 -0.65396158953E+03  0.65396158953E+03  0.25500000920E-02 0.  1.
    10030    2    1    2    0    0  0.00000000000E+00  0.00000000000E+00  0.11736327167E+04  0.24815558957E+04  0.21864825428E+04 0.  0.
        3    1    3    3  502    0  0.59277760787E+03  0.68362272093E+03 -0.10954130923E+03  0.91144096111E+03  0.10100000352E+00 0.  1.
       -3    1    3    3    0  502 -0.59277760787E+03 -0.68362272093E+03  0.12831740259E+04  0.15701149346E+04  0.10100000352E+00 0. -1.
</event>
<event>
 5   0  0.1349252E-04  0.2121615E+04  0.7818609E-02  0.8551781E-01
       -2   -1    0    0    0  501  0.00000000000E+00  0.00000000000E+00  0.45684047587E+03  0.45684047588E+03  0.25500000920E-02 0.  1.
        2   -1    0    0  501    0  0.00000000000E+00  0.00000000000E+00 -0.24632495234E+04  0.24632495234E+04  0.25500000920E-02 0. -1.
    10030    2    1    2    0    0  0.00000000000E+00  0.00000000000E+00 -0.20064090475E+04  0.29200899992E+04  0.21216145592E+04 0.  0.
        2    1    3    3  502    0  0.19138212004E+03 -0.17868236907E+03 -0.24180774476E+04  0.24322115548E+04  0.25500000920E-02 0. -1.
       -2    1    3    3    0  502 -0.19138212004E+03  0.17868236907E+03  0.41166840009E+03  0.48787844442E+03  0.25500000920E-02 0.  1.
</event>
<event>
 5   0  0.6263616E-05  0.2112072E+04  0.7818609E-02  0.8555944E-01
       -1   -1    0    0    0  501  0.00000000000E+00  0.00000000000E+00  0.65064922721E+03  0.65064922723E+03  0.50400001928E-02 0.  1.
        1   -1    0    0  501    0  0.00000000000E+00  0.00000000000E+00 -0.17139981679E+04  0.17139981680E+04  0.50400001928E-02 0. -1.
    10030    2    1    2    0    0  0.00000000000E+00  0.00000000000E+00 -0.10633489407E+04  0.23646473952E+04  0.21120715740E+04 0.  0.
        4    1    3    3  502    0 -0.14901208739E+03  0.97659053270E+02 -0.16970497960E+04  0.17063767216E+04  0.12699999809E+01 0. -1.
       -4    1    3    3    0  502  0.14901208739E+03 -0.97659053270E+02  0.63370085527E+03  0.65827067362E+03  0.12699999809E+01 0.  1.
</event>
<event>
 5   0  0.1235817E-04  0.2056466E+04  0.7818609E-02  0.8580667E-01
        2   -1    0    0  501    0  0.00000000000E+00  0.00000000000E+00  0.15692650896E+04  0.15692650896E+04  0.25500000920E-02 0. -1.
       -2   -1    0    0    0  501  0.00000000000E+00  0.00000000000E+00 -0.67373124722E+03  0.67373124723E+03  0.25500000920E-02 0.  1.
    10030    2    1    2    0    0  0.00000000000E+00  0.00000000000E+00  0.89553384242E+03  0.22429963369E+04  0.20564658286E+04 0.  0.
        1    1    3    3  502    0  0.85988934838E+03  0.18909038571E+03  0.10270717080E+04  0.13527901385E+04  0.50400001928E-02 0. -1.
       -1    1    3    3    0  502 -0.85988934838E+03 -0.18909038571E+03 -0.13153786563E+03  0.89020619833E+03  0.50400001928E-02 0.  1.
</event>
<event>
 5   0  0.1325673E-04  0.2082421E+04  0.7818609E-02  0.8569027E-01
       -2   -1    0    0    0  501  0.00000000000E+00  0.00000000000E+00  0.96955524981E+03  0.96955524981E+03  0.25500000920E-02 0. -1.
        2   -1    0    0  501    0  0.00000000000E+00  0.00000000000E+00 -0.11181615237E+04  0.11181615237E+04  0.25500000920E-02 0.  1.
    10030    2    1    2    0    0  0.00000000000E+00  0.00000000000E+00 -0.14860627385E+03  0.20877167735E+04  0.20824210673E+04 0.  0.
        5    1    3    3  502    0 -0.33581811873E+03  0.68100119415E+03 -0.78854794115E+03  0.10946992193E+04  0.46999998093E+01 0.  1.
       -5    1    3    3    0  502  0.33581811873E+03 -0.68100119415E+03  0.63994166730E+03  0.99301755415E+03  0.46999998093E+01 0. -1.
</event>
<event>
 5   0  0.6263616E-05  0.1637056E+04  0.7818609E-02  0.8798101E-01
       -1   -1    0    0    0  501  0.00000000000E+00  0.00000000000E+00  0.39311019763E+03  0.39311019766E+03  0.50400001928E-02 0.  1.
        1   -1    0    0  501    0  0.00000000000E+00  0.00000000000E+00 -0.17043267163E+04  0.17043267163E+04  0.50400001928E-02 0. -1.
    10030    2    1    2    0    0  0.00000000000E+00  0.00000000000E+00 -0.13112165186E+04  0.20974369139E+04  0.16370561533E+04 0.  0.
        4    1    3    3  502    0 -0.31303304367E+03  0.71036793386E+03 -0.32304635326E+03  0.84081677383E+03  0.12699999809E+01 0. -1.
       -4    1    3    3    0  502  0.31303304367E+03 -0.71036793386E+03 -0.98817016537E+03  0.12566201401E+04  0.12699999809E+01 0.  1.
</event>
<event>
 5   0  0.1235817E-04  0.1871982E+04  0.7818609E-02  0.8668930E-01
        2   -1    0    0  501    0  0.00000000000E+00  0.00000000000E+00  0.15926848497E+04  0.15926848497E+04  0.25500000920E-02 0. -1.
       -2   -1    0    0    0  501  0.00000000000E+00  0.00000000000E+00 -0.55006419723E+03  0.55006419724E+03  0.25500000920E-02 0.  1.
    10030    2    1    2    0    0  0.00000000000E+00  0.00000000000E+00  0.10426206525E+04  0.21427490469E+04  0.18719817449E+04 0.  0.
        1    1    3    3  502    0 -0.44715715447E+03  0.67913406358E+03 -0.93227177214E+01  0.81317864593E+03  0.50400001928E-02 0.  1.
       -1    1    3    3    0  502  0.44715715447E+03 -0.67913406358E+03  0.10519433702E+04  0.13295704010E+04  0.50400001928E-02 0. -1.
</event>
<event>
 5   0  0.6052292E-05  0.2012642E+04  0.7818609E-02  0.8600733E-01
       -1   -1    0    0    0  501  0.00000000000E+00  0.00000000000E+00  0.70097984234E+03  0.70097984236E+03  0.50400001928E-02 0. -1.
        1   -1    0    0  501    0  0.00000000000E+00  0.00000000000E+00 -0.14446658760E+04  0.14446658760E+04  0.50400001928E-02 0.  1.
    10030    2    1    2    0    0  0.00000000000E+00  0.00000000000E+00 -0.74368603367E+03  0.21456457184E+04  0.20126417048E+04 0.  0.
        1    1    3    3  502    0 -0.36347423300E+02  0.40318814392E+03  0.61034400682E+03  0.73239444377E+03  0.50400001928E-02 0. -1.
       -1    1    3    3    0  502  0.36347423300E+02 -0.40318814392E+03 -0.13540300405E+04  0.14132512746E+04  0.50400001928E-02 0.  1.
</event>
<event>
 5   0  0.1235817E-04  0.2102799E+04  0.7818609E-02  0.8560011E-01
       -2   -1    0    0    0  501  0.00000000000E+00  0.00000000000E+00  0.66098651590E+03  0.66098651591E+03  0.25500000920E-02 0.  1.
        2   -1    0    0  501    0  0.00000000000E+00  0.00000000000E+00 -0.16724113892E+04  0.16724113892E+04  0.25500000920E-02 0. -1.
    10030    2    1    2    0    0  0.00000000000E+00  0.00000000000E+00 -0.10114248733E+04  0.23333979051E+04  0.21027994458E+04 0.  0.
        1    1    3    3  502    0 -0.76560781962E+03  0.43633990515E+02  0.29245987325E+03  0.82072652941E+03  0.50400001928E-02 0.  1.
       -1    1    3    3    0  502  0.76560781962E+03 -0.43633990515E+02 -0.13038847466E+04  0.15126713757E+04  0.50400001928E-02 0. -1.
</event>
<event>
 5   0  0.6263616E-05  0.1865870E+04  0.7818609E-02  0.8672034E-01
        1   -1    0    0  501    0  0.00000000000E+00  0.00000000000E+00  0.17924468894E+04  0.17924468895E+04  0.50400001928E-02 0. -1.
       -1   -1    0    0    0  501  0.00000000000E+00  0.00000000000E+00 -0.48557504825E+03  0.48557504828E+03  0.50400001928E-02 0.  1.
    10030    2    1    2    0    0  0.00000000000E+00  0.00000000000E+00  0.13068718412E+04  0.22780219377E+04  0.18658697542E+04 0.  0.
        4    1    3    3  502    0 -0.43916109912E+02  0.68820776507E+03  0.14205662881E+04  0.15791037789E+04  0.12699999809E+01 0. -1.
       -4    1    3    3    0  502  0.43916109912E+02 -0.68820776507E+03 -0.11369444693E+03  0.69891815886E+03  0.12699999809E+01 0.  1.
</event>
<event>
 5   0  0.1349252E-04  0.2121683E+04  0.7818609E-02  0.8551751E-01
       -2   -1    0    0    0  501  0.00000000000E+00  0.00000000000E+00  0.79393925648E+03  0.79393925649E+03  0.25500000920E-02 0.  1.
        2   -1    0    0  501    0  0.00000000000E+00  0.00000000000E+00 -0.14174697378E+04  0.14174697378E+04  0.25500000920E-02 0. -1.
    10030    2    1    2    0    0  0.00000000000E+00  0.00000000000E+00 -0.62353048128E+03  0.22114089942E+04  0.21216831712E+04 0.  0.
        2    1    3    3  502    0  0.30178611344E+03  0.10091119295E+04 -0.17991195942E+03  0.10685270505E+04  0.25500000920E-02 0. -1.
       -2    1    3    3    0  502 -0.30178611344E+03 -0.10091119295E+04 -0.44361852185E+03  0.11428819438E+04  0.25500000920E-02 0.  1.
</event>
<event>
 5   0  0.1349252E-04  0.2118278E+04  0.7818609E-02  0.8553234E-01
        2   -1    0    0  501    0  0.00000000000E+00  0.00000000000E+00  0.10453313192E+04  0.10453313192E+04  0.25500000920E-02 0. -1.
       -2   -1    0    0    0  501  0.00000000000E+00  0.00000000000E+00 -0.10731288400E+04  0.10731288400E+04  0.25500000920E-02 0.  1.
    10030    2    1    2    0    0  0.00000000000E+00  0.00000000000E+00 -0.27797520835E+02  0.21184601593E+04  0.21182777779E+04 0.  0.
        2    1    3    3  502    0  0.47010685362E+03  0.20722663305E+03 -0.94017063082E+03  0.10713842197E+04  0.25500000920E-02 0.  1.
       -2    1    3    3    0  502 -0.47010685362E+03 -0.20722663305E+03  0.91237310998E+03  0.10470759395E+04  0.25500000920E-02 0. -1.
</event>
<event>
 5   0  0.6263616E-05  0.1718516E+04  0.7818609E-02  0.8750874E-01
       -1   -1    0    0    0  501  0.00000000000E+00  0.00000000000E+00  0.62496541173E+03  0.62496541176E+03  0.50400001928E-02 0. -1.
        1   -1    0    0  501    0  0.00000000000E+00  0.00000000000E+00 -0.11813840028E+04  0.11813840028E+04  0.50400001928E-02 0.  1.
    10030    2    1    2    0    0  0.00000000000E+00  0.00000000000E+00 -0.55641859104E+03  0.18063494145E+04  0.17185158012E+04 0.  0.
        4    1    3    3  502    0 -0.15927229247E+03  0.44726363962E+03  0.47457206778E+03  0.67129180457E+03  0.12699999809E+01 0. -1.
       -4    1    3    3    0  502  0.15927229247E+03 -0.44726363962E+03 -0.10309906588E+04  0.11350576100E+04  0.12699999809E+01 0.  1.
</event>
<event>
 5   0  0.5846187E-05  0.1935173E+04  0.7818609E-02  0.8637544E-01
       -1   -1    0    0    0  501  0.00000000000E+00  0.00000000000E+00  0.82212974093E+03  0.82212974095E+03  0.50400001928E-02 0. -1.
        1   -1    0    0  501    0  0.00000000000E+00  0.00000000000E+00 -0.11387780633E+04  0.11387780633E+04  0.50400001928E-02 0.  1.
    10030    2    1    2    0    0  0.00000000000E+00  0.00000000000E+00 -0.31664832239E+03  0.19609078043E+04  0.19351726685E+04 0.  0.
        5    1    3    3  502    0  0.17281184870E+02 -0.40099804861E+03  0.73378336703E+03  0.83639595531E+03  0.46999998093E+01 0. -1.
       -5    1    3    3    0  502 -0.17281184870E+02  0.40099804861E+03 -0.10504316894E+04  0.11245118490E+04  0.46999998093E+01 0.  1.
</event>
<event>
 5   0  0.5933905E-05  0.2090086E+04  0.7818609E-02  0.8565623E-01
       -1   -1    0    0    0  501  0.00000000000E+00  0.00000000000E+00  0.18968959912E+04  0.18968959912E+04  0.50400001928E-02 0.  1.
        1   -1    0    0  501    0  0.00000000000E+00  0.00000000000E+00 -0.57573808074E+03  0.57573808076E+03  0.50400001928E-02 0. -1.
    10030    2    1    2    0    0  0.00000000000E+00  0.00000000000E+00  0.13211579104E+04  0.24726340719E+04  0.20900863689E+04 0.  0.
        2    1    3    3  502    0 -0.43185074792E+03  0.65973357408E+03 -0.15078601747E+03  0.80279504254E+03  0.25500000920E-02 0. -1.
       -2    1    3    3    0  502  0.43185074792E+03 -0.65973357408E+03  0.14719439279E+04  0.16698390294E+04  0.25500000920E-02 0.  1.
</event>
<event>
 5   0  0.1281470E-04  0.2098833E+04  0.7818609E-02  0.8561758E-01
       -2   -1    0    0    0  501  0.00000000000E+00  0.00000000000E+00  0.92462220310E+03  0.92462220310E+03  0.25500000920E-02 0.  1.
        2   -1    0    0  501    0  0.00000000000E+00  0.00000000000E+00 -0.11910535363E+04  0.11910535363E+04  0.25500000920E-02 0. -1.
    10030    2    1    2    0    0  0.00000000000E+00  0.00000000000E+00 -0.26643133319E+03  0.21156757394E+04  0.20988325753E+04 0.  0.
        3    1    3    3  502    0  0.53377724541E+03 -0.66779469669E+03  0.48027885039E+03  0.98057926195E+03  0.10100000352E+00 0.  1.
       -3    1    3    3    0  502 -0.53377724541E+03  0.66779469669E+03 -0.74671018358E+03  0.11350964774E+04  0.10100000352E+00 0. -1.
</event>
<event>
 5   0  0.5933905E-05  0.2124257E+04  0.7818609E-02  0.8550633E-01
       -1   -1    0    0    0  501  0.00000000000E+00  0.00000000000E+00  0.93794415918E+03  0.93794415920E+03  0.50400001928E-02 0. -1.
        1   -1    0    0  501    0  0.00000000000E+00  0.00000000000E+00 -0.12027549139E+04  0.12027549139E+04  0.50400001928E-02 0.  1.
    10030    2    1    2    0    0  0.00000000000E+00  0.00000000000E+00 -0.26481075468E+03  0.21406990731E+04  0.21242569961E+04 0.  0.
        2    1    3    3  502    0  0.49643116019E+03  0.88179896051E+03  0.19274295220E+03  0.10301277344E+04  0.25500000920E-02 0. -1.
       -2    1    3    3    0  502 -0.49643116019E+03 -0.88179896051E+03 -0.45755370688E+03  0.11105713387E+04  0.25500000920E-02 0.  1.
</event>
<event>
 5   0  0.6052292E-05  0.2156936E+04  0.7818609E-02  0.8536569E-01
        1   -1    0    0  501    0  0.00000000000E+00  0.00000000000E+00  0.13621638129E+04  0.13621638129E+04  0.50400001928E-02 0. -1.
       -1   -1    0    0    0  501  0.00000000000E+00  0.00000000000E+00 -0.85385736983E+03  0.85385736985E+03  0.50400001928E-02 0.  1.
    10030    2    1    2    0    0  0.00000000000E+00  0.00000000000E+00  0.50830644309E+03  0.22160211828E+04  0.21569363557E+04 0.  0.
        1    1    3    3  502    0  0.25943066898E+03  0.33923081027E+02  0.13290628393E+04  0.13545711788E+04  0.50400001928E-02 0. -1.
       -1    1    3    3    0  502 -0.25943066898E+03 -0.33923081027E+02 -0.82075639623E+03  0.86145000402E+03  0.50400001928E-02 0.  1.
</event>
<event>
 5   0  0.1235817E-04  0.2081818E+04  0.7818609E-02  0.8569295E-01
        2   -1    0    0  501    0  0.00000000000E+00  0.00000000000E+00  0.18457574933E+04  0.18457574933E+04  0.25500000920E-02 0.  1.
       -2   -1    0    0    0  501  0.00000000000E+00  0.00000000000E+00 -0.58701754610E+03  0.58701754611E+03  0.25500000920E-02 0. -1.
    10030    2    1    2    0    0  0.00000000000E+00  0.00000000000E+00  0.12587399472E+04  0.24327750394E+04  0.20818184690E+04 0.  0.
        1    1    3    3  502    0 -0.85341401649E+03  0.85670786667E+01  0.13257340521E+04  0.15766926319E+04  0.50400001928E-02 0.  1.
       -1    1    3    3    0  502  0.85341401649E+03 -0.85670786667E+01 -0.66994104936E+02  0.85608240754E+03  0.50400001928E-02 0. -1.
</event>
<event>
 5   0  0.5846187E-05  0.2124542E+04  0.7818609E-02  0.8550509E-01
        1   -1    0    0  501    0  0.00000000000E+00  0.00000000000E+00  0.11324790047E+04  0.11324790047E+04  0.50400001928E-02 0.  1.
       -1   -1    0    0    0  501  0.00000000000E+00  0.00000000000E+00 -0.99641524795E+03  0.99641524796E+03  0.50400001928E-02 0. -1.
    10030    2    1    2    0    0  0.00000000000E+00  0.00000000000E+00  0.13606375676E+03  0.21288942527E+04  0.21245416902E+04 0.  0.
        5    1    3    3  502    0 -0.27969451642E+03 -0.96195612828E+03 -0.28597456151E+03  0.10418215563E+04  0.46999998093E+01 0. -1.
       -5    1    3    3    0  502  0.27969451642E+03  0.96195612828E+03  0.42203831827E+03  0.10870726964E+04  0.46999998093E+01 0.  1.
</event>
<event>
 5   0  0.5846187E-05  0.2095214E+04  0.7818609E-02  0.8563354E-01
        1   -1    0    0  501    0  0.00000000000E+00  0.00000000000E+00  0.78945377090E+03  0.78945377091E+03  0.50400001928E-02 0.  1.
       -1   -1    0    0    0  501  0.00000000000E+00  0.00000000000E+00 -0.13901772944E+04  0.13901772944E+04  0.50400001928E-02 0. -1.
    10030    2    1    2    0    0  0.00000000000E+00  0.00000000000E+00 -0.60072352352E+03  0.21796310653E+04  0.20952142681E+04 0.  0.
        5    1    3    3  502    0  0.72413149883E+03  0.29176458616E+03  0.42632819265E+03  0.88953404611E+03  0.46999998093E+01 0.  1.
       -5    1    3    3    0  502 -0.72413149883E+03 -0.29176458616E+03 -0.10270517162E+04  0.12900970192E+04  0.46999998093E+01 0. -1.
</event>
<event>
 5   0  0.1349252E-04  0.2005415E+04  0.7818609E-02  0.8604093E-01
        2   -1    0    0  501    0  0.00000000000E+00  0.00000000000E+00  0.20784078223E+04  0.20784078223E+04  0.25500000920E-02 0.  1.
       -2   -1    0    0    0  501  0.00000000000E+00  0.00000000000E+00 -0.48374618561E+03  0.48374618562E+03  0.25500000920E-02 0. -1.
    10030    2    1    2    0    0  0.00000000000E+00  0.00000000000E+00  0.15946616367E+04  0.25621540079E+04  0.20054145269E+04 0.  0.
        2    1    3    3  502    0  0.66458186737E+03 -0.46894718239E+03  0.15465003707E+04  0.17473534030E+04  0.25500000920E-02 0.  1.
       -2    1    3    3    0  502 -0.66458186737E+03  0.46894718239E+03  0.48161266013E+02  0.81480060497E+03  0.25500000920E-02 0. -1.
</event>
<event>
 5   0  0.1349252E-04  0.2060168E+04  0.7818609E-02  0.8578995E-01
       -2   -1    0    0    0  501  0.00000000000E+00  0.00000000000E+00  0.55776365288E+03  0.55776365289E+03  0.25500000920E-02 0.  1.
        2   -1    0    0  501    0  0.00000000000E+00  0.00000000000E+00 -0.19023707786E+04  0.19023707786E+04  0.25500000920E-02 0. -1.
    10030    2    1    2    0    0  0.00000000000E+00  0.00000000000E+00 -0.13446071257E+04  0.24601344315E+04  0.20601682209E+04 0.  0.
        2    1    3    3  502    0 -0.98265632432E+02 -0.45479723841E+02  0.55094883923E+03  0.56148834650E+03  0.25500000920E-02 0.  1.
       -2    1    3    3    0  502  0.98265632432E+02  0.45479723841E+02 -0.18955559649E+04  0.18986460850E+04  0.25500000920E-02 0. -1.
</event>
<event>
 5   0  0.6221148E-05  0.2130028E+04  0.7818609E-02  0.8548130E-01
       -1   -1    0    0    0  501  0.00000000000E+00  0.00000000000E+00  0.83739433521E+03  0.83739433522E+03  0.50400001928E-02 0.  1.
        1   -1    0    0  501    0  0.00000000000E+00  0.00000000000E+00 -0.13545052651E+04  0.13545052651E+04  0.50400001928E-02 0. -1.
    10030    2    1    2    0    0  0.00000000000E+00  0.00000000000E+00 -0.51711092993E+03  0.21918996004E+04  0.21300282027E+04 0.  0.
        3    1    3    3  502    0 -0.95093310367E+03  0.39751065579E+03  0.17502705514E+02  0.10308224115E+04  0.10100000352E+00 0.  1.
       -3    1    3    3    0  502  0.95093310367E+03 -0.39751065579E+03 -0.53461363544E+03  0.11610771889E+04  0.10100000352E+00 0. -1.
</event>
<event>
 5   0  0.1325673E-04  0.2109904E+04  0.7818609E-02  0.8556893E-01
        2   -1    0    0  501    0  0.00000000000E+00  0.00000000000E+00  0.10486713511E+04  0.10486713511E+04  0.25500000920E-02 0. -1.
       -2   -1    0    0    0  501  0.00000000000E+00  0.00000000000E+00 -0.10612704061E+04  0.10612704061E+04  0.25500000920E-02 0.  1.
    10030    2    1    2    0    0  0.00000000000E+00  0.00000000000E+00 -0.12599054966E+02  0.21099417572E+04  0.21099041406E+04 0.  0.
        5    1    3    3  502    0 -0.67693127273E+03  0.18800516100E+03 -0.79328235796E+03  0.10596701742E+04  0.46999998093E+01 0.  1.
       -5    1    3    3    0  502  0.67693127273E+03 -0.18800516100E+03  0.78068330300E+03  0.10502715830E+04  0.46999998093E+01 0. -1.
</event>
<event>
 5   0  0.6263616E-05  0.2121645E+04  0.7818609E-02  0.8551768E-01
        1   -1    0    0  501    0  0.00000000000E+00  0.00000000000E+00  0.16597648497E+04  0.16597648497E+04  0.50400001928E-02 0. -1.
       -1   -1    0    0    0  501  0.00000000000E+00  0.00000000000E+00 -0.67801403912E+03  0.67801403914E+03  0.50400001928E-02 0.  1.
    10030    2    1    2    0    0  0.00000000000E+00  0.00000000000E+00  0.98175081055E+03  0.23377788888E+04  0.21216445223E+04 0.  0.
        4    1    3    3  502    0 -0.10587606589E+04 -0.45584385799E+02  0.54360644746E+03  0.11910338583E+04  0.12699999809E+01 0. -1.
       -4    1    3    3    0  502  0.10587606589E+04  0.45584385799E+02  0.43814436309E+03  0.11467450305E+04  0.12699999809E+01 0.  1.
</event>
<event>
 5   0  0.1349252E-04  0.2091815E+04  0.7818609E-02  0.8564857E-01
        2   -1    0    0  501    0  0.00000000000E+00  0.00000000000E+00  0.17027804662E+04  0.17027804662E+04  0.25500000920E-02 0. -1.
       -2   -1    0    0    0  501  0.00000000000E+00  0.00000000000E+00 -0.64243333830E+03  0.64243333831E+03  0.25500000920E-02 0.  1.
    10030    2    1    2    0    0  0.00000000000E+00  0.00000000000E+00  0.10603471279E+04  0.23452138046E+04  0.20918154214E+04 0.  0.
        2    1    3    3  502    0 -0.85285634023E+03 -0.58367279592E+03  0.71055163975E+03  0.12541616732E+04  0.25500000920E-02 0.  1.
       -2    1    3    3    0  502  0.85285634023E+03  0.58367279592E+03  0.34979548819E+03  0.10910521314E+04  0.25500000920E-02 0. -1.
</event>
<event>
 5   0  0.6221148E-05  0.2116966E+04  0.7818609E-02  0.8553806E-01
       -1   -1    0    0    0  501  0.00000000000E+00  0.00000000000E+00  0.12397153848E+04  0.12397153848E+04  0.50400001928E-02 0. -1.
        1   -1    0    0  501    0  0.00000000000E+00  0.00000000000E+00 -0.90374492807E+03  0.90374492808E+03  0.50400001928E-02 0.  1.
    10030    2    1    2    0    0  0.00000000000E+00  0.00000000000E+00  0.33597045672E+03  0.21434603129E+04  0.21169662173E+04 0.  0.
        3    1    3    3  502    0  0.12599544820E+03  0.48688143371E+03 -0.77504534282E+03  0.92391757051E+03  0.10100000352E+00 0.  1.
       -3    1    3    3    0  502 -0.12599544820E+03 -0.48688143371E+03  0.11110157995E+04  0.12195427424E+04  0.10100000352E+00 0. -1.
</event>
<event>
 5   0  0.5846187E-05  0.1964645E+04  0.7818609E-02  0.8623331E-01
       -1   -1    0    0    0  501  0.00000000000E+00  0.00000000000E+00  0.84954134411E+03  0.84954134413E+03  0.50400001928E-02 0. -1.
        1   -1    0    0  501    0  0.00000000000E+00  0.00000000000E+00 -0.11358565362E+04  0.11358565362E+04  0.50400001928E-02 0.  1.
    10030    2    1    2    0    0  0.00000000000E+00  0.00000000000E+00 -0.28631519209E+03  0.19853978803E+04  0.19646445872E+04 0.  0.
        5    1    3    3  502    0  0.79840248583E+02 -0.78885425089E+03 -0.72917066229E+03  0.10772081689E+04  0.46999998093E+01 0.  1.
       -5    1    3    3    0  502 -0.79840248583E+02  0.78885425089E+03  0.44285547020E+03  0.90818971142E+03  0.46999998093E+01 0. -1.
</event>
<event>
 5   0  0.5933905E-05  0.2071195E+04  0.7818609E-02  0.8574039E-01
       -1   -1    0    0    0  501  0.00000000000E+00  0.00000000000E+00  0.87705996326E+03  0.87705996328E+03  0.50400001928E-02 0. -1.
        1   -1    0    0  501    0  0.00000000000E+00  0.00000000000E+00 -0.12227926780E+04  0.12227926780E+04  0.50400001928E-02 0.  1.
    10030    2    1    2    0    0  0.00000000000E+00  0.00000000000E+00 -0.34573271475E+03  0.20998526413E+04  0.20711953083E+04 0.  0.
        2    1    3    3  502    0 -0.47138182528E+03  0.14365725269E+03  0.75057323175E+03  0.89788552037E+03  0.25500000920E-02 0. -1.
       -2    1    3    3    0  502  0.47138182528E+03 -0.14365725269E+03 -0.10963059465E+04  0.12019671209E+04  0.25500000920E-02 0.  1.
</event>
<event>
 5   0  0.5846187E-05  0.2119974E+04  0.7818609E-02  0.8552495E-01
       -1   -1    0    0    0  501  0.00000000000E+00  0.00000000000E+00  0.71501554408E+03  0.71501554410E+03  0.50400001928E-02 0.  1.
        1   -1    0    0  501    0  0.00000000000E+00  0.00000000000E+00 -0.15713953842E+04  0.15713953842E+04  0.50400001928E-02 0. -1.
    10030    2    1    2    0    0  0.00000000000E+00  0.00000000000E+00 -0.85637984016E+03  0.22864109283E+04  0.21199737033E+04 0.  0.
        5    1    3    3  502    0 -0.15709320743E+03  0.71470256640E+03 -0.12552538197E+04  0.14529839215E+04  0.46999998093E+01 0. -1.
       -5    1    3    3    0  502  0.15709320743E+03 -0.71470256640E+03  0.39887397953E+03  0.83342700687E+03  0.46999998093E+01 0.  1.
</event>
<event>
 5   0  0.1349252E-04  0.2071587E+04  0.7818609E-02  0.8573864E-01
       -2   -1    0    0    0  501  0.00000000000E+00  0.00000000000E+00  0.63829260186E+03  0.63829260187E+03  0.25500000920E-02 0.  1.
        2   -1    0    0  501    0  0.00000000000E+00  0.00000000000E+00 -0.16808408893E+04  0.16808408893E+04  0.25500000920E-02 0. -1.
    10030    2    1    2    0    0  0.00000000000E+00  0.00000000000E+00 -0.10425482874E+04  0.23191334912E+04  0.20715871254E+04 0.  0.
        2    1    3    3  502    0  0.50320129277E+02  0.10274973477E+04 -0.38607262804E+03  0.10987879637E+04  0.25500000920E-02 0. -1.
       -2    1    3    3    0  502 -0.50320129277E+02 -0.10274973477E+04 -0.65647565939E+03  0.12203455275E+04  0.25500000920E-02 0.  1.
</event>
<event>
 5   0  0.1349252E-04  0.2180480E+04  0.7818609E-02  0.8526597E-01
       -2   -1    0    0    0  501  0.00000000000E+00  0.00000000000E+00  0.10060453493E+04  0.10060453493E+04  0.25500000920E-02 0.  1.
        2   -1    0    0  501    0  0.00000000000E+00  0.00000000000E+00 -0.11814808999E+04  0.11814808999E+04  0.25500000920E-02 0. -1.
    10030    2    1    2    0    0  0.00000000000E+00  0.00000000000E+00 -0.17543555065E+03  0.21875262492E+04  0.21804800981E+04 0.  0.
        2    1    3    3  502    0 -0.36754858629E+03 -0.82321447204E+03  0.52732884817E+03  0.10444375254E+04  0.25500000920E-02 0.  1.
       -2    1    3    3    0  502  0.36754858629E+03  0.82321447204E+03 -0.70276439882E+03  0.11430887238E+04  0.25500000920E-02 0. -1.
</event>
<event>
 5   0  0.6263616E-05  0.2118186E+04  0.7818609E-02  0.8553274E-01
        1   -1    0    0  501    0  0.00000000000E+00  0.00000000000E+00  0.15656234460E+04  0.15656234460E+04  0.50400001928E-02 0. -1.
       -1   -1    0    0    0  501  0.00000000000E+00  0.00000000000E+00 -0.71644176364E+03  0.71644176366E+03  0.50400001928E-02 0.  1.
    10030    2    1    2    0    0  0.00000000000E+00  0.00000000000E+00  0.84918168238E+03  0.22820652097E+04  0.21181860380E+04 0.  0.
        4    1    3    3  502    0 -0.73014004820E+03  0.76217584218E+03  0.33029866511E+03  0.11059454442E+04  0.12699999809E+01 0.  1.
       -4    1    3    3    0  502  0.73014004820E+03 -0.76217584218E+03  0.51888301727E+03  0.11761197655E+04  0.12699999809E+01 0. -1.
</event>
<event>
 5   0  0.1252477E-04  0.2076405E+04  0.7818609E-02  0.8571709E-01
        2   -1    0    0  501    0  0.00000000000E+00  0.00000000000E+00  0.74630732715E+03  0.74630732715E+03  0.25500000920E-02 0. -1.
       -2   -1    0    0    0  501  0.00000000000E+00  0.00000000000E+00 -0.14442635652E+04  0.14442635652E+04  0.25500000920E-02 0.  1.
    10030    2    1    2    0    0  0.00000000000E+00  0.00000000000E+00 -0.69795623803E+03  0.21905708923E+04  0.20764050482E+04 0.  0.
        4    1    3    3  502    0 -0.19034698077E+03  0.68272706943E+03  0.45135985911E+03  0.84028302359E+03  0.12699999809E+01 0. -1.
       -4    1    3    3    0  502  0.19034698077E+03 -0.68272706943E+03 -0.11493160971E+04  0.13502878687E+04  0.12699999809E+01 0.  1.
</event>
<event>
 5   0  0.4615125E-05  0.2033998E+04  0.7818609E-02  0.8590888E-01
       -3   -1    0    0    0  501  0.00000000000E+00  0.00000000000E+00  0.12777044757E+04  0.12777044796E+04  0.10100000352E+00 0. -1.
        3   -1    0    0  501    0  0.00000000000E+00  0.00000000000E+00 -0.80948839042E+03  0.80948839672E+03  0.10100000352E+00 0.  1.
    10030    2    1    2    0    0  0.00000000000E+00  0.00000000000E+00  0.46821608523E+03  0.20871928764E+04  0.20339979844E+04 0.  0.
        2    1    3    3  502    0 -0.72868693188E+03 -0.29985148028E+03 -0.42566228820E+03  0.89559139038E+03  0.25500000920E-02 0.  1.
       -2    1    3    3    0  502  0.72868693188E+03  0.29985148028E+03  0.89387837344E+03  0.11916014860E+04  0.25500000920E-02 0. -1.
</event>
<event>
 5   0  0.5846187E-05  0.1558602E+04  0.7818609E-02  0.8846392E-01
        1   -1    0    0  501    0  0.00000000000E+00  0.00000000000E+00  0.59955865514E+03  0.59955865516E+03  0.50400001928E-02 0. -1.
       -1   -1    0    0    0  501  0.00000000000E+00  0.00000000000E+00 -0.10129285354E+04  0.10129285354E+04  0.50400001928E-02 0.  1.
    10030    2    1    2    0    0  0.00000000000E+00  0.00000000000E+00 -0.41336988023E+03  0.16124871906E+04  0.15586020280E+04 0.  0.
        5    1    3    3  502    0  0.70475889886E+03  0.95424676573E+02 -0.53628528095E+03  0.89073843915E+03  0.46999998093E+01 0.  1.
       -5    1    3    3    0  502 -0.70475889886E+03 -0.95424676573E+02  0.12291540072E+03  0.72174875140E+03  0.46999998093E+01 0. -1.
</event>
<event>
 5   0  0.6221148E-05  0.2108646E+04  0.7818609E-02  0.8557444E-01
        1   -1    0    0  501    0  0.00000000000E+00  0.00000000000E+00  0.17919244211E+04  0.17919244211E+04  0.50400001928E-02 0.  1.
       -1   -1    0    0    0  501  0.00000000000E+00  0.00000000000E+00 -0.62033676974E+03  0.62033676976E+03  0.50400001928E-02 0. -1.
    10030    2    1    2    0    0  0.00000000000E+00  0.00000000000E+00  0.11715876513E+04  0.24122611908E+04  0.21086456383E+04 0.  0.
        3    1    3    3  502    0 -0.83306600073E+03  0.10278838304E+03  0.13156463304E+04  0.15606055524E+04  0.10100000352E+00 0.  1.
       -3    1    3    3    0  502  0.83306600073E+03 -0.10278838304E+03 -0.14405867909E+03  0.85165563843E+03  0.10100000352E+00 0. -1.
</event>
<event>
 5   0  0.1349252E-04  0.2135898E+04  0.7818609E-02  0.8545593E-01
        2   -1    0    0  501    0  0.00000000000E+00  0.00000000000E+00  0.14082646366E+04  0.14082646366E+04  0.25500000920E-02 0. -1.
       -2   -1    0    0    0  501  0.00000000000E+00  0.00000000000E+00 -0.80987302745E+03  0.80987302745E+03  0.25500000920E-02 0.  1.
    10030    2    1    2    0    0  0.00000000000E+00  0.00000000000E+00  0.59839160915E+03  0.22181376641E+04  0.21358984477E+04 0.  0.
        2    1    3    3  502    0 -0.35699631876E+03 -0.64078800941E+03 -0.50687273061E+03  0.89161404747E+03  0.25500000920E-02 0.  1.
       -2    1    3    3    0  502  0.35699631876E+03  0.64078800941E+03  0.11052643398E+04  0.13265236166E+04  0.25500000920E-02 0. -1.
</event>
<event>
 5   0  0.6052292E-05  0.2097730E+04  0.7818609E-02  0.8562244E-01
        1   -1    0    0  501    0  0.00000000000E+00  0.00000000000E+00  0.15108028230E+04  0.15108028231E+04  0.50400001928E-02 0.  1.
       -1   -1    0    0    0  501  0.00000000000E+00  0.00000000000E+00 -0.72816802094E+03  0.72816802095E+03  0.50400001928E-02 0. -1.
    10030    2    1    2    0    0  0.00000000000E+00  0.00000000000E+00  0.78263480211E+03  0.22389708440E+04  0.20977304896E+04 0.  0.
        1    1    3    3  502    0  0.10479332738E+04  0.41643054728E+02  0.40714887197E+03  0.11250193306E+04  0.50400001928E-02 0.  1.
       -1    1    3    3    0  502 -0.10479332738E+04 -0.41643054728E+02  0.37548593014E+03  0.11139515134E+04  0.50400001928E-02 0. -1.
</event>
<event>
 5   0  0.1349252E-04  0.2098655E+04  0.7818609E-02  0.8561836E-01
       -2   -1    0    0    0  501  0.00000000000E+00  0.00000000000E+00  0.62251559166E+03  0.62251559166E+03  0.25500000920E-02 0. -1.
        2   -1    0    0  501    0  0.00000000000E+00  0.00000000000E+00 -0.17687723230E+04  0.17687723230E+04  0.25500000920E-02 0.  1.
    10030    2    1    2    0    0  0.00000000000E+00  0.00000000000E+00 -0.11462567313E+04  0.23912879146E+04  0.20986551400E+04 0.  0.
        2    1    3    3  502    0  0.42833744234E+03  0.73606626997E+03  0.12539637316E+03  0.86080820669E+03  0.25500000920E-02 0. -1.
       -2    1    3    3    0  502 -0.42833744234E+03 -0.73606626997E+03 -0.12716531045E+04  0.15304797079E+04  0.25500000920E-02 0.  1.
</event>
<event>
 5   0  0.1349252E-04  0.2107266E+04  0.7818609E-02  0.8558049E-01
       -2   -1    0    0    0  501  0.00000000000E+00  0.00000000000E+00  0.94814480199E+03  0.94814480199E+03  0.25500000920E-02 0. -1.
        2   -1    0    0  501    0  0.00000000000E+00  0.00000000000E+00 -0.11708574819E+04  0.11708574819E+04  0.25500000920E-02 0.  1.
    10030    2    1    2    0    0  0.00000000000E+00  0.00000000000E+00 -0.22271267994E+03  0.21190022839E+04  0.21072659399E+04 0.  0.
        2    1    3    3  502    0  0.39493612872E+03 -0.10397323394E+03  0.86531899552E+03  0.95685001079E+03  0.25500000920E-02 0. -1.
       -2    1    3    3    0  502 -0.39493612872E+03  0.10397323394E+03 -0.10880316755E+04  0.11621522731E+04  0.25500000920E-02 0.  1.
</event>
<event>
 5   0  0.6221148E-05  0.2095671E+04  0.7818609E-02  0.8563153E-01
       -1   -1    0    0    0  501  0.00000000000E+00  0.00000000000E+00  0.96100777477E+03  0.96100777478E+03  0.50400001928E-02 0. -1.
        1   -1    0    0  501    0  0.00000000000E+00  0.00000000000E+00 -0.11425082358E+04  0.11425082358E+04  0.50400001928E-02 0.  1.
    10030    2    1    2    0    0  0.00000000000E+00  0.00000000000E+00 -0.18150046100E+03  0.21035160106E+04  0.20956710594E+04 0.  0.
        3    1    3    3  502    0  0.38416777191E+02 -0.32675982069E+03 -0.10893167600E+04  0.11379186451E+04  0.10100000352E+00 0.  1.
       -3    1    3    3    0  502 -0.38416777191E+02  0.32675982069E+03  0.90781629899E+03  0.96559736541E+03  0.10100000352E+00 0. -1.
</event>
<event>
 5   0  0.6052292E-05  0.2105145E+04  0.7818609E-02  0.8558980E-01
       -1   -1    0    0    0  501  0.00000000000E+00  0.00000000000E+00  0.59270747729E+03  0.59270747731E+03  0.50400001928E-02 0. -1.
        1   -1    0    0  501    0  0.00000000000E+00  0.00000000000E+00 -0.18692337964E+04  0.18692337964E+04  0.50400001928E-02 0.  1.
    10030    2    1    2    0    0  0.00000000000E+00  0.00000000000E+00 -0.12765263191E+04  0.24619412737E+04  0.21051449812E+04 0.  0.
        1    1    3    3  502    0  0.37122487401E+03  0.15001185081E+03  0.50017017813E+03  0.64068843410E+03  0.50400001928E-02 0. -1.
       -1    1    3    3    0  502 -0.37122487401E+03 -0.15001185081E+03 -0.17766964972E+04  0.18212528396E+04  0.50400001928E-02 0.  1.
</event>
<event>
 5   0  0.6221148E-05  0.1929009E+04  0.7818609E-02  0.8640550E-01
        1   -1    0    0  501    0  0.00000000000E+00  0.00000000000E+00  0.12448281686E+04  0.12448281686E+04  0.50400001928E-02 0.  1.
       -1   -1    0    0    0  501  0.00000000000E+00  0.00000000000E+00 -0.74730726398E+03  0.74730726400E+03  0.50400001928E-02 0. -1.
    10030    2    1    2    0    0  0.00000000000E+00  0.00000000000E+00  0.49752090462E+03  0.19921354326E+04  0.19290092098E+04 0.  0.
        3    1    3    3  502    0 -0.30020885657E+03 -0.34435243870E+03 -0.62848744839E+03  0.77698162307E+03  0.10100000352E+00 0. -1.
       -3    1    3    3    0  502  0.30020885657E+03  0.34435243870E+03  0.11260083530E+04  0.12151538095E+04  0.10100000352E+00 0.  1.
</event>
<event>
 5   0  0.4615125E-05  0.2121982E+04  0.7818609E-02  0.8551621E-01
        3   -1    0    0  501    0  0.00000000000E+00  0.00000000000E+00  0.84253269293E+03  0.84253269899E+03  0.10100000352E+00 0.  1.
       -3   -1    0    0    0  501  0.00000000000E+00  0.00000000000E+00 -0.13360928322E+04  0.13360928361E+04  0.10100000352E+00 0. -1.
    10030    2    1    2    0    0  0.00000000000E+00  0.00000000000E+00 -0.49356013930E+03  0.21786255350E+04  0.21219820006E+04 0.  0.
        2    1    3    3  502    0  0.53998666686E+03 -0.43751986300E+03 -0.10698610531E+04  0.12757789400E+04  0.25500000920E-02 0. -1.
       -2    1    3    3    0  502 -0.53998666686E+03  0.43751986300E+03  0.57630091378E+03  0.90284659502E+03  0.25500000920E-02 0.  1.
</event>
<event>
 5   0  0.6263616E-05  0.2145701E+04  0.7818609E-02  0.8541375E-01
       -1   -1    0    0    0  501  0.00000000000E+00  0.00000000000E+00  0.13405069767E+04  0.13405069767E+04  0.50400001928E-02 0.  1.
        1   -1    0    0  501    0  0.00000000000E+00  0.00000000000E+00 -0.85863626602E+03  0.85863626603E+03  0.50400001928E-02 0. -1.
    10030    2    1    2    0    0  0.00000000000E+00  0.00000000000E+00  0.48187071067E+03  0.21991432427E+04  0.21457007294E+04 0.  0.
        4    1    3    3  502    0  0.83737643572E+03 -0.55663748305E+03 -0.14249720427E+03  0.10155548477E+04  0.12699999809E+01 0. -1.
       -4    1    3    3    0  502 -0.83737643572E+03  0.55663748305E+03  0.62436791494E+03  0.11835883950E+04  0.12699999809E+01 0.  1.
</event>
<event>
 5   0  0.6263616E-05  0.2111312E+04  0.7818609E-02  0.8556277E-01
        1   -1    0    0  501    0  0.00000000000E+00  0.00000000000E+00  0.17958874960E+04  0.17958874960E+04  0.50400001928E-02 0.  1.
       -1   -1    0    0    0  501  0.00000000000E+00  0.00000000000E+00 -0.62053412941E+03  0.62053412943E+03  0.50400001928E-02 0. -1.
    10030    2    1    2    0    0  0.00000000000E+00  0.00000000000E+00  0.11753533666E+04  0.24164216255E+04  0.21113118992E+04 0.  0.
        4    1    3    3  502    0 -0.27519122544E+03  0.89554023825E+03  0.30867999379E+02  0.93737771212E+03  0.12699999809E+01 0. -1.
       -4    1    3    3    0  502  0.27519122544E+03 -0.89554023825E+03  0.11444853672E+04  0.14790439133E+04  0.12699999809E+01 0.  1.
</event>
<event>
 5   0  0.1235817E-04  0.2110685E+04  0.7818609E-02  0.8556551E-01
        2   -1    0    0  501    0  0.00000000000E+00  0.00000000000E+00  0.21735626915E+04  0.21735626915E+04  0.25500000920E-02 0. -1.
       -2   -1    0    0    0  501  0.00000000000E+00  0.00000000000E+00 -0.51240655316E+03  0.51240655316E+03  0.25500000920E-02 0.  1.
    10030    2    1    2    0    0  0.00000000000E+00  0.00000000000E+00  0.16611561383E+04  0.26859692446E+04  0.21106849758E+04 0.  0.
        1    1    3    3  502    0 -0.13760921570E+03 -0.67866969772E+03  0.18440161304E+04  0.19697523560E+04  0.50400001928E-02 0. -1.
       -1    1    3    3    0  502  0.13760921570E+03  0.67866969772E+03 -0.18285999206E+03  0.71621688864E+03  0.50400001928E-02 0.  1.
</event>
<event>
 5   0  0.1281470E-04  0.2097685E+04  0.7818609E-02  0.8562264E-01
       -2   -1    0    0    0  501  0.00000000000E+00  0.00000000000E+00  0.63949083713E+03  0.63949083714E+03  0.25500000920E-02 0. -1.
        2   -1    0    0  501    0  0.00000000000E+00  0.00000000000E+00 -0.17202292493E+04  0.17202292493E+04  0.25500000920E-02 0.  1.
    10030    2    1    2    0    0  0.00000000000E+00  0.00000000000E+00 -0.10807384121E+04  0.23597200864E+04  0.20976852411E+04 0.  0.
        3    1    3    3  502    0 -0.10152148704E+04 -0.25891605086E+03 -0.59515710623E+03  0.12049525906E+04  0.10100000352E+00 0.  1.
       -3    1    3    3    0  502  0.10152148704E+04  0.25891605086E+03 -0.48558130590E+03  0.11547674958E+04  0.10100000352E+00 0. -1.
</event>
<event>
 5   0  0.5846187E-05  0.2124095E+04  0.7818609E-02  0.8550703E-01
       -1   -1    0    0    0  501  0.00000000000E+00  0.00000000000E+00  0.45763859038E+03  0.45763859040E+03  0.50400001928E-02 0. -1.
        1   -1    0    0  501    0  0.00000000000E+00  0.00000000000E+00 -0.24647073104E+04  0.24647073104E+04  0.50400001928E-02 0.  1.
    10030    2    1    2    0    0  0.00000000000E+00  0.00000000000E+00 -0.20070687200E+04  0.29223459008E+04  0.21240952702E+04 0.  0.
        5    1    3    3  502    0 -0.66259089741E+03 -0.25751000983E+03 -0.20891021516E+04  0.22067414875E+04  0.46999998093E+01 0.  1.
       -5    1    3    3    0  502  0.66259089741E+03  0.25751000983E+03  0.82033431628E+02  0.71560441334E+03  0.46999998093E+01 0. -1.
</event>
<event>
 5   0  0.1349252E-04  0.2112693E+04  0.7818609E-02  0.8555673E-01
       -2   -1    0    0    0  501  0.00000000000E+00  0.00000000000E+00  0.70196620085E+03  0.70196620085E+03  0.25500000920E-02 0. -1.
        2   -1    0    0  501    0  0.00000000000E+00  0.00000000000E+00 -0.15896312888E+04  0.15896312888E+04  0.25500000920E-02 0.  1.
    10030    2    1    2    0    0  0.00000000000E+00  0.00000000000E+00 -0.88766508794E+03  0.22915974896E+04  0.21126925347E+04 0.  0.
        2    1    3    3  502    0  0.30336936530E+03  0.92596738315E+03 -0.13426822925E+01  0.97439743907E+03  0.25500000920E-02 0. -1.
       -2    1    3    3    0  502 -0.30336936530E+03 -0.92596738315E+03 -0.88632240564E+03  0.13172000506E+04  0.25500000920E-02 0.  1.
</event>
<event>
 5   0  0.1252477E-04  0.2068713E+04  0.7818609E-02  0.8575152E-01
        2   -1    0    0  501    0  0.00000000000E+00  0.00000000000E+00  0.72327580601E+03  0.72327580602E+03  0.25500000920E-02 0.  1.
       -2   -1    0    0    0  501  0.00000000000E+00  0.00000000000E+00 -0.14792335775E+04  0.14792335775E+04  0.25500000920E-02 0. -1.
    10030    2    1    2    0    0  0.00000000000E+00  0.00000000000E+00 -0.75595777148E+03  0.22025093835E+04  0.20687134727E+04 0.  0.
        4    1    3    3  502    0  0.47311011852E+03  0.61707856797E+03 -0.11042042240E+04  0.13505138742E+04  0.12699999809E+01 0. -1.
       -4    1    3    3    0  502 -0.47311011852E+03 -0.61707856797E+03  0.34824645250E+03  0.85199550930E+03  0.12699999809E+01 0.  1.
</event>
<event>
 5   0  0.6263616E-05  0.2182806E+04  0.7818609E-02  0.8525619E-01
        1   -1    0    0  501    0  0.00000000000E+00  0.00000000000E+00  0.11993098756E+04  0.11993098756E+04  0.50400001928E-02 0. -1.
       -1   -1    0    0    0  501  0.00000000000E+00  0.00000000000E+00 -0.99320453881E+03  0.99320453882E+03  0.50400001928E-02 0.  1.
    10030    2    1    2    0    0  0.00000000000E+00  0.00000000000E+00  0.20610533682E+03  0.21925144145E+04  0.21828055451E+04 0.  0.
        4    1    3    3  502    0 -0.47083957121E+03  0.35836017119E+03 -0.81811229023E+03  0.10096639275E+04  0.12699999809E+01 0.  1.
       -4    1    3    3    0  502  0.47083957121E+03 -0.35836017119E+03  0.10242176270E+04  0.11828504870E+04  0.12699999809E+01 0. -1.
</event>
<event>
 5   0  0.1325673E-04  0.2117907E+04  0.7818609E-02  0.8553396E-01
        2   -1    0    0  501    0  0.00000000000E+00  0.00000000000E+00  0.91023013217E+03  0.91023013217E+03  0.25500000920E-02 0. -1.
       -2   -1    0    0    0  501  0.00000000000E+00  0.00000000000E+00 -0.12319769704E+04  0.12319769704E+04  0.25500000920E-02 0.  1.
    10030    2    1    2    0    0  0.00000000000E+00  0.00000000000E+00 -0.32174683825E+03  0.21422071026E+04  0.21179070429E+04 0.  0.
        5    1    3    3  502    0 -0.82806923817E+03  0.20673974749E+02  0.50641895898E+03  0.97088018233E+03  0.46999998093E+01 0. -1.
       -5    1    3    3    0  502  0.82806923817E+03 -0.20673974749E+02 -0.82816579723E+03  0.11713269203E+04  0.46999998093E+01 0.  1.
</event>
<event>
 5   0  0.1235817E-04  0.2061885E+04  0.7818609E-02  0.8578222E-01
        2   -1    0    0  501    0  0.00000000000E+00  0.00000000000E+00  0.11928471275E+04  0.11928471275E+04  0.25500000920E-02 0.  1.
       -2   -1    0    0    0  501  0.00000000000E+00  0.00000000000E+00 -0.89101298514E+03  0.89101298514E+03  0.25500000920E-02 0. -1.
    10030    2    1    2    0    0  0.00000000000E+00  0.00000000000E+00  0.30183414240E+03  0.20838601127E+04  0.20618848464E+04 0.  0.
        1    1    3    3  502    0  0.84643360556E+03  0.57947196051E+03  0.46840517318E+02  0.10268552165E+04  0.50400001928E-02 0.  1.
       -1    1    3    3    0  502 -0.84643360556E+03 -0.57947196051E+03  0.25499362508E+03  0.10570048962E+04  0.50400001928E-02 0. -1.
</event>
<event>
 5   0  0.6263616E-05  0.2134355E+04  0.7818609E-02  0.8546259E-01
       -1   -1    0    0    0  501  0.00000000000E+00  0.00000000000E+00  0.82732014864E+03  0.82732014865E+03  0.50400001928E-02 0. -1.
        1   -1    0    0  501    0  0.00000000000E+00  0.00000000000E+00 -0.13765742277E+04  0.13765742277E+04  0.50400001928E-02 0.  1.
    10030    2    1    2    0    0  0.00000000000E+00  0.00000000000E+00 -0.54925407906E+03  0.22038943764E+04  0.21343547921E+04 0.  0.
        4    1    3    3  502    0  0.13168907403E+03  0.11899853675E+03  0.81197178216E+03  0.83114526522E+03  0.12699999809E+01 0. -1.
       -4    1    3    3    0  502 -0.13168907403E+03 -0.11899853675E+03 -0.13612258612E+04  0.13727491111E+04  0.12699999809E+01 0.  1.
</event>
<event>
 5   0  0.6221148E-05  0.2113904E+04  0.7818609E-02  0.8555143E-01
        1   -1    0    0  501    0  0.00000000000E+00  0.00000000000E+00  0.10538819909E+04  0.10538819909E+04  0.50400001928E-02 0. -1.
       -1   -1    0    0    0  501  0.00000000000E+00  0.00000000000E+00 -0.10600313204E+04  0.10600313204E+04  0.50400001928E-02 0.  1.
    10030    2    1    2    0    0  0.00000000000E+00  0.00000000000E+00 -0.61493295224E+01  0.21139133113E+04  0.21139043672E+04 0.  0.
        3    1    3    3  502    0 -0.12531038094E+03 -0.79096470633E+03  0.68672536165E+03  0.10549500418E+04  0.10100000352E+00 0. -1.
       -3    1    3    3    0  502  0.12531038094E+03  0.79096470633E+03 -0.69287469117E+03  0.10589632695E+04  0.10100000352E+00 0.  1.
</event>
<event>
 5   0  0.1252477E-04  0.2021959E+04  0.7818609E-02  0.8596422E-01
        2   -1    0    0  501    0  0.00000000000E+00  0.00000000000E+00  0.12505443707E+04  0.12505443707E+04  0.25500000920E-02 0. -1.
       -2   -1    0    0    0  501  0.00000000000E+00  0.00000000000E+00 -0.81730799689E+03  0.81730799689E+03  0.25500000920E-02 0.  1.
    10030    2    1    2    0    0  0.00000000000E+00  0.00000000000E+00  0.43323637380E+03  0.20678523676E+04  0.20219593613E+04 0.  0.
        4    1    3    3  502    0  0.16889366141E+02 -0.76909372962E+03 -0.45423373246E+03  0.89337579564E+03  0.12699999809E+01 0.  1.
       -4    1    3    3    0  502 -0.16889366141E+02  0.76909372962E+03  0.88747010626E+03  0.11744765719E+04  0.12699999809E+01 0. -1.
</event>
<event>
 5   0  0.1281470E-04  0.2102059E+04  0.7818609E-02  0.8560337E-01
        2   -1    0    0  501    0  0.00000000000E+00  0.00000000000E+00  0.64864812626E+03  0.64864812626E+03  0.25500000920E-02 0. -1.
       -2   -1    0    0    0  501  0.00000000000E+00  0.00000000000E+00 -0.17030228174E+04  0.17030228174E+04  0.25500000920E-02 0.  1.
    10030    2    1    2    0    0  0.00000000000E+00  0.00000000000E+00 -0.10543746911E+04  0.23516709437E+04  0.21020585715E+04 0.  0.
        3    1    3    3  502    0  0.42487286411E+03 -0.33457991469E+03 -0.15354269092E+04  0.16278809765E+04  0.10100000352E+00 0.  1.
       -3    1    3    3    0  502 -0.42487286411E+03  0.33457991469E+03  0.48105221801E+03  0.72378996720E+03  0.10100000352E+00 0. -1.
</event>
<event>
 5   0  0.1349252E-04  0.2031107E+04  0.7818609E-02  0.8592214E-01
       -2   -1    0    0    0  501  0.00000000000E+00  0.00000000000E+00  0.93279575433E+03  0.93279575434E+03  0.25500000920E-02 0. -1.
        2   -1    0    0  501    0  0.00000000000E+00  0.00000000000E+00 -0.11056531229E+04  0.11056531229E+04  0.25500000920E-02 0.  1.
    10030    2    1    2    0    0  0.00000000000E+00  0.00000000000E+00 -0.17285736853E+03  0.20384488772E+04  0.20311066331E+04 0.  0.
        2    1    3    3  502    0  0.58213969938E+03 -0.77218375235E+03  0.22484431978E+03  0.99282896066E+03  0.25500000920E-02 0.  1.
       -2    1    3    3    0  502 -0.58213969938E+03  0.77218375235E+03 -0.39770168831E+03  0.10456199165E+04  0.25500000920E-02 0. -1.
</event>
<event>
 5   0  0.1349252E-04  0.2117837E+04  0.7818609E-02  0.8553426E-01
       -2   -1    0    0    0  501  0.00000000000E+00  0.00000000000E+00  0.66414310584E+03  0.66414310585E+03  0.25500000920E-02 0.  1.
        2   -1    0    0  501    0  0.00000000000E+00  0.00000000000E+00 -0.16883542774E+04  0.16883542774E+04  0.25500000920E-02 0. -1.
    10030    2    1    2    0    0  0.00000000000E+00  0.00000000000E+00 -0.10242111715E+04  0.23524973832E+04  0.21178374381E+04 0.  0.
        2    1    3    3  502    0 -0.41649215911E+03 -0.97357051645E+03 -0.51420862360E+03  0.11771642951E+04  0.25500000920E-02 0.  1.
       -2    1    3    3    0  502  0.41649215911E+03  0.97357051645E+03 -0.51000254794E+03  0.11753330881E+04  0.25500000920E-02 0. -1.
</event>
<event>
 5   0  0.1252477E-04  0.2120922E+04  0.7818609E-02  0.8552082E-01
       -2   -1    0    0    0  501  0.00000000000E+00  0.00000000000E+00  0.11491532707E+04  0.11491532707E+04  0.25500000920E-02 0. -1.
        2   -1    0    0  501    0  0.00000000000E+00  0.00000000000E+00 -0.97861449945E+03  0.97861449946E+03  0.25500000920E-02 0.  1.
    10030    2    1    2    0    0  0.00000000000E+00  0.00000000000E+00  0.17053877128E+03  0.21277677702E+04  0.21209224907E+04 0.  0.
        4    1    3    3  502    0 -0.65994280819E+03  0.56225903002E+01  0.91802092197E+03  0.11306282102E+04  0.12699999809E+01 0. -1.
       -4    1    3    3    0  502  0.65994280819E+03 -0.56225903002E+01 -0.74748215070E+03  0.99713956000E+03  0.12699999809E+01 0.  1.
</event>
<event>
 5   0  0.1325673E-04  0.2124156E+04  0.7818609E-02  0.8550677E-01
        2   -1    0    0  501    0  0.00000000000E+00  0.00000000000E+00  0.17107566234E+04  0.17107566234E+04  0.25500000920E-02 0.  1.
       -2   -1    0    0    0  501  0.00000000000E+00  0.00000000000E+00 -0.65936285556E+03  0.65936285557E+03  0.25500000920E-02 0. -1.
    10030    2    1    2    0    0  0.00000000000E+00  0.00000000000E+00  0.10513937678E+04  0.23701194789E+04  0.21241557121E+04 0.  0.
        5    1    3    3  502    0  0.29693906150E+03 -0.57764834963E+03 -0.41192628636E+03  0.76912663292E+03  0.46999998093E+01 0. -1.
       -5    1    3    3    0  502 -0.29693906150E+03  0.57764834963E+03  0.14633200542E+04  0.16009928460E+04  0.46999998093E+01 0.  1.
</event>
<event>
 5   0  0.1325673E-04  0.2079902E+04  0.7818609E-02  0.8570149E-01
       -2   -1    0    0    0  501  0.00000000000E+00  0.00000000000E+00  0.10624438586E+04  0.10624438586E+04  0.25500000920E-02 0. -1.
        2   -1    0    0  501    0  0.00000000000E+00  0.00000000000E+00 -0.10179342880E+04  0.10179342880E+04  0.25500000920E-02 0.  1.
    10030    2    1    2    0    0  0.00000000000E+00  0.00000000000E+00  0.44509570679E+02  0.20803781466E+04  0.20799019522E+04 0.  0.
        5    1    3    3  502    0 -0.99123228380E+03  0.31279721587E+03  0.55313888629E+02  0.10408963709E+04  0.46999998093E+01 0. -1.
       -5    1    3    3    0  502  0.99123228380E+03 -0.31279721587E+03 -0.10804317950E+02  0.10394817757E+04  0.46999998093E+01 0.  1.
</event>
<event>
 5   0  0.1281470E-04  0.2076617E+04  0.7818609E-02  0.8571614E-01
       -2   -1    0    0    0  501  0.00000000000E+00  0.00000000000E+00  0.10210727289E+04  0.10210727289E+04  0.25500000920E-02 0.  1.
        2   -1    0    0  501    0  0.00000000000E+00  0.00000000000E+00 -0.10558353841E+04  0.10558353841E+04  0.25500000920E-02 0. -1.
    10030    2    1    2    0    0  0.00000000000E+00  0.00000000000E+00 -0.34762655227E+02  0.20769081130E+04  0.20766171693E+04 0.  0.
        3    1    3    3  502    0  0.50459115782E+03  0.74224325650E+03 -0.53951521277E+03  0.10471933744E+04  0.10100000352E+00 0. -1.
       -3    1    3    3    0  502 -0.50459115782E+03 -0.74224325650E+03  0.50475255754E+03  0.10297147386E+04  0.10100000352E+00 0.  1.
</event>
<event>
 5   0  0.6052292E-05  0.2095435E+04  0.7818609E-02  0.8563257E-01
        1   -1    0    0  501    0  0.00000000000E+00  0.00000000000E+00  0.11459557003E+04  0.11459557003E+04  0.50400001928E-02 0.  1.
       -1   -1    0    0    0  501  0.00000000000E+00  0.00000000000E+00 -0.95790126460E+03  0.95790126462E+03  0.50400001928E-02 0. -1.
    10030    2    1    2    0    0  0.00000000000E+00  0.00000000000E+00  0.18805443567E+03  0.21038569649E+04  0.20954354340E+04 0.  0.
        1    1    3    3  502    0  0.74290454577E+03 -0.20934841354E+03 -0.61732465836E+03  0.98834389573E+03  0.50400001928E-02 0. -1.
       -1    1    3    3    0  502 -0.74290454577E+03  0.20934841354E+03  0.80537909403E+03  0.11155130692E+04  0.50400001928E-02 0.  1.
</event>
<event>
 5   0  0.6052292E-05  0.2099633E+04  0.7818609E-02  0.8561405E-01
       -1   -1    0    0    0  501  0.00000000000E+00  0.00000000000E+00  0.78814535594E+03  0.78814535596E+03  0.50400001928E-02 0.  1.
        1   -1    0    0  501    0  0.00000000000E+00  0.00000000000E+00 -0.13983650893E+04  0.13983650893E+04  0.50400001928E-02 0. -1.
    10030    2    1    2    0    0  0.00000000000E+00  0.00000000000E+00 -0.61021973333E+03  0.21865104452E+04  0.20996332547E+04 0.  0.
        1    1    3    3  502    0  0.93243143474E+03  0.60739094183E+02  0.19322735419E+03  0.95417735693E+03  0.50400001928E-02 0.  1.
       -1    1    3    3    0  502 -0.93243143474E+03 -0.60739094183E+02 -0.80344708752E+03  0.12323330883E+04  0.50400001928E-02 0. -1.
</event>
<event>
 5   0  0.1349252E-04  0.2119735E+04  0.7818609E-02  0.8552599E-01
       -2   -1    0    0    0  501  0.00000000000E+00  0.00000000000E+00  0.74134475106E+03  0.74134475106E+03  0.25500000920E-02 0.  1.
        2   -1    0    0  501    0  0.00000000000E+00  0.00000000000E+00 -0.15152456061E+04  0.15152456061E+04  0.25500000920E-02 0. -1.
    10030    2    1    2    0    0  0.00000000000E+00  0.00000000000E+00 -0.77390085507E+03  0.22565903572E+04  0.21197352445E+04 0.  0.
        2    1    3    3  502    0  0.40678921410E+03  0.25635373925E+03 -0.13924546121E+04  0.14731342610E+04  0.25500000920E-02 0. -1.
       -2    1    3    3    0  502 -0.40678921410E+03 -0.25635373925E+03  0.61855375699E+03  0.78345609617E+03  0.25500000920E-02 0.  1.
</event>
<event>
 5   0  0.1252477E-04  0.2077051E+04  0.7818609E-02  0.8571420E-01
        2   -1    0    0  501    0  0.00000000000E+00  0.00000000000E+00  0.21039580235E+04  0.21039580235E+04  0.25500000920E-02 0. -1.
       -2   -1    0    0    0  501  0.00000000000E+00  0.00000000000E+00 -0.51262217533E+03  0.51262217534E+03  0.25500000920E-02 0.  1.
    10030    2    1    2    0    0  0.00000000000E+00  0.00000000000E+00  0.15913358482E+04  0.26165801989E+04  0.20770513126E+04 0.  0.
        4    1    3    3  502    0  0.53072379811E+03  0.40975406351E+03 -0.20341382445E+03  0.70067463157E+03  0.12699999809E+01 0.  1.
       -4    1    3    3    0  502 -0.53072379811E+03 -0.40975406351E+03  0.17947496727E+04  0.19159055673E+04  0.12699999809E+01 0. -1.
</event>
<event>
 5   0  0.5846187E-05  0.1680931E+04  0.7818609E-02  0.8772316E-01
       -1   -1    0    0    0  501  0.00000000000E+00  0.00000000000E+00  0.79751153415E+03  0.79751153417E+03  0.50400001928E-02 0. -1.
        1   -1    0    0  501    0  0.00000000000E+00  0.00000000000E+00 -0.88573249385E+03  0.88573249386E+03  0.50400001928E-02 0.  1.
    10030    2    1    2    0    0  0.00000000000E+00  0.00000000000E+00 -0.88220959696E+02  0.16832440280E+04  0.16809305519E+04 0.  0.
        5    1    3    3  502    0  0.14394215465E+03  0.77672166371E+03  0.24324073417E+03  0.82656157153E+03  0.46999998093E+01 0. -1.
       -5    1    3    3    0  502 -0.14394215465E+03 -0.77672166371E+03 -0.33146169387E+03  0.85668245650E+03  0.46999998093E+01 0.  1.
</event>
<event>
 5   0  0.4615125E-05  0.2113064E+04  0.7818609E-02  0.8555510E-01
        3   -1    0    0  501    0  0.00000000000E+00  0.00000000000E+00  0.92856566446E+03  0.92856566996E+03  0.10100000352E+00 0. -1.
       -3   -1    0    0    0  501  0.00000000000E+00  0.00000000000E+00 -0.12021337016E+04  0.12021337058E+04  0.10100000352E+00 0.  1.
    10030    2    1    2    0    0  0.00000000000E+00  0.00000000000E+00 -0.27356803712E+03  0.21306993758E+04  0.21130642108E+04 0.  0.
        3    1    3    3  502    0 -0.72189476265E+03  0.76701275683E+03 -0.53514789589E+02  0.10546584568E+04  0.10100000352E+00 0.  1.
       -3    1    3    3    0  502  0.72189476265E+03 -0.76701275683E+03 -0.22005324753E+03  0.10760409190E+04  0.10100000352E+00 0. -1.
</event>
<event>
 5   0  0.1235817E-04  0.1682816E+04  0.7818609E-02  0.8771226E-01
        2   -1    0    0  501    0  0.00000000000E+00  0.00000000000E+00  0.58825996198E+03  0.58825996199E+03  0.25500000920E-02 0. -1.
       -2   -1    0    0    0  501  0.00000000000E+00  0.00000000000E+00 -0.12034945837E+04  0.12034945837E+04  0.25500000920E-02 0.  1.
    10030    2    1    2    0    0  0.00000000000E+00  0.00000000000E+00 -0.61523462173E+03  0.17917545457E+04  0.16828163038E+04 0.  0.
        1    1    3    3  502    0  0.47407293528E+03  0.19381096061E+03 -0.10184109862E+04  0.11399424429E+04  0.50400001928E-02 0.  1.
       -1    1    3    3    0  502 -0.47407293528E+03 -0.19381096061E+03  0.40317636446E+03  0.65181210276E+03  0.50400001928E-02 0. -1.
</event>
<event>
 5   0  0.5846187E-05  0.2090833E+04  0.7818609E-02  0.8565292E-01
        1   -1    0    0  501    0  0.00000000000E+00  0.00000000000E+00  0.68944152399E+03  0.68944152401E+03  0.50400001928E-02 0.  1.
       -1   -1    0    0    0  501  0.00000000000E+00  0.00000000000E+00 -0.15851899876E+04  0.15851899876E+04  0.50400001928E-02 0. -1.
    10030    2    1    2    0    0  0.00000000000E+00  0.00000000000E+00 -0.89574846359E+03  0.22746315116E+04  0.20908331362E+04 0.  0.
        5    1    3    3  502    0  0.62829229697E+03 -0.13528141283E+03 -0.13448673384E+04  0.14905510790E+04  0.46999998093E+01 0. -1.
       -5    1    3    3    0  502 -0.62829229697E+03  0.13528141283E+03  0.44911887483E+03  0.78408043262E+03  0.46999998093E+01 0.  1.
</event>
<event>
 5   0  0.6263616E-05  0.2098310E+04  0.7818609E-02  0.8561988E-01
        1   -1    0    0  501    0  0.00000000000E+00  0.00000000000E+00  0.23069162739E+04  0.23069162739E+04  0.50400001928E-02 0. -1.
       -1   -1    0    0    0  501  0.00000000000E+00  0.00000000000E+00 -0.47714191530E+03  0.47714191532E+03  0.50400001928E-02 0.  1.
    10030    2    1    2    0    0  0.00000000000E+00  0.00000000000E+00  0.18297743586E+04  0.27840581892E+04  0.20983102244E+04 0.  0.
        4    1    3    3  502    0 -0.27777390068E+03  0.77019087578E+03  0.17853112122E+04  0.19641003188E+04  0.12699999809E+01 0. -1.
       -4    1    3    3    0  502  0.27777390068E+03 -0.77019087578E+03  0.44463146446E+02  0.81995787046E+03  0.12699999809E+01 0.  1.
</event>
<event>
 5   0  0.6052292E-05  0.2111743E+04  0.7818609E-02  0.8556088E-01
       -1   -1    0    0    0  501  0.00000000000E+00  0.00000000000E+00  0.10974084606E+04  0.10974084606E+04  0.50400001928E-02 0.  1.
        1   -1    0    0  501    0  0.00000000000E+00  0.00000000000E+00 -0.10159065667E+04  0.10159065667E+04  0.50400001928E-02 0. -1.
    10030    2    1    2    0    0  0.00000000000E+00  0.00000000000E+00  0.81501893906E+02  0.21133150272E+04  0.21117428455E+04 0.  0.
        1    1    3    3  502    0  0.70013455448E+02  0.10533154985E+04  0.18620279460E+02  0.10558040245E+04  0.50400001928E-02 0.  1.
       -1    1    3    3    0  502 -0.70013455448E+02 -0.10533154985E+04  0.62881614446E+02  0.10575110027E+04  0.50400001928E-02 0. -1.
</event>
<event>
 5   0  0.6052292E-05  0.2138066E+04  0.7818609E-02  0.8544658E-01
       -1   -1    0    0    0  501  0.00000000000E+00  0.00000000000E+00  0.11356845016E+04  0.11356845016E+04  0.50400001928E-02 0. -1.
        1   -1    0    0  501    0  0.00000000000E+00  0.00000000000E+00 -0.10062934416E+04  0.10062934416E+04  0.50400001928E-02 0.  1.
    10030    2    1    2    0    0  0.00000000000E+00  0.00000000000E+00  0.12939106006E+03  0.21419779432E+04  0.21380662905E+04 0.  0.
        1    1    3    3  502    0 -0.76907329484E+03  0.26925352457E+03  0.75795915479E+03  0.11128671411E+04  0.50400001928E-02 0. -1.
       -1    1    3    3    0  502  0.76907329484E+03 -0.26925352457E+03 -0.62856809473E+03  0.10291108021E+04  0.50400001928E-02 0.  1.
</event>
<event>
 5   0  0.6052292E-05  0.2083787E+04  0.7818609E-02  0.8568419E-01
        1   -1    0    0  501    0  0.00000000000E+00  0.00000000000E+00  0.21858294677E+04  0.21858294677E+04  0.50400001928E-02 0. -1.
       -1   -1    0    0    0  501  0.00000000000E+00  0.00000000000E+00 -0.49662721682E+03  0.49662721685E+03  0.50400001928E-02 0.  1.
    10030    2    1    2    0    0  0.00000000000E+00  0.00000000000E+00  0.16892022509E+04  0.26824566846E+04  0.20837873260E+04 0.  0.
        1    1    3    3  502    0  0.23533196970E+03  0.88234069117E+03  0.14903532773E+04  0.17478727421E+04  0.50400001928E-02 0. -1.
       -1    1    3    3    0  502 -0.23533196970E+03 -0.88234069117E+03  0.19884897358E+03  0.93458394250E+03  0.50400001928E-02 0.  1.
</event>
<event>
 5   0  0.5933905E-05  0.2186015E+04  0.7818609E-02  0.8524272E-01
        1   -1    0    0  501    0  0.00000000000E+00  0.00000000000E+00  0.19956420152E+04  0.19956420153E+04  0.50400001928E-02 0. -1.
       -1   -1    0    0    0  501  0.00000000000E+00  0.00000000000E+00 -0.59863689821E+03  0.59863689823E+03  0.50400001928E-02 0.  1.
    10030    2    1    2    0    0  0.00000000000E+00  0.00000000000E+00  0.13970051170E+04  0.25942789135E+04  0.21860145891E+04 0.  0.
        2    1    3    3  502    0 -0.90040086430E+03  0.43542453519E+03  0.17531858282E+03  0.10154077249E+04  0.25500000920E-02 0.  1.
       -2    1    3    3    0  502  0.90040086430E+03 -0.43542453519E+03  0.12216865342E+04  0.15788711886E+04  0.25500000920E-02 0. -1.
</event>
<event>
 5   0  0.5846187E-05  0.2077951E+04  0.7818609E-02  0.8571019E-01
        1   -1    0    0  501    0  0.00000000000E+00  0.00000000000E+00  0.28007661850E+04  0.28007661850E+04  0.50400001928E-02 0.  1.
       -1   -1    0    0    0  501  0.00000000000E+00  0.00000000000E+00 -0.38541939977E+03  0.38541939980E+03  0.50400001928E-02 0. -1.
    10030    2    1    2    0    0  0.00000000000E+00  0.00000000000E+00  0.24153467852E+04  0.31861855848E+04  0.20779505499E+04 0.  0.
        5    1    3    3  502    0  0.88199432484E+02  0.89205912835E+03  0.40227483492E+03  0.98254555170E+03  0.46999998093E+01 0. -1.
       -5    1    3    3    0  502 -0.88199432484E+02 -0.89205912835E+03  0.20130719503E+04  0.22036400331E+04  0.46999998093E+01 0.  1.
</event>
<event>
 5   0  0.1281470E-04  0.1558189E+04  0.7818609E-02  0.8846654E-01
        2   -1    0    0  501    0  0.00000000000E+00  0.00000000000E+00  0.53964755203E+03  0.53964755204E+03  0.25500000920E-02 0. -1.
       -2   -1    0    0    0  501  0.00000000000E+00  0.00000000000E+00 -0.11247864403E+04  0.11247864403E+04  0.25500000920E-02 0.  1.
    10030    2    1    2    0    0  0.00000000000E+00  0.00000000000E+00 -0.58513888822E+03  0.16644339923E+04  0.15581890117E+04 0.  0.
        3    1    3    3  502    0  0.75999746517E+03 -0.13059451964E+03 -0.17392317267E+03  0.79050639201E+03  0.10100000352E+00 0.  1.
       -3    1    3    3    0  502 -0.75999746517E+03  0.13059451964E+03 -0.41121571555E+03  0.87392760028E+03  0.10100000352E+00 0. -1.
</event>
<event>
 5   0  0.6221148E-05  0.2108211E+04  0.7818609E-02  0.8557635E-01
        1   -1    0    0  501    0  0.00000000000E+00  0.00000000000E+00  0.64026993707E+03  0.64026993709E+03  0.50400001928E-02 0. -1.
       -1   -1    0    0    0  501  0.00000000000E+00  0.00000000000E+00 -0.17354226155E+04  0.17354226155E+04  0.50400001928E-02 0.  1.
    10030    2    1    2    0    0  0.00000000000E+00  0.00000000000E+00 -0.10951526784E+04  0.23756925526E+04  0.21082114968E+04 0.  0.
        3    1    3    3  502    0  0.50671898352E+03  0.83401864652E+03 -0.98536916330E+02  0.98084696313E+03  0.10100000352E+00 0.  1.
       -3    1    3    3    0  502 -0.50671898352E+03 -0.83401864652E+03 -0.99661576208E+03  0.13948455895E+04  0.10100000352E+00 0. -1.
</event>
<event>
 5   0  0.5933905E-05  0.2107358E+04  0.7818609E-02  0.8558009E-01
       -1   -1    0    0    0  501  0.00000000000E+00  0.00000000000E+00  0.66939257265E+03  0.66939257267E+03  0.50400001928E-02 0. -1.
        1   -1    0    0  501    0  0.00000000000E+00  0.00000000000E+00 -0.16585774718E+04  0.16585774718E+04  0.50400001928E-02 0.  1.
    10030    2    1    2    0    0  0.00000000000E+00  0.00000000000E+00 -0.98918489916E+03  0.23279700445E+04  0.21073580055E+04 0.  0.
        2    1    3    3  502    0 -0.44883770129E+03  0.76009303824E+03  0.14100346199E+03  0.89391201199E+03  0.25500000920E-02 0. -1.
       -2    1    3    3    0  502  0.44883770129E+03 -0.76009303824E+03 -0.11301883611E+04  0.14340580325E+04  0.25500000920E-02 0.  1.
</event>
<event>
 5   0  0.1325673E-04  0.2050088E+04  0.7818609E-02  0.8583554E-01
       -2   -1    0    0    0  501  0.00000000000E+00  0.00000000000E+00  0.10381768113E+04  0.10381768113E+04  0.25500000920E-02 0. -1.
        2   -1    0    0  501    0  0.00000000000E+00  0.00000000000E+00 -0.10120775497E+04  0.10120775497E+04  0.25500000920E-02 0.  1.
    10030    2    1    2    0    0  0.00000000000E+00  0.00000000000E+00  0.26099261587E+02  0.20502543610E+04  0.20500882355E+04 0.  0.
        5    1    3    3  502    0  0.73630267312E+03 -0.52882966428E+03  0.49151385110E+03  0.10312179188E+04  0.46999998093E+01 0. -1.
       -5    1    3    3    0  502 -0.73630267312E+03  0.52882966428E+03 -0.46541458951E+03  0.10190364421E+04  0.46999998093E+01 0.  1.
</event>
<event>
 5   0  0.1281470E-04  0.2111566E+04  0.7818609E-02  0.8556166E-01
        2   -1    0    0  501    0  0.00000000000E+00  0.00000000000E+00  0.10479740382E+04  0.10479740382E+04  0.25500000920E-02 0.  1.
       -2   -1    0    0    0  501  0.00000000000E+00  0.00000000000E+00 -0.10636498501E+04  0.10636498501E+04  0.25500000920E-02 0. -1.
    10030    2    1    2    0    0  0.00000000000E+00  0.00000000000E+00 -0.15675811976E+02  0.21116238883E+04  0.21115657022E+04 0.  0.
        3    1    3    3  502    0  0.10334125501E+04  0.13162804602E+03  0.16366019330E+03  0.10545388140E+04  0.10100000352E+00 0.  1.
       -3    1    3    3    0  502 -0.10334125501E+04 -0.13162804602E+03 -0.17933600528E+03  0.10570850743E+04  0.10100000352E+00 0. -1.
</event>
<event>
 5   0  0.6052292E-05  0.2138340E+04  0.7818609E-02  0.8544540E-01
        1   -1    0    0  501    0  0.00000000000E+00  0.00000000000E+00  0.15272624247E+04  0.15272624247E+04  0.50400001928E-02 0. -1.
       -1   -1    0    0    0  501  0.00000000000E+00  0.00000000000E+00 -0.74847971052E+03  0.74847971054E+03  0.50400001928E-02 0.  1.
    10030    2    1    2    0    0  0.00000000000E+00  0.00000000000E+00  0.77878271414E+03  0.22757421352E+04  0.21383404196E+04 0.  0.
        1    1    3    3  502    0 -0.95176087945E+03  0.28773655137E+03 -0.28908520448E+02  0.99472448307E+03  0.50400001928E-02 0. -1.
       -1    1    3    3    0  502  0.95176087945E+03 -0.28773655137E+03  0.80769123459E+03  0.12810176521E+04  0.50400001928E-02 0.  1.
</event>
<event>
 5   0  0.1252477E-04  0.2111332E+04  0.7818609E-02  0.8556268E-01
       -2   -1    0    0    0  501  0.00000000000E+00  0.00000000000E+00  0.80069555280E+03  0.80069555281E+03  0.25500000920E-02 0.  1.
        2   -1    0    0  501    0  0.00000000000E+00  0.00000000000E+00 -0.13918279783E+04  0.13918279783E+04  0.25500000920E-02 0. -1.
    10030    2    1    2    0    0  0.00000000000E+00  0.00000000000E+00 -0.59113242553E+03  0.21925235312E+04  0.21113317812E+04 0.  0.
        4    1    3    3  502    0 -0.32118347201E+03 -0.91571827993E+03  0.13602416242E+03  0.97989947267E+03  0.12699999809E+01 0.  1.
       -4    1    3    3    0  502  0.32118347201E+03  0.91571827993E+03 -0.72715658796E+03  0.12126240585E+04  0.12699999809E+01 0. -1.
</event>
<event>
 5   0  0.1235817E-04  0.2085046E+04  0.7818609E-02  0.8567860E-01
       -2   -1    0    0    0  501  0.00000000000E+00  0.00000000000E+00  0.53785558438E+03  0.53785558439E+03  0.25500000920E-02 0. -1.
        2   -1    0    0  501    0  0.00000000000E+00  0.00000000000E+00 -0.20207168283E+04  0.20207168283E+04  0.25500000920E-02 0.  1.
    10030    2    1    2    0    0  0.00000000000E+00  0.00000000000E+00 -0.14828612439E+04  0.25585724127E+04  0.20850456403E+04 0.  0.
        1    1    3    3  502    0 -0.33112203714E+03 -0.81724688616E+03 -0.58957055798E+02  0.88374782086E+03  0.50400001928E-02 0. -1.
       -1    1    3    3    0  502  0.33112203714E+03  0.81724688616E+03 -0.14239041881E+04  0.16748245918E+04  0.50400001928E-02 0.  1.
</event>
<event>
 5   0  0.1281470E-04  0.2073322E+04  0.7818609E-02  0.8573087E-01
        2   -1    0    0  501    0  0.00000000000E+00  0.00000000000E+00  0.27217335271E+04  0.27217335271E+04  0.25500000920E-02 0. -1.
       -2   -1    0    0    0  501  0.00000000000E+00  0.00000000000E+00 -0.39484631761E+03  0.39484631762E+03  0.25500000920E-02 0.  1.
    10030    2    1    2    0    0  0.00000000000E+00  0.00000000000E+00  0.23268872094E+04  0.31165798447E+04  0.20733224165E+04 0.  0.
        3    1    3    3  502    0 -0.70755874275E+03 -0.40424703830E+02  0.26186808480E+02  0.70919622832E+03  0.10100000352E+00 0.  1.
       -3    1    3    3    0  502  0.70755874275E+03  0.40424703830E+02  0.23007004010E+04  0.24073836164E+04  0.10100000352E+00 0. -1.
</event>
<event>
 5   0  0.5846187E-05  0.2086389E+04  0.7818609E-02  0.8567263E-01
       -1   -1    0    0    0  501  0.00000000000E+00  0.00000000000E+00  0.23094840420E+04  0.23094840420E+04  0.50400001928E-02 0. -1.
        1   -1    0    0  501    0  0.00000000000E+00  0.00000000000E+00 -0.47121141639E+03  0.47121141642E+03  0.50400001928E-02 0.  1.
    10030    2    1    2    0    0  0.00000000000E+00  0.00000000000E+00  0.18382726256E+04  0.27806954584E+04  0.20863894618E+04 0.  0.
        5    1    3    3  502    0  0.68418225042E+03  0.17964677183E+03  0.19410003073E+04  0.20658854270E+04  0.46999998093E+01 0. -1.
       -5    1    3    3    0  502 -0.68418225042E+03 -0.17964677183E+03 -0.10272768173E+03  0.71481003142E+03  0.46999998093E+01 0.  1.
</event>
<event>
 5   0  0.5933905E-05  0.2047110E+04  0.7818609E-02  0.8584906E-01
        1   -1    0    0  501    0  0.00000000000E+00  0.00000000000E+00  0.12614288234E+04  0.12614288234E+04  0.50400001928E-02 0. -1.
       -1   -1    0    0    0  501  0.00000000000E+00  0.00000000000E+00 -0.83053825909E+03  0.83053825911E+03  0.50400001928E-02 0.  1.
    10030    2    1    2    0    0  0.00000000000E+00  0.00000000000E+00  0.43089056429E+03  0.20919670825E+04  0.20471100595E+04 0.  0.
        2    1    3    3  502    0 -0.31171489783E+03 -0.72850046799E+02  0.12089583389E+04  0.12506212744E+04  0.25500000920E-02 0. -1.
       -2    1    3    3    0  502  0.31171489783E+03  0.72850046799E+02 -0.77806777461E+03  0.84134580807E+03  0.25500000920E-02 0.  1.
</event>
<event>
 5   0  0.6052292E-05  0.1930663E+04  0.7818609E-02  0.8639742E-01
       -1   -1    0    0    0  501  0.00000000000E+00  0.00000000000E+00  0.43836793525E+03  0.43836793527E+03  0.50400001928E-02 0. -1.
        1   -1    0    0  501    0  0.00000000000E+00  0.00000000000E+00 -0.21257603165E+04  0.21257603165E+04  0.50400001928E-02 0.  1.
    10030    2    1    2    0    0  0.00000000000E+00  0.00000000000E+00 -0.16873923813E+04  0.25641282518E+04  0.19306632651E+04 0.  0.
        1    1    3    3  502    0  0.81600598274E+03 -0.43345602584E+03 -0.12148903903E+04  0.15263382819E+04  0.50400001928E-02 0. -1.
       -1    1    3    3    0  502 -0.81600598274E+03  0.43345602584E+03 -0.47250199098E+03  0.10377899699E+04  0.50400001928E-02 0.  1.
</event>
<event>
 5   0  0.1349252E-04  0.2188890E+04  0.7818609E-02  0.8523067E-01
        2   -1    0    0  501    0  0.00000000000E+00  0.00000000000E+00  0.16024786937E+04  0.16024786937E+04  0.25500000920E-02 0.  1.
       -2   -1    0    0    0  501  0.00000000000E+00  0.00000000000E+00 -0.74747315794E+03  0.74747315794E+03  0.25500000920E-02 0. -1.
    10030    2    1    2    0    0  0.00000000000E+00  0.00000000000E+00  0.85500553572E+03  0.23499518516E+04  0.21888899558E+04 0.  0.
        2    1    3    3  502    0  0.10324153803E+04  0.33069352290E+03  0.26621492101E+03  0.11162930205E+04  0.25500000920E-02 0. -1.
       -2    1    3    3    0  502 -0.10324153803E+04 -0.33069352290E+03  0.58879061472E+03  0.12336588311E+04  0.25500000920E-02 0.  1.
</event>
<event>
 5   0  0.1252477E-04  0.2122396E+04  0.7818609E-02  0.8551441E-01
        2   -1    0    0  501    0  0.00000000000E+00  0.00000000000E+00  0.19385197900E+04  0.19385197900E+04  0.25500000920E-02 0.  1.
       -2   -1    0    0    0  501  0.00000000000E+00  0.00000000000E+00 -0.58092859398E+03  0.58092859398E+03  0.25500000920E-02 0. -1.
    10030    2    1    2    0    0  0.00000000000E+00  0.00000000000E+00  0.13575911960E+04  0.25194483840E+04  0.21223963588E+04 0.  0.
        4    1    3    3  502    0  0.34993967257E+02 -0.82713283999E+03 -0.10930804865E+03  0.83505878544E+03  0.12699999809E+01 0. -1.
       -4    1    3    3    0  502 -0.34993967257E+02  0.82713283999E+03  0.14668992447E+04  0.16843895985E+04  0.12699999809E+01 0.  1.
</event>
<event>
 5   0  0.5933905E-05  0.1836015E+04  0.7818609E-02  0.8687378E-01
       -1   -1    0    0    0  501  0.00000000000E+00  0.00000000000E+00  0.14098939660E+04  0.14098939660E+04  0.50400001928E-02 0.  1.
        1   -1    0    0  501    0  0.00000000000E+00  0.00000000000E+00 -0.59773104449E+03  0.59773104451E+03  0.50400001928E-02 0. -1.
    10030    2    1    2    0    0  0.00000000000E+00  0.00000000000E+00  0.81216292150E+03  0.20076250105E+04  0.18360145892E+04 0.  0.
        2    1    3    3  502    0  0.43866965182E+03 -0.23501796049E+02  0.12874974992E+04  0.13603798030E+04  0.25500000920E-02 0.  1.
       -2    1    3    3    0  502 -0.43866965182E+03  0.23501796049E+02 -0.47533457774E+03  0.64724520751E+03  0.25500000920E-02 0. -1.
</event>
<event>
 5   0  0.5846187E-05  0.2117579E+04  0.7818609E-02  0.8553539E-01
        1   -1    0    0  501    0  0.00000000000E+00  0.00000000000E+00  0.96757487235E+03  0.96757487236E+03  0.50400001928E-02 0. -1.
       -1   -1    0    0    0  501  0.00000000000E+00  0.00000000000E+00 -0.11586032804E+04  0.11586032804E+04  0.50400001928E-02 0.  1.
    10030    2    1    2    0    0  0.00000000000E+00  0.00000000000E+00 -0.19102840805E+03  0.21261781528E+04  0.21175792039E+04 0.  0.
        5    1    3    3  502    0  0.40206055886E+02  0.74389989655E+03  0.65987703488E+03  0.99522026415E+03  0.46999998093E+01 0. -1.
       -5    1    3    3    0  502 -0.40206055886E+02 -0.74389989655E+03 -0.85090544294E+03  0.11309578886E+04  0.46999998093E+01 0.  1.
</event>
<event>
 5   0  0.5933905E-05  0.2099314E+04  0.7818609E-02  0.8561546E-01
       -1   -1    0    0    0  501  0.00000000000E+00  0.00000000000E+00  0.14109102117E+04  0.14109102117E+04  0.50400001928E-02 0.  1.
        1   -1    0    0  501    0  0.00000000000E+00  0.00000000000E+00 -0.78089976565E+03  0.78089976567E+03  0.50400001928E-02 0. -1.
    10030    2    1    2    0    0  0.00000000000E+00  0.00000000000E+00  0.63001044601E+03  0.21918099773E+04  0.20993136532E+04 0.  0.
        2    1    3    3  502    0  0.63551041600E+03  0.46328982150E+03 -0.41079954376E+03  0.88728079699E+03  0.25500000920E-02 0. -1.
       -2    1    3    3    0  502 -0.63551041600E+03 -0.46328982150E+03  0.10408099898E+04  0.13045291803E+04  0.25500000920E-02 0.  1.
</event>
<event>
 5   0  0.4615125E-05  0.2058817E+04  0.7818609E-02  0.8579605E-01
        3   -1    0    0  501    0  0.00000000000E+00  0.00000000000E+00  0.11622146977E+04  0.11622147021E+04  0.10100000352E+00 0. -1.
       -3   -1    0    0    0  501  0.00000000000E+00  0.00000000000E+00 -0.91177827063E+03  0.91177827623E+03  0.10100000352E+00 0.  1.
    10030    2    1    2    0    0  0.00000000000E+00  0.00000000000E+00  0.25043642707E+03  0.20739929783E+04  0.20588172503E+04 0.  0.
        3    1    3    3  502    0 -0.32251265570E+03 -0.73348363218E+03  0.77625546853E+03  0.11156097949E+04  0.10100000352E+00 0. -1.
       -3    1    3    3    0  502  0.32251265570E+03  0.73348363218E+03 -0.52581904146E+03  0.95838318346E+03  0.10100000352E+00 0.  1.
</event>
<event>
 5   0  0.1349252E-04  0.2061038E+04  0.7818609E-02  0.8578603E-01
       -2   -1    0    0    0  501  0.00000000000E+00  0.00000000000E+00  0.77565142295E+03  0.77565142295E+03  0.25500000920E-02 0. -1.
        2   -1    0    0  501    0  0.00000000000E+00  0.00000000000E+00 -0.13691320318E+04  0.13691320318E+04  0.25500000920E-02 0.  1.
    10030    2    1    2    0    0  0.00000000000E+00  0.00000000000E+00 -0.59348060885E+03  0.21447834547E+04  0.20610378053E+04 0.  0.
        2    1    3    3  502    0  0.50257620691E+03  0.53858109070E+03  0.45317750552E+03  0.86488281665E+03  0.25500000920E-02 0. -1.
       -2    1    3    3    0  502 -0.50257620691E+03 -0.53858109070E+03 -0.10466581144E+04  0.12799006381E+04  0.25500000920E-02 0.  1.
</event>
<event>
 5   0  0.1281470E-04  0.2081213E+04  0.7818609E-02  0.8569565E-01
       -2   -1    0    0    0  501  0.00000000000E+00  0.00000000000E+00  0.53965464122E+03  0.53965464123E+03  0.25500000920E-02 0. -1.
        2   -1    0    0  501    0  0.00000000000E+00  0.00000000000E+00 -0.20065825225E+04  0.20065825225E+04  0.25500000920E-02 0.  1.
    10030    2    1    2    0    0  0.00000000000E+00  0.00000000000E+00 -0.14669278813E+04  0.25462371638E+04  0.20812126958E+04 0.  0.
        3    1    3    3  502    0  0.88290887478E+03  0.40756831703E+03 -0.28026014188E+03  0.10120206379E+04  0.10100000352E+00 0.  1.
       -3    1    3    3    0  502 -0.88290887478E+03 -0.40756831703E+03 -0.11866677394E+04  0.15342165259E+04  0.10100000352E+00 0. -1.
</event>
<event>
 5   0  0.1349252E-04  0.2097256E+04  0.7818609E-02  0.8562453E-01
        2   -1    0    0  501    0  0.00000000000E+00  0.00000000000E+00  0.16924422154E+04  0.16924422154E+04  0.25500000920E-02 0.  1.
       -2   -1    0    0    0  501  0.00000000000E+00  0.00000000000E+00 -0.64972428234E+03  0.64972428235E+03  0.25500000920E-02 0. -1.
    10030    2    1    2    0    0  0.00000000000E+00  0.00000000000E+00  0.10427179331E+04  0.23421664978E+04  0.20972561158E+04 0.  0.
        2    1    3    3  502    0  0.98898976169E+02 -0.10304610821E+04  0.70819723807E+03  0.12542624834E+04  0.25500000920E-02 0.  1.
       -2    1    3    3    0  502 -0.98898976169E+02  0.10304610821E+04  0.33452069501E+03  0.10879040144E+04  0.25500000920E-02 0. -1.
</event>
<event>
 5   0  0.6221148E-05  0.1875427E+04  0.7818609E-02  0.8667185E-01
        1   -1    0    0  501    0  0.00000000000E+00  0.00000000000E+00  0.77167577062E+03  0.77167577063E+03  0.50400001928E-02 0. -1.
       -1   -1    0    0    0  501  0.00000000000E+00  0.00000000000E+00 -0.11394768658E+04  0.11394768658E+04  0.50400001928E-02 0.  1.
    10030    2    1    2    0    0  0.00000000000E+00  0.00000000000E+00 -0.36780109517E+03  0.19111526364E+04  0.18754270858E+04 0.  0.
        3    1    3    3  502    0 -0.32992296593E+03  0.15672745930E+03 -0.10640040556E+04  0.11249521326E+04  0.10100000352E+00 0.  1.
       -3    1    3    3    0  502  0.32992296593E+03 -0.15672745930E+03  0.69620296046E+03  0.78620050388E+03  0.10100000352E+00 0. -1.
</event>
<event>
 5   0  0.5846187E-05  0.2067306E+04  0.7818609E-02  0.8575784E-01
       -1   -1    0    0    0  501  0.00000000000E+00  0.00000000000E+00  0.52973324662E+03  0.52973324664E+03  0.50400001928E-02 0. -1.
        1   -1    0    0  501    0  0.00000000000E+00  0.00000000000E+00 -0.20169367078E+04  0.20169367078E+04  0.50400001928E-02 0.  1.
    10030    2    1    2    0    0  0.00000000000E+00  0.00000000000E+00 -0.14872034612E+04  0.25466699545E+04  0.20673059091E+04 0.  0.
        5    1    3    3  502    0 -0.10504116065E+03  0.83764316770E+03 -0.14783392283E+04  0.17024067334E+04  0.46999998093E+01 0.  1.
       -5    1    3    3    0  502  0.10504116065E+03 -0.83764316770E+03 -0.88642328482E+01  0.84426322107E+03  0.46999998093E+01 0. -1.
</event>
<event>
 5   0  0.1325673E-04  0.2170235E+04  0.7818609E-02  0.8530920E-01
        2   -1    0    0  501    0  0.00000000000E+00  0.00000000000E+00  0.16780036827E+04  0.16780036827E+04  0.25500000920E-02 0. -1.
       -2   -1    0    0    0  501  0.00000000000E+00  0.00000000000E+00 -0.70171481408E+03  0.70171481409E+03  0.25500000920E-02 0.  1.
    10030    2    1    2    0    0  0.00000000000E+00  0.00000000000E+00  0.97628886859E+03  0.23797184968E+04  0.21702350492E+04 0.  0.
        5    1    3    3  502    0  0.17376037139E+03 -0.94277690688E+03  0.10455818939E+04  0.14185501576E+04  0.46999998093E+01 0. -1.
       -5    1    3    3    0  502 -0.17376037139E+03  0.94277690688E+03 -0.69293025315E+02  0.96116833914E+03  0.46999998093E+01 0.  1.
</event>
<event>
 5   0  0.5846187E-05  0.2087738E+04  0.7818609E-02  0.8566664E-01
        1   -1    0    0  501    0  0.00000000000E+00  0.00000000000E+00  0.13251057667E+04  0.13251057667E+04  0.50400001928E-02 0. -1.
       -1   -1    0    0    0  501  0.00000000000E+00  0.00000000000E+00 -0.82232100132E+03  0.82232100134E+03  0.50400001928E-02 0.  1.
    10030    2    1    2    0    0  0.00000000000E+00  0.00000000000E+00  0.50278476539E+03  0.21474267681E+04  0.20877378197E+04 0.  0.
        5    1    3    3  502    0 -0.39166996969E+03 -0.58910481767E+03 -0.53814049555E+03  0.88885720692E+03  0.46999998093E+01 0.  1.
       -5    1    3    3    0  502  0.39166996969E+03  0.58910481767E+03  0.10409252609E+04  0.12585695611E+04  0.46999998093E+01 0. -1.
</event>
<event>
 5   0  0.5933905E-05  0.2159093E+04  0.7818609E-02  0.8535650E-01
       -1   -1    0    0    0  501  0.00000000000E+00  0.00000000000E+00  0.56216965669E+03  0.56216965671E+03  0.50400001928E-02 0. -1.
        1   -1    0    0  501    0  0.00000000000E+00  0.00000000000E+00 -0.20730762302E+04  0.20730762302E+04  0.50400001928E-02 0.  1.
    10030    2    1    2    0    0  0.00000000000E+00  0.00000000000E+00 -0.15109065735E+04  0.26352458869E+04  0.21590929138E+04 0.  0.
        2    1    3    3  502    0  0.42954913905E+03  0.18914763184E+03  0.43112357851E+03  0.63730434602E+03  0.25500000920E-02 0. -1.
       -2    1    3    3    0  502 -0.42954913905E+03 -0.18914763184E+03 -0.19420301520E+04  0.19979415409E+04  0.25500000920E-02 0.  1.
</event>
<event>
 5   0  0.1325673E-04  0.2114368E+04  0.7818609E-02  0.8554941E-01
        2   -1    0    0  501    0  0.00000000000E+00  0.00000000000E+00  0.10624222143E+04  0.10624222143E+04  0.25500000920E-02 0. -1.
       -2   -1    0    0    0  501  0.00000000000E+00  0.00000000000E+00 -0.10519714668E+04  0.10519714668E+04  0.25500000920E-02 0.  1.
    10030    2    1    2    0    0  0.00000000000E+00  0.00000000000E+00  0.10450747488E+02  0.21143936811E+04  0.21143678537E+04 0.  0.
        5    1    3    3  502    0 -0.42245230798E+02 -0.55721125616E+03  0.90264745768E+03  0.10616325006E+04  0.46999998093E+01 0. -1.
       -5    1    3    3    0  502  0.42245230798E+02  0.55721125616E+03 -0.89219671019E+03  0.10527611805E+04  0.46999998093E+01 0.  1.
</event>
<event>
 5   0  0.6052292E-05  0.2108369E+04  0.7818609E-02  0.8557566E-01
       -1   -1    0    0    0  501  0.00000000000E+00  0.00000000000E+00  0.83253919374E+03  0.83253919376E+03  0.50400001928E-02 0.  1.
        1   -1    0    0  501    0  0.00000000000E+00  0.00000000000E+00 -0.13348374648E+04  0.13348374648E+04  0.50400001928E-02 0. -1.
    10030    2    1    2    0    0  0.00000000000E+00  0.00000000000E+00 -0.50229827110E+03  0.21673766586E+04  0.21083685700E+04 0.  0.
        1    1    3    3  502    0  0.82070813605E+03  0.37849152178E+03  0.30670518002E+03  0.95440334456E+03  0.50400001928E-02 0.  1.
       -1    1    3    3    0  502 -0.82070813605E+03 -0.37849152178E+03 -0.80900345112E+03  0.12129733140E+04  0.50400001928E-02 0. -1.
</event>
<event>
 5   0  0.1281470E-04  0.2104565E+04  0.7818609E-02  0.8559235E-01
        2   -1    0    0  501    0  0.00000000000E+00  0.00000000000E+00  0.10040246981E+04  0.10040246981E+04  0.25500000920E-02 0.  1.
       -2   -1    0    0    0  501  0.00000000000E+00  0.00000000000E+00 -0.11028599087E+04  0.11028599087E+04  0.25500000920E-02 0. -1.
    10030    2    1    2    0    0  0.00000000000E+00  0.00000000000E+00 -0.98835210605E+02  0.21068846067E+04  0.21045651207E+04 0.  0.
        3    1    3    3  502    0 -0.29762151432E+03  0.46381447964E+03  0.84800561496E+03  0.10113436461E+04  0.10100000352E+00 0.  1.
       -3    1    3    3    0  502  0.29762151432E+03 -0.46381447964E+03 -0.94684082556E+03  0.10955409606E+04  0.10100000352E+00 0. -1.
</event>
<event>
 5   0  0.1235817E-04  0.2161833E+04  0.7818609E-02  0.8534484E-01
        2   -1    0    0  501    0  0.00000000000E+00  0.00000000000E+00  0.17006328905E+04  0.17006328905E+04  0.25500000920E-02 0.  1.
       -2   -1    0    0    0  501  0.00000000000E+00  0.00000000000E+00 -0.68702667705E+03  0.68702667705E+03  0.25500000920E-02 0. -1.
    10030    2    1    2    0    0  0.00000000000E+00  0.00000000000E+00  0.10136062135E+04  0.23876595676E+04  0.21618327074E+04 0.  0.
        1    1    3    3  502    0 -0.18116591988E+03  0.97160581120E+03  0.23431153722E+02  0.98862933493E+03  0.50400001928E-02 0.  1.
       -1    1    3    3    0  502  0.18116591988E+03 -0.97160581120E+03  0.99017505978E+03  0.13990302327E+04  0.50400001928E-02 0. -1.
</event>
<event>
 5   0  0.1281470E-04  0.2108027E+04  0.7818609E-02  0.8557716E-01
        2   -1    0    0  501    0  0.00000000000E+00  0.00000000000E+00  0.16560834997E+04  0.16560834997E+04  0.25500000920E-02 0. -1.
       -2   -1    0    0    0  501  0.00000000000E+00  0.00000000000E+00 -0.67082604471E+03  0.67082604472E+03  0.25500000920E-02 0.  1.
    10030    2    1    2    0    0  0.00000000000E+00  0.00000000000E+00  0.98525745502E+03  0.23269095445E+04  0.21080265120E+04 0.  0.
        3    1    3    3  502    0  0.12209401623E+03  0.50506735317E+03 -0.51961934528E+03  0.73484981746E+03  0.10100000352E+00 0.  1.
       -3    1    3    3    0  502 -0.12209401623E+03 -0.50506735317E+03  0.15048768003E+04  0.15920597270E+04  0.10100000352E+00 0. -1.
</event>
<event>
 5   0  0.5933905E-05  0.2102201E+04  0.7818609E-02  0.8560275E-01
       -1   -1    0    0    0  501  0.00000000000E+00  0.00000000000E+00  0.77429127095E+03  0.77429127097E+03  0.50400001928E-02 0. -1.
        1   -1    0    0  501    0  0.00000000000E+00  0.00000000000E+00 -0.14268686026E+04  0.14268686026E+04  0.50400001928E-02 0.  1.
    10030    2    1    2    0    0  0.00000000000E+00  0.00000000000E+00 -0.65257733167E+03  0.22011598736E+04  0.21022006601E+04 0.  0.
        2    1    3    3  502    0  0.96746048226E+03  0.41080009089E+03 -0.33538100894E+03  0.11032755415E+04  0.25500000920E-02 0. -1.
       -2    1    3    3    0  502 -0.96746048226E+03 -0.41080009089E+03 -0.31719632273E+03  0.10978843321E+04  0.25500000920E-02 0.  1.
</event>
<event>
 5   0  0.1252477E-04  0.2066959E+04  0.7818609E-02  0.8575939E-01
        2   -1    0    0  501    0  0.00000000000E+00  0.00000000000E+00  0.10729106511E+04  0.10729106511E+04  0.25500000920E-02 0. -1.
       -2   -1    0    0    0  501  0.00000000000E+00  0.00000000000E+00 -0.99549758705E+03  0.99549758706E+03  0.25500000920E-02 0.  1.
    10030    2    1    2    0    0  0.00000000000E+00  0.00000000000E+00  0.77413064020E+02  0.20684082381E+04  0.20669590845E+04 0.  0.
        4    1    3    3  502    0 -0.77039935653E+01 -0.89995204230E+03  0.54710339049E+03  0.10532315808E+04  0.12699999809E+01 0. -1.
       -4    1    3    3    0  502  0.77039935653E+01  0.89995204230E+03 -0.46969032647E+03  0.10151766574E+04  0.12699999809E+01 0.  1.
</event>
<event>
 5   0  0.5846187E-05  0.2115655E+04  0.7818609E-02  0.8554379E-01
       -1   -1    0    0    0  501  0.00000000000E+00  0.00000000000E+00  0.52172033799E+03  0.52172033801E+03  0.50400001928E-02 0. -1.
        1   -1    0    0  501    0  0.00000000000E+00  0.00000000000E+00 -0.21448245384E+04  0.21448245384E+04  0.50400001928E-02 0.  1.
    10030    2    1    2    0    0  0.00000000000E+00  0.00000000000E+00 -0.16231042004E+04  0.26665448764E+04  0.21156545873E+04 0.  0.
        5    1    3    3  502    0  0.36450729502E+01  0.10232110198E+04 -0.11497552640E+04  0.15391339561E+04  0.46999998093E+01 0.  1.
       -5    1    3    3    0  502 -0.36450729502E+01 -0.10232110198E+04 -0.47334893642E+03  0.11274109203E+04  0.46999998093E+01 0. -1.
</event>
<event>
 5   0  0.4615125E-05  0.2099229E+04  0.7818609E-02  0.8561583E-01
        4   -1    0    0  501    0  0.00000000000E+00  0.00000000000E+00  0.10047459822E+04  0.10047467848E+04  0.12699999809E+01 0.  1.
       -4   -1    0    0    0  501  0.00000000000E+00  0.00000000000E+00 -0.10964846236E+04  0.10964853591E+04  0.12699999809E+01 0. -1.
    10030    2    1    2    0    0  0.00000000000E+00  0.00000000000E+00 -0.91738641461E+02  0.21012321440E+04  0.20992285594E+04 0.  0.
        1    1    3    3  502    0 -0.73878900403E+03  0.74554980005E+03 -0.39827065975E+02  0.10503522705E+04  0.50400001928E-02 0.  1.
       -1    1    3    3    0  502  0.73878900403E+03 -0.74554980005E+03 -0.51911575486E+02  0.10508798735E+04  0.50400001928E-02 0. -1.
</event>
<event>
 5   0  0.4615125E-05  0.2107548E+04  0.7818609E-02  0.8557926E-01
       -3   -1    0    0    0  501  0.00000000000E+00  0.00000000000E+00  0.13351247062E+04  0.13351247100E+04  0.10100000352E+00 0. -1.
        3   -1    0    0  501    0  0.00000000000E+00  0.00000000000E+00 -0.83171224647E+03  0.83171225260E+03  0.10100000352E+00 0.  1.
    10030    2    1    2    0    0  0.00000000000E+00  0.00000000000E+00  0.50341245971E+03  0.21668369626E+04  0.21075479397E+04 0.  0.
        4    1    3    3  502    0  0.37913154851E+03  0.94301359862E+03 -0.34370555025E+02  0.10169554200E+04  0.12699999809E+01 0.  1.
       -4    1    3    3    0  502 -0.37913154851E+03 -0.94301359862E+03  0.53778301474E+03  0.11498815426E+04  0.12699999809E+01 0. -1.
</event>
<event>
 5   0  0.5933905E-05  0.1530375E+04  0.7818609E-02  0.8864502E-01
        1   -1    0    0  501    0  0.00000000000E+00  0.00000000000E+00  0.48947250415E+03  0.48947250418E+03  0.50400001928E-02 0. -1.
       -1   -1    0    0    0  501  0.00000000000E+00  0.00000000000E+00 -0.11962093547E+04  0.11962093547E+04  0.50400001928E-02 0.  1.
    10030    2    1    2    0    0  0.00000000000E+00  0.00000000000E+00 -0.70673685057E+03  0.16856818589E+04  0.15303745795E+04 0.  0.
        2    1    3    3  502    0 -0.25785410244E+03  0.11868141476E+03  0.42933406134E+03  0.51468607188E+03  0.25500000920E-02 0. -1.
       -2    1    3    3    0  502  0.25785410244E+03 -0.11868141476E+03 -0.11360709119E+04  0.11709957870E+04  0.25500000920E-02 0.  1.
</event>
<event>
 5   0  0.6221148E-05  0.2197841E+04  0.7818609E-02  0.8519327E-01
       -1   -1    0    0    0  501  0.00000000000E+00  0.00000000000E+00  0.10736695347E+04  0.10736695347E+04  0.50400001928E-02 0. -1.
        1   -1    0    0  501    0  0.00000000000E+00  0.00000000000E+00 -0.11247655632E+04  0.11247655632E+04  0.50400001928E-02 0.  1.
    10030    2    1    2    0    0  0.00000000000E+00  0.00000000000E+00 -0.51096028481E+02  0.21984350979E+04  0.21978412307E+04 0.  0.
        3    1    3    3  502    0  0.77333858817E+03 -0.12104432037E+03 -0.79706843151E+03  0.11171492264E+04  0.10100000352E+00 0.  1.
       -3    1    3    3    0  502 -0.77333858817E+03  0.12104432037E+03  0.74597240303E+03  0.10812858714E+04  0.10100000352E+00 0. -1.
</event>
<event>
 5   0  0.5846187E-05  0.2119662E+04  0.7818609E-02  0.8552631E-01
        1   -1    0    0  501    0  0.00000000000E+00  0.00000000000E+00  0.18568038419E+04  0.18568038419E+04  0.50400001928E-02 0.  1.
       -1   -1    0    0    0  501  0.00000000000E+00  0.00000000000E+00 -0.60493296463E+03  0.60493296465E+03  0.50400001928E-02 0. -1.
    10030    2    1    2    0    0  0.00000000000E+00  0.00000000000E+00  0.12518708772E+04  0.24617368065E+04  0.21196620984E+04 0.  0.
        5    1    3    3  502    0  0.80107609829E+03 -0.20776152734E+03 -0.14297644137E+03  0.83985243959E+03  0.46999998093E+01 0. -1.
       -5    1    3    3    0  502 -0.80107609829E+03  0.20776152734E+03  0.13948473186E+04  0.16218843669E+04  0.46999998093E+01 0.  1.
</event>
<event>
 5   0  0.1325673E-04  0.2120471E+04  0.7818609E-02  0.8552279E-01
       -2   -1    0    0    0  501  0.00000000000E+00  0.00000000000E+00  0.67723336543E+03  0.67723336544E+03  0.25500000920E-02 0. -1.
        2   -1    0    0  501    0  0.00000000000E+00  0.00000000000E+00 -0.16598408187E+04  0.16598408187E+04  0.25500000920E-02 0.  1.
    10030    2    1    2    0    0  0.00000000000E+00  0.00000000000E+00 -0.98260745323E+03  0.23370741841E+04  0.21204712530E+04 0.  0.
        5    1    3    3  502    0  0.10005939297E+04  0.11125851102E+03 -0.85769280564E+03  0.13225829680E+04  0.46999998093E+01 0.  1.
       -5    1    3    3    0  502 -0.10005939297E+04 -0.11125851102E+03 -0.12491464759E+03  0.10144912161E+04  0.46999998093E+01 0. -1.
</event>
<event>
 5   0  0.6052292E-05  0.2112907E+04  0.7818609E-02  0.8555579E-01
        1   -1    0    0  501    0  0.00000000000E+00  0.00000000000E+00  0.51012948327E+03  0.51012948329E+03  0.50400001928E-02 0.  1.
       -1   -1    0    0    0  501  0.00000000000E+00  0.00000000000E+00 -0.21878636845E+04  0.21878636845E+04  0.50400001928E-02 0. -1.
    10030    2    1    2    0    0  0.00000000000E+00  0.00000000000E+00 -0.16777342013E+04  0.26979931678E+04  0.21129067853E+04 0.  0.
        1    1    3    3  502    0  0.72023949893E+03 -0.17958832553E+03 -0.17987581853E+04  0.19459002831E+04  0.50400001928E-02 0. -1.
       -1    1    3    3    0  502 -0.72023949893E+03  0.17958832553E+03  0.12102398408E+03  0.75209288471E+03  0.50400001928E-02 0.  1.
</event>
<event>
 5   0  0.5846187E-05  0.1665308E+04  0.7818609E-02  0.8781402E-01
        1   -1    0    0  501    0  0.00000000000E+00  0.00000000000E+00  0.96097341289E+03  0.96097341291E+03  0.50400001928E-02 0. -1.
       -1   -1    0    0    0  501  0.00000000000E+00  0.00000000000E+00 -0.72146911120E+03  0.72146911122E+03  0.50400001928E-02 0.  1.
    10030    2    1    2    0    0  0.00000000000E+00  0.00000000000E+00  0.23950430169E+03  0.16824425241E+04  0.16653079404E+04 0.  0.
        5    1    3    3  502    0 -0.33215437321E+03  0.22973399623E+03 -0.61587870551E+03  0.73650044573E+03  0.46999998093E+01 0.  1.
       -5    1    3    3    0  502  0.33215437321E+03 -0.22973399623E+03  0.85538300720E+03  0.94594207839E+03  0.46999998093E+01 0. -1.
</event>
<event>
 5   0  0.6263616E-05  0.1794920E+04  0.7818609E-02  0.8709006E-01
       -1   -1    0    0    0  501  0.00000000000E+00  0.00000000000E+00  0.41430025340E+03  0.41430025343E+03  0.50400001928E-02 0. -1.
        1   -1    0    0  501    0  0.00000000000E+00  0.00000000000E+00 -0.19440830124E+04  0.19440830124E+04  0.50400001928E-02 0.  1.
    10030    2    1    2    0    0  0.00000000000E+00  0.00000000000E+00 -0.15297827590E+04  0.23583832658E+04  0.17949195912E+04 0.  0.
        4    1    3    3  502    0  0.77524643355E+03 -0.13181769305E+03 -0.19663057339E+03  0.81058505552E+03  0.12699999809E+01 0.  1.
       -4    1    3    3    0  502 -0.77524643355E+03  0.13181769305E+03 -0.13331521856E+04  0.15477982103E+04  0.12699999809E+01 0. -1.
</event>
<event>
 5   0  0.5933905E-05  0.2051928E+04  0.7818609E-02  0.8582720E-01
        1   -1    0    0  501    0  0.00000000000E+00  0.00000000000E+00  0.10363773252E+04  0.10363773252E+04  0.50400001928E-02 0.  1.
       -1   -1    0    0    0  501  0.00000000000E+00  0.00000000000E+00 -0.10156551719E+04  0.10156551719E+04  0.50400001928E-02 0. -1.
    10030    2    1    2    0    0  0.00000000000E+00  0.00000000000E+00  0.20722153341E+02  0.20520324971E+04  0.20519278646E+04 0.  0.
        2    1    3    3  502    0 -0.13105955526E+03  0.10159875781E+04 -0.46162814616E+02  0.10254454502E+04  0.25500000920E-02 0. -1.
       -2    1    3    3    0  502  0.13105955526E+03 -0.10159875781E+04  0.66884967957E+02  0.10265870469E+04  0.25500000920E-02 0.  1.
</event>
<event>
 5   0  0.1349252E-04  0.2064088E+04  0.7818609E-02  0.8577230E-01
        2   -1    0    0  501    0  0.00000000000E+00  0.00000000000E+00  0.14784117291E+04  0.14784117291E+04  0.25500000920E-02 0.  1.
       -2   -1    0    0    0  501  0.00000000000E+00  0.00000000000E+00 -0.72044532555E+03  0.72044532555E+03  0.25500000920E-02 0. -1.
    10030    2    1    2    0    0  0.00000000000E+00  0.00000000000E+00  0.75796640355E+03  0.21988570546E+04  0.20640880015E+04 0.  0.
        2    1    3    3  502    0 -0.55118769878E+03  0.87043303395E+03  0.44337193586E+03  0.11216239207E+04  0.25500000920E-02 0.  1.
       -2    1    3    3    0  502  0.55118769878E+03 -0.87043303395E+03  0.31459446769E+03  0.10772331340E+04  0.25500000920E-02 0. -1.
</event>
<event>
 5   0  0.1281470E-04  0.2107890E+04  0.7818609E-02  0.8557776E-01
        2   -1    0    0  501    0  0.00000000000E+00  0.00000000000E+00  0.10389203832E+04  0.10389203832E+04  0.25500000920E-02 0.  1.
       -2   -1    0    0    0  501  0.00000000000E+00  0.00000000000E+00 -0.10691873632E+04  0.10691873632E+04  0.25500000920E-02 0. -1.
    10030    2    1    2    0    0  0.00000000000E+00  0.00000000000E+00 -0.30266979945E+02  0.21081077464E+04  0.21078904574E+04 0.  0.
        3    1    3    3  502    0 -0.74621698858E+03  0.74308885522E+03  0.27057279305E+02  0.10534481228E+04  0.10100000352E+00 0.  1.
       -3    1    3    3    0  502  0.74621698858E+03 -0.74308885522E+03 -0.57324259250E+02  0.10546596236E+04  0.10100000352E+00 0. -1.
</event>
<event>
 5   0  0.1252477E-04  0.2133381E+04  0.7818609E-02  0.8546680E-01
       -2   -1    0    0    0  501  0.00000000000E+00  0.00000000000E+00  0.73678673606E+03  0.73678673607E+03  0.25500000920E-02 0.  1.
        2   -1    0    0  501    0  0.00000000000E+00  0.00000000000E+00 -0.15443120759E+04  0.15443120759E+04  0.25500000920E-02 0. -1.
    10030    2    1    2    0    0  0.00000000000E+00  0.00000000000E+00 -0.80752533988E+03  0.22810988120E+04  0.21333810292E+04 0.  0.
        4    1    3    3  502    0  0.61942007505E+03 -0.65282120859E+03 -0.10161030728E+04  0.13573223004E+04  0.12699999809E+01 0. -1.
       -4    1    3    3    0  502 -0.61942007505E+03  0.65282120859E+03  0.20857773295E+03  0.92377651158E+03  0.12699999809E+01 0.  1.
</event>
<event>
 5   0  0.5846187E-05  0.2093716E+04  0.7818609E-02  0.8564017E-01
       -1   -1    0    0    0  501  0.00000000000E+00  0.00000000000E+00  0.12592800752E+04  0.12592800752E+04  0.50400001928E-02 0. -1.
        1   -1    0    0  501    0  0.00000000000E+00  0.00000000000E+00 -0.87026820202E+03  0.87026820204E+03  0.50400001928E-02 0.  1.
    10030    2    1    2    0    0  0.00000000000E+00  0.00000000000E+00  0.38901187318E+03  0.21295482773E+04  0.20937157466E+04 0.  0.
        5    1    3    3  502    0 -0.71465821871E+03 -0.38301647251E+03  0.86799487354E+03  0.11878026681E+04  0.46999998093E+01 0. -1.
       -5    1    3    3    0  502  0.71465821871E+03  0.38301647251E+03 -0.47898300036E+03  0.94174560918E+03  0.46999998093E+01 0.  1.
</event>
<event>
 5   0  0.1235817E-04  0.2115132E+04  0.7818609E-02  0.8554607E-01
       -2   -1    0    0    0  501  0.00000000000E+00  0.00000000000E+00  0.62624781115E+03  0.62624781116E+03  0.25500000920E-02 0. -1.
        2   -1    0    0  501    0  0.00000000000E+00  0.00000000000E+00 -0.17859472219E+04  0.17859472219E+04  0.25500000920E-02 0.  1.
    10030    2    1    2    0    0  0.00000000000E+00  0.00000000000E+00 -0.11596994107E+04  0.24121950330E+04  0.21151317108E+04 0.  0.
        1    1    3    3  502    0 -0.65978013641E+03 -0.71745088822E+03 -0.10478498204E+04  0.14310956822E+04  0.50400001928E-02 0. -1.
       -1    1    3    3    0  502  0.65978013641E+03  0.71745088822E+03 -0.11184959034E+03  0.98109935088E+03  0.50400001928E-02 0.  1.
</event>
<event>
 5   0  0.1325673E-04  0.2128799E+04  0.7818609E-02  0.8548662E-01
       -2   -1    0    0    0  501  0.00000000000E+00  0.00000000000E+00  0.56743354250E+03  0.56743354251E+03  0.25500000920E-02 0.  1.
        2   -1    0    0  501    0  0.00000000000E+00  0.00000000000E+00 -0.19966143032E+04  0.19966143032E+04  0.25500000920E-02 0. -1.
    10030    2    1    2    0    0  0.00000000000E+00  0.00000000000E+00 -0.14291807607E+04  0.25640478457E+04  0.21287986538E+04 0.  0.
        5    1    3    3  502    0 -0.51590213841E+03  0.62113565391E+03 -0.15498965912E+04  0.17476172494E+04  0.46999998093E+01 0. -1.
       -5    1    3    3    0  502  0.51590213841E+03 -0.62113565391E+03  0.12071583044E+03  0.81643059637E+03  0.46999998093E+01 0.  1.
</event>
<event>
 5   0  0.6263616E-05  0.1513434E+04  0.7818609E-02  0.8875568E-01
        1   -1    0    0  501    0  0.00000000000E+00  0.00000000000E+00  0.59921934594E+03  0.59921934596E+03  0.50400001928E-02 0.  1.
       -1   -1    0    0    0  501  0.00000000000E+00  0.00000000000E+00 -0.95561133917E+03  0.95561133919E+03  0.50400001928E-02 0. -1.
    10030    2    1    2    0    0  0.00000000000E+00  0.00000000000E+00 -0.35639199323E+03  0.15548306851E+04  0.15134342426E+04 0.  0.
        4    1    3    3  502    0 -0.67296307868E+03 -0.30697043114E+02 -0.53229388333E+03  0.85858022622E+03  0.12699999809E+01 0. -1.
       -4    1    3    3    0  502  0.67296307868E+03  0.30697043114E+02  0.17590189010E+03  0.69625045893E+03  0.12699999809E+01 0.  1.
</event>
<event>
 5   0  0.5933905E-05  0.2051743E+04  0.7818609E-02  0.8582804E-01
       -1   -1    0    0    0  501  0.00000000000E+00  0.00000000000E+00  0.66052487821E+03  0.66052487823E+03  0.50400001928E-02 0.  1.
        1   -1    0    0  501    0  0.00000000000E+00  0.00000000000E+00 -0.15932976102E+04  0.15932976102E+04  0.50400001928E-02 0. -1.
    10030    2    1    2    0    0  0.00000000000E+00  0.00000000000E+00 -0.93277273195E+03  0.22538224884E+04  0.20517433659E+04 0.  0.
        2    1    3    3  502    0 -0.10209249051E+03 -0.13177709743E+03 -0.15783205085E+04  0.15870991486E+04  0.25500000920E-02 0. -1.
       -2    1    3    3    0  502  0.10209249051E+03  0.13177709743E+03  0.64554777653E+03  0.66672333978E+03  0.25500000920E-02 0.  1.
</event>
<event>
 5   0  0.5933905E-05  0.2077854E+04  0.7818609E-02  0.8571062E-01
       -1   -1    0    0    0  501  0.00000000000E+00  0.00000000000E+00  0.63309503044E+03  0.63309503046E+03  0.50400001928E-02 0.  1.
        1   -1    0    0  501    0  0.00000000000E+00  0.00000000000E+00 -0.17049088069E+04  0.17049088069E+04  0.50400001928E-02 0. -1.
    10030    2    1    2    0    0  0.00000000000E+00  0.00000000000E+00 -0.10718137764E+04  0.23380038373E+04  0.20778539824E+04 0.  0.
        2    1    3    3  502    0  0.69219521424E+03 -0.14803043424E+03  0.31978039415E+03  0.77672821796E+03  0.25500000920E-02 0.  1.
       -2    1    3    3    0  502 -0.69219521424E+03  0.14803043424E+03 -0.13915941706E+04  0.15612756194E+04  0.25500000920E-02 0. -1.
</event>
<event>
 5   0  0.6221148E-05  0.2030457E+04  0.7818609E-02  0.8592512E-01
       -1   -1    0    0    0  501  0.00000000000E+00  0.00000000000E+00  0.97278923022E+03  0.97278923023E+03  0.50400001928E-02 0. -1.
        1   -1    0    0  501    0  0.00000000000E+00  0.00000000000E+00 -0.10595193045E+04  0.10595193045E+04  0.50400001928E-02 0.  1.
    10030    2    1    2    0    0  0.00000000000E+00  0.00000000000E+00 -0.86730074241E+02  0.20323085347E+04  0.20304570605E+04 0.  0.
        3    1    3    3  502    0 -0.99328074179E+03 -0.97429587619E+02 -0.22951796380E+03  0.10240984633E+04  0.10100000352E+00 0.  1.
       -3    1    3    3    0  502  0.99328074179E+03  0.97429587619E+02  0.14278788956E+03  0.10082100714E+04  0.10100000352E+00 0. -1.
</event>
<event>
 5   0  0.5933905E-05  0.2158991E+04  0.7818609E-02  0.8535694E-01
        1   -1    0    0  501    0  0.00000000000E+00  0.00000000000E+00  0.85414656831E+03  0.85414656832E+03  0.50400001928E-02 0.  1.
       -1   -1    0    0    0  501  0.00000000000E+00  0.00000000000E+00 -0.13642976170E+04  0.13642976170E+04  0.50400001928E-02 0. -1.
    10030    2    1    2    0    0  0.00000000000E+00  0.00000000000E+00 -0.51015104873E+03  0.22184441854E+04  0.21589906232E+04 0.  0.
        2    1    3    3  502    0  0.87620975686E+03 -0.62737557041E+03 -0.31978987101E+03  0.11241037345E+04  0.25500000920E-02 0.  1.
       -2    1    3    3    0  502 -0.87620975686E+03  0.62737557041E+03 -0.19036117772E+03  0.10943404508E+04  0.25500000920E-02 0. -1.
</event>
<event>
 5   0  0.1349252E-04  0.1908151E+04  0.7818609E-02  0.8650810E-01
       -2   -1    0    0    0  501  0.00000000000E+00  0.00000000000E+00  0.48354371811E+03  0.48354371812E+03  0.25500000920E-02 0.  1.
        2   -1    0    0  501    0  0.00000000000E+00  0.00000000000E+00 -0.18824770929E+04  0.18824770929E+04  0.25500000920E-02 0. -1.
    10030    2    1    2    0    0  0.00000000000E+00  0.00000000000E+00 -0.13989333748E+04  0.23660208110E+04  0.19081509089E+04 0.  0.
        2    1    3    3  502    0  0.82597774799E+03 -0.83625549123E+02 -0.12824135880E+04  0.15276835678E+04  0.25500000920E-02 0. -1.
       -2    1    3    3    0  502 -0.82597774799E+03  0.83625549123E+02 -0.11651978680E+03  0.83833724322E+03  0.25500000920E-02 0.  1.
</event>
<event>
 5   0  0.1349252E-04  0.2129867E+04  0.7818609E-02  0.8548200E-01
        2   -1    0    0  501    0  0.00000000000E+00  0.00000000000E+00  0.12164784696E+04  0.12164784696E+04  0.25500000920E-02 0.  1.
       -2   -1    0    0    0  501  0.00000000000E+00  0.00000000000E+00 -0.93226728540E+03  0.93226728540E+03  0.25500000920E-02 0. -1.
    10030    2    1    2    0    0  0.00000000000E+00  0.00000000000E+00  0.28421118424E+03  0.21487457550E+04  0.21298667382E+04 0.  0.
        2    1    3    3  502    0 -0.18466893015E+03 -0.52659523487E+03  0.10571612751E+04  0.11954058376E+04  0.25500000920E-02 0.  1.
       -2    1    3    3    0  502  0.18466893015E+03  0.52659523487E+03 -0.77295009084E+03  0.95333991739E+03  0.25500000920E-02 0. -1.
</event>
<event>
 5   0  0.1281470E-04  0.2224937E+04  0.7818609E-02  0.8508120E-01
        2   -1    0    0  501    0  0.00000000000E+00  0.00000000000E+00  0.18114601973E+04  0.18114601973E+04  0.25500000920E-02 0. -1.
       -2   -1    0    0    0  501  0.00000000000E+00  0.00000000000E+00 -0.68319834300E+03  0.68319834301E+03  0.25500000920E-02 0.  1.
    10030    2    1    2    0    0  0.00000000000E+00  0.00000000000E+00  0.11282618543E+04  0.24946585403E+04  0.22249373970E+04 0.  0.
        3    1    3    3  502    0 -0.41322983989E+03 -0.95973225311E+03  0.99217178354E+03  0.14409197606E+04  0.10100000352E+00 0.  1.
       -3    1    3    3    0  502  0.41322983989E+03  0.95973225311E+03  0.13609007073E+03  0.10537387797E+04  0.10100000352E+00 0. -1.
</event>
<event>
 5   0  0.6052292E-05  0.2112649E+04  0.7818609E-02  0.8555692E-01
        1   -1    0    0  501    0  0.00000000000E+00  0.00000000000E+00  0.13881915415E+04  0.13881915415E+04  0.50400001928E-02 0.  1.
       -1   -1    0    0    0  501  0.00000000000E+00  0.00000000000E+00 -0.80379479310E+03  0.80379479311E+03  0.50400001928E-02 0. -1.
    10030    2    1    2    0    0  0.00000000000E+00  0.00000000000E+00  0.58439674841E+03  0.21919863346E+04  0.21126487005E+04 0.  0.
        1    1    3    3  502    0 -0.15909618382E+03  0.69030472076E+03 -0.52080215047E+03  0.87924233472E+03  0.50400001928E-02 0. -1.
       -1    1    3    3    0  502  0.15909618382E+03 -0.69030472076E+03  0.11051988989E+04  0.13127439999E+04  0.50400001928E-02 0.  1.
</event>
<event>
 5   0  0.5933905E-05  0.2091286E+04  0.7818609E-02  0.8565092E-01
       -1   -1    0    0    0  501  0.00000000000E+00  0.00000000000E+00  0.81524998301E+03  0.81524998303E+03  0.50400001928E-02 0. -1.
        1   -1    0    0  501    0  0.00000000000E+00  0.00000000000E+00 -0.13411464850E+04  0.13411464850E+04  0.50400001928E-02 0.  1.
    10030    2    1    2    0    0  0.00000000000E+00  0.00000000000E+00 -0.52589650199E+03  0.21563964680E+04  0.20912863497E+04 0.  0.
        2    1    3    3  502    0 -0.85004471567E+03 -0.60410987296E+03 -0.18411610480E+03  0.10589728501E+04  0.25500000920E-02 0.  1.
       -2    1    3    3    0  502  0.85004471567E+03  0.60410987296E+03 -0.34178039719E+03  0.10974236179E+04  0.25500000920E-02 0. -1.
</event>
<event>
 5   0  0.5933905E-05  0.2123275E+04  0.7818609E-02  0.8551060E-01
        1   -1    0    0  501    0  0.00000000000E+00  0.00000000000E+00  0.10540413340E+04  0.10540413340E+04  0.50400001928E-02 0.  1.
       -1   -1    0    0    0  501  0.00000000000E+00  0.00000000000E+00 -0.10692879397E+04  0.10692879397E+04  0.50400001928E-02 0. -1.
    10030    2    1    2    0    0  0.00000000000E+00  0.00000000000E+00 -0.15246605716E+02  0.21233292737E+04  0.21232745337E+04 0.  0.
        2    1    3    3  502    0 -0.53503410615E+03  0.53510332670E+02 -0.92304235590E+03  0.10682378205E+04  0.25500000920E-02 0. -1.
       -2    1    3    3    0  502  0.53503410615E+03 -0.53510332670E+02  0.90779575019E+03  0.10550914532E+04  0.25500000920E-02 0.  1.
</event>
<event>
 5   0  0.1281470E-04  0.2183974E+04  0.7818609E-02  0.8525128E-01
       -2   -1    0    0    0  501  0.00000000000E+00  0.00000000000E+00  0.91337108439E+03  0.91337108439E+03  0.25500000920E-02 0. -1.
        2   -1    0    0  501    0  0.00000000000E+00  0.00000000000E+00 -0.13055324901E+04  0.13055324901E+04  0.25500000920E-02 0.  1.
    10030    2    1    2    0    0  0.00000000000E+00  0.00000000000E+00 -0.39216140571E+03  0.22189035745E+04  0.21839740165E+04 0.  0.
        3    1    3    3  502    0 -0.33244026942E+03  0.27858140285E+03 -0.12142621454E+04  0.12894016825E+04  0.10100000352E+00 0.  1.
       -3    1    3    3    0  502  0.33244026942E+03 -0.27858140285E+03  0.82210073974E+03  0.92950189200E+03  0.10100000352E+00 0. -1.
</event>
<event>
 5   0  0.1349252E-04  0.2072653E+04  0.7818609E-02  0.8573386E-01
        2   -1    0    0  501    0  0.00000000000E+00  0.00000000000E+00  0.84788847521E+03  0.84788847521E+03  0.25500000920E-02 0.  1.
       -2   -1    0    0    0  501  0.00000000000E+00  0.00000000000E+00 -0.12666441238E+04  0.12666441238E+04  0.25500000920E-02 0. -1.
    10030    2    1    2    0    0  0.00000000000E+00  0.00000000000E+00 -0.41875564862E+03  0.21145325990E+04  0.20726533283E+04 0.  0.
        2    1    3    3  502    0 -0.33556960256E+03  0.90390847448E+03 -0.59694247204E+03  0.11340184317E+04  0.25500000920E-02 0. -1.
       -2    1    3    3    0  502  0.33556960256E+03 -0.90390847448E+03  0.17818682342E+03  0.98051416739E+03  0.25500000920E-02 0.  1.
</event>
<event>
 5   0  0.1349252E-04  0.2097496E+04  0.7818609E-02  0.8562347E-01
        2   -1    0    0  501    0  0.00000000000E+00  0.00000000000E+00  0.10965728100E+04  0.10965728100E+04  0.25500000920E-02 0. -1.
       -2   -1    0    0    0  501  0.00000000000E+00  0.00000000000E+00 -0.10030090166E+04  0.10030090166E+04  0.25500000920E-02 0.  1.
    10030    2    1    2    0    0  0.00000000000E+00  0.00000000000E+00  0.93563793411E+02  0.20995818266E+04  0.20974960461E+04 0.  0.
        2    1    3    3  502    0  0.68597780583E+03 -0.77297251930E+03  0.22534187776E+03  0.10577480927E+04  0.25500000920E-02 0.  1.
       -2    1    3    3    0  502 -0.68597780583E+03  0.77297251930E+03 -0.13177808435E+03  0.10418337340E+04  0.25500000920E-02 0. -1.
</event>
<event>
 5   0  0.6263616E-05  0.2091549E+04  0.7818609E-02  0.8564975E-01
       -1   -1    0    0    0  501  0.00000000000E+00  0.00000000000E+00  0.63047905928E+03  0.63047905930E+03  0.50400001928E-02 0.  1.
        1   -1    0    0  501    0  0.00000000000E+00  0.00000000000E+00 -0.17346247581E+04  0.17346247582E+04  0.50400001928E-02 0. -1.
    10030    2    1    2    0    0  0.00000000000E+00  0.00000000000E+00 -0.11041456989E+04  0.23651038175E+04  0.20915492686E+04 0.  0.
        4    1    3    3  502    0 -0.36404505579E+03 -0.49053500417E+03  0.40776077946E+03  0.73445480400E+03  0.12699999809E+01 0.  1.
       -4    1    3    3    0  502  0.36404505579E+03  0.49053500417E+03 -0.15119064783E+04  0.16306490134E+04  0.12699999809E+01 0. -1.
</event>
<event>
 5   0  0.4615125E-05  0.2053920E+04  0.7818609E-02  0.8581818E-01
        3   -1    0    0  501    0  0.00000000000E+00  0.00000000000E+00  0.79381347187E+03  0.79381347829E+03  0.10100000352E+00 0.  1.
       -3   -1    0    0    0  501  0.00000000000E+00  0.00000000000E+00 -0.13285832283E+04  0.13285832322E+04  0.10100000352E+00 0. -1.
    10030    2    1    2    0    0  0.00000000000E+00  0.00000000000E+00 -0.53476975646E+03  0.21223967105E+04  0.20539204230E+04 0.  0.
        2    1    3    3  502    0  0.76133442214E+03 -0.37009536317E+03 -0.86818669051E+03  0.12125794035E+04  0.25500000920E-02 0. -1.
       -2    1    3    3    0  502 -0.76133442214E+03  0.37009536317E+03  0.33341693404E+03  0.90981730698E+03  0.25500000920E-02 0.  1.
</event>
<event>
 5   0  0.1235817E-04  0.2103857E+04  0.7818609E-02  0.8559546E-01
       -2   -1    0    0    0  501  0.00000000000E+00  0.00000000000E+00  0.10131632805E+04  0.10131632805E+04  0.25500000920E-02 0.  1.
        2   -1    0    0  501    0  0.00000000000E+00  0.00000000000E+00 -0.10921771108E+04  0.10921771108E+04  0.25500000920E-02 0. -1.
    10030    2    1    2    0    0  0.00000000000E+00  0.00000000000E+00 -0.79013830285E+02  0.21053403913E+04  0.21038571667E+04 0.  0.
        1    1    3    3  502    0  0.17729315102E+03  0.77653747024E+03  0.64808042705E+03  0.10268649103E+04  0.50400001928E-02 0.  1.
       -1    1    3    3    0  502 -0.17729315102E+03 -0.77653747024E+03 -0.72709425734E+03  0.10784754810E+04  0.50400001928E-02 0. -1.
</event>
<event>
 5   0  0.1281470E-04  0.2093004E+04  0.7818609E-02  0.8564332E-01
        2   -1    0    0  501    0  0.00000000000E+00  0.00000000000E+00  0.21155333067E+04  0.21155333067E+04  0.25500000920E-02 0. -1.
       -2   -1    0    0    0  501  0.00000000000E+00  0.00000000000E+00 -0.51767843331E+03  0.51767843332E+03  0.25500000920E-02 0.  1.
    10030    2    1    2    0    0  0.00000000000E+00  0.00000000000E+00  0.15978548734E+04  0.26332117400E+04  0.20930035526E+04 0.  0.
        3    1    3    3  502    0 -0.30433290769E+03 -0.70088484816E+03 -0.10068832376E+03  0.77071151401E+03  0.10100000352E+00 0.  1.
       -3    1    3    3    0  502  0.30433290769E+03  0.70088484816E+03  0.16985431972E+04  0.18625002260E+04  0.10100000352E+00 0. -1.
</event>
<event>
 5   0  0.5933905E-05  0.2129172E+04  0.7818609E-02  0.8548501E-01
       -1   -1    0    0    0  501  0.00000000000E+00  0.00000000000E+00  0.87363177802E+03  0.87363177804E+03  0.50400001928E-02 0.  1.
        1   -1    0    0  501    0  0.00000000000E+00  0.00000000000E+00 -0.12972775067E+04  0.12972775067E+04  0.50400001928E-02 0. -1.
    10030    2    1    2    0    0  0.00000000000E+00  0.00000000000E+00 -0.42364572870E+03  0.21709092848E+04  0.21291715335E+04 0.  0.
        2    1    3    3  502    0 -0.22739938872E+03  0.10398965279E+04 -0.22786611612E+03  0.10885854296E+04  0.25500000920E-02 0.  1.
       -2    1    3    3    0  502  0.22739938872E+03 -0.10398965279E+04 -0.19577961258E+03  0.10823238551E+04  0.25500000920E-02 0. -1.
</event>
<event>
 5   0  0.1281470E-04  0.2215901E+04  0.7818609E-02  0.8511839E-01
        2   -1    0    0  501    0  0.00000000000E+00  0.00000000000E+00  0.18962602697E+04  0.18962602697E+04  0.25500000920E-02 0.  1.
       -2   -1    0    0    0  501  0.00000000000E+00  0.00000000000E+00 -0.64735536233E+03  0.64735536233E+03  0.25500000920E-02 0. -1.
    10030    2    1    2    0    0  0.00000000000E+00  0.00000000000E+00  0.12489049073E+04  0.25436156320E+04  0.22159009490E+04 0.  0.
        3    1    3    3  502    0  0.76649071715E+03 -0.67807058126E+03  0.13708259305E+03  0.10325112010E+04  0.10100000352E+00 0. -1.
       -3    1    3    3    0  502 -0.76649071715E+03  0.67807058126E+03  0.11118223143E+04  0.15111044310E+04  0.10100000352E+00 0.  1.
</event>
<event>
 5   0  0.1349252E-04  0.2075209E+04  0.7818609E-02  0.8572243E-01
       -2   -1    0    0    0  501  0.00000000000E+00  0.00000000000E+00  0.95480493548E+03  0.95480493548E+03  0.25500000920E-02 0.  1.
        2   -1    0    0  501    0  0.00000000000E+00  0.00000000000E+00 -0.11275842626E+04  0.11275842626E+04  0.25500000920E-02 0. -1.
    10030    2    1    2    0    0  0.00000000000E+00  0.00000000000E+00 -0.17277932713E+03  0.20823891981E+04  0.20752089236E+04 0.  0.
        2    1    3    3  502    0 -0.48637792138E+03  0.90986042609E+03 -0.19728694151E+03  0.10503959323E+04  0.25500000920E-02 0.  1.
       -2    1    3    3    0  502  0.48637792138E+03 -0.90986042609E+03  0.24507614387E+02  0.10319932657E+04  0.25500000920E-02 0. -1.
</event>
<event>
 5   0  0.1281470E-04  0.2067984E+04  0.7818609E-02  0.8575479E-01
        2   -1    0    0  501    0  0.00000000000E+00  0.00000000000E+00  0.16111269602E+04  0.16111269602E+04  0.25500000920E-02 0.  1.
       -2   -1    0    0    0  501  0.00000000000E+00  0.00000000000E+00 -0.66359705540E+03  0.66359705541E+03  0.25500000920E-02 0. -1.
    10030    2    1    2    0    0  0.00000000000E+00  0.00000000000E+00  0.94752990481E+03  0.22747240156E+04  0.20679836621E+04 0.  0.
        3    1    3    3  502    0  0.52351462215E+03 -0.66128402065E+03  0.11317054107E+04  0.14114252593E+04  0.10100000352E+00 0.  1.
       -3    1    3    3    0  502 -0.52351462215E+03  0.66128402065E+03 -0.18417550592E+03  0.86329875637E+03  0.10100000352E+00 0. -1.
</event>
<event>
 5   0  0.5846187E-05  0.2080164E+04  0.7818609E-02  0.8570032E-01
        1   -1    0    0  501    0  0.00000000000E+00  0.00000000000E+00  0.14682394974E+04  0.14682394974E+04  0.50400001928E-02 0.  1.
       -1   -1    0    0    0  501  0.00000000000E+00  0.00000000000E+00 -0.73678083953E+03  0.73678083955E+03  0.50400001928E-02 0. -1.
    10030    2    1    2    0    0  0.00000000000E+00  0.00000000000E+00  0.73145865785E+03  0.22050203369E+04  0.20801641565E+04 0.  0.
        5    1    3    3  502    0 -0.66535606302E+03 -0.71525232860E+03 -0.12720973380E+02  0.97696903601E+03  0.46999998093E+01 0.  1.
       -5    1    3    3    0  502  0.66535606302E+03  0.71525232860E+03  0.74417963123E+03  0.12280513009E+04  0.46999998093E+01 0. -1.
</event>
<event>
 5   0  0.5846187E-05  0.2068828E+04  0.7818609E-02  0.8575101E-01
       -1   -1    0    0    0  501  0.00000000000E+00  0.00000000000E+00  0.64399215692E+03  0.64399215694E+03  0.50400001928E-02 0.  1.
        1   -1    0    0  501    0  0.00000000000E+00  0.00000000000E+00 -0.16615302535E+04  0.16615302535E+04  0.50400001928E-02 0. -1.
    10030    2    1    2    0    0  0.00000000000E+00  0.00000000000E+00 -0.10175380966E+04  0.23055224105E+04  0.20688281241E+04 0.  0.
        5    1    3    3  502    0  0.18575689578E+03  0.72874467813E+01  0.62521161883E+03  0.65228091305E+03  0.46999998093E+01 0.  1.
       -5    1    3    3    0  502 -0.18575689578E+03 -0.72874467813E+01 -0.16427497154E+04  0.16532414974E+04  0.46999998093E+01 0. -1.
</event>
<event>
 5   0  0.1235817E-04  0.2006747E+04  0.7818609E-02  0.8603473E-01
       -2   -1    0    0    0  501  0.00000000000E+00  0.00000000000E+00  0.66931202699E+03  0.66931202699E+03  0.25500000920E-02 0. -1.
        2   -1    0    0  501    0  0.00000000000E+00  0.00000000000E+00 -0.15041685749E+04  0.15041685749E+04  0.25500000920E-02 0.  1.
    10030    2    1    2    0    0  0.00000000000E+00  0.00000000000E+00 -0.83485654795E+03  0.21734806019E+04  0.20067467382E+04 0.  0.
        1    1    3    3  502    0  0.41380278011E+03 -0.55772053322E+03  0.36694871900E+03  0.78545292437E+03  0.50400001928E-02 0. -1.
       -1    1    3    3    0  502 -0.41380278011E+03  0.55772053322E+03 -0.12018052670E+04  0.13880276776E+04  0.50400001928E-02 0.  1.
</event>
<event>
 5   0  0.5933905E-05  0.2116428E+04  0.7818609E-02  0.8554041E-01
        1   -1    0    0  501    0  0.00000000000E+00  0.00000000000E+00  0.13087656373E+04  0.13087656373E+04  0.50400001928E-02 0. -1.
       -1   -1    0    0    0  501  0.00000000000E+00  0.00000000000E+00 -0.85562820728E+03  0.85562820729E+03  0.50400001928E-02 0.  1.
    10030    2    1    2    0    0  0.00000000000E+00  0.00000000000E+00  0.45313743002E+03  0.21643938446E+04  0.21164279303E+04 0.  0.
        2    1    3    3  502    0  0.66911503886E+02  0.23440057241E+03 -0.82652458591E+03  0.86172134059E+03  0.25500000920E-02 0.  1.
       -2    1    3    3    0  502 -0.66911503886E+02 -0.23440057241E+03  0.12796620159E+04  0.13026725040E+04  0.25500000920E-02 0. -1.
</event>
<event>
 5   0  0.1349252E-04  0.2037376E+04  0.7818609E-02  0.8589343E-01
        2   -1    0    0  501    0  0.00000000000E+00  0.00000000000E+00  0.12323802202E+04  0.12323802202E+04  0.25500000920E-02 0.  1.
       -2   -1    0    0    0  501  0.00000000000E+00  0.00000000000E+00 -0.84204983069E+03  0.84204983069E+03  0.25500000920E-02 0. -1.
    10030    2    1    2    0    0  0.00000000000E+00  0.00000000000E+00  0.39033038949E+03  0.20744300509E+04  0.20373763086E+04 0.  0.
        2    1    3    3  502    0 -0.51460267016E+03  0.35854895481E+03 -0.62214936043E+03  0.88342690010E+03  0.25500000920E-02 0. -1.
       -2    1    3    3    0  502  0.51460267016E+03 -0.35854895481E+03  0.10124797499E+04  0.11910031508E+04  0.25500000920E-02 0.  1.
</event>
<event>
 5   0  0.6052292E-05  0.2031087E+04  0.7818609E-02  0.8592223E-01
        1   -1    0    0  501    0  0.00000000000E+00  0.00000000000E+00  0.17827879722E+04  0.17827879722E+04  0.50400001928E-02 0. -1.
       -1   -1    0    0    0  501  0.00000000000E+00  0.00000000000E+00 -0.57849189587E+03  0.57849189590E+03  0.50400001928E-02 0.  1.
    10030    2    1    2    0    0  0.00000000000E+00  0.00000000000E+00  0.12042960764E+04  0.23612798681E+04  0.20310867968E+04 0.  0.
        1    1    3    3  502    0 -0.11124671666E+03  0.18035337213E+03 -0.55250383856E+03  0.59174628216E+03  0.50400001928E-02 0.  1.
       -1    1    3    3    0  502  0.11124671666E+03 -0.18035337213E+03  0.17567999149E+04  0.17695335860E+04  0.50400001928E-02 0. -1.
</event>
<event>
 5   0  0.1252477E-04  0.2120710E+04  0.7818609E-02  0.8552175E-01
        2   -1    0    0  501    0  0.00000000000E+00  0.00000000000E+00  0.11441872813E+04  0.11441872813E+04  0.25500000920E-02 0.  1.
       -2   -1    0    0    0  501  0.00000000000E+00  0.00000000000E+00 -0.98266490238E+03  0.98266490238E+03  0.25500000920E-02 0. -1.
    10030    2    1    2    0    0  0.00000000000E+00  0.00000000000E+00  0.16152237892E+03  0.21268521837E+04  0.21207099595E+04 0.  0.
        4    1    3    3  502    0 -0.55685018121E+03  0.74671053239E+03  0.58887672636E+03  0.11020145894E+04  0.12699999809E+01 0.  1.
       -4    1    3    3    0  502  0.55685018121E+03 -0.74671053239E+03 -0.42735434744E+03  0.10248375943E+04  0.12699999809E+01 0. -1.
</event>
<event>
 5   0  0.6263616E-05  0.2092015E+04  0.7818609E-02  0.8564769E-01
        1   -1    0    0  501    0  0.00000000000E+00  0.00000000000E+00  0.68803380767E+03  0.68803380769E+03  0.50400001928E-02 0. -1.
       -1   -1    0    0    0  501  0.00000000000E+00  0.00000000000E+00 -0.15902288037E+04  0.15902288037E+04  0.50400001928E-02 0.  1.
    10030    2    1    2    0    0  0.00000000000E+00  0.00000000000E+00 -0.90219499607E+03  0.22782626114E+04  0.20920145114E+04 0.  0.
        4    1    3    3  502    0 -0.55081652872E+03  0.18103953580E+03  0.49701728291E+03  0.76367660319E+03  0.12699999809E+01 0. -1.
       -4    1    3    3    0  502  0.55081652872E+03 -0.18103953580E+03 -0.13992122790E+04  0.15145860082E+04  0.12699999809E+01 0.  1.
</event>
<event>
 5   0  0.1325673E-04  0.2142077E+04  0.7818609E-02  0.8542931E-01
        2   -1    0    0  501    0  0.00000000000E+00  0.00000000000E+00  0.14920346666E+04  0.14920346666E+04  0.25500000920E-02 0. -1.
       -2   -1    0    0    0  501  0.00000000000E+00  0.00000000000E+00 -0.76883164981E+03  0.76883164981E+03  0.25500000920E-02 0.  1.
    10030    2    1    2    0    0  0.00000000000E+00  0.00000000000E+00  0.72320301679E+03  0.22608663164E+04  0.21420770054E+04 0.  0.
        5    1    3    3  502    0  0.23279871189E+03 -0.19331284844E+03 -0.72276573085E+03  0.78356715687E+03  0.46999998093E+01 0.  1.
       -5    1    3    3    0  502 -0.23279871189E+03  0.19331284844E+03  0.14459687476E+04  0.14772991595E+04  0.46999998093E+01 0. -1.
</event>
<event>
 5   0  0.5933905E-05  0.2096304E+04  0.7818609E-02  0.8562873E-01
       -1   -1    0    0    0  501  0.00000000000E+00  0.00000000000E+00  0.70939873837E+03  0.70939873839E+03  0.50400001928E-02 0.  1.
        1   -1    0    0  501    0  0.00000000000E+00  0.00000000000E+00 -0.15486666003E+04  0.15486666004E+04  0.50400001928E-02 0. -1.
    10030    2    1    2    0    0  0.00000000000E+00  0.00000000000E+00 -0.83926786197E+03  0.22580653387E+04  0.20963035395E+04 0.  0.
        2    1    3    3  502    0 -0.30012313570E+03 -0.85108524092E+03 -0.99387733472E+03  0.13424649494E+04  0.25500000920E-02 0. -1.
       -2    1    3    3    0  502  0.30012313570E+03  0.85108524092E+03  0.15460947275E+03  0.91560038934E+03  0.25500000920E-02 0.  1.
</event>
<event>
 5   0  0.5846187E-05  0.2108280E+04  0.7818609E-02  0.8557605E-01
        1   -1    0    0  501    0  0.00000000000E+00  0.00000000000E+00  0.77109982282E+03  0.77109982284E+03  0.50400001928E-02 0.  1.
       -1   -1    0    0    0  501  0.00000000000E+00  0.00000000000E+00 -0.14410732911E+04  0.14410732911E+04  0.50400001928E-02 0. -1.
    10030    2    1    2    0    0  0.00000000000E+00  0.00000000000E+00 -0.66997346827E+03  0.22121731139E+04  0.21082802086E+04 0.  0.
        5    1    3    3  502    0  0.99058675271E+03 -0.97801006642E+01 -0.71306422553E+03  0.12205902034E+04  0.46999998093E+01 0.  1.
       -5    1    3    3    0  502 -0.99058675271E+03  0.97801006642E+01  0.43090757267E+02  0.99158291049E+03  0.46999998093E+01 0. -1.
</event>
<event>
 5   0  0.1235817E-04  0.2085227E+04  0.7818609E-02  0.8567779E-01
        2   -1    0    0  501    0  0.00000000000E+00  0.00000000000E+00  0.12824066689E+04  0.12824066689E+04  0.25500000920E-02 0. -1.
       -2   -1    0    0    0  501  0.00000000000E+00  0.00000000000E+00 -0.84765886334E+03  0.84765886335E+03  0.25500000920E-02 0.  1.
    10030    2    1    2    0    0  0.00000000000E+00  0.00000000000E+00  0.43474780556E+03  0.21300655322E+04  0.20852274498E+04 0.  0.
        1    1    3    3  502    0  0.98880031690E+03 -0.28398846836E+03  0.44417283625E+02  0.10297322040E+04  0.50400001928E-02 0. -1.
       -1    1    3    3    0  502 -0.98880031690E+03  0.28398846836E+03  0.39033052193E+03  0.11003333282E+04  0.50400001928E-02 0.  1.
</event>
<event>
 5   0  0.6221148E-05  0.2117552E+04  0.7818609E-02  0.8553551E-01
       -1   -1    0    0    0  501  0.00000000000E+00  0.00000000000E+00  0.12141261683E+04  0.12141261684E+04  0.50400001928E-02 0. -1.
        1   -1    0    0  501    0  0.00000000000E+00  0.00000000000E+00 -0.92330358262E+03  0.92330358264E+03  0.50400001928E-02 0.  1.
    10030    2    1    2    0    0  0.00000000000E+00  0.00000000000E+00  0.29082258573E+03  0.21374297510E+04  0.21175523994E+04 0.  0.
        3    1    3    3  502    0  0.26011681596E+03 -0.72569802498E+03  0.87797080056E+03  0.11683882566E+04  0.10100000352E+00 0. -1.
       -3    1    3    3    0  502 -0.26011681596E+03  0.72569802498E+03 -0.58714821483E+03  0.96904149436E+03  0.10100000352E+00 0.  1.
</event>
<event>
 5   0  0.1235817E-04  0.2105616E+04  0.7818609E-02  0.8558774E-01
       -2   -1    0    0    0  501  0.00000000000E+00  0.00000000000E+00  0.69381688176E+03  0.69381688176E+03  0.25500000920E-02 0.  1.
        2   -1    0    0  501    0  0.00000000000E+00  0.00000000000E+00 -0.15975462162E+04  0.15975462162E+04  0.25500000920E-02 0. -1.
    10030    2    1    2    0    0  0.00000000000E+00  0.00000000000E+00 -0.90372933441E+03  0.22913630979E+04  0.21056158569E+04 0.  0.
        1    1    3    3  502    0  0.34802655394E+03 -0.73702407618E+03  0.27331261030E+03  0.85966665289E+03  0.50400001928E-02 0.  1.
       -1    1    3    3    0  502 -0.34802655394E+03  0.73702407618E+03 -0.11770419447E+04  0.14316964450E+04  0.50400001928E-02 0. -1.
</event>
<event>
 5   0  0.6221148E-05  0.2095154E+04  0.7818609E-02  0.8563381E-01
        1   -1    0    0  501    0  0.00000000000E+00  0.00000000000E+00  0.13906984624E+04  0.13906984624E+04  0.50400001928E-02 0. -1.
       -1   -1    0    0    0  501  0.00000000000E+00  0.00000000000E+00 -0.78911247434E+03  0.78911247435E+03  0.50400001928E-02 0.  1.
    10030    2    1    2    0    0  0.00000000000E+00  0.00000000000E+00  0.60158598804E+03  0.21798109367E+04  0.20951539368E+04 0.  0.
        3    1    3    3  502    0 -0.27477270438E+02 -0.39131142630E+03 -0.70981459671E+03  0.81099716685E+03  0.10100000352E+00 0.  1.
       -3    1    3    3    0  502  0.27477270438E+02  0.39131142630E+03  0.13114005847E+04  0.13688137699E+04  0.10100000352E+00 0. -1.
</event>
<event>
 5   0  0.5846187E-05  0.2074586E+04  0.7818609E-02  0.8572522E-01
       -1   -1    0    0    0  501  0.00000000000E+00  0.00000000000E+00  0.10659307012E+04  0.10659307013E+04  0.50400001928E-02 0. -1.
        1   -1    0    0  501    0  0.00000000000E+00  0.00000000000E+00 -0.10094248229E+04  0.10094248229E+04  0.50400001928E-02 0.  1.
    10030    2    1    2    0    0  0.00000000000E+00  0.00000000000E+00  0.56505878361E+02  0.20753555242E+04  0.20745861364E+04 0.  0.
        5    1    3    3  502    0  0.67911860463E+03  0.62396561702E+03 -0.44670693249E+03  0.10247459899E+04  0.46999998093E+01 0.  1.
       -5    1    3    3    0  502 -0.67911860463E+03 -0.62396561702E+03  0.50321281085E+03  0.10506095342E+04  0.46999998093E+01 0. -1.
</event>
<event>
 5   0  0.1252477E-04  0.2088014E+04  0.7818609E-02  0.8566542E-01
        2   -1    0    0  501    0  0.00000000000E+00  0.00000000000E+00  0.44757378094E+03  0.44757378095E+03  0.25500000920E-02 0.  1.
       -2   -1    0    0    0  501  0.00000000000E+00  0.00000000000E+00 -0.24352411897E+04  0.24352411897E+04  0.25500000920E-02 0. -1.
    10030    2    1    2    0    0  0.00000000000E+00  0.00000000000E+00 -0.19876674087E+04  0.28828149706E+04  0.20880135122E+04 0.  0.
        4    1    3    3  502    0 -0.35527888529E+03 -0.51539077049E+03  0.15973000944E+03  0.64603871514E+03  0.12699999809E+01 0.  1.
       -4    1    3    3    0  502  0.35527888529E+03  0.51539077049E+03 -0.21473974182E+04  0.22367762555E+04  0.12699999809E+01 0. -1.
</event>
<event>
 5   0  0.1349252E-04  0.2093692E+04  0.7818609E-02  0.8564027E-01
        2   -1    0    0  501    0  0.00000000000E+00  0.00000000000E+00  0.28211843367E+04  0.28211843367E+04  0.25500000920E-02 0. -1.
       -2   -1    0    0    0  501  0.00000000000E+00  0.00000000000E+00 -0.38844901206E+03  0.38844901207E+03  0.25500000920E-02 0.  1.
    10030    2    1    2    0    0  0.00000000000E+00  0.00000000000E+00  0.24327353246E+04  0.32096333488E+04  0.20936917332E+04 0.  0.
        2    1    3    3  502    0  0.61943085876E+03  0.46703766392E+03  0.13882163791E+03  0.78809277085E+03  0.25500000920E-02 0.  1.
       -2    1    3    3    0  502 -0.61943085876E+03 -0.46703766392E+03  0.22939136867E+04  0.24215405779E+04  0.25500000920E-02 0. -1.
</event>
<event>
 5   0  0.6263616E-05  0.2145037E+04  0.7818609E-02  0.8541659E-01
       -1   -1    0    0    0  501  0.00000000000E+00  0.00000000000E+00  0.14367369474E+04  0.14367369474E+04  0.50400001928E-02 0. -1.
        1   -1    0    0  501    0  0.00000000000E+00  0.00000000000E+00 -0.80063115730E+03  0.80063115732E+03  0.50400001928E-02 0.  1.
    10030    2    1    2    0    0  0.00000000000E+00  0.00000000000E+00  0.63610579010E+03  0.22373681047E+04  0.21450374029E+04 0.  0.
        4    1    3    3  502    0 -0.45995504074E+03 -0.54224462012E+03 -0.51944500582E+03  0.88057514985E+03  0.12699999809E+01 0.  1.
       -4    1    3    3    0  502  0.45995504074E+03  0.54224462012E+03  0.11555507959E+04  0.13567929549E+04  0.12699999809E+01 0. -1.
</event>
<event>
 5   0  0.1325673E-04  0.2101240E+04  0.7818609E-02  0.8560697E-01
        2   -1    0    0  501    0  0.00000000000E+00  0.00000000000E+00  0.14813338433E+04  0.14813338433E+04  0.25500000920E-02 0.  1.
       -2   -1    0    0    0  501  0.00000000000E+00  0.00000000000E+00 -0.74514071438E+03  0.74514071439E+03  0.25500000920E-02 0. -1.
    10030    2    1    2    0    0  0.00000000000E+00  0.00000000000E+00  0.73619312891E+03  0.22264745577E+04  0.21012397847E+04 0.  0.
        5    1    3    3  502    0 -0.53285701586E+03 -0.87071108429E+03  0.10488517308E+03  0.10262053309E+04  0.46999998093E+01 0.  1.
       -5    1    3    3    0  502  0.53285701586E+03  0.87071108429E+03  0.63130795583E+03  0.12002692268E+04  0.46999998093E+01 0. -1.
</event>
<event>
 5   0  0.6052292E-05  0.2112318E+04  0.7818609E-02  0.8555837E-01
       -1   -1    0    0    0  501  0.00000000000E+00  0.00000000000E+00  0.19244313669E+04  0.19244313669E+04  0.50400001928E-02 0.  1.
        1   -1    0    0  501    0  0.00000000000E+00  0.00000000000E+00 -0.57963685129E+03  0.57963685131E+03  0.50400001928E-02 0. -1.
    10030    2    1    2    0    0  0.00000000000E+00  0.00000000000E+00  0.13447945156E+04  0.25040682182E+04  0.21123175311E+04 0.  0.
        1    1    3    3  502    0  0.58094726590E+03  0.49761030727E+02  0.17163397621E+04  0.18126770437E+04  0.50400001928E-02 0.  1.
       -1    1    3    3    0  502 -0.58094726590E+03 -0.49761030727E+02 -0.37154524647E+03  0.69139117448E+03  0.50400001928E-02 0. -1.
</event>
<event>
 5   0  0.1252477E-04  0.2055304E+04  0.7818609E-02  0.8581192E-01
       -2   -1    0    0    0  501  0.00000000000E+00  0.00000000000E+00  0.24688785981E+04  0.24688785981E+04  0.25500000920E-02 0. -1.
        2   -1    0    0  501    0  0.00000000000E+00  0.00000000000E+00 -0.42775253913E+03  0.42775253914E+03  0.25500000920E-02 0.  1.
    10030    2    1    2    0    0  0.00000000000E+00  0.00000000000E+00  0.20411260589E+04  0.28966311372E+04  0.20553044438E+04 0.  0.
        4    1    3    3  502    0 -0.37328570984E+03  0.89640926582E+03  0.14946888377E+04  0.17824107629E+04  0.12699999809E+01 0. -1.
       -4    1    3    3    0  502  0.37328570984E+03 -0.89640926582E+03  0.54643722121E+03  0.11142203744E+04  0.12699999809E+01 0.  1.
</event>
<event>
 5   0  0.5933905E-05  0.2073860E+04  0.7818609E-02  0.8572846E-01
       -1   -1    0    0    0  501  0.00000000000E+00  0.00000000000E+00  0.72932464846E+03  0.72932464848E+03  0.50400001928E-02 0. -1.
        1   -1    0    0  501    0  0.00000000000E+00  0.00000000000E+00 -0.14742733287E+04  0.14742733287E+04  0.50400001928E-02 0.  1.
    10030    2    1    2    0    0  0.00000000000E+00  0.00000000000E+00 -0.74494868022E+03  0.22035979772E+04  0.20738600504E+04 0.  0.
        2    1    3    3  502    0 -0.67410668771E+03 -0.75777133263E+03 -0.60181639457E+03  0.11793303997E+04  0.25500000920E-02 0.  1.
       -2    1    3    3    0  502  0.67410668771E+03  0.75777133263E+03 -0.14313228565E+03  0.10242675774E+04  0.25500000920E-02 0. -1.
</event>
<event>
 5   0  0.5933905E-05  0.2122618E+04  0.7818609E-02  0.8551345E-01
        1   -1    0    0  501    0  0.00000000000E+00  0.00000000000E+00  0.75778176548E+03  0.75778176550E+03  0.50400001928E-02 0.  1.
       -1   -1    0    0    0  501  0.00000000000E+00  0.00000000000E+00 -0.14864124767E+04  0.14864124768E+04  0.50400001928E-02 0. -1.
    10030    2    1    2    0    0  0.00000000000E+00  0.00000000000E+00 -0.72863071126E+03  0.22441942423E+04  0.21226175076E+04 0.  0.
        2    1    3    3  502    0  0.38642463844E+03  0.19464204370E+03 -0.13889288110E+04  0.14547621002E+04  0.25500000920E-02 0. -1.
       -2    1    3    3    0  502 -0.38642463844E+03 -0.19464204370E+03  0.66029809970E+03  0.78943214201E+03  0.25500000920E-02 0.  1.
</event>
<event>
 5   0  0.1349252E-04  0.2095279E+04  0.7818609E-02  0.8563326E-01
        2   -1    0    0  501    0  0.00000000000E+00  0.00000000000E+00  0.19330900873E+04  0.19330900873E+04  0.25500000920E-02 0. -1.
       -2   -1    0    0    0  501  0.00000000000E+00  0.00000000000E+00 -0.56776893819E+03  0.56776893820E+03  0.25500000920E-02 0.  1.
    10030    2    1    2    0    0  0.00000000000E+00  0.00000000000E+00  0.13653211492E+04  0.25008590255E+04  0.20952789851E+04 0.  0.
        2    1    3    3  502    0 -0.68470374003E+03  0.25859577084E+02 -0.26324573150E+03  0.73402060223E+03  0.25500000920E-02 0.  1.
       -2    1    3    3    0  502  0.68470374003E+03 -0.25859577084E+02  0.16285668807E+04  0.17668384233E+04  0.25500000920E-02 0. -1.
</event>
<event>
 5   0  0.5846187E-05  0.2087186E+04  0.7818609E-02  0.8566909E-01
        1   -1    0    0  501    0  0.00000000000E+00  0.00000000000E+00  0.30063646189E+04  0.30063646189E+04  0.50400001928E-02 0.  1.
       -1   -1    0    0    0  501  0.00000000000E+00  0.00000000000E+00 -0.36226016793E+03  0.36226016797E+03  0.50400001928E-02 0. -1.
    10030    2    1    2    0    0  0.00000000000E+00  0.00000000000E+00  0.26441044509E+04  0.33686247869E+04  0.20871858104E+04 0.  0.
        5    1    3    3  502    0  0.59886648169E+03 -0.81060744295E+03  0.88497542829E+03  0.13412416218E+04  0.46999998093E+01 0. -1.
       -5    1    3    3    0  502 -0.59886648169E+03  0.81060744295E+03  0.17591290227E+04  0.20273831650E+04  0.46999998093E+01 0.  1.
</event>
<event>
 5   0  0.6263616E-05  0.2104137E+04  0.7818609E-02  0.8559423E-01
       -1   -1    0    0    0  501  0.00000000000E+00  0.00000000000E+00  0.96824582365E+03  0.96824582366E+03  0.50400001928E-02 0. -1.
        1   -1    0    0  501    0  0.00000000000E+00  0.00000000000E+00 -0.11431475321E+04  0.11431475321E+04  0.50400001928E-02 0.  1.
    10030    2    1    2    0    0  0.00000000000E+00  0.00000000000E+00 -0.17490170847E+03  0.21113933558E+04  0.21041367102E+04 0.  0.
        4    1    3    3  502    0 -0.30633759765E+03  0.49831928749E+03 -0.96492727141E+03  0.11283842821E+04  0.12699999809E+01 0.  1.
       -4    1    3    3    0  502  0.30633759765E+03 -0.49831928749E+03  0.79002556294E+03  0.98300907372E+03  0.12699999809E+01 0. -1.
</event>
<event>
 5   0  0.5846187E-05  0.2133773E+04  0.7818609E-02  0.8546510E-01
        1   -1    0    0  501    0  0.00000000000E+00  0.00000000000E+00  0.11678007431E+04  0.11678007431E+04  0.50400001928E-02 0.  1.
       -1   -1    0    0    0  501  0.00000000000E+00  0.00000000000E+00 -0.97469248358E+03  0.97469248359E+03  0.50400001928E-02 0. -1.
    10030    2    1    2    0    0  0.00000000000E+00  0.00000000000E+00  0.19310825948E+03  0.21424932267E+04  0.21337728151E+04 0.  0.
        5    1    3    3  502    0  0.93068330607E+03 -0.50663581832E+03  0.22104975670E+03  0.10824677148E+04  0.46999998093E+01 0. -1.
       -5    1    3    3    0  502 -0.93068330607E+03  0.50663581832E+03 -0.27941497218E+02  0.10600255119E+04  0.46999998093E+01 0.  1.
</event>
<event>
 5   0  0.1349252E-04  0.2072388E+04  0.7818609E-02  0.8573505E-01
       -2   -1    0    0    0  501  0.00000000000E+00  0.00000000000E+00  0.55048073055E+03  0.55048073056E+03  0.25500000920E-02 0. -1.
        2   -1    0    0  501    0  0.00000000000E+00  0.00000000000E+00 -0.19504742370E+04  0.19504742370E+04  0.25500000920E-02 0.  1.
    10030    2    1    2    0    0  0.00000000000E+00  0.00000000000E+00 -0.13999935064E+04  0.25009549675E+04  0.20723884606E+04 0.  0.
        2    1    3    3  502    0  0.50175884846E+03 -0.50728423570E+02  0.39238119699E+03  0.63898225227E+03  0.25500000920E-02 0. -1.
       -2    1    3    3    0  502 -0.50175884846E+03  0.50728423570E+02 -0.17923747034E+04  0.18619727153E+04  0.25500000920E-02 0.  1.
</event>
<event>
 5   0  0.1349252E-04  0.2113671E+04  0.7818609E-02  0.8555245E-01
        2   -1    0    0  501    0  0.00000000000E+00  0.00000000000E+00  0.19136392848E+04  0.19136392848E+04  0.25500000920E-02 0. -1.
       -2   -1    0    0    0  501  0.00000000000E+00  0.00000000000E+00 -0.58365271861E+03  0.58365271862E+03  0.25500000920E-02 0.  1.
    10030    2    1    2    0    0  0.00000000000E+00  0.00000000000E+00  0.13299865662E+04  0.24972920034E+04  0.21136705240E+04 0.  0.
        2    1    3    3  502    0  0.42186636203E+03 -0.16851518475E+01 -0.47985485178E+03  0.63893250500E+03  0.25500000920E-02 0.  1.
       -2    1    3    3    0  502 -0.42186636203E+03  0.16851518475E+01  0.18098414179E+04  0.18583594984E+04  0.25500000920E-02 0. -1.
</event>
<event>
 5   0  0.6052292E-05  0.2150607E+04  0.7818609E-02  0.8539272E-01
        1   -1    0    0  501    0  0.00000000000E+00  0.00000000000E+00  0.12421949932E+04  0.12421949932E+04  0.50400001928E-02 0. -1.
       -1   -1    0    0    0  501  0.00000000000E+00  0.00000000000E+00 -0.93083427381E+03  0.93083427382E+03  0.50400001928E-02 0.  1.
    10030    2    1    2    0    0  0.00000000000E+00  0.00000000000E+00  0.31136071940E+03  0.21730292670E+04  0.21506070533E+04 0.  0.
        1    1    3    3  502    0  0.57454048356E+03  0.27820642631E+02  0.10736716533E+04  0.12180482644E+04  0.50400001928E-02 0. -1.
       -1    1    3    3    0  502 -0.57454048356E+03 -0.27820642631E+02 -0.76231093388E+03  0.95498100261E+03  0.50400001928E-02 0.  1.
</event>
<event>
 5   0  0.1281470E-04  0.2133142E+04  0.7818609E-02  0.8546783E-01
       -2   -1    0    0    0  501  0.00000000000E+00  0.00000000000E+00  0.72057018609E+03  0.72057018609E+03  0.25500000920E-02 0.  1.
        2   -1    0    0  501    0  0.00000000000E+00  0.00000000000E+00 -0.15787137770E+04  0.15787137770E+04  0.25500000920E-02 0. -1.
    10030    2    1    2    0    0  0.00000000000E+00  0.00000000000E+00 -0.85814359091E+03  0.22992839631E+04  0.21331423582E+04 0.  0.
        3    1    3    3  502    0 -0.23391058572E-01  0.27517661755E+03 -0.15397921855E+04  0.15641873789E+04  0.10100000352E+00 0. -1.
       -3    1    3    3    0  502  0.23391058572E-01 -0.27517661755E+03  0.68164859462E+03  0.73509658422E+03  0.10100000352E+00 0.  1.
</event>
<event>
 5   0  0.1281470E-04  0.2061257E+04  0.7818609E-02  0.8578504E-01
        2   -1    0    0  501    0  0.00000000000E+00  0.00000000000E+00  0.13235007531E+04  0.13235007531E+04  0.25500000920E-02 0. -1.
       -2   -1    0    0    0  501  0.00000000000E+00  0.00000000000E+00 -0.80256511043E+03  0.80256511043E+03  0.25500000920E-02 0.  1.
    10030    2    1    2    0    0  0.00000000000E+00  0.00000000000E+00  0.52093564270E+03  0.21260658636E+04  0.20612574105E+04 0.  0.
        3    1    3    3  502    0  0.89430564673E+03 -0.30345669081E+03  0.68615070537E+03  0.11673351505E+04  0.10100000352E+00 0. -1.
       -3    1    3    3    0  502 -0.89430564673E+03  0.30345669081E+03 -0.16521506267E+03  0.95873071303E+03  0.10100000352E+00 0.  1.
</event>
<event>
 5   0  0.1252477E-04  0.2144237E+04  0.7818609E-02  0.8542003E-01
       -2   -1    0    0    0  501  0.00000000000E+00  0.00000000000E+00  0.62681811975E+03  0.62681811975E+03  0.25500000920E-02 0.  1.
        2   -1    0    0  501    0  0.00000000000E+00  0.00000000000E+00 -0.18337659159E+04  0.18337659159E+04  0.25500000920E-02 0. -1.
    10030    2    1    2    0    0  0.00000000000E+00  0.00000000000E+00 -0.12069477962E+04  0.24605840357E+04  0.21442366506E+04 0.  0.
        4    1    3    3  502    0  0.49664537888E+03 -0.23036766436E+03 -0.16612674179E+04  0.17491532065E+04  0.12699999809E+01 0. -1.
       -4    1    3    3    0  502 -0.49664537888E+03  0.23036766436E+03  0.45431962171E+03  0.71143082919E+03  0.12699999809E+01 0.  1.
</event>
<event>
 5   0  0.6263616E-05  0.2095450E+04  0.7818609E-02  0.8563250E-01
       -1   -1    0    0    0  501  0.00000000000E+00  0.00000000000E+00  0.13692619376E+04  0.13692619376E+04  0.50400001928E-02 0.  1.
        1   -1    0    0  501    0  0.00000000000E+00  0.00000000000E+00 -0.80169330536E+03  0.80169330537E+03  0.50400001928E-02 0. -1.
    10030    2    1    2    0    0  0.00000000000E+00  0.00000000000E+00  0.56756863226E+03  0.21709552430E+04  0.20954504324E+04 0.  0.
        4    1    3    3  502    0 -0.10194592560E+04 -0.13095442270E+03  0.73287856120E+02  0.10304459997E+04  0.12699999809E+01 0. -1.
       -4    1    3    3    0  502  0.10194592560E+04  0.13095442270E+03  0.49428077614E+03  0.11405092433E+04  0.12699999809E+01 0.  1.
</event>
<event>
 5   0  0.6263616E-05  0.2200140E+04  0.7818609E-02  0.8518370E-01
        1   -1    0    0  501    0  0.00000000000E+00  0.00000000000E+00  0.91067651414E+03  0.91067651416E+03  0.50400001928E-02 0. -1.
       -1   -1    0    0    0  501  0.00000000000E+00  0.00000000000E+00 -0.13288519432E+04  0.13288519432E+04  0.50400001928E-02 0.  1.
    10030    2    1    2    0    0  0.00000000000E+00  0.00000000000E+00 -0.41817542905E+03  0.22395284574E+04  0.22001402278E+04 0.  0.
        4    1    3    3  502    0 -0.67293655943E+02  0.17569638745E+03  0.89417736458E+03  0.91375731401E+03  0.12699999809E+01 0. -1.
       -4    1    3    3    0  502  0.67293655943E+02 -0.17569638745E+03 -0.13123527936E+04  0.13257711433E+04  0.12699999809E+01 0.  1.
</event>
<event>
 5   0  0.1325673E-04  0.2088500E+04  0.7818609E-02  0.8566326E-01
       -2   -1    0    0    0  501  0.00000000000E+00  0.00000000000E+00  0.66764684012E+03  0.66764684012E+03  0.25500000920E-02 0.  1.
        2   -1    0    0  501    0  0.00000000000E+00  0.00000000000E+00 -0.16332861928E+04  0.16332861928E+04  0.25500000920E-02 0. -1.
    10030    2    1    2    0    0  0.00000000000E+00  0.00000000000E+00 -0.96563935269E+03  0.23009330329E+04  0.20885002903E+04 0.  0.
        5    1    3    3  502    0 -0.44509007421E+03  0.94302715060E+03 -0.54347303633E+03  0.11759210909E+04  0.46999998093E+01 0. -1.
       -5    1    3    3    0  502  0.44509007421E+03 -0.94302715060E+03 -0.42216631636E+03  0.11250119420E+04  0.46999998093E+01 0.  1.
</event>
<event>
 5   0  0.6263616E-05  0.1927925E+04  0.7818609E-02  0.8641080E-01
        1   -1    0    0  501    0  0.00000000000E+00  0.00000000000E+00  0.11552528540E+04  0.11552528540E+04  0.50400001928E-02 0. -1.
       -1   -1    0    0    0  501  0.00000000000E+00  0.00000000000E+00 -0.80434639411E+03  0.80434639413E+03  0.50400001928E-02 0.  1.
    10030    2    1    2    0    0  0.00000000000E+00  0.00000000000E+00  0.35090645992E+03  0.19595992482E+04  0.19279247573E+04 0.  0.
        4    1    3    3  502    0  0.86985433199E+03 -0.36131190391E+03 -0.32924705940E+02  0.94248527837E+03  0.12699999809E+01 0.  1.
       -4    1    3    3    0  502 -0.86985433199E+03  0.36131190391E+03  0.38383116585E+03  0.10171139698E+04  0.12699999809E+01 0. -1.
</event>
<event>
 5   0  0.1281470E-04  0.2093769E+04  0.7818609E-02  0.8563993E-01
        2   -1    0    0  501    0  0.00000000000E+00  0.00000000000E+00  0.10975070649E+04  0.10975070649E+04  0.25500000920E-02 0.  1.
       -2   -1    0    0    0  501  0.00000000000E+00  0.00000000000E+00 -0.99859675274E+03  0.99859675274E+03  0.25500000920E-02 0. -1.
    10030    2    1    2    0    0  0.00000000000E+00  0.00000000000E+00  0.98910312126E+02  0.20961038176E+04  0.20937688421E+04 0.  0.
        3    1    3    3  502    0  0.33656830884E+03  0.36904434923E+03  0.97053284092E+03  0.10915154436E+04  0.10100000352E+00 0.  1.
       -3    1    3    3    0  502 -0.33656830884E+03 -0.36904434923E+03 -0.87162252879E+03  0.10045883740E+04  0.10100000352E+00 0. -1.
</event>
<event>
 5   0  0.1281470E-04  0.2150405E+04  0.7818609E-02  0.8539359E-01
        2   -1    0    0  501    0  0.00000000000E+00  0.00000000000E+00  0.21844353370E+04  0.21844353370E+04  0.25500000920E-02 0.  1.
       -2   -1    0    0    0  501  0.00000000000E+00  0.00000000000E+00 -0.52922622264E+03  0.52922622265E+03  0.25500000920E-02 0. -1.
    10030    2    1    2    0    0  0.00000000000E+00  0.00000000000E+00  0.16552091144E+04  0.27136615597E+04  0.21504050428E+04 0.  0.
        3    1    3    3  502    0  0.80615940565E+03  0.56502233281E+03  0.13731866139E+04  0.16896108164E+04  0.10100000352E+00 0.  1.
       -3    1    3    3    0  502 -0.80615940565E+03 -0.56502233281E+03  0.28202250044E+03  0.10240507433E+04  0.10100000352E+00 0. -1.
</event>
<event>
 5   0  0.6263616E-05  0.2108066E+04  0.7818609E-02  0.8557698E-01
        1   -1    0    0  501    0  0.00000000000E+00  0.00000000000E+00  0.98628580445E+03  0.98628580446E+03  0.50400001928E-02 0. -1.
       -1   -1    0    0    0  501  0.00000000000E+00  0.00000000000E+00 -0.11264339098E+04  0.11264339098E+04  0.50400001928E-02 0.  1.
    10030    2    1    2    0    0  0.00000000000E+00  0.00000000000E+00 -0.14014810537E+03  0.21127197143E+04  0.21080661991E+04 0.  0.
        4    1    3    3  502    0 -0.67695226915E+03 -0.42779761238E+03  0.61679203762E+03  0.10107963209E+04  0.12699999809E+01 0. -1.
       -4    1    3    3    0  502  0.67695226915E+03  0.42779761238E+03 -0.75694014299E+03  0.11019233934E+04  0.12699999809E+01 0.  1.
</event>
<event>
 5   0  0.6221148E-05  0.2092494E+04  0.7818609E-02  0.8564557E-01
       -1   -1    0    0    0  501  0.00000000000E+00  0.00000000000E+00  0.97371226565E+03  0.97371226567E+03  0.50400001928E-02 0. -1.
        1   -1    0    0  501    0  0.00000000000E+00  0.00000000000E+00 -0.11241847595E+04  0.11241847595E+04  0.50400001928E-02 0.  1.
    10030    2    1    2    0    0  0.00000000000E+00  0.00000000000E+00 -0.15047249381E+03  0.20978970251E+04  0.20924937172E+04 0.  0.
        3    1    3    3  502    0 -0.10107383322E+04  0.38852304217E+02 -0.34337967452E+03  0.10681812060E+04  0.10100000352E+00 0.  1.
       -3    1    3    3    0  502  0.10107383322E+04 -0.38852304217E+02  0.19290718072E+03  0.10297158192E+04  0.10100000352E+00 0. -1.
</event>
<event>
 5   0  0.6263616E-05  0.2079279E+04  0.7818609E-02  0.8570427E-01
       -1   -1    0    0    0  501  0.00000000000E+00  0.00000000000E+00  0.10971451357E+04  0.10971451357E+04  0.50400001928E-02 0.  1.
        1   -1    0    0  501    0  0.00000000000E+00  0.00000000000E+00 -0.98514768888E+03  0.98514768889E+03  0.50400001928E-02 0. -1.
    10030    2    1    2    0    0  0.00000000000E+00  0.00000000000E+00  0.11199744683E+03  0.20822928246E+04  0.20792787161E+04 0.  0.
        4    1    3    3  502    0 -0.47498055629E+03  0.92478215211E+03  0.60457616589E+02  0.10413862367E+04  0.12699999809E+01 0. -1.
       -4    1    3    3    0  502  0.47498055629E+03 -0.92478215211E+03  0.51539830239E+02  0.10409065879E+04  0.12699999809E+01 0.  1.
</event>
<event>
 5   0  0.1325673E-04  0.2087671E+04  0.7818609E-02  0.8566694E-01
       -2   -1    0    0    0  501  0.00000000000E+00  0.00000000000E+00  0.78278537203E+03  0.78278537204E+03  0.25500000920E-02 0.  1.
        2   -1    0    0  501    0  0.00000000000E+00  0.00000000000E+00 -0.13919435267E+04  0.13919435267E+04  0.25500000920E-02 0. -1.
    10030    2    1    2    0    0  0.00000000000E+00  0.00000000000E+00 -0.60915815463E+03  0.21747288987E+04  0.20876714601E+04 0.  0.
        5    1    3    3  502    0 -0.26921667725E+03 -0.61694496391E+03  0.52648154044E+03  0.85457803050E+03  0.46999998093E+01 0.  1.
       -5    1    3    3    0  502  0.26921667725E+03  0.61694496391E+03 -0.11356396951E+04  0.13201508682E+04  0.46999998093E+01 0. -1.
</event>
<event>
 5   0  0.6263616E-05  0.2085782E+04  0.7818609E-02  0.8567532E-01
       -1   -1    0    0    0  501  0.00000000000E+00  0.00000000000E+00  0.68742163895E+03  0.68742163897E+03  0.50400001928E-02 0.  1.
        1   -1    0    0  501    0  0.00000000000E+00  0.00000000000E+00 -0.15821760175E+04  0.15821760175E+04  0.50400001928E-02 0. -1.
    10030    2    1    2    0    0  0.00000000000E+00  0.00000000000E+00 -0.89475437851E+03  0.22695976564E+04  0.20857823770E+04 0.  0.
        4    1    3    3  502    0 -0.90557221526E+03 -0.19534146259E+03  0.73790668075E+02  0.92933632214E+03  0.12699999809E+01 0.  1.
       -4    1    3    3    0  502  0.90557221526E+03  0.19534146259E+03 -0.96854504658E+03  0.13402613343E+04  0.12699999809E+01 0. -1.
</event>
<event>
 5   0  0.4615125E-05  0.2113180E+04  0.7818609E-02  0.8555459E-01
       -3   -1    0    0    0  501  0.00000000000E+00  0.00000000000E+00  0.53671106541E+03  0.53671107491E+03  0.10100000352E+00 0. -1.
        3   -1    0    0  501    0  0.00000000000E+00  0.00000000000E+00 -0.20800441050E+04  0.20800441075E+04  0.10100000352E+00 0.  1.
    10030    2    1    2    0    0  0.00000000000E+00  0.00000000000E+00 -0.15433330396E+04  0.26167551824E+04  0.21131802605E+04 0.  0.
        5    1    3    3  502    0  0.19263351760E+03 -0.34876753682E+03 -0.19834410620E+04  0.20230687094E+04  0.46999998093E+01 0.  1.
       -5    1    3    3    0  502 -0.19263351760E+03  0.34876753682E+03  0.44010802234E+03  0.59368647295E+03  0.46999998093E+01 0. -1.
</event>
<event>
 5   0  0.5933905E-05  0.2042098E+04  0.7818609E-02  0.8587187E-01
        1   -1    0    0  501    0  0.00000000000E+00  0.00000000000E+00  0.12520192598E+04  0.12520192598E+04  0.50400001928E-02 0.  1.
       -1   -1    0    0    0  501  0.00000000000E+00  0.00000000000E+00 -0.83268791682E+03  0.83268791683E+03  0.50400001928E-02 0. -1.
    10030    2    1    2    0    0  0.00000000000E+00  0.00000000000E+00  0.41933134299E+03  0.20847071766E+04  0.20420982438E+04 0.  0.
        2    1    3    3  502    0 -0.19677699867E+03 -0.99190567633E+03  0.35383285401E+03  0.10713522980E+04  0.25500000920E-02 0.  1.
       -2    1    3    3    0  502  0.19677699867E+03  0.99190567633E+03  0.65498488981E+02  0.10133548786E+04  0.25500000920E-02 0. -1.
</event>
<event>
 5   0  0.5846187E-05  0.2114764E+04  0.7818609E-02  0.8554768E-01
        1   -1    0    0  501    0  0.00000000000E+00  0.00000000000E+00  0.13417635994E+04  0.13417635994E+04  0.50400001928E-02 0. -1.
       -1   -1    0    0    0  501  0.00000000000E+00  0.00000000000E+00 -0.83327387259E+03  0.83327387261E+03  0.50400001928E-02 0.  1.
    10030    2    1    2    0    0  0.00000000000E+00  0.00000000000E+00  0.50848972680E+03  0.21750374720E+04  0.21147638645E+04 0.  0.
        5    1    3    3  502    0  0.31955459388E+03 -0.59610208816E+03 -0.58168166189E+03  0.89209219465E+03  0.46999998093E+01 0.  1.
       -5    1    3    3    0  502 -0.31955459388E+03  0.59610208816E+03  0.10901713887E+04  0.12829452774E+04  0.46999998093E+01 0. -1.
</event>
<event>
 5   0  0.1349252E-04  0.2117602E+04  0.7818609E-02  0.8553529E-01
        2   -1    0    0  501    0  0.00000000000E+00  0.00000000000E+00  0.76575306436E+03  0.76575306436E+03  0.25500000920E-02 0.  1.
       -2   -1    0    0    0  501  0.00000000000E+00  0.00000000000E+00 -0.14639965807E+04  0.14639965807E+04  0.25500000920E-02 0. -1.
    10030    2    1    2    0    0  0.00000000000E+00  0.00000000000E+00 -0.69824351635E+03  0.22297496451E+04  0.21176022931E+04 0.  0.
        2    1    3    3  502    0 -0.68282667711E+02 -0.83983298714E+03 -0.10242305580E+04  0.13262843605E+04  0.25500000920E-02 0. -1.
       -2    1    3    3    0  502  0.68282667711E+02  0.83983298714E+03  0.32598704169E+03  0.90346528453E+03  0.25500000920E-02 0.  1.
</event>
<event>
 5   0  0.1252477E-04  0.2121040E+04  0.7818609E-02  0.8552031E-01
       -2   -1    0    0    0  501  0.00000000000E+00  0.00000000000E+00  0.14290226305E+04  0.14290226305E+04  0.25500000920E-02 0.  1.
        2   -1    0    0  501    0  0.00000000000E+00  0.00000000000E+00 -0.78704354336E+03  0.78704354336E+03  0.25500000920E-02 0. -1.
    10030    2    1    2    0    0  0.00000000000E+00  0.00000000000E+00  0.64197908713E+03  0.22160661739E+04  0.21210403435E+04 0.  0.
        4    1    3    3  502    0 -0.62636917126E+03 -0.82344165089E+03  0.56446849589E+03  0.11785672602E+04  0.12699999809E+01 0.  1.
       -4    1    3    3    0  502  0.62636917126E+03  0.82344165089E+03  0.77510591238E+02  0.10374989136E+04  0.12699999809E+01 0. -1.
</event>
<event>
 5   0  0.1281470E-04  0.2173423E+04  0.7818609E-02  0.8529572E-01
        2   -1    0    0  501    0  0.00000000000E+00  0.00000000000E+00  0.15514748505E+04  0.15514748505E+04  0.25500000920E-02 0.  1.
       -2   -1    0    0    0  501  0.00000000000E+00  0.00000000000E+00 -0.76117344081E+03  0.76117344082E+03  0.25500000920E-02 0. -1.
    10030    2    1    2    0    0  0.00000000000E+00  0.00000000000E+00  0.79030140972E+03  0.23126482913E+04  0.21734226007E+04 0.  0.
        3    1    3    3  502    0 -0.98300135960E+03  0.19740618570E+03 -0.50841502967E+02  0.10039152075E+04  0.10100000352E+00 0. -1.
       -3    1    3    3    0  502  0.98300135960E+03 -0.19740618570E+03  0.84114291269E+03  0.13087330839E+04  0.10100000352E+00 0.  1.
</event>
<event>
 5   0  0.6263616E-05  0.2101080E+04  0.7818609E-02  0.8560768E-01
       -1   -1    0    0    0  501  0.00000000000E+00  0.00000000000E+00  0.94024036687E+03  0.94024036688E+03  0.50400001928E-02 0. -1.
        1   -1    0    0  501    0  0.00000000000E+00  0.00000000000E+00 -0.11737785309E+04  0.11737785309E+04  0.50400001928E-02 0.  1.
    10030    2    1    2    0    0  0.00000000000E+00  0.00000000000E+00 -0.23353816403E+03  0.21140188978E+04  0.21010796811E+04 0.  0.
        4    1    3    3  502    0 -0.59923318359E+03 -0.15694485596E+03  0.73693731653E+03  0.96269949493E+03  0.12699999809E+01 0. -1.
       -4    1    3    3    0  502  0.59923318359E+03  0.15694485596E+03 -0.97047548056E+03  0.11513194029E+04  0.12699999809E+01 0.  1.
</event>
<event>
 5   0  0.6221148E-05  0.2110290E+04  0.7818609E-02  0.8556724E-01
        1   -1    0    0  501    0  0.00000000000E+00  0.00000000000E+00  0.13318873320E+04  0.13318873321E+04  0.50400001928E-02 0.  1.
       -1   -1    0    0    0  501  0.00000000000E+00  0.00000000000E+00 -0.83590496160E+03  0.83590496161E+03  0.50400001928E-02 0. -1.
    10030    2    1    2    0    0  0.00000000000E+00  0.00000000000E+00  0.49598237045E+03  0.21677922937E+04  0.21102902447E+04 0.  0.
        3    1    3    3  502    0  0.77760075421E+03  0.29173309194E+03 -0.42055742795E+03  0.93093484750E+03  0.10100000352E+00 0. -1.
       -3    1    3    3    0  502 -0.77760075421E+03 -0.29173309194E+03  0.91653979840E+03  0.12368574462E+04  0.10100000352E+00 0.  1.
</event>
<event>
 5   0  0.5846187E-05  0.2074904E+04  0.7818609E-02  0.8572380E-01
        1   -1    0    0  501    0  0.00000000000E+00  0.00000000000E+00  0.21013865819E+04  0.21013865819E+04  0.50400001928E-02 0.  1.
       -1   -1    0    0    0  501  0.00000000000E+00  0.00000000000E+00 -0.51218887867E+03  0.51218887869E+03  0.50400001928E-02 0. -1.
    10030    2    1    2    0    0  0.00000000000E+00  0.00000000000E+00  0.15891977032E+04  0.26135754606E+04  0.20749041781E+04 0.  0.
        5    1    3    3  502    0 -0.95936081695E+03  0.29379816735E+03  0.11268936502E+04  0.15088412538E+04  0.46999998093E+01 0. -1.
       -5    1    3    3    0  502  0.95936081695E+03 -0.29379816735E+03  0.46230405300E+03  0.11047342068E+04  0.46999998093E+01 0.  1.
</event>
<event>
 5   0  0.5846187E-05  0.1920934E+04  0.7818609E-02  0.8644506E-01
       -1   -1    0    0    0  501  0.00000000000E+00  0.00000000000E+00  0.47583272026E+03  0.47583272028E+03  0.50400001928E-02 0.  1.
        1   -1    0    0  501    0  0.00000000000E+00  0.00000000000E+00 -0.19387001794E+04  0.19387001794E+04  0.50400001928E-02 0. -1.
    10030    2    1    2    0    0  0.00000000000E+00  0.00000000000E+00 -0.14628674592E+04  0.24145328997E+04  0.19209341271E+04 0.  0.
        5    1    3    3  502    0  0.48471221942E+03  0.79259935820E+03 -0.10375621836E+04  0.13927372520E+04  0.46999998093E+01 0.  1.
       -5    1    3    3    0  502 -0.48471221942E+03 -0.79259935820E+03 -0.42530527558E+03  0.10217956477E+04  0.46999998093E+01 0. -1.
</event>
<event>
 5   0  0.1349252E-04  0.2098777E+04  0.7818609E-02  0.8561782E-01
        2   -1    0    0  501    0  0.00000000000E+00  0.00000000000E+00  0.10671428638E+04  0.10671428638E+04  0.25500000920E-02 0. -1.
       -2   -1    0    0    0  501  0.00000000000E+00  0.00000000000E+00 -0.10319294405E+04  0.10319294405E+04  0.25500000920E-02 0.  1.
    10030    2    1    2    0    0  0.00000000000E+00  0.00000000000E+00  0.35213423262E+02  0.20990723043E+04  0.20987769185E+04 0.  0.
        2    1    3    3  502    0 -0.25444871448E+03  0.40661129925E+03 -0.91587305258E+03  0.10338763685E+04  0.25500000920E-02 0.  1.
       -2    1    3    3    0  502  0.25444871448E+03 -0.40661129925E+03  0.95108647584E+03  0.10651959357E+04  0.25500000920E-02 0. -1.
</event>
<event>
 5   0  0.1349252E-04  0.2091383E+04  0.7818609E-02  0.8565049E-01
       -2   -1    0    0    0  501  0.00000000000E+00  0.00000000000E+00  0.67226453925E+03  0.67226453925E+03  0.25500000920E-02 0. -1.
        2   -1    0    0  501    0  0.00000000000E+00  0.00000000000E+00 -0.16265477933E+04  0.16265477933E+04  0.25500000920E-02 0.  1.
    10030    2    1    2    0    0  0.00000000000E+00  0.00000000000E+00 -0.95428325401E+03  0.22988123325E+04  0.20913827032E+04 0.  0.
        2    1    3    3  502    0 -0.28381971867E+03  0.16957372353E+03  0.61330194622E+03  0.69674109801E+03  0.25500000920E-02 0. -1.
       -2    1    3    3    0  502  0.28381971867E+03 -0.16957372353E+03 -0.15675852002E+04  0.16020712345E+04  0.25500000920E-02 0.  1.
</event>
<event>
 5   0  0.6221148E-05  0.2059762E+04  0.7818609E-02  0.8579179E-01
       -1   -1    0    0    0  501  0.00000000000E+00  0.00000000000E+00  0.99558608529E+03  0.99558608530E+03  0.50400001928E-02 0.  1.
        1   -1    0    0  501    0  0.00000000000E+00  0.00000000000E+00 -0.10653574566E+04  0.10653574566E+04  0.50400001928E-02 0. -1.
    10030    2    1    2    0    0  0.00000000000E+00  0.00000000000E+00 -0.69771371307E+02  0.20609435419E+04  0.20597621801E+04 0.  0.
        3    1    3    3  502    0  0.29692282142E+03 -0.59661907136E+03  0.75076372437E+03  0.10038743239E+04  0.10100000352E+00 0.  1.
       -3    1    3    3    0  502 -0.29692282142E+03  0.59661907136E+03 -0.82053509568E+03  0.10570692180E+04  0.10100000352E+00 0. -1.
</event>
<event>
 5   0  0.6052292E-05  0.2021016E+04  0.7818609E-02  0.8596858E-01
        1   -1    0    0  501    0  0.00000000000E+00  0.00000000000E+00  0.28623644268E+04  0.28623644269E+04  0.50400001928E-02 0. -1.
       -1   -1    0    0    0  501  0.00000000000E+00  0.00000000000E+00 -0.35674229565E+03  0.35674229569E+03  0.50400001928E-02 0.  1.
    10030    2    1    2    0    0  0.00000000000E+00  0.00000000000E+00  0.25056221312E+04  0.32191067225E+04  0.20210160382E+04 0.  0.
        1    1    3    3  502    0  0.55587281061E+02  0.75332008632E+03  0.18367033503E+03  0.77737757253E+03  0.50400001928E-02 0.  1.
       -1    1    3    3    0  502 -0.55587281061E+02 -0.75332008632E+03  0.23219517962E+04  0.24417291500E+04  0.50400001928E-02 0. -1.
</event>
<event>
 5   0  0.1235817E-04  0.2099921E+04  0.7818609E-02  0.8561278E-01
       -2   -1    0    0    0  501  0.00000000000E+00  0.00000000000E+00  0.14069160829E+04  0.14069160829E+04  0.25500000920E-02 0.  1.
        2   -1    0    0  501    0  0.00000000000E+00  0.00000000000E+00 -0.78356974829E+03  0.78356974830E+03  0.25500000920E-02 0. -1.
    10030    2    1    2    0    0  0.00000000000E+00  0.00000000000E+00  0.62334633463E+03  0.21904858312E+04  0.20999208375E+04 0.  0.
        1    1    3    3  502    0 -0.24386647770E+01 -0.65122308363E+03  0.11707947980E+04  0.13397230724E+04  0.50400001928E-02 0.  1.
       -1    1    3    3    0  502  0.24386647770E+01  0.65122308363E+03 -0.54744846335E+03  0.85076275882E+03  0.50400001928E-02 0. -1.
</event>
<event>
 5   0  0.1325673E-04  0.2083034E+04  0.7818609E-02  0.8568754E-01
        2   -1    0    0  501    0  0.00000000000E+00  0.00000000000E+00  0.93910767986E+03  0.93910767986E+03  0.25500000920E-02 0.  1.
       -2   -1    0    0    0  501  0.00000000000E+00  0.00000000000E+00 -0.11550940297E+04  0.11550940297E+04  0.25500000920E-02 0. -1.
    10030    2    1    2    0    0  0.00000000000E+00  0.00000000000E+00 -0.21598634981E+03  0.20942017095E+04  0.20830340124E+04 0.  0.
        5    1    3    3  502    0  0.19233112774E+03 -0.93106570015E+03  0.31956438769E+03  0.10030045307E+04  0.46999998093E+01 0.  1.
       -5    1    3    3    0  502 -0.19233112774E+03  0.93106570015E+03 -0.53555073751E+03  0.10911971789E+04  0.46999998093E+01 0. -1.
</event>
<event>
 5   0  0.5933905E-05  0.2098254E+04  0.7818609E-02  0.8562013E-01
        1   -1    0    0  501    0  0.00000000000E+00  0.00000000000E+00  0.17236231888E+04  0.17236231888E+04  0.50400001928E-02 0.  1.
       -1   -1    0    0    0  501  0.00000000000E+00  0.00000000000E+00 -0.63857765682E+03  0.63857765684E+03  0.50400001928E-02 0. -1.
    10030    2    1    2    0    0  0.00000000000E+00  0.00000000000E+00  0.10850455319E+04  0.23622008456E+04  0.20982538046E+04 0.  0.
        2    1    3    3  502    0 -0.41219501331E+03 -0.78335329083E+03  0.11764957048E+04  0.14723074580E+04  0.25500000920E-02 0.  1.
       -2    1    3    3    0  502  0.41219501331E+03  0.78335329083E+03 -0.91450172902E+02  0.88989338765E+03  0.25500000920E-02 0. -1.
</event>
<event>
 5   0  0.5933905E-05  0.2100077E+04  0.7818609E-02  0.8561209E-01
        1   -1    0    0  501    0  0.00000000000E+00  0.00000000000E+00  0.19410960760E+04  0.19410960760E+04  0.50400001928E-02 0. -1.
       -1   -1    0    0    0  501  0.00000000000E+00  0.00000000000E+00 -0.56801972499E+03  0.56801972502E+03  0.50400001928E-02 0.  1.
    10030    2    1    2    0    0  0.00000000000E+00  0.00000000000E+00  0.13730763510E+04  0.25091158010E+04  0.21000770074E+04 0.  0.
        2    1    3    3  502    0  0.57323209212E+03  0.12173921772E+03 -0.35446891067E+03  0.68488223601E+03  0.25500000920E-02 0.  1.
       -2    1    3    3    0  502 -0.57323209212E+03 -0.12173921772E+03  0.17275452616E+04  0.18242335650E+04  0.25500000920E-02 0. -1.
</event>
<event>
 5   0  0.6221148E-05  0.2039600E+04  0.7818609E-02  0.8588327E-01
        1   -1    0    0  501    0  0.00000000000E+00  0.00000000000E+00  0.11034840899E+04  0.11034840900E+04  0.50400001928E-02 0.  1.
       -1   -1    0    0    0  501  0.00000000000E+00  0.00000000000E+00 -0.94246223104E+03  0.94246223106E+03  0.50400001928E-02 0. -1.
    10030    2    1    2    0    0  0.00000000000E+00  0.00000000000E+00  0.16102185890E+03  0.20459463210E+04  0.20396000366E+04 0.  0.
        3    1    3    3  502    0 -0.75102142557E+03  0.35686700607E+03  0.67277572825E+03  0.10695861033E+04  0.10100000352E+00 0.  1.
       -3    1    3    3    0  502  0.75102142557E+03 -0.35686700607E+03 -0.51175386935E+03  0.97636021769E+03  0.10100000352E+00 0. -1.
</event>
<event>
 5   0  0.1281470E-04  0.2092551E+04  0.7818609E-02  0.8564532E-01
        2   -1    0    0  501    0  0.00000000000E+00  0.00000000000E+00  0.21520029276E+04  0.21520029276E+04  0.25500000920E-02 0. -1.
       -2   -1    0    0    0  501  0.00000000000E+00  0.00000000000E+00 -0.50868532271E+03  0.50868532272E+03  0.25500000920E-02 0.  1.
    10030    2    1    2    0    0  0.00000000000E+00  0.00000000000E+00  0.16433176048E+04  0.26606882503E+04  0.20925508870E+04 0.  0.
        3    1    3    3  502    0  0.33812842194E+03 -0.31693531597E+03  0.20143772777E+04  0.20670013671E+04  0.10100000352E+00 0. -1.
       -3    1    3    3    0  502 -0.33812842194E+03  0.31693531597E+03 -0.37105967289E+03  0.59368688319E+03  0.10100000352E+00 0.  1.
</event>
<event>
 5   0  0.5846187E-05  0.2123163E+04  0.7818609E-02  0.8551108E-01
        1   -1    0    0  501    0  0.00000000000E+00  0.00000000000E+00  0.93182107144E+03  0.93182107146E+03  0.50400001928E-02 0. -1.
       -1   -1    0    0    0  501  0.00000000000E+00  0.00000000000E+00 -0.12094121653E+04  0.12094121653E+04  0.50400001928E-02 0.  1.
    10030    2    1    2    0    0  0.00000000000E+00  0.00000000000E+00 -0.27759109388E+03  0.21412332368E+04  0.21231634320E+04 0.  0.
        5    1    3    3  502    0 -0.59118109417E+03  0.69621393938E+03  0.40684953582E+03  0.99987877779E+03  0.46999998093E+01 0.  1.
       -5    1    3    3    0  502  0.59118109417E+03 -0.69621393938E+03 -0.68444062969E+03  0.11413544590E+04  0.46999998093E+01 0. -1.
</event>
<event>
 5   0  0.5933905E-05  0.2100395E+04  0.7818609E-02  0.8561070E-01
        1   -1    0    0  501    0  0.00000000000E+00  0.00000000000E+00  0.17152083253E+04  0.17152083253E+04  0.50400001928E-02 0.  1.
       -1   -1    0    0    0  501  0.00000000000E+00  0.00000000000E+00 -0.64302065931E+03  0.64302065933E+03  0.50400001928E-02 0. -1.
    10030    2    1    2    0    0  0.00000000000E+00  0.00000000000E+00  0.10721876660E+04  0.23582289846E+04  0.21003946184E+04 0.  0.
        2    1    3    3  502    0 -0.48427849758E+02 -0.99422185672E+03  0.91199393671E+03  0.13500204804E+04  0.25500000920E-02 0.  1.
       -2    1    3    3    0  502  0.48427849758E+02  0.99422185672E+03  0.16019372928E+03  0.10082085042E+04  0.25500000920E-02 0. -1.
</event>
<event>
 5   0  0.1281470E-04  0.2138283E+04  0.7818609E-02  0.8544564E-01
        2   -1    0    0  501    0  0.00000000000E+00  0.00000000000E+00  0.17310310414E+04  0.17310310414E+04  0.25500000920E-02 0. -1.
       -2   -1    0    0    0  501  0.00000000000E+00  0.00000000000E+00 -0.66033688745E+03  0.66033688746E+03  0.25500000920E-02 0.  1.
    10030    2    1    2    0    0  0.00000000000E+00  0.00000000000E+00  0.10706941539E+04  0.23913679288E+04  0.21382830963E+04 0.  0.
        3    1    3    3  502    0 -0.94418574350E+03  0.69131205611E+02 -0.20239619453E+02  0.94692950858E+03  0.10100000352E+00 0.  1.
       -3    1    3    3    0  502  0.94418574350E+03 -0.69131205611E+02  0.10909337734E+04  0.14444384203E+04  0.10100000352E+00 0. -1.
</event>
<event>
 5   0  0.1325673E-04  0.2062421E+04  0.7818609E-02  0.8577980E-01
        2   -1    0    0  501    0  0.00000000000E+00  0.00000000000E+00  0.44657523307E+03  0.44657523308E+03  0.25500000920E-02 0.  1.
       -2   -1    0    0    0  501  0.00000000000E+00  0.00000000000E+00 -0.23812226671E+04  0.23812226671E+04  0.25500000920E-02 0. -1.
    10030    2    1    2    0    0  0.00000000000E+00  0.00000000000E+00 -0.19346474341E+04  0.28277979002E+04  0.20624209731E+04 0.  0.
        5    1    3    3  502    0 -0.66367823417E+03  0.24868034280E+03 -0.19943382329E+04  0.21165343816E+04  0.46999998093E+01 0. -1.
       -5    1    3    3    0  502  0.66367823417E+03 -0.24868034280E+03  0.59690798844E+02  0.71126351859E+03  0.46999998093E+01 0.  1.
</event>
<event>
 5   0  0.1325673E-04  0.2103141E+04  0.7818609E-02  0.8559861E-01
       -2   -1    0    0    0  501  0.00000000000E+00  0.00000000000E+00  0.92460945337E+03  0.92460945337E+03  0.25500000920E-02 0. -1.
        2   -1    0    0  501    0  0.00000000000E+00  0.00000000000E+00 -0.11959646633E+04  0.11959646633E+04  0.25500000920E-02 0.  1.
    10030    2    1    2    0    0  0.00000000000E+00  0.00000000000E+00 -0.27135520990E+03  0.21205741166E+04  0.21031407310E+04 0.  0.
        5    1    3    3  502    0  0.38393344170E+03 -0.50241293425E+02 -0.11214571049E+04  0.11864304461E+04  0.46999998093E+01 0.  1.
       -5    1    3    3    0  502 -0.38393344170E+03  0.50241293425E+02  0.85010189505E+03  0.93414367053E+03  0.46999998093E+01 0. -1.
</event>
<event>
 5   0  0.1325673E-04  0.2092110E+04  0.7818609E-02  0.8564727E-01
       -2   -1    0    0    0  501  0.00000000000E+00  0.00000000000E+00  0.15649353814E+04  0.15649353814E+04  0.25500000920E-02 0. -1.
        2   -1    0    0  501    0  0.00000000000E+00  0.00000000000E+00 -0.69921789435E+03  0.69921789436E+03  0.25500000920E-02 0.  1.
    10030    2    1    2    0    0  0.00000000000E+00  0.00000000000E+00  0.86571748709E+03  0.22641532758E+04  0.20921097698E+04 0.  0.
        5    1    3    3  502    0 -0.68717169159E+03  0.41469611739E+03 -0.29315114714E+03  0.85448082984E+03  0.46999998093E+01 0.  1.
       -5    1    3    3    0  502  0.68717169159E+03 -0.41469611739E+03  0.11588686342E+04  0.14096724460E+04  0.46999998093E+01 0. -1.
</event>
<event>
 5   0  0.1349252E-04  0.2018986E+04  0.7818609E-02  0.8597795E-01
       -2   -1    0    0    0  501  0.00000000000E+00  0.00000000000E+00  0.60886495489E+03  0.60886495490E+03  0.25500000920E-02 0. -1.
        2   -1    0    0  501    0  0.00000000000E+00  0.00000000000E+00 -0.16737306955E+04  0.16737306955E+04  0.25500000920E-02 0.  1.
    10030    2    1    2    0    0  0.00000000000E+00  0.00000000000E+00 -0.10648657406E+04  0.22825956504E+04  0.20189858488E+04 0.  0.
        2    1    3    3  502    0 -0.85868811873E+03 -0.38722635755E+03 -0.12201047328E+03  0.94982950724E+03  0.25500000920E-02 0. -1.
       -2    1    3    3    0  502  0.85868811873E+03  0.38722635755E+03 -0.94285526733E+03  0.13327661432E+04  0.25500000920E-02 0.  1.
</event>
<event>
 5   0  0.1252477E-04  0.2093365E+04  0.7818609E-02  0.8564172E-01
        2   -1    0    0  501    0  0.00000000000E+00  0.00000000000E+00  0.16797833918E+04  0.16797833918E+04  0.25500000920E-02 0. -1.
       -2   -1    0    0    0  501  0.00000000000E+00  0.00000000000E+00 -0.65219367920E+03  0.65219367920E+03  0.25500000920E-02 0.  1.
    10030    2    1    2    0    0  0.00000000000E+00  0.00000000000E+00  0.10275897126E+04  0.23319770710E+04  0.20933648613E+04 0.  0.
        4    1    3    3  502    0  0.68438556093E+03  0.17180437578E+03  0.13749868006E+04  0.15454742490E+04  0.12699999809E+01 0. -1.
       -4    1    3    3    0  502 -0.68438556093E+03 -0.17180437578E+03 -0.34739708792E+03  0.78650282209E+03  0.12699999809E+01 0.  1.
</event>
<event>
 5   0  0.1281470E-04  0.2100263E+04  0.7818609E-02  0.8561128E-01
       -2   -1    0    0    0  501  0.00000000000E+00  0.00000000000E+00  0.14288354431E+04  0.14288354431E+04  0.25500000920E-02 0.  1.
        2   -1    0    0  501    0  0.00000000000E+00  0.00000000000E+00 -0.77180044265E+03  0.77180044265E+03  0.25500000920E-02 0. -1.
    10030    2    1    2    0    0  0.00000000000E+00  0.00000000000E+00  0.65703500041E+03  0.22006358857E+04  0.21002626764E+04 0.  0.
        3    1    3    3  502    0 -0.21049610625E+03  0.28593982395E+03  0.13640325621E+04  0.14094875077E+04  0.10100000352E+00 0.  1.
       -3    1    3    3    0  502  0.21049610625E+03 -0.28593982395E+03 -0.70699756167E+03  0.79114837804E+03  0.10100000352E+00 0. -1.
</event>
<event>
 5   0  0.1325673E-04  0.2096278E+04  0.7818609E-02  0.8562885E-01
        2   -1    0    0  501    0  0.00000000000E+00  0.00000000000E+00  0.67574691264E+03  0.67574691264E+03  0.25500000920E-02 0.  1.
       -2   -1    0    0    0  501  0.00000000000E+00  0.00000000000E+00 -0.16257492961E+04  0.16257492961E+04  0.25500000920E-02 0. -1.
    10030    2    1    2    0    0  0.00000000000E+00  0.00000000000E+00 -0.95000238346E+03  0.23014962087E+04  0.20962777178E+04 0.  0.
        5    1    3    3  502    0 -0.94015501118E+03  0.29079761568E+03 -0.78968897749E+02  0.98727548087E+03  0.46999998093E+01 0.  1.
       -5    1    3    3    0  502  0.94015501118E+03 -0.29079761568E+03 -0.87103348571E+03  0.13142207279E+04  0.46999998093E+01 0. -1.
</event>
<event>
 5   0  0.1235817E-04  0.1919996E+04  0.7818609E-02  0.8644967E-01
       -2   -1    0    0    0  501  0.00000000000E+00  0.00000000000E+00  0.83258090502E+03  0.83258090503E+03  0.25500000920E-02 0. -1.
        2   -1    0    0  501    0  0.00000000000E+00  0.00000000000E+00 -0.11069147640E+04  0.11069147640E+04  0.25500000920E-02 0.  1.
    10030    2    1    2    0    0  0.00000000000E+00  0.00000000000E+00 -0.27433385895E+03  0.19394956690E+04  0.19199959333E+04 0.  0.
        1    1    3    3  502    0  0.82425510480E+03  0.47066984835E+03 -0.28239601986E+03  0.99028990502E+03  0.50400001928E-02 0.  1.
       -1    1    3    3    0  502 -0.82425510480E+03 -0.47066984835E+03  0.80621609045E+01  0.94920576399E+03  0.50400001928E-02 0. -1.
</event>
<event>
 5   0  0.4615125E-05  0.2048324E+04  0.7818609E-02  0.8584355E-01
        3   -1    0    0  501    0  0.00000000000E+00  0.00000000000E+00  0.84210998937E+03  0.84210999543E+03  0.10100000352E+00 0.  1.
       -3   -1    0    0    0  501  0.00000000000E+00  0.00000000000E+00 -0.12455711934E+04  0.12455711975E+04  0.10100000352E+00 0. -1.
    10030    2    1    2    0    0  0.00000000000E+00  0.00000000000E+00 -0.40346120403E+03  0.20876811929E+04  0.20483241492E+04 0.  0.
        4    1    3    3  502    0 -0.45236721732E+03 -0.74336576661E+02  0.73169624688E+03  0.86344834040E+03  0.12699999809E+01 0.  1.
       -4    1    3    3    0  502  0.45236721732E+03  0.74336576661E+02 -0.11351574509E+04  0.12242328525E+04  0.12699999809E+01 0. -1.
</event>
<event>
 5   0  0.1235817E-04  0.2087867E+04  0.7818609E-02  0.8566607E-01
        2   -1    0    0  501    0  0.00000000000E+00  0.00000000000E+00  0.15526395614E+04  0.15526395614E+04  0.25500000920E-02 0.  1.
       -2   -1    0    0    0  501  0.00000000000E+00  0.00000000000E+00 -0.70189987347E+03  0.70189987347E+03  0.25500000920E-02 0. -1.
    10030    2    1    2    0    0  0.00000000000E+00  0.00000000000E+00  0.85073968790E+03  0.22545394348E+04  0.20878673441E+04 0.  0.
        1    1    3    3  502    0  0.40136748392E+03  0.23170177081E+03  0.14354664636E+04  0.15084248525E+04  0.50400001928E-02 0.  1.
       -1    1    3    3    0  502 -0.40136748392E+03 -0.23170177081E+03 -0.58472677565E+03  0.74611458231E+03  0.50400001928E-02 0. -1.
</event>
<event>
 5   0  0.5933905E-05  0.2105307E+04  0.7818609E-02  0.8558909E-01
        1   -1    0    0  501    0  0.00000000000E+00  0.00000000000E+00  0.18746165147E+04  0.18746165147E+04  0.50400001928E-02 0.  1.
       -1   -1    0    0    0  501  0.00000000000E+00  0.00000000000E+00 -0.59109659660E+03  0.59109659662E+03  0.50400001928E-02 0. -1.
    10030    2    1    2    0    0  0.00000000000E+00  0.00000000000E+00  0.12835199181E+04  0.24657131114E+04  0.21053070482E+04 0.  0.
        2    1    3    3  502    0 -0.14353068053E+03  0.60983884968E+03  0.16324884867E+04  0.17485774612E+04  0.25500000920E-02 0.  1.
       -2    1    3    3    0  502  0.14353068053E+03 -0.60983884968E+03 -0.34896856855E+03  0.71713565012E+03  0.25500000920E-02 0. -1.
</event>
<event>
 5   0  0.1281470E-04  0.2044966E+04  0.7818609E-02  0.8585881E-01
       -2   -1    0    0    0  501  0.00000000000E+00  0.00000000000E+00  0.55767315303E+03  0.55767315303E+03  0.25500000920E-02 0. -1.
        2   -1    0    0  501    0  0.00000000000E+00  0.00000000000E+00 -0.18747033529E+04  0.18747033529E+04  0.25500000920E-02 0.  1.
    10030    2    1    2    0    0  0.00000000000E+00  0.00000000000E+00 -0.13170301999E+04  0.24323765060E+04  0.20449662392E+04 0.  0.
        3    1    3    3  502    0 -0.29503851686E+03  0.54737452503E+02 -0.18211506421E+04  0.18457067986E+04  0.10100000352E+00 0.  1.
       -3    1    3    3    0  502  0.29503851686E+03 -0.54737452503E+02  0.50412044215E+03  0.58666970736E+03  0.10100000352E+00 0. -1.
</event>
<event>
 5   0  0.6263616E-05  0.2112807E+04  0.7818609E-02  0.8555623E-01
       -1   -1    0    0    0  501  0.00000000000E+00  0.00000000000E+00  0.21402394379E+04  0.21402394380E+04  0.50400001928E-02 0.  1.
        1   -1    0    0  501    0  0.00000000000E+00  0.00000000000E+00 -0.52143145101E+03  0.52143145103E+03  0.50400001928E-02 0. -1.
    10030    2    1    2    0    0  0.00000000000E+00  0.00000000000E+00  0.16188079869E+04  0.26616708890E+04  0.21128068115E+04 0.  0.
        4    1    3    3  502    0  0.48042729750E+03 -0.49885078901E+03  0.18143291856E+04  0.19420233017E+04  0.12699999809E+01 0.  1.
       -4    1    3    3    0  502 -0.48042729750E+03  0.49885078901E+03 -0.19552119861E+03  0.71964758729E+03  0.12699999809E+01 0. -1.
</event>
<event>
 5   0  0.6052292E-05  0.2114271E+04  0.7818609E-02  0.8554983E-01
        1   -1    0    0  501    0  0.00000000000E+00  0.00000000000E+00  0.12571314228E+04  0.12571314228E+04  0.50400001928E-02 0.  1.
       -1   -1    0    0    0  501  0.00000000000E+00  0.00000000000E+00 -0.88895697643E+03  0.88895697644E+03  0.50400001928E-02 0. -1.
    10030    2    1    2    0    0  0.00000000000E+00  0.00000000000E+00  0.36817444640E+03  0.21460883993E+04  0.21142712680E+04 0.  0.
        1    1    3    3  502    0 -0.34613079713E+03  0.21693625167E+03  0.11737820723E+04  0.12428323376E+04  0.50400001928E-02 0.  1.
       -1    1    3    3    0  502  0.34613079713E+03 -0.21693625167E+03 -0.80560762593E+03  0.90325606169E+03  0.50400001928E-02 0. -1.
</event>
<event>
 5   0  0.5846187E-05  0.2106789E+04  0.7818609E-02  0.8558259E-01
       -1   -1    0    0    0  501  0.00000000000E+00  0.00000000000E+00  0.52447053184E+03  0.52447053186E+03  0.50400001928E-02 0.  1.
        1   -1    0    0  501    0  0.00000000000E+00  0.00000000000E+00 -0.21157333438E+04  0.21157333438E+04  0.50400001928E-02 0. -1.
    10030    2    1    2    0    0  0.00000000000E+00  0.00000000000E+00 -0.15912628120E+04  0.26402038757E+04  0.21067888286E+04 0.  0.
        5    1    3    3  502    0  0.17872278052E+03 -0.92841891056E+03 -0.21358740006E+03  0.96930138411E+03  0.46999998093E+01 0.  1.
       -5    1    3    3    0  502 -0.17872278052E+03  0.92841891056E+03 -0.13776754119E+04  0.16709024916E+04  0.46999998093E+01 0. -1.
</event>
<event>
 5   0  0.1252477E-04  0.2097597E+04  0.7818609E-02  0.8562303E-01
       -2   -1    0    0    0  501  0.00000000000E+00  0.00000000000E+00  0.98934251424E+03  0.98934251424E+03  0.25500000920E-02 0.  1.
        2   -1    0    0  501    0  0.00000000000E+00  0.00000000000E+00 -0.11118273115E+04  0.11118273115E+04  0.25500000920E-02 0. -1.
    10030    2    1    2    0    0  0.00000000000E+00  0.00000000000E+00 -0.12248479722E+03  0.21011698257E+04  0.20975967465E+04 0.  0.
        4    1    3    3  502    0 -0.27572940812E+03 -0.10083364201E+04  0.23798458916E+02  0.10456275733E+04  0.12699999809E+01 0.  1.
       -4    1    3    3    0  502  0.27572940812E+03  0.10083364201E+04 -0.14628325614E+03  0.10555422524E+04  0.12699999809E+01 0. -1.
</event>
<event>
 5   0  0.5933905E-05  0.1919551E+04  0.7818609E-02  0.8645185E-01
        1   -1    0    0  501    0  0.00000000000E+00  0.00000000000E+00  0.15201926483E+04  0.15201926483E+04  0.50400001928E-02 0. -1.
       -1   -1    0    0    0  501  0.00000000000E+00  0.00000000000E+00 -0.60595564740E+03  0.60595564742E+03  0.50400001928E-02 0.  1.
    10030    2    1    2    0    0  0.00000000000E+00  0.00000000000E+00  0.91423700085E+03  0.21261482957E+04  0.19195513230E+04 0.  0.
        2    1    3    3  502    0  0.65956699525E+02 -0.56864975901E+03 -0.39615501244E+03  0.69616925278E+03  0.25500000920E-02 0.  1.
       -2    1    3    3    0  502 -0.65956699525E+02  0.56864975901E+03  0.13103920133E+04  0.14299790429E+04  0.25500000920E-02 0. -1.
</event>
<event>
 5   0  0.1349252E-04  0.2073062E+04  0.7818609E-02  0.8573204E-01
       -2   -1    0    0    0  501  0.00000000000E+00  0.00000000000E+00  0.10472704647E+04  0.10472704647E+04  0.25500000920E-02 0. -1.
        2   -1    0    0  501    0  0.00000000000E+00  0.00000000000E+00 -0.10259012311E+04  0.10259012311E+04  0.25500000920E-02 0.  1.
    10030    2    1    2    0    0  0.00000000000E+00  0.00000000000E+00  0.21369233631E+02  0.20731716958E+04  0.20730615611E+04 0.  0.
        2    1    3    3  502    0  0.77030891915E+03 -0.56370893634E+03 -0.39338197396E+03  0.10324209283E+04  0.25500000920E-02 0.  1.
       -2    1    3    3    0  502 -0.77030891915E+03  0.56370893634E+03  0.41475120759E+03  0.10407507675E+04  0.25500000920E-02 0. -1.
</event>
<event>
 5   0  0.1235817E-04  0.2045629E+04  0.7818609E-02  0.8585580E-01
       -2   -1    0    0    0  501  0.00000000000E+00  0.00000000000E+00  0.10611278897E+04  0.10611278897E+04  0.25500000920E-02 0. -1.
        2   -1    0    0  501    0  0.00000000000E+00  0.00000000000E+00 -0.98588478185E+03  0.98588478185E+03  0.25500000920E-02 0.  1.
    10030    2    1    2    0    0  0.00000000000E+00  0.00000000000E+00  0.75243107877E+02  0.20470126716E+04  0.20456293292E+04 0.  0.
        1    1    3    3  502    0 -0.17863221721E+03  0.22961360989E+03  0.10188548791E+04  0.10595740387E+04  0.50400001928E-02 0. -1.
       -1    1    3    3    0  502  0.17863221721E+03 -0.22961360989E+03 -0.94361177121E+03  0.98743863286E+03  0.50400001928E-02 0.  1.
</event>
<event>
 5   0  0.1325673E-04  0.2089320E+04  0.7818609E-02  0.8565963E-01
        2   -1    0    0  501    0  0.00000000000E+00  0.00000000000E+00  0.10316799106E+04  0.10316799106E+04  0.25500000920E-02 0.  1.
       -2   -1    0    0    0  501  0.00000000000E+00  0.00000000000E+00 -0.10578034988E+04  0.10578034988E+04  0.25500000920E-02 0. -1.
    10030    2    1    2    0    0  0.00000000000E+00  0.00000000000E+00 -0.26123588182E+02  0.20894834094E+04  0.20893200991E+04 0.  0.
        5    1    3    3  502    0  0.99301107962E+03  0.16123475995E+03 -0.29455293546E+03  0.10482610237E+04  0.46999998093E+01 0. -1.
       -5    1    3    3    0  502 -0.99301107962E+03 -0.16123475995E+03  0.26842934728E+03  0.10412223857E+04  0.46999998093E+01 0.  1.
</event>
<event>
 5   0  0.5933905E-05  0.2091200E+04  0.7818609E-02  0.8565130E-01
        1   -1    0    0  501    0  0.00000000000E+00  0.00000000000E+00  0.66841203531E+03  0.66841203533E+03  0.50400001928E-02 0. -1.
       -1   -1    0    0    0  501  0.00000000000E+00  0.00000000000E+00 -0.16356366126E+04  0.16356366126E+04  0.50400001928E-02 0.  1.
    10030    2    1    2    0    0  0.00000000000E+00  0.00000000000E+00 -0.96722457729E+03  0.23040486479E+04  0.20911998444E+04 0.  0.
        2    1    3    3  502    0 -0.22584438698E+03 -0.98925941401E+03 -0.20566728051E+03  0.10353448245E+04  0.25500000920E-02 0.  1.
       -2    1    3    3    0  502  0.22584438698E+03  0.98925941401E+03 -0.76155729678E+03  0.12687038234E+04  0.25500000920E-02 0. -1.
</event>
<event>
 5   0  0.6263616E-05  0.2082637E+04  0.7818609E-02  0.8568931E-01
        1   -1    0    0  501    0  0.00000000000E+00  0.00000000000E+00  0.23521336233E+04  0.23521336233E+04  0.50400001928E-02 0. -1.
       -1   -1    0    0    0  501  0.00000000000E+00  0.00000000000E+00 -0.46100431842E+03  0.46100431845E+03  0.50400001928E-02 0.  1.
    10030    2    1    2    0    0  0.00000000000E+00  0.00000000000E+00  0.18911293049E+04  0.28131379418E+04  0.20826365577E+04 0.  0.
        4    1    3    3  502    0 -0.91363497595E+03 -0.97225832292E+02  0.28360998030E+03  0.96157057233E+03  0.12699999809E+01 0.  1.
       -4    1    3    3    0  502  0.91363497595E+03  0.97225832292E+02  0.16075193246E+04  0.18515673694E+04  0.12699999809E+01 0. -1.
</event>
<event>
 5   0  0.1252477E-04  0.2088061E+04  0.7818609E-02  0.8566521E-01
        2   -1    0    0  501    0  0.00000000000E+00  0.00000000000E+00  0.10326350943E+04  0.10326350943E+04  0.25500000920E-02 0. -1.
       -2   -1    0    0    0  501  0.00000000000E+00  0.00000000000E+00 -0.10555514612E+04  0.10555514612E+04  0.25500000920E-02 0.  1.
    10030    2    1    2    0    0  0.00000000000E+00  0.00000000000E+00 -0.22916366862E+02  0.20881865555E+04  0.20880608062E+04 0.  0.
        4    1    3    3  502    0  0.26816158265E+03  0.36446250206E+03 -0.95239439191E+03  0.10544193855E+04  0.12699999809E+01 0.  1.
       -4    1    3    3    0  502 -0.26816158265E+03 -0.36446250206E+03  0.92947802505E+03  0.10337671700E+04  0.12699999809E+01 0. -1.
</event>
<event>
 5   0  0.1281470E-04  0.1959698E+04  0.7818609E-02  0.8625699E-01
       -2   -1    0    0    0  501  0.00000000000E+00  0.00000000000E+00  0.38103682580E+03  0.38103682581E+03  0.25500000920E-02 0. -1.
        2   -1    0    0  501    0  0.00000000000E+00  0.00000000000E+00 -0.25197141077E+04  0.25197141077E+04  0.25500000920E-02 0.  1.
    10030    2    1    2    0    0  0.00000000000E+00  0.00000000000E+00 -0.21386772819E+04  0.29007509336E+04  0.19596977987E+04 0.  0.
        3    1    3    3  502    0  0.57805127174E+03  0.36937722012E+03 -0.21049743642E+04  0.22139331263E+04  0.10100000352E+00 0.  1.
       -3    1    3    3    0  502 -0.57805127174E+03 -0.36937722012E+03 -0.33702917721E+02  0.68681780726E+03  0.10100000352E+00 0. -1.
</event>
<event>
 5   0  0.6052292E-05  0.2079981E+04  0.7818609E-02  0.8570114E-01
        1   -1    0    0  501    0  0.00000000000E+00  0.00000000000E+00  0.70015039849E+03  0.70015039851E+03  0.50400001928E-02 0. -1.
       -1   -1    0    0    0  501  0.00000000000E+00  0.00000000000E+00 -0.15447826428E+04  0.15447826428E+04  0.50400001928E-02 0.  1.
    10030    2    1    2    0    0  0.00000000000E+00  0.00000000000E+00 -0.84463224427E+03  0.22449330413E+04  0.20799809450E+04 0.  0.
        1    1    3    3  502    0 -0.81366990352E+03 -0.51525202450E+03  0.12842285618E+01  0.96309138191E+03  0.50400001928E-02 0. -1.
       -1    1    3    3    0  502  0.81366990352E+03  0.51525202450E+03 -0.84591647283E+03  0.12818416594E+04  0.50400001928E-02 0.  1.
</event>
<event>
 5   0  0.6052292E-05  0.2098365E+04  0.7818609E-02  0.8561964E-01
        1   -1    0    0  501    0  0.00000000000E+00  0.00000000000E+00  0.13924848779E+04  0.13924848779E+04  0.50400001928E-02 0.  1.
       -1   -1    0    0    0  501  0.00000000000E+00  0.00000000000E+00 -0.79051782023E+03  0.79051782025E+03  0.50400001928E-02 0. -1.
    10030    2    1    2    0    0  0.00000000000E+00  0.00000000000E+00  0.60196705767E+03  0.21830026982E+04  0.20983651831E+04 0.  0.
        1    1    3    3  502    0 -0.56856189886E+03 -0.69785118415E+03  0.86172813786E+03  0.12461277188E+04  0.50400001928E-02 0.  1.
       -1    1    3    3    0  502  0.56856189886E+03  0.69785118415E+03 -0.25976108019E+03  0.93687497932E+03  0.50400001928E-02 0. -1.
</event>
<event>
 5   0  0.5933905E-05  0.2133473E+04  0.7818609E-02  0.8546640E-01
        1   -1    0    0  501    0  0.00000000000E+00  0.00000000000E+00  0.93527488314E+03  0.93527488316E+03  0.50400001928E-02 0. -1.
       -1   -1    0    0    0  501  0.00000000000E+00  0.00000000000E+00 -0.12166766147E+04  0.12166766147E+04  0.50400001928E-02 0.  1.
    10030    2    1    2    0    0  0.00000000000E+00  0.00000000000E+00 -0.28140173157E+03  0.21519514979E+04  0.21334732983E+04 0.  0.
        2    1    3    3  502    0  0.63038021085E+02 -0.93868828765E+03  0.36646370393E+03  0.10096559512E+04  0.25500000920E-02 0. -1.
       -2    1    3    3    0  502 -0.63038021085E+02  0.93868828765E+03 -0.64786543550E+03  0.11422955467E+04  0.25500000920E-02 0.  1.
</event>
<event>
 5   0  0.5933905E-05  0.2114288E+04  0.7818609E-02  0.8554975E-01
        1   -1    0    0  501    0  0.00000000000E+00  0.00000000000E+00  0.11236221345E+04  0.11236221345E+04  0.50400001928E-02 0.  1.
       -1   -1    0    0    0  501  0.00000000000E+00  0.00000000000E+00 -0.99459888524E+03  0.99459888526E+03  0.50400001928E-02 0. -1.
    10030    2    1    2    0    0  0.00000000000E+00  0.00000000000E+00  0.12902324924E+03  0.21182210197E+04  0.21142878919E+04 0.  0.
        2    1    3    3  502    0  0.53396922918E+03 -0.91194527366E+03  0.92599515187E+02  0.10608213752E+04  0.25500000920E-02 0.  1.
       -2    1    3    3    0  502 -0.53396922918E+03  0.91194527366E+03  0.36423734049E+02  0.10573996445E+04  0.25500000920E-02 0. -1.
</event>
<event>
 5   0  0.1325673E-04  0.2096478E+04  0.7818609E-02  0.8562796E-01
       -2   -1    0    0    0  501  0.00000000000E+00  0.00000000000E+00  0.53057090170E+03  0.53057090171E+03  0.25500000920E-02 0.  1.
        2   -1    0    0  501    0  0.00000000000E+00  0.00000000000E+00 -0.20709867853E+04  0.20709867853E+04  0.25500000920E-02 0. -1.
    10030    2    1    2    0    0  0.00000000000E+00  0.00000000000E+00 -0.15404158836E+04  0.26015576870E+04  0.20964783100E+04 0.  0.
        5    1    3    3  502    0  0.91651376638E+03  0.86878565389E+02 -0.14821474342E+03  0.93248864297E+03  0.46999998093E+01 0.  1.
       -5    1    3    3    0  502 -0.91651376638E+03 -0.86878565389E+02 -0.13922011402E+04  0.16690690440E+04  0.46999998093E+01 0. -1.
</event>
<event>
 5   0  0.5846187E-05  0.2581058E+04  0.7818609E-02  0.8374664E-01
        1   -1    0    0  501    0  0.00000000000E+00  0.00000000000E+00  0.15140665929E+04  0.15140665929E+04  0.50400001928E-02 0. -1.
       -1   -1    0    0    0  501  0.00000000000E+00  0.00000000000E+00 -0.10999944507E+04  0.10999944507E+04  0.50400001928E-02 0.  1.
    10030    2    1    2    0    0  0.00000000000E+00  0.00000000000E+00  0.41407214225E+03  0.26140610436E+04  0.25810578066E+04 0.  0.
        5    1    3    3  502    0 -0.35882190794E+03 -0.62901534110E+02 -0.10468302779E+04  0.11084157548E+04  0.46999998093E+01 0.  1.
       -5    1    3    3    0  502  0.35882190794E+03  0.62901534110E+02  0.14609024202E+04  0.15056452889E+04  0.46999998093E+01 0. -1.
</event>
<event>
 5   0  0.6221148E-05  0.1903208E+04  0.7818609E-02  0.8653261E-01
       -1   -1    0    0    0  501  0.00000000000E+00  0.00000000000E+00  0.13863383983E+04  0.13863383983E+04  0.50400001928E-02 0.  1.
        1   -1    0    0  501    0  0.00000000000E+00  0.00000000000E+00 -0.65319591164E+03  0.65319591166E+03  0.50400001928E-02 0. -1.
    10030    2    1    2    0    0  0.00000000000E+00  0.00000000000E+00  0.73314248662E+03  0.20395343099E+04  0.19032084215E+04 0.  0.
        3    1    3    3  502    0 -0.73234889170E+03  0.58064173742E+02 -0.28160448096E+03  0.78677025957E+03  0.10100000352E+00 0. -1.
       -3    1    3    3    0  502  0.73234889170E+03 -0.58064173742E+02  0.10147469676E+04  0.12527640504E+04  0.10100000352E+00 0.  1.
</event>
<event>
 5   0  0.5846187E-05  0.2131119E+04  0.7818609E-02  0.8547658E-01
       -1   -1    0    0    0  501  0.00000000000E+00  0.00000000000E+00  0.10139923324E+04  0.10139923324E+04  0.50400001928E-02 0. -1.
        1   -1    0    0  501    0  0.00000000000E+00  0.00000000000E+00 -0.11197493640E+04  0.11197493640E+04  0.50400001928E-02 0.  1.
    10030    2    1    2    0    0  0.00000000000E+00  0.00000000000E+00 -0.10575703163E+03  0.21337416964E+04  0.21311192077E+04 0.  0.
        5    1    3    3  502    0  0.10232165980E+04  0.24733921733E+03  0.11238909336E+03  0.10586795044E+04  0.46999998093E+01 0. -1.
       -5    1    3    3    0  502 -0.10232165980E+04 -0.24733921733E+03 -0.21814612498E+03  0.10750621920E+04  0.46999998093E+01 0.  1.
</event>
<event>
 5   0  0.6263616E-05  0.2037758E+04  0.7818609E-02  0.8589168E-01
       -1   -1    0    0    0  501  0.00000000000E+00  0.00000000000E+00  0.84298831377E+03  0.84298831378E+03  0.50400001928E-02 0. -1.
        1   -1    0    0  501    0  0.00000000000E+00  0.00000000000E+00 -0.12314697788E+04  0.12314697788E+04  0.50400001928E-02 0.  1.
    10030    2    1    2    0    0  0.00000000000E+00  0.00000000000E+00 -0.38848146500E+03  0.20744580926E+04  0.20377582116E+04 0.  0.
        4    1    3    3  502    0 -0.41463700578E+03  0.59163988788E+03  0.53713504937E+03  0.90026511520E+03  0.12699999809E+01 0. -1.
       -4    1    3    3    0  502  0.41463700578E+03 -0.59163988788E+03 -0.92561651437E+03  0.11741929774E+04  0.12699999809E+01 0.  1.
</event>
<event>
 5   0  0.1349252E-04  0.2088447E+04  0.7818609E-02  0.8566350E-01
       -2   -1    0    0    0  501  0.00000000000E+00  0.00000000000E+00  0.15420792691E+04  0.15420792691E+04  0.25500000920E-02 0. -1.
        2   -1    0    0  501    0  0.00000000000E+00  0.00000000000E+00 -0.70709930387E+03  0.70709930388E+03  0.25500000920E-02 0.  1.
    10030    2    1    2    0    0  0.00000000000E+00  0.00000000000E+00  0.83497996521E+03  0.22491785730E+04  0.20884474403E+04 0.  0.
        2    1    3    3  502    0 -0.26217704104E+03 -0.95663063147E+03  0.76898935366E+03  0.12550791178E+04  0.25500000920E-02 0.  1.
       -2    1    3    3    0  502  0.26217704104E+03  0.95663063147E+03  0.65990611549E+02  0.99409945515E+03  0.25500000920E-02 0. -1.
</event>
<event>
 5   0  0.1235817E-04  0.2068687E+04  0.7818609E-02  0.8575164E-01
        2   -1    0    0  501    0  0.00000000000E+00  0.00000000000E+00  0.83439996929E+03  0.83439996929E+03  0.25500000920E-02 0.  1.
       -2   -1    0    0    0  501  0.00000000000E+00  0.00000000000E+00 -0.12821980986E+04  0.12821980986E+04  0.25500000920E-02 0. -1.
    10030    2    1    2    0    0  0.00000000000E+00  0.00000000000E+00 -0.44779812930E+03  0.21165980679E+04  0.20686865921E+04 0.  0.
        1    1    3    3  502    0  0.64377287170E+03  0.78572560209E+03 -0.42350141953E+03  0.11005279117E+04  0.50400001928E-02 0. -1.
       -1    1    3    3    0  502 -0.64377287170E+03 -0.78572560209E+03 -0.24296709777E+02  0.10160701562E+04  0.50400001928E-02 0.  1.
</event>
<event>
 5   0  0.5846187E-05  0.2066541E+04  0.7818609E-02  0.8576127E-01
       -1   -1    0    0    0  501  0.00000000000E+00  0.00000000000E+00  0.11780701849E+04  0.11780701849E+04  0.50400001928E-02 0. -1.
        1   -1    0    0  501    0  0.00000000000E+00  0.00000000000E+00 -0.90626837665E+03  0.90626837666E+03  0.50400001928E-02 0.  1.
    10030    2    1    2    0    0  0.00000000000E+00  0.00000000000E+00  0.27180180829E+03  0.20843385616E+04  0.20665408335E+04 0.  0.
        5    1    3    3  502    0 -0.40415983889E+03 -0.10159105466E+01  0.10950267729E+04  0.11672411623E+04  0.46999998093E+01 0. -1.
       -5    1    3    3    0  502  0.40415983889E+03  0.10159105466E+01 -0.82322496465E+03  0.91709739934E+03  0.46999998093E+01 0.  1.
</event>
<event>
 5   0  0.5933905E-05  0.2117515E+04  0.7818609E-02  0.8553567E-01
        1   -1    0    0  501    0  0.00000000000E+00  0.00000000000E+00  0.89974969931E+03  0.89974969933E+03  0.50400001928E-02 0. -1.
       -1   -1    0    0    0  501  0.00000000000E+00  0.00000000000E+00 -0.12458654686E+04  0.12458654687E+04  0.50400001928E-02 0.  1.
    10030    2    1    2    0    0  0.00000000000E+00  0.00000000000E+00 -0.34611576933E+03  0.21456151680E+04  0.21175146572E+04 0.  0.
        2    1    3    3  502    0  0.82351257904E+03  0.64356669988E+03 -0.34446545100E+03  0.11004578647E+04  0.25500000920E-02 0.  1.
       -2    1    3    3    0  502 -0.82351257904E+03 -0.64356669988E+03 -0.16503183291E+01  0.10451573033E+04  0.25500000920E-02 0. -1.
</event>
<event>
 5   0  0.6221148E-05  0.1710348E+04  0.7818609E-02  0.8755485E-01
        1   -1    0    0  501    0  0.00000000000E+00  0.00000000000E+00  0.17274793791E+04  0.17274793791E+04  0.50400001928E-02 0.  1.
       -1   -1    0    0    0  501  0.00000000000E+00  0.00000000000E+00 -0.42334648316E+03  0.42334648319E+03  0.50400001928E-02 0. -1.
    10030    2    1    2    0    0  0.00000000000E+00  0.00000000000E+00  0.13041328959E+04  0.21508258623E+04  0.17103477073E+04 0.  0.
        3    1    3    3  502    0 -0.57999919946E+03 -0.54538201151E+03  0.10446954598E+04  0.13134798148E+04  0.10100000352E+00 0.  1.
       -3    1    3    3    0  502  0.57999919946E+03  0.54538201151E+03  0.25943743612E+03  0.83734604753E+03  0.10100000352E+00 0. -1.
</event>
<event>
 5   0  0.1349252E-04  0.1776427E+04  0.7818609E-02  0.8718937E-01
        2   -1    0    0  501    0  0.00000000000E+00  0.00000000000E+00  0.75601593823E+03  0.75601593824E+03  0.25500000920E-02 0. -1.
       -2   -1    0    0    0  501  0.00000000000E+00  0.00000000000E+00 -0.10435271201E+04  0.10435271201E+04  0.25500000920E-02 0.  1.
    10030    2    1    2    0    0  0.00000000000E+00  0.00000000000E+00 -0.28751118189E+03  0.17995430584E+04  0.17764269023E+04 0.  0.
        2    1    3    3  502    0  0.38930505873E+03 -0.75018595672E+03  0.13290212813E+03  0.85557020406E+03  0.25500000920E-02 0. -1.
       -2    1    3    3    0  502 -0.38930505873E+03  0.75018595672E+03 -0.42041331003E+03  0.94397285431E+03  0.25500000920E-02 0.  1.
</event>
<event>
 5   0  0.1235817E-04  0.1831084E+04  0.7818609E-02  0.8689942E-01
       -2   -1    0    0    0  501  0.00000000000E+00  0.00000000000E+00  0.75780450475E+03  0.75780450475E+03  0.25500000920E-02 0. -1.
        2   -1    0    0  501    0  0.00000000000E+00  0.00000000000E+00 -0.11061124047E+04  0.11061124047E+04  0.25500000920E-02 0.  1.
    10030    2    1    2    0    0  0.00000000000E+00  0.00000000000E+00 -0.34830789995E+03  0.18639169095E+04  0.18310837917E+04 0.  0.
        1    1    3    3  502    0 -0.29110641247E+03  0.73126339439E+03  0.30191558369E+03  0.84299591640E+03  0.50400001928E-02 0.  1.
       -1    1    3    3    0  502  0.29110641247E+03 -0.73126339439E+03 -0.65022348365E+03  0.10209209931E+04  0.50400001928E-02 0. -1.
</event>
<event>
 5   0  0.6052292E-05  0.1660882E+04  0.7818609E-02  0.8783995E-01
        1   -1    0    0  501    0  0.00000000000E+00  0.00000000000E+00  0.57472069412E+03  0.57472069414E+03  0.50400001928E-02 0.  1.
       -1   -1    0    0    0  501  0.00000000000E+00  0.00000000000E+00 -0.11999436121E+04  0.11999436121E+04  0.50400001928E-02 0. -1.
    10030    2    1    2    0    0  0.00000000000E+00  0.00000000000E+00 -0.62522291802E+03  0.17746643063E+04  0.16608822062E+04 0.  0.
        1    1    3    3  502    0 -0.38335840102E+03  0.54992102078E+03  0.21112664480E+03  0.70281665667E+03  0.50400001928E-02 0.  1.
       -1    1    3    3    0  502  0.38335840102E+03 -0.54992102078E+03 -0.83634956283E+03  0.10718476496E+04  0.50400001928E-02 0. -1.
</event>
<event>
 5   0  0.1349252E-04  0.2110644E+04  0.7818609E-02  0.8556569E-01
       -2   -1    0    0    0  501  0.00000000000E+00  0.00000000000E+00  0.87715834700E+03  0.87715834701E+03  0.25500000920E-02 0.  1.
        2   -1    0    0  501    0  0.00000000000E+00  0.00000000000E+00 -0.12696738479E+04  0.12696738479E+04  0.25500000920E-02 0. -1.
    10030    2    1    2    0    0  0.00000000000E+00  0.00000000000E+00 -0.39251550090E+03  0.21468321949E+04  0.21106444643E+04 0.  0.
        2    1    3    3  502    0 -0.60012041935E+03 -0.49652198271E+03 -0.92052410391E+03  0.12058371461E+04  0.25500000920E-02 0. -1.
       -2    1    3    3    0  502  0.60012041935E+03  0.49652198271E+03  0.52800860301E+03  0.94099504881E+03  0.25500000920E-02 0.  1.
</event>
<event>
 5   0  0.6263616E-05  0.2100376E+04  0.7818609E-02  0.8561078E-01
       -1   -1    0    0    0  501  0.00000000000E+00  0.00000000000E+00  0.70338178640E+03  0.70338178641E+03  0.50400001928E-02 0. -1.
        1   -1    0    0  501    0  0.00000000000E+00  0.00000000000E+00 -0.15679892752E+04  0.15679892752E+04  0.50400001928E-02 0.  1.
    10030    2    1    2    0    0  0.00000000000E+00  0.00000000000E+00 -0.86460748882E+03  0.22713710616E+04  0.21003762496E+04 0.  0.
        4    1    3    3  502    0  0.10222825786E+04  0.15529026959E+03 -0.23373366102E+03  0.10600989461E+04  0.12699999809E+01 0. -1.
       -4    1    3    3    0  502 -0.10222825786E+04 -0.15529026959E+03 -0.63087382780E+03  0.12112721155E+04  0.12699999809E+01 0.  1.
</event>
<event>
 5   0  0.6221148E-05  0.2147569E+04  0.7818609E-02  0.8540573E-01
        1   -1    0    0  501    0  0.00000000000E+00  0.00000000000E+00  0.13674153630E+04  0.13674153630E+04  0.50400001928E-02 0.  1.
       -1   -1    0    0    0  501  0.00000000000E+00  0.00000000000E+00 -0.84320640257E+03  0.84320640259E+03  0.50400001928E-02 0. -1.
    10030    2    1    2    0    0  0.00000000000E+00  0.00000000000E+00  0.52420896045E+03  0.22106217656E+04  0.21475692204E+04 0.  0.
        3    1    3    3  502    0 -0.19399355705E+02 -0.79614820175E+03  0.10035188713E+04  0.12811238931E+04  0.10100000352E+00 0.  1.
       -3    1    3    3    0  502  0.19399355705E+02  0.79614820175E+03 -0.47930991088E+03  0.92949787252E+03  0.10100000352E+00 0. -1.
</event>
<event>
 5   0  0.1325673E-04  0.2078811E+04  0.7818609E-02  0.8570635E-01
       -2   -1    0    0    0  501  0.00000000000E+00  0.00000000000E+00  0.11353516719E+04  0.11353516719E+04  0.25500000920E-02 0. -1.
        2   -1    0    0  501    0  0.00000000000E+00  0.00000000000E+00 -0.95156792821E+03  0.95156792821E+03  0.25500000920E-02 0.  1.
    10030    2    1    2    0    0  0.00000000000E+00  0.00000000000E+00  0.18378374370E+03  0.20869196001E+04  0.20788114279E+04 0.  0.
        5    1    3    3  502    0 -0.71879904857E+03  0.63469309960E+03 -0.31071442230E+03  0.10080044371E+04  0.46999998093E+01 0.  1.
       -5    1    3    3    0  502  0.71879904857E+03 -0.63469309960E+03  0.49449816600E+03  0.10789151631E+04  0.46999998093E+01 0. -1.
</event>
<event>
 5   0  0.1349252E-04  0.2132186E+04  0.7818609E-02  0.8547196E-01
       -2   -1    0    0    0  501  0.00000000000E+00  0.00000000000E+00  0.10203277161E+04  0.10203277161E+04  0.25500000920E-02 0. -1.
        2   -1    0    0  501    0  0.00000000000E+00  0.00000000000E+00 -0.11139109672E+04  0.11139109672E+04  0.25500000920E-02 0.  1.
    10030    2    1    2    0    0  0.00000000000E+00  0.00000000000E+00 -0.93583251100E+02  0.21342386832E+04  0.21321859516E+04 0.  0.
        2    1    3    3  502    0  0.19259463211E+03  0.10468131145E+04  0.13630750704E+02  0.10644699086E+04  0.25500000920E-02 0. -1.
       -2    1    3    3    0  502 -0.19259463211E+03 -0.10468131145E+04 -0.10721400180E+03  0.10697687746E+04  0.25500000920E-02 0.  1.
</event>
<event>
 5   0  0.4615125E-05  0.2105056E+04  0.7818609E-02  0.8559020E-01
       -3   -1    0    0    0  501  0.00000000000E+00  0.00000000000E+00  0.74428709714E+03  0.74428710399E+03  0.10100000352E+00 0.  1.
        3   -1    0    0  501    0  0.00000000000E+00  0.00000000000E+00 -0.14884242143E+04  0.14884242178E+04  0.10100000352E+00 0. -1.
    10030    2    1    2    0    0  0.00000000000E+00  0.00000000000E+00 -0.74413711720E+03  0.22327113218E+04  0.21050557706E+04 0.  0.
        2    1    3    3  502    0 -0.93787031029E+03 -0.17877444738E+03  0.97801905696E+02  0.95975321553E+03  0.25500000920E-02 0. -1.
       -2    1    3    3    0  502  0.93787031029E+03  0.17877444738E+03 -0.84193902290E+03  0.12729581062E+04  0.25500000920E-02 0.  1.
</event>
<event>
 5   0  0.5846187E-05  0.2035901E+04  0.7818609E-02  0.8590017E-01
       -1   -1    0    0    0  501  0.00000000000E+00  0.00000000000E+00  0.12531045959E+04  0.12531045959E+04  0.50400001928E-02 0. -1.
        1   -1    0    0  501    0  0.00000000000E+00  0.00000000000E+00 -0.82692457810E+03  0.82692457811E+03  0.50400001928E-02 0.  1.
    10030    2    1    2    0    0  0.00000000000E+00  0.00000000000E+00  0.42618001781E+03  0.20800291740E+04  0.20359007729E+04 0.  0.
        5    1    3    3  502    0 -0.41937372816E+03 -0.54588811059E+03 -0.55305240601E+03  0.88303862143E+03  0.46999998093E+01 0.  1.
       -5    1    3    3    0  502  0.41937372816E+03  0.54588811059E+03  0.97923242381E+03  0.11969905526E+04  0.46999998093E+01 0. -1.
</event>
<event>
 5   0  0.5933905E-05  0.2063216E+04  0.7818609E-02  0.8577623E-01
       -1   -1    0    0    0  501  0.00000000000E+00  0.00000000000E+00  0.19451403180E+04  0.19451403180E+04  0.50400001928E-02 0.  1.
        1   -1    0    0  501    0  0.00000000000E+00  0.00000000000E+00 -0.54711460829E+03  0.54711460831E+03  0.50400001928E-02 0. -1.
    10030    2    1    2    0    0  0.00000000000E+00  0.00000000000E+00  0.13980257097E+04  0.24922549263E+04  0.20632156293E+04 0.  0.
        2    1    3    3  502    0  0.89904435042E+02 -0.50923484681E+03 -0.37925264067E+03  0.64127646308E+03  0.25500000920E-02 0. -1.
       -2    1    3    3    0  502 -0.89904435042E+02  0.50923484681E+03  0.17772783504E+04  0.18509784633E+04  0.25500000920E-02 0.  1.
</event>
<event>
 5   0  0.6052292E-05  0.2107018E+04  0.7818609E-02  0.8558158E-01
       -1   -1    0    0    0  501  0.00000000000E+00  0.00000000000E+00  0.98784311917E+03  0.98784311918E+03  0.50400001928E-02 0.  1.
        1   -1    0    0  501    0  0.00000000000E+00  0.00000000000E+00 -0.11235394299E+04  0.11235394299E+04  0.50400001928E-02 0. -1.
    10030    2    1    2    0    0  0.00000000000E+00  0.00000000000E+00 -0.13569631074E+03  0.21113825491E+04  0.21070175082E+04 0.  0.
        1    1    3    3  502    0 -0.79953899275E+03 -0.28473762728E+03  0.55757830339E+03  0.10154957813E+04  0.50400001928E-02 0. -1.
       -1    1    3    3    0  502  0.79953899275E+03  0.28473762728E+03 -0.69327461413E+03  0.10958867678E+04  0.50400001928E-02 0.  1.
</event>
<event>
 5   0  0.1349252E-04  0.2104362E+04  0.7818609E-02  0.8559324E-01
       -2   -1    0    0    0  501  0.00000000000E+00  0.00000000000E+00  0.18354281129E+04  0.18354281129E+04  0.25500000920E-02 0. -1.
        2   -1    0    0  501    0  0.00000000000E+00  0.00000000000E+00 -0.60317519392E+03  0.60317519392E+03  0.25500000920E-02 0.  1.
    10030    2    1    2    0    0  0.00000000000E+00  0.00000000000E+00  0.12322529190E+04  0.24386033068E+04  0.21043618585E+04 0.  0.
        2    1    3    3  502    0  0.16655569028E+03 -0.10307982153E+04  0.76632364540E+03  0.12951979340E+04  0.25500000920E-02 0.  1.
       -2    1    3    3    0  502 -0.16655569028E+03  0.10307982153E+04  0.46592927357E+03  0.11434053728E+04  0.25500000920E-02 0. -1.
</event>
<event>
 5   0  0.6052292E-05  0.2089356E+04  0.7818609E-02  0.8565947E-01
        1   -1    0    0  501    0  0.00000000000E+00  0.00000000000E+00  0.11712186275E+04  0.11712186275E+04  0.50400001928E-02 0.  1.
       -1   -1    0    0    0  501  0.00000000000E+00  0.00000000000E+00 -0.93180931240E+03  0.93180931241E+03  0.50400001928E-02 0. -1.
    10030    2    1    2    0    0  0.00000000000E+00  0.00000000000E+00  0.23940931513E+03  0.21030279399E+04  0.20893562875E+04 0.  0.
        1    1    3    3  502    0 -0.77424866266E+03  0.20681343805E+03 -0.55484442973E+03  0.97472310479E+03  0.50400001928E-02 0. -1.
       -1    1    3    3    0  502  0.77424866266E+03 -0.20681343805E+03  0.79425374486E+03  0.11283048352E+04  0.50400001928E-02 0.  1.
</event>
<event>
 5   0  0.1325673E-04  0.2060742E+04  0.7818609E-02  0.8578737E-01
        2   -1    0    0  501    0  0.00000000000E+00  0.00000000000E+00  0.15807941666E+04  0.15807941666E+04  0.25500000920E-02 0. -1.
       -2   -1    0    0    0  501  0.00000000000E+00  0.00000000000E+00 -0.67160183589E+03  0.67160183589E+03  0.25500000920E-02 0.  1.
    10030    2    1    2    0    0  0.00000000000E+00  0.00000000000E+00  0.90919233070E+03  0.22523960025E+04  0.20607418707E+04 0.  0.
        5    1    3    3  502    0  0.21084349777E+03 -0.68819619805E+03 -0.35124632959E+03  0.80091514008E+03  0.46999998093E+01 0.  1.
       -5    1    3    3    0  502 -0.21084349777E+03  0.68819619805E+03  0.12604386603E+04  0.14514808624E+04  0.46999998093E+01 0. -1.
</event>
<event>
 5   0  0.6221148E-05  0.1839276E+04  0.7818609E-02  0.8685687E-01
        1   -1    0    0  501    0  0.00000000000E+00  0.00000000000E+00  0.10344191919E+04  0.10344191919E+04  0.50400001928E-02 0.  1.
       -1   -1    0    0    0  501  0.00000000000E+00  0.00000000000E+00 -0.81759348271E+03  0.81759348273E+03  0.50400001928E-02 0. -1.
    10030    2    1    2    0    0  0.00000000000E+00  0.00000000000E+00  0.21682570916E+03  0.18520126746E+04  0.18392763682E+04 0.  0.
        3    1    3    3  502    0 -0.19077720974E+03  0.19423185364E+03  0.99291027199E+03  0.10295595054E+04  0.10100000352E+00 0.  1.
       -3    1    3    3    0  502  0.19077720974E+03 -0.19423185364E+03 -0.77608456282E+03  0.82245316923E+03  0.10100000352E+00 0. -1.
</event>
<event>
 5   0  0.4615125E-05  0.2102039E+04  0.7818609E-02  0.8560346E-01
        3   -1    0    0  501    0  0.00000000000E+00  0.00000000000E+00  0.20892030803E+04  0.20892030828E+04  0.10100000352E+00 0. -1.
       -3   -1    0    0    0  501  0.00000000000E+00  0.00000000000E+00 -0.52873851151E+03  0.52873852116E+03  0.10100000352E+00 0.  1.
    10030    2    1    2    0    0  0.00000000000E+00  0.00000000000E+00  0.15604645688E+04  0.26179416039E+04  0.21020391459E+04 0.  0.
        2    1    3    3  502    0 -0.44212371255E+03 -0.64645797328E+03  0.16531538742E+04  0.18292892117E+04  0.25500000920E-02 0. -1.
       -2    1    3    3    0  502  0.44212371255E+03  0.64645797328E+03 -0.92689305350E+02  0.78865239221E+03  0.25500000920E-02 0.  1.
</event>
<event>
 5   0  0.5846187E-05  0.2078633E+04  0.7818609E-02  0.8570714E-01
       -1   -1    0    0    0  501  0.00000000000E+00  0.00000000000E+00  0.42430463739E+03  0.42430463742E+03  0.50400001928E-02 0. -1.
        1   -1    0    0  501    0  0.00000000000E+00  0.00000000000E+00 -0.25457627902E+04  0.25457627902E+04  0.50400001928E-02 0.  1.
    10030    2    1    2    0    0  0.00000000000E+00  0.00000000000E+00 -0.21214581528E+04  0.29700674277E+04  0.20786331640E+04 0.  0.
        5    1    3    3  502    0  0.80332686888E+03 -0.39074391270E+03 -0.30176305998E+03  0.94291987886E+03  0.46999998093E+01 0. -1.
       -5    1    3    3    0  502 -0.80332686888E+03  0.39074391270E+03 -0.18196950929E+04  0.20271475488E+04  0.46999998093E+01 0.  1.
</event>
<event>
 5   0  0.1349252E-04  0.2086554E+04  0.7818609E-02  0.8567190E-01
        2   -1    0    0  501    0  0.00000000000E+00  0.00000000000E+00  0.16102795443E+04  0.16102795443E+04  0.25500000920E-02 0.  1.
       -2   -1    0    0    0  501  0.00000000000E+00  0.00000000000E+00 -0.67592419222E+03  0.67592419223E+03  0.25500000920E-02 0. -1.
    10030    2    1    2    0    0  0.00000000000E+00  0.00000000000E+00  0.93435535207E+03  0.22862037365E+04  0.20865540014E+04 0.  0.
        2    1    3    3  502    0  0.10255607652E+04  0.18920720340E+03  0.49917186095E+03  0.11561776661E+04  0.25500000920E-02 0. -1.
       -2    1    3    3    0  502 -0.10255607652E+04 -0.18920720340E+03  0.43518349112E+03  0.11300260704E+04  0.25500000920E-02 0.  1.
</event>
<event>
 5   0  0.4615125E-05  0.2138536E+04  0.7818609E-02  0.8544455E-01
       -3   -1    0    0    0  501  0.00000000000E+00  0.00000000000E+00  0.12282372101E+04  0.12282372143E+04  0.10100000352E+00 0. -1.
        3   -1    0    0  501    0  0.00000000000E+00  0.00000000000E+00 -0.93087389024E+03  0.93087389572E+03  0.10100000352E+00 0.  1.
    10030    2    1    2    0    0  0.00000000000E+00  0.00000000000E+00  0.29736331987E+03  0.21591111100E+04  0.21385359107E+04 0.  0.
        2    1    3    3  502    0  0.14906146161E+03 -0.97257984646E+03  0.57128148901E+03  0.11377580660E+04  0.25500000920E-02 0. -1.
       -2    1    3    3    0  502 -0.14906146161E+03  0.97257984646E+03 -0.27391816914E+03  0.10213530440E+04  0.25500000920E-02 0.  1.
</event>
<event>
 5   0  0.6052292E-05  0.2093432E+04  0.7818609E-02  0.8564142E-01
        1   -1    0    0  501    0  0.00000000000E+00  0.00000000000E+00  0.13652661975E+04  0.13652661975E+04  0.50400001928E-02 0.  1.
       -1   -1    0    0    0  501  0.00000000000E+00  0.00000000000E+00 -0.80249103682E+03  0.80249103684E+03  0.50400001928E-02 0. -1.
    10030    2    1    2    0    0  0.00000000000E+00  0.00000000000E+00  0.56277516065E+03  0.21677572343E+04  0.20934315239E+04 0.  0.
        1    1    3    3  502    0  0.77382012647E+03  0.67523403562E+03  0.49074209770E+03  0.11382295012E+04  0.50400001928E-02 0. -1.
       -1    1    3    3    0  502 -0.77382012647E+03 -0.67523403562E+03  0.72033062946E+02  0.10295277331E+04  0.50400001928E-02 0.  1.
</event>
<event>
 5   0  0.1349252E-04  0.2087500E+04  0.7818609E-02  0.8566770E-01
        2   -1    0    0  501    0  0.00000000000E+00  0.00000000000E+00  0.14400141420E+04  0.14400141420E+04  0.25500000920E-02 0. -1.
       -2   -1    0    0    0  501  0.00000000000E+00  0.00000000000E+00 -0.75653045135E+03  0.75653045136E+03  0.25500000920E-02 0.  1.
    10030    2    1    2    0    0  0.00000000000E+00  0.00000000000E+00  0.68348369069E+03  0.21965445934E+04  0.20875004660E+04 0.  0.
        2    1    3    3  502    0 -0.99739034762E+03  0.18227855317E+03  0.81004529834E+02  0.10171404575E+04  0.25500000920E-02 0.  1.
       -2    1    3    3    0  502  0.99739034762E+03 -0.18227855317E+03  0.60247916085E+03  0.11794041359E+04  0.25500000920E-02 0. -1.
</event>
<event>
 5   0  0.5933905E-05  0.2089042E+04  0.7818609E-02  0.8566086E-01
       -1   -1    0    0    0  501  0.00000000000E+00  0.00000000000E+00  0.15839157731E+04  0.15839157731E+04  0.50400001928E-02 0. -1.
        1   -1    0    0  501    0  0.00000000000E+00  0.00000000000E+00 -0.68881458973E+03  0.68881458974E+03  0.50400001928E-02 0.  1.
    10030    2    1    2    0    0  0.00000000000E+00  0.00000000000E+00  0.89510118337E+03  0.22727303628E+04  0.20890421666E+04 0.  0.
        2    1    3    3  502    0 -0.98306548896E+03 -0.35153131767E+03  0.48250463942E+03  0.11501316229E+04  0.25500000920E-02 0. -1.
       -2    1    3    3    0  502  0.98306548896E+03  0.35153131767E+03  0.41259654395E+03  0.11225987400E+04  0.25500000920E-02 0.  1.
</event>
<event>
 5   0  0.5933905E-05  0.2065389E+04  0.7818609E-02  0.8576645E-01
       -1   -1    0    0    0  501  0.00000000000E+00  0.00000000000E+00  0.10170427634E+04  0.10170427634E+04  0.50400001928E-02 0. -1.
        1   -1    0    0  501    0  0.00000000000E+00  0.00000000000E+00 -0.10485871822E+04  0.10485871822E+04  0.50400001928E-02 0.  1.
    10030    2    1    2    0    0  0.00000000000E+00  0.00000000000E+00 -0.31544418814E+02  0.20656299456E+04  0.20653890728E+04 0.  0.
        2    1    3    3  502    0 -0.18545689231E+03  0.74526825316E+03  0.67469875918E+03  0.10222707292E+04  0.25500000920E-02 0. -1.
       -2    1    3    3    0  502  0.18545689231E+03 -0.74526825316E+03 -0.70624317799E+03  0.10433592164E+04  0.25500000920E-02 0.  1.
</event>
<event>
 5   0  0.6263616E-05  0.2212917E+04  0.7818609E-02  0.8513071E-01
       -1   -1    0    0    0  501  0.00000000000E+00  0.00000000000E+00  0.90595271678E+03  0.90595271679E+03  0.50400001928E-02 0.  1.
        1   -1    0    0  501    0  0.00000000000E+00  0.00000000000E+00 -0.13513401649E+04  0.13513401649E+04  0.50400001928E-02 0. -1.
    10030    2    1    2    0    0  0.00000000000E+00  0.00000000000E+00 -0.44538744812E+03  0.22572928817E+04  0.22129168929E+04 0.  0.
        4    1    3    3  502    0 -0.61312238630E+03  0.58661485981E+03  0.50162492389E+03  0.98573081087E+03  0.12699999809E+01 0.  1.
       -4    1    3    3    0  502  0.61312238630E+03 -0.58661485981E+03 -0.94701237201E+03  0.12715620708E+04  0.12699999809E+01 0. -1.
</event>
<event>
 5   0  0.6263616E-05  0.2093397E+04  0.7818609E-02  0.8564158E-01
       -1   -1    0    0    0  501  0.00000000000E+00  0.00000000000E+00  0.18200246387E+04  0.18200246387E+04  0.50400001928E-02 0.  1.
        1   -1    0    0  501    0  0.00000000000E+00  0.00000000000E+00 -0.60195769627E+03  0.60195769629E+03  0.50400001928E-02 0. -1.
    10030    2    1    2    0    0  0.00000000000E+00  0.00000000000E+00  0.12180669424E+04  0.24219823350E+04  0.20933970848E+04 0.  0.
        4    1    3    3  502    0  0.96534046359E+03  0.12985579717E+03  0.16570159910E+03  0.98803004588E+03  0.12699999809E+01 0.  1.
       -4    1    3    3    0  502 -0.96534046359E+03 -0.12985579717E+03  0.10523653433E+04  0.14339522891E+04  0.12699999809E+01 0. -1.
</event>
<event>
 5   0  0.5846187E-05  0.2118152E+04  0.7818609E-02  0.8553289E-01
        1   -1    0    0  501    0  0.00000000000E+00  0.00000000000E+00  0.67213271762E+03  0.67213271764E+03  0.50400001928E-02 0. -1.
       -1   -1    0    0    0  501  0.00000000000E+00  0.00000000000E+00 -0.16687811660E+04  0.16687811660E+04  0.50400001928E-02 0.  1.
    10030    2    1    2    0    0  0.00000000000E+00  0.00000000000E+00 -0.99664844841E+03  0.23409138837E+04  0.21181524216E+04 0.  0.
        5    1    3    3  502    0 -0.66653880734E+03 -0.32807129561E+03  0.33585097645E+03  0.81530529563E+03  0.46999998093E+01 0. -1.
       -5    1    3    3    0  502  0.66653880734E+03  0.32807129561E+03 -0.13324994249E+04  0.15256085881E+04  0.46999998093E+01 0.  1.
</event>
<event>
 5   0  0.6221148E-05  0.1602603E+04  0.7818609E-02  0.8818951E-01
       -1   -1    0    0    0  501  0.00000000000E+00  0.00000000000E+00  0.93823302797E+03  0.93823302799E+03  0.50400001928E-02 0. -1.
        1   -1    0    0  501    0  0.00000000000E+00  0.00000000000E+00 -0.68435439856E+03  0.68435439858E+03  0.50400001928E-02 0.  1.
    10030    2    1    2    0    0  0.00000000000E+00  0.00000000000E+00  0.25387862941E+03  0.16225874266E+04  0.16026027575E+04 0.  0.
        3    1    3    3  502    0 -0.56706650333E+03  0.42421148252E+03 -0.25265474778E+03  0.75190041420E+03  0.10100000352E+00 0.  1.
       -3    1    3    3    0  502  0.56706650333E+03 -0.42421148252E+03  0.50653337719E+03  0.87068701237E+03  0.10100000352E+00 0. -1.
</event>
<event>
 5   0  0.1325673E-04  0.2083652E+04  0.7818609E-02  0.8568479E-01
        2   -1    0    0  501    0  0.00000000000E+00  0.00000000000E+00  0.82025958406E+03  0.82025958407E+03  0.25500000920E-02 0.  1.
       -2   -1    0    0    0  501  0.00000000000E+00  0.00000000000E+00 -0.13232418802E+04  0.13232418802E+04  0.25500000920E-02 0. -1.
    10030    2    1    2    0    0  0.00000000000E+00  0.00000000000E+00 -0.50298229613E+03  0.21435014643E+04  0.20836524031E+04 0.  0.
        5    1    3    3  502    0  0.78360732622E+03  0.68335439959E+03 -0.18351700869E+03  0.10558002934E+04  0.46999998093E+01 0. -1.
       -5    1    3    3    0  502 -0.78360732622E+03 -0.68335439959E+03 -0.31946528744E+03  0.10877011708E+04  0.46999998093E+01 0.  1.
</event>
<event>
 5   0  0.5846187E-05  0.2097933E+04  0.7818609E-02  0.8562155E-01
        1   -1    0    0  501    0  0.00000000000E+00  0.00000000000E+00  0.93000348422E+03  0.93000348423E+03  0.50400001928E-02 0. -1.
       -1   -1    0    0    0  501  0.00000000000E+00  0.00000000000E+00 -0.11831466314E+04  0.11831466314E+04  0.50400001928E-02 0.  1.
    10030    2    1    2    0    0  0.00000000000E+00  0.00000000000E+00 -0.25314314717E+03  0.21131501156E+04  0.20979327821E+04 0.  0.
        5    1    3    3  502    0 -0.52404995399E+03  0.64576293540E+03  0.51733862910E+03  0.97943834425E+03  0.46999998093E+01 0. -1.
       -5    1    3    3    0  502  0.52404995399E+03 -0.64576293540E+03 -0.77048177627E+03  0.11337117714E+04  0.46999998093E+01 0.  1.
</event>
<event>
 5   0  0.1235817E-04  0.2101411E+04  0.7818609E-02  0.8560622E-01
        2   -1    0    0  501    0  0.00000000000E+00  0.00000000000E+00  0.12301464730E+04  0.12301464730E+04  0.25500000920E-02 0.  1.
       -2   -1    0    0    0  501  0.00000000000E+00  0.00000000000E+00 -0.89743955658E+03  0.89743955658E+03  0.25500000920E-02 0. -1.
    10030    2    1    2    0    0  0.00000000000E+00  0.00000000000E+00  0.33270691638E+03  0.21275860295E+04  0.21014110547E+04 0.  0.
        1    1    3    3  502    0  0.54832992962E+03  0.83231738650E+03  0.50300709148E+03  0.11164381209E+04  0.50400001928E-02 0.  1.
       -1    1    3    3    0  502 -0.54832992962E+03 -0.83231738650E+03 -0.17030017510E+03  0.10111479087E+04  0.50400001928E-02 0. -1.
</event>
<event>
 5   0  0.6221148E-05  0.2138599E+04  0.7818609E-02  0.8544428E-01
       -1   -1    0    0    0  501  0.00000000000E+00  0.00000000000E+00  0.83568052416E+03  0.83568052417E+03  0.50400001928E-02 0.  1.
        1   -1    0    0  501    0  0.00000000000E+00  0.00000000000E+00 -0.13682282546E+04  0.13682282546E+04  0.50400001928E-02 0. -1.
    10030    2    1    2    0    0  0.00000000000E+00  0.00000000000E+00 -0.53254773047E+03  0.22039087788E+04  0.21385992659E+04 0.  0.
        3    1    3    3  502    0 -0.26613472604E+03  0.10345450350E+04 -0.21695236519E+03  0.10900364493E+04  0.10100000352E+00 0.  1.
       -3    1    3    3    0  502  0.26613472604E+03 -0.10345450350E+04 -0.31559536528E+03  0.11138723296E+04  0.10100000352E+00 0. -1.
</event>
<event>
 5   0  0.5933905E-05  0.1966768E+04  0.7818609E-02  0.8622317E-01
       -1   -1    0    0    0  501  0.00000000000E+00  0.00000000000E+00  0.48333476888E+03  0.48333476891E+03  0.50400001928E-02 0.  1.
        1   -1    0    0  501    0  0.00000000000E+00  0.00000000000E+00 -0.20007752941E+04  0.20007752941E+04  0.50400001928E-02 0. -1.
    10030    2    1    2    0    0  0.00000000000E+00  0.00000000000E+00 -0.15174405252E+04  0.24841100630E+04  0.19667681759E+04 0.  0.
        2    1    3    3  502    0  0.54497632017E+02  0.90160768722E+03 -0.26762952245E+03  0.94206792475E+03  0.25500000920E-02 0.  1.
       -2    1    3    3    0  502 -0.54497632017E+02 -0.90160768722E+03 -0.12498110028E+04  0.15420421383E+04  0.25500000920E-02 0. -1.
</event>
<event>
 5   0  0.1235817E-04  0.2074962E+04  0.7818609E-02  0.8572354E-01
       -2   -1    0    0    0  501  0.00000000000E+00  0.00000000000E+00  0.91833790487E+03  0.91833790487E+03  0.25500000920E-02 0. -1.
        2   -1    0    0  501    0  0.00000000000E+00  0.00000000000E+00 -0.11720809057E+04  0.11720809057E+04  0.25500000920E-02 0.  1.
    10030    2    1    2    0    0  0.00000000000E+00  0.00000000000E+00 -0.25374300082E+03  0.20904188106E+04  0.20749615161E+04 0.  0.
        1    1    3    3  502    0 -0.75840990940E+03 -0.70090675010E+03 -0.26578604811E+02  0.10330354714E+04  0.50400001928E-02 0.  1.
       -1    1    3    3    0  502  0.75840990940E+03  0.70090675010E+03 -0.22716439601E+03  0.10573833391E+04  0.50400001928E-02 0. -1.
</event>
<event>
 5   0  0.1281470E-04  0.2112898E+04  0.7818609E-02  0.8555583E-01
       -2   -1    0    0    0  501  0.00000000000E+00  0.00000000000E+00  0.58654637086E+03  0.58654637087E+03  0.25500000920E-02 0.  1.
        2   -1    0    0  501    0  0.00000000000E+00  0.00000000000E+00 -0.19028073347E+04  0.19028073347E+04  0.25500000920E-02 0. -1.
    10030    2    1    2    0    0  0.00000000000E+00  0.00000000000E+00 -0.13162609638E+04  0.24893537055E+04  0.21128982338E+04 0.  0.
        3    1    3    3  502    0  0.99423385353E+03 -0.10259447429E+03 -0.10612268146E+04  0.14578164987E+04  0.10100000352E+00 0. -1.
       -3    1    3    3    0  502 -0.99423385353E+03  0.10259447429E+03 -0.25503414923E+03  0.10315372069E+04  0.10100000352E+00 0.  1.
</event>
<event>
 5   0  0.1235817E-04  0.2143566E+04  0.7818609E-02  0.8542291E-01
       -2   -1    0    0    0  501  0.00000000000E+00  0.00000000000E+00  0.11677373674E+04  0.11677373674E+04  0.25500000920E-02 0. -1.
        2   -1    0    0  501    0  0.00000000000E+00  0.00000000000E+00 -0.98371338443E+03  0.98371338443E+03  0.25500000920E-02 0.  1.
    10030    2    1    2    0    0  0.00000000000E+00  0.00000000000E+00  0.18402398294E+03  0.21514507518E+04  0.21435660734E+04 0.  0.
        1    1    3    3  502    0 -0.83983237261E+03 -0.56376945871E+03 -0.26364217682E+03  0.10453045557E+04  0.50400001928E-02 0.  1.
       -1    1    3    3    0  502  0.83983237261E+03  0.56376945871E+03  0.44766615976E+03  0.11061461962E+04  0.50400001928E-02 0. -1.
</event>
<event>
 5   0  0.1281470E-04  0.2076990E+04  0.7818609E-02  0.8571448E-01
        2   -1    0    0  501    0  0.00000000000E+00  0.00000000000E+00  0.21729712464E+04  0.21729712464E+04  0.25500000920E-02 0. -1.
       -2   -1    0    0    0  501  0.00000000000E+00  0.00000000000E+00 -0.49631224042E+03  0.49631224043E+03  0.25500000920E-02 0.  1.
    10030    2    1    2    0    0  0.00000000000E+00  0.00000000000E+00  0.16766590060E+04  0.26692834868E+04  0.20769903492E+04 0.  0.
        3    1    3    3  502    0 -0.53687233473E+03  0.28164948348E+03  0.19219288100E+04  0.20152837756E+04  0.10100000352E+00 0. -1.
       -3    1    3    3    0  502  0.53687233473E+03 -0.28164948348E+03 -0.24526980400E+03  0.65399971124E+03  0.10100000352E+00 0.  1.
</event>
<event>
 5   0  0.1349252E-04  0.2066922E+04  0.7818609E-02  0.8575956E-01
        2   -1    0    0  501    0  0.00000000000E+00  0.00000000000E+00  0.63324948242E+03  0.63324948243E+03  0.25500000920E-02 0. -1.
       -2   -1    0    0    0  501  0.00000000000E+00  0.00000000000E+00 -0.16866046646E+04  0.16866046646E+04  0.25500000920E-02 0.  1.
    10030    2    1    2    0    0  0.00000000000E+00  0.00000000000E+00 -0.10533551821E+04  0.23198541470E+04  0.20669218959E+04 0.  0.
        2    1    3    3  502    0  0.10413270190E+01 -0.73957410064E+03  0.28350871500E+03  0.79205310819E+03  0.25500000920E-02 0. -1.
       -2    1    3    3    0  502 -0.10413270190E+01  0.73957410064E+03 -0.13368638971E+04  0.15278010388E+04  0.25500000920E-02 0.  1.
</event>
<event>
 5   0  0.1235817E-04  0.2093935E+04  0.7818609E-02  0.8563920E-01
       -2   -1    0    0    0  501  0.00000000000E+00  0.00000000000E+00  0.10157763026E+04  0.10157763026E+04  0.25500000920E-02 0.  1.
        2   -1    0    0  501    0  0.00000000000E+00  0.00000000000E+00 -0.10791168610E+04  0.10791168610E+04  0.25500000920E-02 0. -1.
    10030    2    1    2    0    0  0.00000000000E+00  0.00000000000E+00 -0.63340558450E+02  0.20948931636E+04  0.20939353716E+04 0.  0.
        1    1    3    3  502    0 -0.53150070855E+03 -0.53382783829E+03 -0.75910407530E+03  0.10694410509E+04  0.50400001928E-02 0. -1.
       -1    1    3    3    0  502  0.53150070855E+03  0.53382783829E+03  0.69576351685E+03  0.10254521127E+04  0.50400001928E-02 0.  1.
</event>
<event>
 5   0  0.5846187E-05  0.2107682E+04  0.7818609E-02  0.8557867E-01
       -1   -1    0    0    0  501  0.00000000000E+00  0.00000000000E+00  0.16844550567E+04  0.16844550567E+04  0.50400001928E-02 0.  1.
        1   -1    0    0  501    0  0.00000000000E+00  0.00000000000E+00 -0.65931168623E+03  0.65931168625E+03  0.50400001928E-02 0. -1.
    10030    2    1    2    0    0  0.00000000000E+00  0.00000000000E+00  0.10251433705E+04  0.23437667430E+04  0.21076820480E+04 0.  0.
        5    1    3    3  502    0 -0.95338039779E+03 -0.78144680952E+02  0.10042745157E+04  0.13869499511E+04  0.46999998093E+01 0.  1.
       -5    1    3    3    0  502  0.95338039779E+03  0.78144680952E+02  0.20868854771E+02  0.95681679184E+03  0.46999998093E+01 0. -1.
</event>
<event>
 5   0  0.5846187E-05  0.2087809E+04  0.7818609E-02  0.8566633E-01
        1   -1    0    0  501    0  0.00000000000E+00  0.00000000000E+00  0.11045833099E+04  0.11045833099E+04  0.50400001928E-02 0.  1.
       -1   -1    0    0    0  501  0.00000000000E+00  0.00000000000E+00 -0.98655906521E+03  0.98655906522E+03  0.50400001928E-02 0. -1.
    10030    2    1    2    0    0  0.00000000000E+00  0.00000000000E+00  0.11802424471E+03  0.20911423752E+04  0.20878090695E+04 0.  0.
        5    1    3    3  502    0  0.31679694015E+03 -0.15504398724E+03 -0.92506128518E+03  0.99003000490E+03  0.46999998093E+01 0. -1.
       -5    1    3    3    0  502 -0.31679694015E+03  0.15504398724E+03  0.10430855299E+04  0.11011123703E+04  0.46999998093E+01 0.  1.
</event>
<event>
 5   0  0.1349252E-04  0.1530213E+04  0.7818609E-02  0.8864607E-01
        2   -1    0    0  501    0  0.00000000000E+00  0.00000000000E+00  0.95770785626E+03  0.95770785627E+03  0.25500000920E-02 0. -1.
       -2   -1    0    0    0  501  0.00000000000E+00  0.00000000000E+00 -0.61123837737E+03  0.61123837737E+03  0.25500000920E-02 0.  1.
    10030    2    1    2    0    0  0.00000000000E+00  0.00000000000E+00  0.34646947889E+03  0.15689462336E+04  0.15302127905E+04 0.  0.
        2    1    3    3  502    0  0.80763800498E+02 -0.44675353219E+03 -0.45820815134E+03  0.64503195266E+03  0.25500000920E-02 0.  1.
       -2    1    3    3    0  502 -0.80763800498E+02  0.44675353219E+03  0.80467763023E+03  0.92391428098E+03  0.25500000920E-02 0. -1.
</event>
<event>
 5   0  0.6221148E-05  0.2069792E+04  0.7818609E-02  0.8574668E-01
        1   -1    0    0  501    0  0.00000000000E+00  0.00000000000E+00  0.11891130298E+04  0.11891130298E+04  0.50400001928E-02 0. -1.
       -1   -1    0    0    0  501  0.00000000000E+00  0.00000000000E+00 -0.90067920745E+03  0.90067920747E+03  0.50400001928E-02 0.  1.
    10030    2    1    2    0    0  0.00000000000E+00  0.00000000000E+00  0.28843382239E+03  0.20897922373E+04  0.20697916623E+04 0.  0.
        3    1    3    3  502    0 -0.39922162867E+03 -0.76603136947E+03 -0.43122674762E+03  0.96547319273E+03  0.10100000352E+00 0.  1.
       -3    1    3    3    0  502  0.39922162867E+03  0.76603136947E+03  0.71966057000E+03  0.11243190446E+04  0.10100000352E+00 0. -1.
</event>
<event>
 5   0  0.5846187E-05  0.2108010E+04  0.7818609E-02  0.8557723E-01
       -1   -1    0    0    0  501  0.00000000000E+00  0.00000000000E+00  0.55065974362E+03  0.55065974364E+03  0.50400001928E-02 0.  1.
        1   -1    0    0  501    0  0.00000000000E+00  0.00000000000E+00 -0.20174456783E+04  0.20174456783E+04  0.50400001928E-02 0. -1.
    10030    2    1    2    0    0  0.00000000000E+00  0.00000000000E+00 -0.14667859346E+04  0.25681054219E+04  0.21080096015E+04 0.  0.
        5    1    3    3  502    0 -0.97062119546E+03  0.37123971947E+03 -0.94781930854E+03  0.14065233614E+04  0.46999998093E+01 0.  1.
       -5    1    3    3    0  502  0.97062119546E+03 -0.37123971947E+03 -0.51896662610E+03  0.11615820605E+04  0.46999998093E+01 0. -1.
</event>
<event>
 5   0  0.1325673E-04  0.2101207E+04  0.7818609E-02  0.8560712E-01
       -2   -1    0    0    0  501  0.00000000000E+00  0.00000000000E+00  0.88376807215E+03  0.88376807216E+03  0.25500000920E-02 0. -1.
        2   -1    0    0  501    0  0.00000000000E+00  0.00000000000E+00 -0.12489333972E+04  0.12489333972E+04  0.25500000920E-02 0.  1.
    10030    2    1    2    0    0  0.00000000000E+00  0.00000000000E+00 -0.36516532502E+03  0.21327014693E+04  0.21012067587E+04 0.  0.
        5    1    3    3  502    0 -0.14547847513E+03  0.73102203313E+03  0.56891236115E+03  0.93767828402E+03  0.46999998093E+01 0. -1.
       -5    1    3    3    0  502  0.14547847513E+03 -0.73102203313E+03 -0.93407768617E+03  0.11950231853E+04  0.46999998093E+01 0.  1.
</event>
<event>
 5   0  0.1281470E-04  0.2084505E+04  0.7818609E-02  0.8568100E-01
       -2   -1    0    0    0  501  0.00000000000E+00  0.00000000000E+00  0.68613773809E+03  0.68613773809E+03  0.25500000920E-02 0. -1.
        2   -1    0    0  501    0  0.00000000000E+00  0.00000000000E+00 -0.15831955539E+04  0.15831955539E+04  0.25500000920E-02 0.  1.
    10030    2    1    2    0    0  0.00000000000E+00  0.00000000000E+00 -0.89705781582E+03  0.22693332920E+04  0.20845049449E+04 0.  0.
        3    1    3    3  502    0 -0.12691848298E+03  0.64871136108E+02 -0.15725347992E+04  0.15789814028E+04  0.10100000352E+00 0.  1.
       -3    1    3    3    0  502  0.12691848298E+03 -0.64871136108E+02  0.67547698337E+03  0.69035188917E+03  0.10100000352E+00 0. -1.
</event>
<event>
 5   0  0.5846187E-05  0.2075053E+04  0.7818609E-02  0.8572313E-01
        1   -1    0    0  501    0  0.00000000000E+00  0.00000000000E+00  0.23241660900E+04  0.23241660900E+04  0.50400001928E-02 0. -1.
       -1   -1    0    0    0  501  0.00000000000E+00  0.00000000000E+00 -0.46316015636E+03  0.46316015638E+03  0.50400001928E-02 0.  1.
    10030    2    1    2    0    0  0.00000000000E+00  0.00000000000E+00  0.18610059337E+04  0.27873262464E+04  0.20750528954E+04 0.  0.
        5    1    3    3  502    0 -0.73294576848E+03  0.94305510602E+02  0.19087176812E+04  0.20467848703E+04  0.46999998093E+01 0. -1.
       -5    1    3    3    0  502  0.73294576848E+03 -0.94305510602E+02 -0.47711747521E+02  0.74054137610E+03  0.46999998093E+01 0.  1.
</event>
<event>
 5   0  0.1349252E-04  0.2061518E+04  0.7818609E-02  0.8578387E-01
        2   -1    0    0  501    0  0.00000000000E+00  0.00000000000E+00  0.92660232362E+03  0.92660232362E+03  0.25500000920E-02 0.  1.
       -2   -1    0    0    0  501  0.00000000000E+00  0.00000000000E+00 -0.11466234784E+04  0.11466234784E+04  0.25500000920E-02 0. -1.
    10030    2    1    2    0    0  0.00000000000E+00  0.00000000000E+00 -0.22002115476E+03  0.20732258020E+04  0.20615178674E+04 0.  0.
        2    1    3    3  502    0  0.54401641636E+02  0.35389695883E+03 -0.10820719843E+04  0.11397729490E+04  0.25500000920E-02 0. -1.
       -2    1    3    3    0  502 -0.54401641636E+02 -0.35389695883E+03  0.86205082953E+03  0.93345285300E+03  0.25500000920E-02 0.  1.
</event>
<event>
 5   0  0.6052292E-05  0.2093952E+04  0.7818609E-02  0.8563912E-01
       -1   -1    0    0    0  501  0.00000000000E+00  0.00000000000E+00  0.58715777737E+03  0.58715777739E+03  0.50400001928E-02 0.  1.
        1   -1    0    0  501    0  0.00000000000E+00  0.00000000000E+00 -0.18668894318E+04  0.18668894318E+04  0.50400001928E-02 0. -1.
    10030    2    1    2    0    0  0.00000000000E+00  0.00000000000E+00 -0.12797316544E+04  0.24540472092E+04  0.20939519091E+04 0.  0.
        1    1    3    3  502    0 -0.31023326938E+03  0.41573200070E+03  0.42596971449E+03  0.67121380761E+03  0.50400001928E-02 0.  1.
       -1    1    3    3    0  502  0.31023326938E+03 -0.41573200070E+03 -0.17057013689E+04  0.17828334016E+04  0.50400001928E-02 0. -1.
</event>
<event>
 5   0  0.4615125E-05  0.1944787E+04  0.7818609E-02  0.8632879E-01
        3   -1    0    0  501    0  0.00000000000E+00  0.00000000000E+00  0.50906124392E+03  0.50906125394E+03  0.10100000352E+00 0.  1.
       -3   -1    0    0    0  501  0.00000000000E+00  0.00000000000E+00 -0.18574365748E+04  0.18574365776E+04  0.10100000352E+00 0. -1.
    10030    2    1    2    0    0  0.00000000000E+00  0.00000000000E+00 -0.13483753309E+04  0.23664978315E+04  0.19447868658E+04 0.  0.
        3    1    3    3  502    0  0.77205151100E+03 -0.29076195211E+03 -0.13005278346E+04  0.15401229520E+04  0.10100000352E+00 0.  1.
       -3    1    3    3    0  502 -0.77205151100E+03  0.29076195211E+03 -0.47847496308E+02  0.82637487954E+03  0.10100000352E+00 0. -1.
</event>
<event>
 5   0  0.1235817E-04  0.2073110E+04  0.7818609E-02  0.8573182E-01
       -2   -1    0    0    0  501  0.00000000000E+00  0.00000000000E+00  0.16145985551E+04  0.16145985551E+04  0.25500000920E-02 0. -1.
        2   -1    0    0  501    0  0.00000000000E+00  0.00000000000E+00 -0.66545690480E+03  0.66545690481E+03  0.25500000920E-02 0.  1.
    10030    2    1    2    0    0  0.00000000000E+00  0.00000000000E+00  0.94914165034E+03  0.22800554600E+04  0.20731095070E+04 0.  0.
        1    1    3    3  502    0  0.84855212218E+02  0.10191254871E+04  0.28848077265E+03  0.10625621496E+04  0.50400001928E-02 0.  1.
       -1    1    3    3    0  502 -0.84855212218E+02 -0.10191254871E+04  0.66066087769E+03  0.12174933104E+04  0.50400001928E-02 0. -1.
</event>
<event>
 5   0  0.5933905E-05  0.2100503E+04  0.7818609E-02  0.8561022E-01
        1   -1    0    0  501    0  0.00000000000E+00  0.00000000000E+00  0.10718950266E+04  0.10718950266E+04  0.50400001928E-02 0.  1.
       -1   -1    0    0    0  501  0.00000000000E+00  0.00000000000E+00 -0.10290450521E+04  0.10290450521E+04  0.50400001928E-02 0. -1.
    10030    2    1    2    0    0  0.00000000000E+00  0.00000000000E+00  0.42849974500E+02  0.21009400786E+04  0.21005030573E+04 0.  0.
        2    1    3    3  502    0  0.68217196621E+03 -0.43005187210E+03 -0.65156347682E+03  0.10367440227E+04  0.25500000920E-02 0. -1.
       -2    1    3    3    0  502 -0.68217196621E+03  0.43005187210E+03  0.69441345132E+03  0.10641960560E+04  0.25500000920E-02 0.  1.
</event>
<event>
 5   0  0.6221148E-05  0.2099282E+04  0.7818609E-02  0.8561560E-01
        1   -1    0    0  501    0  0.00000000000E+00  0.00000000000E+00  0.12702104994E+04  0.12702104994E+04  0.50400001928E-02 0.  1.
       -1   -1    0    0    0  501  0.00000000000E+00  0.00000000000E+00 -0.86737309164E+03  0.86737309166E+03  0.50400001928E-02 0. -1.
    10030    2    1    2    0    0  0.00000000000E+00  0.00000000000E+00  0.40283740773E+03  0.21375835910E+04  0.20992821706E+04 0.  0.
        3    1    3    3  502    0  0.77460296271E+03 -0.10726928453E+03  0.91435743563E+03  0.12031483614E+04  0.10100000352E+00 0.  1.
       -3    1    3    3    0  502 -0.77460296271E+03  0.10726928453E+03 -0.51152002790E+03  0.93443522964E+03  0.10100000352E+00 0. -1.
</event>
<event>
 5   0  0.5846187E-05  0.2096066E+04  0.7818609E-02  0.8562978E-01
       -1   -1    0    0    0  501  0.00000000000E+00  0.00000000000E+00  0.10791665596E+04  0.10791665596E+04  0.50400001928E-02 0. -1.
        1   -1    0    0  501    0  0.00000000000E+00  0.00000000000E+00 -0.10177978868E+04  0.10177978868E+04  0.50400001928E-02 0.  1.
    10030    2    1    2    0    0  0.00000000000E+00  0.00000000000E+00  0.61368672824E+02  0.20969644464E+04  0.20960662622E+04 0.  0.
        5    1    3    3  502    0 -0.55827927160E+03 -0.71485662016E+03  0.55593847875E+03  0.10638540382E+04  0.46999998093E+01 0. -1.
       -5    1    3    3    0  502  0.55827927160E+03  0.71485662016E+03 -0.49456980593E+03  0.10331104081E+04  0.46999998093E+01 0.  1.
</event>
<event>
 5   0  0.5933905E-05  0.2089916E+04  0.7818609E-02  0.8565698E-01
       -1   -1    0    0    0  501  0.00000000000E+00  0.00000000000E+00  0.26091518099E+04  0.26091518099E+04  0.50400001928E-02 0. -1.
        1   -1    0    0  501    0  0.00000000000E+00  0.00000000000E+00 -0.41850289722E+03  0.41850289725E+03  0.50400001928E-02 0.  1.
    10030    2    1    2    0    0  0.00000000000E+00  0.00000000000E+00  0.21906489127E+04  0.30276547071E+04  0.20899163541E+04 0.  0.
        2    1    3    3  502    0 -0.66319944080E+02 -0.10373123498E+04  0.93981819141E+03  0.14013113426E+04  0.25500000920E-02 0. -1.
       -2    1    3    3    0  502  0.66319944080E+02  0.10373123498E+04  0.12508307213E+04  0.16263433645E+04  0.25500000920E-02 0.  1.
</event>
<event>
 5   0  0.1252477E-04  0.2054653E+04  0.7818609E-02  0.8581486E-01
       -2   -1    0    0    0  501  0.00000000000E+00  0.00000000000E+00  0.65240434584E+03  0.65240434585E+03  0.25500000920E-02 0. -1.
        2   -1    0    0  501    0  0.00000000000E+00  0.00000000000E+00 -0.16177085403E+04  0.16177085403E+04  0.25500000920E-02 0.  1.
    10030    2    1    2    0    0  0.00000000000E+00  0.00000000000E+00 -0.96530419445E+03  0.22701128861E+04  0.20546533352E+04 0.  0.
        4    1    3    3  502    0  0.27296293418E+03 -0.75776439546E+03 -0.11872426458E+04  0.14346645445E+04  0.12699999809E+01 0.  1.
       -4    1    3    3    0  502 -0.27296293418E+03  0.75776439546E+03  0.22193845131E+03  0.83544834163E+03  0.12699999809E+01 0. -1.
</event>
<event>
 5   0  0.6263616E-05  0.2095744E+04  0.7818609E-02  0.8563120E-01
        1   -1    0    0  501    0  0.00000000000E+00  0.00000000000E+00  0.14529796403E+04  0.14529796403E+04  0.50400001928E-02 0. -1.
       -1   -1    0    0    0  501  0.00000000000E+00  0.00000000000E+00 -0.75571340933E+03  0.75571340935E+03  0.50400001928E-02 0.  1.
    10030    2    1    2    0    0  0.00000000000E+00  0.00000000000E+00  0.69726623097E+03  0.22086930497E+04  0.20957444479E+04 0.  0.
        4    1    3    3  502    0  0.20250529949E+03 -0.85893361438E+03 -0.24684907092E+03  0.91635769597E+03  0.12699999809E+01 0.  1.
       -4    1    3    3    0  502 -0.20250529949E+03  0.85893361438E+03  0.94411530189E+03  0.12923353537E+04  0.12699999809E+01 0. -1.
</event>
<event>
 5   0  0.5846187E-05  0.2103601E+04  0.7818609E-02  0.8559659E-01
       -1   -1    0    0    0  501  0.00000000000E+00  0.00000000000E+00  0.56009866544E+03  0.56009866546E+03  0.50400001928E-02 0. -1.
        1   -1    0    0  501    0  0.00000000000E+00  0.00000000000E+00 -0.19751590967E+04  0.19751590967E+04  0.50400001928E-02 0.  1.
    10030    2    1    2    0    0  0.00000000000E+00  0.00000000000E+00 -0.14150604313E+04  0.25352577622E+04  0.21036006980E+04 0.  0.
        5    1    3    3  502    0 -0.37983539532E+03 -0.83310554220E+03 -0.83704757841E+02  0.91943914886E+03  0.46999998093E+01 0. -1.
       -5    1    3    3    0  502  0.37983539532E+03  0.83310554220E+03 -0.13313556734E+04  0.16158186133E+04  0.46999998093E+01 0.  1.
</event>
<event>
 5   0  0.4615125E-05  0.2198158E+04  0.7818609E-02  0.8519195E-01
       -4   -1    0    0    0  501  0.00000000000E+00  0.00000000000E+00  0.11039198218E+04  0.11039205523E+04  0.12699999809E+01 0. -1.
        4   -1    0    0  501    0  0.00000000000E+00  0.00000000000E+00 -0.10942576208E+04  0.10942583578E+04  0.12699999809E+01 0.  1.
    10030    2    1    2    0    0  0.00000000000E+00  0.00000000000E+00  0.96622009628E+01  0.21981789101E+04  0.21981576747E+04 0.  0.
        1    1    3    3  502    0  0.52322449135E+03 -0.95383769017E+03  0.16105067231E+03  0.10997761257E+04  0.50400001928E-02 0. -1.
       -1    1    3    3    0  502 -0.52322449135E+03  0.95383769017E+03 -0.15138847134E+03  0.10984027844E+04  0.50400001928E-02 0.  1.
</event>
<event>
 5   0  0.1235817E-04  0.2104370E+04  0.7818609E-02  0.8559321E-01
        2   -1    0    0  501    0  0.00000000000E+00  0.00000000000E+00  0.14178453700E+04  0.14178453700E+04  0.25500000920E-02 0. -1.
       -2   -1    0    0    0  501  0.00000000000E+00  0.00000000000E+00 -0.78082807179E+03  0.78082807180E+03  0.25500000920E-02 0.  1.
    10030    2    1    2    0    0  0.00000000000E+00  0.00000000000E+00  0.63701729821E+03  0.21986734418E+04  0.21043701826E+04 0.  0.
        1    1    3    3  502    0 -0.29240741117E+03 -0.90773757172E+03  0.78295581523E+03  0.12339000777E+04  0.50400001928E-02 0. -1.
       -1    1    3    3    0  502  0.29240741117E+03  0.90773757172E+03 -0.14593851702E+03  0.96477336406E+03  0.50400001928E-02 0.  1.
</event>
<event>
 5   0  0.1281470E-04  0.2101397E+04  0.7818609E-02  0.8560628E-01
        2   -1    0    0  501    0  0.00000000000E+00  0.00000000000E+00  0.13954059156E+04  0.13954059156E+04  0.25500000920E-02 0.  1.
       -2   -1    0    0    0  501  0.00000000000E+00  0.00000000000E+00 -0.79114414272E+03  0.79114414273E+03  0.25500000920E-02 0. -1.
    10030    2    1    2    0    0  0.00000000000E+00  0.00000000000E+00  0.60426177287E+03  0.21865500583E+04  0.21013968848E+04 0.  0.
        3    1    3    3  502    0 -0.87627207926E+03  0.10528704520E+03 -0.29108456544E+03  0.92933758840E+03  0.10100000352E+00 0. -1.
       -3    1    3    3    0  502  0.87627207926E+03 -0.10528704520E+03  0.89534633831E+03  0.12572124699E+04  0.10100000352E+00 0.  1.
</event>
<event>
 5   0  0.1281470E-04  0.2195988E+04  0.7818609E-02  0.8520100E-01
        2   -1    0    0  501    0  0.00000000000E+00  0.00000000000E+00  0.16461467020E+04  0.16461467020E+04  0.25500000920E-02 0.  1.
       -2   -1    0    0    0  501  0.00000000000E+00  0.00000000000E+00 -0.73237175086E+03  0.73237175086E+03  0.25500000920E-02 0. -1.
    10030    2    1    2    0    0  0.00000000000E+00  0.00000000000E+00  0.91377495112E+03  0.23785184528E+04  0.21959884720E+04 0.  0.
        3    1    3    3  502    0  0.10626831234E+04 -0.37649186420E+02  0.75327156920E+03  0.13031235357E+04  0.10100000352E+00 0.  1.
       -3    1    3    3    0  502 -0.10626831234E+04  0.37649186420E+02  0.16050338192E+03  0.10753949172E+04  0.10100000352E+00 0. -1.
</event>
<event>
 5   0  0.6263616E-05  0.2107139E+04  0.7818609E-02  0.8558105E-01
        1   -1    0    0  501    0  0.00000000000E+00  0.00000000000E+00  0.11867190354E+04  0.11867190354E+04  0.50400001928E-02 0.  1.
       -1   -1    0    0    0  501  0.00000000000E+00  0.00000000000E+00 -0.93535931513E+03  0.93535931514E+03  0.50400001928E-02 0. -1.
    10030    2    1    2    0    0  0.00000000000E+00  0.00000000000E+00  0.25135972029E+03  0.21220783506E+04  0.21071390123E+04 0.  0.
        4    1    3    3  502    0 -0.52874166881E+03  0.19062690900E+03  0.10231210985E+04  0.11673408953E+04  0.12699999809E+01 0.  1.
       -4    1    3    3    0  502  0.52874166881E+03 -0.19062690900E+03 -0.77176137818E+03  0.95473745529E+03  0.12699999809E+01 0. -1.
</event>
<event>
 5   0  0.1235817E-04  0.2078201E+04  0.7818609E-02  0.8570907E-01
        2   -1    0    0  501    0  0.00000000000E+00  0.00000000000E+00  0.17714974106E+04  0.17714974106E+04  0.25500000920E-02 0.  1.
       -2   -1    0    0    0  501  0.00000000000E+00  0.00000000000E+00 -0.60950144782E+03  0.60950144783E+03  0.25500000920E-02 0. -1.
    10030    2    1    2    0    0  0.00000000000E+00  0.00000000000E+00  0.11619959628E+04  0.23809988585E+04  0.20782013729E+04 0.  0.
        1    1    3    3  502    0  0.79277195411E+03  0.43081946966E+03 -0.94970001308E+01  0.90232088510E+03  0.50400001928E-02 0. -1.
       -1    1    3    3    0  502 -0.79277195411E+03 -0.43081946966E+03  0.11714929630E+04  0.14786779734E+04  0.50400001928E-02 0.  1.
</event>
<event>
 5   0  0.5933905E-05  0.2237821E+04  0.7818609E-02  0.8502849E-01
        1   -1    0    0  501    0  0.00000000000E+00  0.00000000000E+00  0.11388160289E+04  0.11388160289E+04  0.50400001928E-02 0.  1.
       -1   -1    0    0    0  501  0.00000000000E+00  0.00000000000E+00 -0.10993525523E+04  0.10993525523E+04  0.50400001928E-02 0. -1.
    10030    2    1    2    0    0  0.00000000000E+00  0.00000000000E+00  0.39463476618E+02  0.22381685813E+04  0.22378206434E+04 0.  0.
        2    1    3    3  502    0  0.29597464838E+03 -0.10594506791E+04  0.22451604384E+03  0.11226950556E+04  0.25500000920E-02 0.  1.
       -2    1    3    3    0  502 -0.29597464838E+03  0.10594506791E+04 -0.18505256722E+03  0.11154735257E+04  0.25500000920E-02 0. -1.
</event>
<event>
 5   0  0.6052292E-05  0.1996337E+04  0.7818609E-02  0.8608335E-01
       -1   -1    0    0    0  501  0.00000000000E+00  0.00000000000E+00  0.77110936777E+03  0.77110936778E+03  0.50400001928E-02 0. -1.
        1   -1    0    0  501    0  0.00000000000E+00  0.00000000000E+00 -0.12920868151E+04  0.12920868151E+04  0.50400001928E-02 0.  1.
    10030    2    1    2    0    0  0.00000000000E+00  0.00000000000E+00 -0.52097744731E+03  0.20631961829E+04  0.19963368925E+04 0.  0.
        1    1    3    3  502    0 -0.36388521191E+03  0.68145284295E+03  0.39278044811E+03  0.86664116279E+03  0.50400001928E-02 0. -1.
       -1    1    3    3    0  502  0.36388521191E+03 -0.68145284295E+03 -0.91375789542E+03  0.11965550201E+04  0.50400001928E-02 0.  1.
</event>
<event>
 5   0  0.5846187E-05  0.2073137E+04  0.7818609E-02  0.8573170E-01
        1   -1    0    0  501    0  0.00000000000E+00  0.00000000000E+00  0.71605082801E+03  0.71605082802E+03  0.50400001928E-02 0. -1.
       -1   -1    0    0    0  501  0.00000000000E+00  0.00000000000E+00 -0.15005559919E+04  0.15005559919E+04  0.50400001928E-02 0.  1.
    10030    2    1    2    0    0  0.00000000000E+00  0.00000000000E+00 -0.78450516386E+03  0.22166068199E+04  0.20731371016E+04 0.  0.
        5    1    3    3  502    0 -0.32876950801E+03  0.56192737756E+03  0.47016547026E+03  0.80307498185E+03  0.46999998093E+01 0. -1.
       -5    1    3    3    0  502  0.32876950801E+03 -0.56192737756E+03 -0.12546706341E+04  0.14135318381E+04  0.46999998093E+01 0.  1.
</event>
<event>
 5   0  0.1349252E-04  0.2090872E+04  0.7818609E-02  0.8565275E-01
       -2   -1    0    0    0  501  0.00000000000E+00  0.00000000000E+00  0.12895174479E+04  0.12895174479E+04  0.25500000920E-02 0. -1.
        2   -1    0    0  501    0  0.00000000000E+00  0.00000000000E+00 -0.84755430510E+03  0.84755430510E+03  0.25500000920E-02 0.  1.
    10030    2    1    2    0    0  0.00000000000E+00  0.00000000000E+00  0.44196314279E+03  0.21370717530E+04  0.20908716503E+04 0.  0.
        2    1    3    3  502    0  0.59368490674E+02  0.10325509177E+04  0.37683044449E+03  0.11007666416E+04  0.25500000920E-02 0. -1.
       -2    1    3    3    0  502 -0.59368490674E+02 -0.10325509177E+04  0.65132698303E+02  0.10363051114E+04  0.25500000920E-02 0.  1.
</event>
<event>
 5   0  0.1235817E-04  0.1950471E+04  0.7818609E-02  0.8630134E-01
        2   -1    0    0  501    0  0.00000000000E+00  0.00000000000E+00  0.68253145869E+03  0.68253145870E+03  0.25500000920E-02 0. -1.
       -2   -1    0    0    0  501  0.00000000000E+00  0.00000000000E+00 -0.13934655837E+04  0.13934655837E+04  0.25500000920E-02 0.  1.
    10030    2    1    2    0    0  0.00000000000E+00  0.00000000000E+00 -0.71093412497E+03  0.20759970424E+04  0.19504708124E+04 0.  0.
        1    1    3    3  502    0 -0.14001082520E+03 -0.27549263690E+03  0.62903997185E+03  0.70084984866E+03  0.50400001928E-02 0. -1.
       -1    1    3    3    0  502  0.14001082520E+03  0.27549263690E+03 -0.13399740968E+04  0.13751471937E+04  0.50400001928E-02 0.  1.
</event>
<event>
 5   0  0.1281470E-04  0.2098660E+04  0.7818609E-02  0.8561834E-01
        2   -1    0    0  501    0  0.00000000000E+00  0.00000000000E+00  0.16116263482E+04  0.16116263482E+04  0.25500000920E-02 0. -1.
       -2   -1    0    0    0  501  0.00000000000E+00  0.00000000000E+00 -0.68321880555E+03  0.68321880556E+03  0.25500000920E-02 0.  1.
    10030    2    1    2    0    0  0.00000000000E+00  0.00000000000E+00  0.92840754268E+03  0.22948451538E+04  0.20986599807E+04 0.  0.
        3    1    3    3  502    0 -0.69910713540E+03  0.53679800704E+03 -0.15839960083E+03  0.89554080358E+03  0.10100000352E+00 0.  1.
       -3    1    3    3    0  502  0.69910713540E+03 -0.53679800704E+03  0.10868071435E+04  0.13993043502E+04  0.10100000352E+00 0. -1.
</event>
<event>
 5   0  0.4615125E-05  0.2027266E+04  0.7818609E-02  0.8593978E-01
       -3   -1    0    0    0  501  0.00000000000E+00  0.00000000000E+00  0.12766254722E+04  0.12766254762E+04  0.10100000352E+00 0. -1.
        3   -1    0    0  501    0  0.00000000000E+00  0.00000000000E+00 -0.80481875946E+03  0.80481876579E+03  0.10100000352E+00 0.  1.
    10030    2    1    2    0    0  0.00000000000E+00  0.00000000000E+00  0.47180671278E+03  0.20814442420E+04  0.20272662771E+04 0.  0.
        4    1    3    3  502    0 -0.78540173045E+03 -0.63573444873E+03  0.31827431539E+03  0.10593933737E+04  0.12699999809E+01 0.  1.
       -4    1    3    3    0  502  0.78540173045E+03  0.63573444873E+03  0.15353239739E+03  0.10220508683E+04  0.12699999809E+01 0. -1.
</event>
<event>
 5   0  0.4615125E-05  0.1754972E+04  0.7818609E-02  0.8730618E-01
       -4   -1    0    0    0  501  0.00000000000E+00  0.00000000000E+00  0.61258522163E+03  0.61258653810E+03  0.12699999809E+01 0. -1.
        4   -1    0    0  501    0  0.00000000000E+00  0.00000000000E+00 -0.12569350096E+04  0.12569356512E+04  0.12699999809E+01 0.  1.
    10030    2    1    2    0    0  0.00000000000E+00  0.00000000000E+00 -0.64434978792E+03  0.18695221893E+04  0.17549719562E+04 0.  0.
        4    1    3    3  502    0  0.62922840302E+03 -0.22412459056E+03  0.28401983029E+03  0.72582993336E+03  0.12699999809E+01 0. -1.
       -4    1    3    3    0  502 -0.62922840302E+03  0.22412459056E+03 -0.92836961821E+03  0.11436922559E+04  0.12699999809E+01 0.  1.
</event>
<event>
 5   0  0.1252477E-04  0.1967045E+04  0.7818609E-02  0.8622185E-01
        2   -1    0    0  501    0  0.00000000000E+00  0.00000000000E+00  0.13125902840E+04  0.13125902840E+04  0.25500000920E-02 0. -1.
       -2   -1    0    0    0  501  0.00000000000E+00  0.00000000000E+00 -0.73695270553E+03  0.73695270554E+03  0.25500000920E-02 0.  1.
    10030    2    1    2    0    0  0.00000000000E+00  0.00000000000E+00  0.57563757850E+03  0.20495429896E+04  0.19670454607E+04 0.  0.
        4    1    3    3  502    0 -0.66898088420E+03  0.36377636266E+03  0.93637647231E+03  0.12069263342E+04  0.12699999809E+01 0. -1.
       -4    1    3    3    0  502  0.66898088420E+03 -0.36377636266E+03 -0.36073889381E+03  0.84261665534E+03  0.12699999809E+01 0.  1.
</event>
<event>
 5   0  0.1235817E-04  0.2104325E+04  0.7818609E-02  0.8559341E-01
       -2   -1    0    0    0  501  0.00000000000E+00  0.00000000000E+00  0.40029728463E+03  0.40029728464E+03  0.25500000920E-02 0. -1.
        2   -1    0    0  501    0  0.00000000000E+00  0.00000000000E+00 -0.27655582959E+04  0.27655582959E+04  0.25500000920E-02 0.  1.
    10030    2    1    2    0    0  0.00000000000E+00  0.00000000000E+00 -0.23652610113E+04  0.31658555805E+04  0.21043245723E+04 0.  0.
        1    1    3    3  502    0 -0.40997812386E+03 -0.53004804753E+03 -0.24030115091E+04  0.24946938304E+04  0.50400001928E-02 0.  1.
       -1    1    3    3    0  502  0.40997812386E+03  0.53004804753E+03  0.37750497798E+02  0.67116175013E+03  0.50400001928E-02 0. -1.
</event>
<event>
 5   0  0.6052292E-05  0.2268401E+04  0.7818609E-02  0.8490485E-01
       -1   -1    0    0    0  501  0.00000000000E+00  0.00000000000E+00  0.75123551414E+03  0.75123551416E+03  0.50400001928E-02 0. -1.
        1   -1    0    0  501    0  0.00000000000E+00  0.00000000000E+00 -0.17123937664E+04  0.17123937664E+04  0.50400001928E-02 0.  1.
    10030    2    1    2    0    0  0.00000000000E+00  0.00000000000E+00 -0.96115825225E+03  0.24636292806E+04  0.22684012092E+04 0.  0.
        1    1    3    3  502    0  0.98851922538E+03 -0.14692422413E+03  0.10191387906E+03  0.10045613099E+04  0.50400001928E-02 0. -1.
       -1    1    3    3    0  502 -0.98851922538E+03  0.14692422413E+03 -0.10630721313E+04  0.14590679706E+04  0.50400001928E-02 0.  1.
</event>
<event>
 5   0  0.5846187E-05  0.2118174E+04  0.7818609E-02  0.8553280E-01
        1   -1    0    0  501    0  0.00000000000E+00  0.00000000000E+00  0.13446399986E+04  0.13446399986E+04  0.50400001928E-02 0. -1.
       -1   -1    0    0    0  501  0.00000000000E+00  0.00000000000E+00 -0.83417508920E+03  0.83417508921E+03  0.50400001928E-02 0.  1.
    10030    2    1    2    0    0  0.00000000000E+00  0.00000000000E+00  0.51046490942E+03  0.21788150878E+04  0.21181739219E+04 0.  0.
        5    1    3    3  502    0  0.50594075294E+03 -0.36400634001E+03  0.11359974496E+04  0.12957580625E+04  0.46999998093E+01 0. -1.
       -5    1    3    3    0  502 -0.50594075294E+03  0.36400634001E+03 -0.62553254022E+03  0.88305702530E+03  0.46999998093E+01 0.  1.
</event>
<event>
 5   0  0.1325673E-04  0.1964052E+04  0.7818609E-02  0.8623615E-01
       -2   -1    0    0    0  501  0.00000000000E+00  0.00000000000E+00  0.11020544618E+04  0.11020544618E+04  0.25500000920E-02 0.  1.
        2   -1    0    0  501    0  0.00000000000E+00  0.00000000000E+00 -0.87506992730E+03  0.87506992731E+03  0.25500000920E-02 0. -1.
    10030    2    1    2    0    0  0.00000000000E+00  0.00000000000E+00  0.22698453448E+03  0.19771243891E+04  0.19640516467E+04 0.  0.
        5    1    3    3  502    0  0.65839615236E+03  0.21674978236E+03  0.81374194415E+03  0.10689546311E+04  0.46999998093E+01 0.  1.
       -5    1    3    3    0  502 -0.65839615236E+03 -0.21674978236E+03 -0.58675740967E+03  0.90816975803E+03  0.46999998093E+01 0. -1.
</event>
<event>
 5   0  0.1325673E-04  0.2110561E+04  0.7818609E-02  0.8556606E-01
       -2   -1    0    0    0  501  0.00000000000E+00  0.00000000000E+00  0.87934175131E+03  0.87934175132E+03  0.25500000920E-02 0. -1.
        2   -1    0    0  501    0  0.00000000000E+00  0.00000000000E+00 -0.12664205997E+04  0.12664205997E+04  0.25500000920E-02 0.  1.
    10030    2    1    2    0    0  0.00000000000E+00  0.00000000000E+00 -0.38707884835E+03  0.21457623510E+04  0.21105605966E+04 0.  0.
        5    1    3    3  502    0 -0.78922334353E+03 -0.49487648509E+03  0.31053052749E+03  0.98195087452E+03  0.46999998093E+01 0. -1.
       -5    1    3    3    0  502  0.78922334353E+03  0.49487648509E+03 -0.69760937584E+03  0.11638114765E+04  0.46999998093E+01 0.  1.
</event>
<event>
 5   0  0.1325673E-04  0.2094944E+04  0.7818609E-02  0.8563474E-01
       -2   -1    0    0    0  501  0.00000000000E+00  0.00000000000E+00  0.71912606844E+03  0.71912606844E+03  0.25500000920E-02 0. -1.
        2   -1    0    0  501    0  0.00000000000E+00  0.00000000000E+00 -0.15257367724E+04  0.15257367724E+04  0.25500000920E-02 0.  1.
    10030    2    1    2    0    0  0.00000000000E+00  0.00000000000E+00 -0.80661070400E+03  0.22448628409E+04  0.20949435187E+04 0.  0.
        5    1    3    3  502    0 -0.46884065037E+03  0.73097943223E+03  0.22429782547E+03  0.89692479634E+03  0.46999998093E+01 0. -1.
       -5    1    3    3    0  502  0.46884065037E+03 -0.73097943223E+03 -0.10309085295E+04  0.13479380445E+04  0.46999998093E+01 0.  1.
</event>
<event>
 5   0  0.1252477E-04  0.2061034E+04  0.7818609E-02  0.8578605E-01
        2   -1    0    0  501    0  0.00000000000E+00  0.00000000000E+00  0.18497614608E+04  0.18497614608E+04  0.25500000920E-02 0.  1.
       -2   -1    0    0    0  501  0.00000000000E+00  0.00000000000E+00 -0.57410954882E+03  0.57410954882E+03  0.25500000920E-02 0. -1.
    10030    2    1    2    0    0  0.00000000000E+00  0.00000000000E+00  0.12756519119E+04  0.24238710096E+04  0.20610344176E+04 0.  0.
        4    1    3    3  502    0  0.29917784371E+03 -0.94970296194E+03  0.95013424548E+03  0.13762993117E+04  0.12699999809E+01 0. -1.
       -4    1    3    3    0  502 -0.29917784371E+03  0.94970296194E+03  0.32551766645E+03  0.10475716979E+04  0.12699999809E+01 0.  1.
</event>
<event>
 5   0  0.1252477E-04  0.2103827E+04  0.7818609E-02  0.8559559E-01
        2   -1    0    0  501    0  0.00000000000E+00  0.00000000000E+00  0.20502619453E+04  0.20502619453E+04  0.25500000920E-02 0.  1.
       -2   -1    0    0    0  501  0.00000000000E+00  0.00000000000E+00 -0.53969786027E+03  0.53969786028E+03  0.25500000920E-02 0. -1.
    10030    2    1    2    0    0  0.00000000000E+00  0.00000000000E+00  0.15105640851E+04  0.25899598056E+04  0.21038269747E+04 0.  0.
        4    1    3    3  502    0 -0.39408190402E+03 -0.94789518813E+03  0.10379315312E+04  0.14598319462E+04  0.12699999809E+01 0.  1.
       -4    1    3    3    0  502  0.39408190402E+03  0.94789518813E+03  0.47263255387E+03  0.11301278594E+04  0.12699999809E+01 0. -1.
</event>
<event>
 5   0  0.5846187E-05  0.2152732E+04  0.7818609E-02  0.8538364E-01
       -1   -1    0    0    0  501  0.00000000000E+00  0.00000000000E+00  0.56802946619E+03  0.56802946621E+03  0.50400001928E-02 0.  1.
        1   -1    0    0  501    0  0.00000000000E+00  0.00000000000E+00 -0.20396186083E+04  0.20396186083E+04  0.50400001928E-02 0. -1.
    10030    2    1    2    0    0  0.00000000000E+00  0.00000000000E+00 -0.14715891421E+04  0.26076480745E+04  0.21527317244E+04 0.  0.
        5    1    3    3  502    0  0.90707250696E+03  0.11975707103E+02 -0.14375427933E+04  0.16998456762E+04  0.46999998093E+01 0. -1.
       -5    1    3    3    0  502 -0.90707250696E+03 -0.11975707103E+02 -0.34046348800E+02  0.90780239827E+03  0.46999998093E+01 0.  1.
</event>
<event>
 5   0  0.1281470E-04  0.2119469E+04  0.7818609E-02  0.8552715E-01
       -2   -1    0    0    0  501  0.00000000000E+00  0.00000000000E+00  0.51300458434E+03  0.51300458434E+03  0.25500000920E-02 0.  1.
        2   -1    0    0  501    0  0.00000000000E+00  0.00000000000E+00 -0.21891364594E+04  0.21891364594E+04  0.25500000920E-02 0. -1.
    10030    2    1    2    0    0  0.00000000000E+00  0.00000000000E+00 -0.16761318751E+04  0.27021410438E+04  0.21194688386E+04 0.  0.
        3    1    3    3  502    0  0.12566445095E+03 -0.57127467720E+03 -0.19646824410E+04  0.20499081480E+04  0.10100000352E+00 0. -1.
       -3    1    3    3    0  502 -0.12566445095E+03  0.57127467720E+03  0.28855056591E+03  0.65223289578E+03  0.10100000352E+00 0.  1.
</event>
<event>
 5   0  0.1252477E-04  0.2072095E+04  0.7818609E-02  0.8573636E-01
        2   -1    0    0  501    0  0.00000000000E+00  0.00000000000E+00  0.10710045215E+04  0.10710045215E+04  0.25500000920E-02 0.  1.
       -2   -1    0    0    0  501  0.00000000000E+00  0.00000000000E+00 -0.10022312626E+04  0.10022312626E+04  0.25500000920E-02 0. -1.
    10030    2    1    2    0    0  0.00000000000E+00  0.00000000000E+00  0.68773258842E+02  0.20732357841E+04  0.20720947989E+04 0.  0.
        4    1    3    3  502    0  0.10073157571E+04  0.17239367874E+03 -0.13596570791E+03  0.10309669741E+04  0.12699999809E+01 0. -1.
       -4    1    3    3    0  502 -0.10073157571E+04 -0.17239367874E+03  0.20473896675E+03  0.10422688101E+04  0.12699999809E+01 0.  1.
</event>
<event>
 5   0  0.6221148E-05  0.2111376E+04  0.7818609E-02  0.8556249E-01
       -1   -1    0    0    0  501  0.00000000000E+00  0.00000000000E+00  0.65322625633E+03  0.65322625635E+03  0.50400001928E-02 0. -1.
        1   -1    0    0  501    0  0.00000000000E+00  0.00000000000E+00 -0.17061120327E+04  0.17061120327E+04  0.50400001928E-02 0.  1.
    10030    2    1    2    0    0  0.00000000000E+00  0.00000000000E+00 -0.10528857764E+04  0.23593382891E+04  0.21113760215E+04 0.  0.
        3    1    3    3  502    0  0.60897123557E+03 -0.86098371774E+03 -0.58047711953E+03  0.12037826317E+04  0.10100000352E+00 0. -1.
       -3    1    3    3    0  502 -0.60897123557E+03  0.86098371774E+03 -0.47240865687E+03  0.11555556574E+04  0.10100000352E+00 0.  1.
</event>
<event>
 5   0  0.1325673E-04  0.2111607E+04  0.7818609E-02  0.8556148E-01
        2   -1    0    0  501    0  0.00000000000E+00  0.00000000000E+00  0.95229831608E+03  0.95229831608E+03  0.25500000920E-02 0.  1.
       -2   -1    0    0    0  501  0.00000000000E+00  0.00000000000E+00 -0.11705588127E+04  0.11705588127E+04  0.25500000920E-02 0. -1.
    10030    2    1    2    0    0  0.00000000000E+00  0.00000000000E+00 -0.21826049661E+03  0.21228571288E+04  0.21116071474E+04 0.  0.
        5    1    3    3  502    0  0.51416243823E+03 -0.31901971423E+03  0.76067430774E+03  0.97200004290E+03  0.46999998093E+01 0.  1.
       -5    1    3    3    0  502 -0.51416243823E+03  0.31901971423E+03 -0.97893480435E+03  0.11508570859E+04  0.46999998093E+01 0. -1.
</event>
<event>
 5   0  0.1349252E-04  0.2105647E+04  0.7818609E-02  0.8558760E-01
       -2   -1    0    0    0  501  0.00000000000E+00  0.00000000000E+00  0.67071676548E+03  0.67071676548E+03  0.25500000920E-02 0.  1.
        2   -1    0    0  501    0  0.00000000000E+00  0.00000000000E+00 -0.16526160200E+04  0.16526160200E+04  0.25500000920E-02 0. -1.
    10030    2    1    2    0    0  0.00000000000E+00  0.00000000000E+00 -0.98189925454E+03  0.23233327855E+04  0.21056469519E+04 0.  0.
        2    1    3    3  502    0  0.33023035611E+03 -0.77924060693E+02  0.60873696481E+03  0.69691099838E+03  0.25500000920E-02 0.  1.
       -2    1    3    3    0  502 -0.33023035611E+03  0.77924060693E+02 -0.15906362193E+04  0.16264217871E+04  0.25500000920E-02 0. -1.
</event>
<event>
 5   0  0.6052292E-05  0.2112583E+04  0.7818609E-02  0.8555721E-01
       -1   -1    0    0    0  501  0.00000000000E+00  0.00000000000E+00  0.17414333713E+04  0.17414333713E+04  0.50400001928E-02 0.  1.
        1   -1    0    0  501    0  0.00000000000E+00  0.00000000000E+00 -0.64070872777E+03  0.64070872779E+03  0.50400001928E-02 0. -1.
    10030    2    1    2    0    0  0.00000000000E+00  0.00000000000E+00  0.11007246435E+04  0.23821420991E+04  0.21125828361E+04 0.  0.
        1    1    3    3  502    0  0.13844074562E+03  0.42131995664E+03  0.16313716570E+04  0.16905767741E+04  0.50400001928E-02 0.  1.
       -1    1    3    3    0  502 -0.13844074562E+03 -0.42131995664E+03 -0.53064701342E+03  0.69156532503E+03  0.50400001928E-02 0. -1.
</event>
<event>
 5   0  0.1325673E-04  0.2075108E+04  0.7818609E-02  0.8572288E-01
        2   -1    0    0  501    0  0.00000000000E+00  0.00000000000E+00  0.18336842228E+04  0.18336842228E+04  0.25500000920E-02 0.  1.
       -2   -1    0    0    0  501  0.00000000000E+00  0.00000000000E+00 -0.58707960600E+03  0.58707960601E+03  0.25500000920E-02 0. -1.
    10030    2    1    2    0    0  0.00000000000E+00  0.00000000000E+00  0.12466046168E+04  0.24207638288E+04  0.20751082970E+04 0.  0.
        5    1    3    3  502    0  0.95559292331E+03  0.39981469404E+03  0.69218834150E+03  0.12458556958E+04  0.46999998093E+01 0. -1.
       -5    1    3    3    0  502 -0.95559292331E+03 -0.39981469404E+03  0.55441627526E+03  0.11749081330E+04  0.46999998093E+01 0.  1.
</event>
<event>
 5   0  0.1325673E-04  0.2106264E+04  0.7818609E-02  0.8558489E-01
        2   -1    0    0  501    0  0.00000000000E+00  0.00000000000E+00  0.82153062771E+03  0.82153062772E+03  0.25500000920E-02 0.  1.
       -2   -1    0    0    0  501  0.00000000000E+00  0.00000000000E+00 -0.13500247294E+04  0.13500247294E+04  0.25500000920E-02 0. -1.
    10030    2    1    2    0    0  0.00000000000E+00  0.00000000000E+00 -0.52849410168E+03  0.21715553571E+04  0.21062636714E+04 0.  0.
        5    1    3    3  502    0 -0.59626051917E+03 -0.86503757770E+03 -0.18955863408E+03  0.10676006666E+04  0.46999998093E+01 0.  1.
       -5    1    3    3    0  502  0.59626051917E+03  0.86503757770E+03 -0.33893546761E+03  0.11039546905E+04  0.46999998093E+01 0. -1.
</event>
<event>
 5   0  0.1281470E-04  0.2093683E+04  0.7818609E-02  0.8564031E-01
        2   -1    0    0  501    0  0.00000000000E+00  0.00000000000E+00  0.16003597766E+04  0.16003597766E+04  0.25500000920E-02 0. -1.
       -2   -1    0    0    0  501  0.00000000000E+00  0.00000000000E+00 -0.68476905840E+03  0.68476905841E+03  0.25500000920E-02 0.  1.
    10030    2    1    2    0    0  0.00000000000E+00  0.00000000000E+00  0.91559071818E+03  0.22851288350E+04  0.20936827432E+04 0.  0.
        3    1    3    3  502    0 -0.90645649715E+03  0.20303879554E+03  0.98462142996E+03  0.13536496978E+04  0.10100000352E+00 0. -1.
       -3    1    3    3    0  502  0.90645649715E+03 -0.20303879554E+03 -0.69030711779E+02  0.93147913723E+03  0.10100000352E+00 0.  1.
</event>
<event>
 5   0  0.5933905E-05  0.2114594E+04  0.7818609E-02  0.8554842E-01
        1   -1    0    0  501    0  0.00000000000E+00  0.00000000000E+00  0.16237968370E+04  0.16237968370E+04  0.50400001928E-02 0. -1.
       -1   -1    0    0    0  501  0.00000000000E+00  0.00000000000E+00 -0.68843393026E+03  0.68843393028E+03  0.50400001928E-02 0.  1.
    10030    2    1    2    0    0  0.00000000000E+00  0.00000000000E+00  0.93536290669E+03  0.23122307672E+04  0.21145938981E+04 0.  0.
        2    1    3    3  502    0 -0.81347555241E+03  0.81013013104E+02 -0.26548649208E+03  0.85952816134E+03  0.25500000920E-02 0.  1.
       -2    1    3    3    0  502  0.81347555241E+03 -0.81013013104E+02  0.12008493988E+04  0.14527026059E+04  0.25500000920E-02 0. -1.
</event>
<event>
 5   0  0.5846187E-05  0.2120296E+04  0.7818609E-02  0.8552355E-01
       -1   -1    0    0    0  501  0.00000000000E+00  0.00000000000E+00  0.66245451199E+03  0.66245451201E+03  0.50400001928E-02 0. -1.
        1   -1    0    0  501    0  0.00000000000E+00  0.00000000000E+00 -0.16965906136E+04  0.16965906137E+04  0.50400001928E-02 0.  1.
    10030    2    1    2    0    0  0.00000000000E+00  0.00000000000E+00 -0.10341361017E+04  0.23590451257E+04  0.21202963067E+04 0.  0.
        5    1    3    3  502    0  0.97831667283E+03 -0.18604596144E+03 -0.92156478210E+03  0.13568420504E+04  0.46999998093E+01 0.  1.
       -5    1    3    3    0  502 -0.97831667283E+03  0.18604596144E+03 -0.11257131956E+03  0.10022030753E+04  0.46999998093E+01 0. -1.
</event>
<event>
 5   0  0.1349252E-04  0.1967440E+04  0.7818609E-02  0.8621996E-01
        2   -1    0    0  501    0  0.00000000000E+00  0.00000000000E+00  0.15183995147E+04  0.15183995147E+04  0.25500000920E-02 0. -1.
       -2   -1    0    0    0  501  0.00000000000E+00  0.00000000000E+00 -0.63731933804E+03  0.63731933805E+03  0.25500000920E-02 0.  1.
    10030    2    1    2    0    0  0.00000000000E+00  0.00000000000E+00  0.88108017669E+03  0.21557188528E+04  0.19674403408E+04 0.  0.
        2    1    3    3  502    0  0.33463851652E+03  0.14090907549E+03 -0.56120946088E+03  0.66842678229E+03  0.25500000920E-02 0.  1.
       -2    1    3    3    0  502 -0.33463851652E+03 -0.14090907549E+03  0.14422896376E+04  0.14872920705E+04  0.25500000920E-02 0. -1.
</event>
<event>
 5   0  0.1235817E-04  0.1952821E+04  0.7818609E-02  0.8629002E-01
        2   -1    0    0  501    0  0.00000000000E+00  0.00000000000E+00  0.94023123742E+03  0.94023123742E+03  0.25500000920E-02 0. -1.
       -2   -1    0    0    0  501  0.00000000000E+00  0.00000000000E+00 -0.10139822091E+04  0.10139822091E+04  0.25500000920E-02 0.  1.
    10030    2    1    2    0    0  0.00000000000E+00  0.00000000000E+00 -0.73750971642E+02  0.19542134465E+04  0.19528212895E+04 0.  0.
        1    1    3    3  502    0 -0.89836712059E+03 -0.33326573096E+03 -0.22475441177E+03  0.98419717355E+03  0.50400001928E-02 0.  1.
       -1    1    3    3    0  502  0.89836712059E+03  0.33326573096E+03  0.15100344013E+03  0.97001627293E+03  0.50400001928E-02 0. -1.
</event>
<event>
 5   0  0.5933905E-05  0.1954809E+04  0.7818609E-02  0.8628045E-01
        1   -1    0    0  501    0  0.00000000000E+00  0.00000000000E+00  0.15845463269E+04  0.15845463270E+04  0.50400001928E-02 0.  1.
       -1   -1    0    0    0  501  0.00000000000E+00  0.00000000000E+00 -0.60289789943E+03  0.60289789945E+03  0.50400001928E-02 0. -1.
    10030    2    1    2    0    0  0.00000000000E+00  0.00000000000E+00  0.98164842751E+03  0.21874442264E+04  0.19548090977E+04 0.  0.
        2    1    3    3  502    0 -0.15271222174E+03 -0.10153269822E+01 -0.58946498456E+03  0.60892612161E+03  0.25500000920E-02 0. -1.
       -2    1    3    3    0  502  0.15271222174E+03  0.10153269822E+01  0.15711134121E+04  0.15785181048E+04  0.25500000920E-02 0.  1.
</event>
<event>
 5   0  0.6221148E-05  0.2029542E+04  0.7818609E-02  0.8592932E-01
       -1   -1    0    0    0  501  0.00000000000E+00  0.00000000000E+00  0.54608718819E+03  0.54608718822E+03  0.50400001928E-02 0. -1.
        1   -1    0    0  501    0  0.00000000000E+00  0.00000000000E+00 -0.18857065166E+04  0.18857065166E+04  0.50400001928E-02 0.  1.
    10030    2    1    2    0    0  0.00000000000E+00  0.00000000000E+00 -0.13396193284E+04  0.24317937048E+04  0.20295419872E+04 0.  0.
        3    1    3    3  502    0 -0.52610027885E+03  0.32115007218E+03  0.29609072173E+03  0.68380450274E+03  0.10100000352E+00 0. -1.
       -3    1    3    3    0  502  0.52610027885E+03 -0.32115007218E+03 -0.16357100501E+04  0.17479892021E+04  0.10100000352E+00 0.  1.
</event>
<event>
 5   0  0.1349252E-04  0.2109755E+04  0.7818609E-02  0.8556958E-01
       -2   -1    0    0    0  501  0.00000000000E+00  0.00000000000E+00  0.83809039309E+03  0.83809039309E+03  0.25500000920E-02 0. -1.
        2   -1    0    0  501    0  0.00000000000E+00  0.00000000000E+00 -0.13277402347E+04  0.13277402347E+04  0.25500000920E-02 0.  1.
    10030    2    1    2    0    0  0.00000000000E+00  0.00000000000E+00 -0.48964984164E+03  0.21658306278E+04  0.21097548059E+04 0.  0.
        2    1    3    3  502    0 -0.20346037488E+03  0.25716724462E+03 -0.12740879045E+04  0.13156105443E+04  0.25500000920E-02 0.  1.
       -2    1    3    3    0  502  0.20346037488E+03 -0.25716724462E+03  0.78443806290E+03  0.85022008350E+03  0.25500000920E-02 0. -1.
</event>
<event>
 5   0  0.6052292E-05  0.1955628E+04  0.7818609E-02  0.8627652E-01
       -1   -1    0    0    0  501  0.00000000000E+00  0.00000000000E+00  0.40092511850E+03  0.40092511853E+03  0.50400001928E-02 0.  1.
        1   -1    0    0  501    0  0.00000000000E+00  0.00000000000E+00 -0.23847850811E+04  0.23847850811E+04  0.50400001928E-02 0. -1.
    10030    2    1    2    0    0  0.00000000000E+00  0.00000000000E+00 -0.19838599626E+04  0.27857101996E+04  0.19556280232E+04 0.  0.
        1    1    3    3  502    0 -0.22326816912E+03  0.69850253172E+03 -0.70573364289E+02  0.73670554629E+03  0.50400001928E-02 0.  1.
       -1    1    3    3    0  502  0.22326816912E+03 -0.69850253172E+03 -0.19132865983E+04  0.20490046534E+04  0.50400001928E-02 0. -1.
</event>
<event>
 5   0  0.6052292E-05  0.2001816E+04  0.7818609E-02  0.8605772E-01
       -1   -1    0    0    0  501  0.00000000000E+00  0.00000000000E+00  0.15562621732E+04  0.15562621732E+04  0.50400001928E-02 0.  1.
        1   -1    0    0  501    0  0.00000000000E+00  0.00000000000E+00 -0.64373258484E+03  0.64373258486E+03  0.50400001928E-02 0. -1.
    10030    2    1    2    0    0  0.00000000000E+00  0.00000000000E+00  0.91252958838E+03  0.21999947581E+04  0.20018158472E+04 0.  0.
        1    1    3    3  502    0 -0.10831395954E+03  0.87584135014E+03  0.97522850535E+03  0.13152568655E+04  0.50400001928E-02 0.  1.
       -1    1    3    3    0  502  0.10831395954E+03 -0.87584135014E+03 -0.62698916968E+02  0.88473789263E+03  0.50400001928E-02 0. -1.
</event>
<event>
 5   0  0.5933905E-05  0.2102911E+04  0.7818609E-02  0.8559962E-01
       -1   -1    0    0    0  501  0.00000000000E+00  0.00000000000E+00  0.76948041662E+03  0.76948041663E+03  0.50400001928E-02 0. -1.
        1   -1    0    0  501    0  0.00000000000E+00  0.00000000000E+00 -0.14367601973E+04  0.14367601973E+04  0.50400001928E-02 0.  1.
    10030    2    1    2    0    0  0.00000000000E+00  0.00000000000E+00 -0.66727978067E+03  0.22062406139E+04  0.21029111586E+04 0.  0.
        2    1    3    3  502    0 -0.86772587825E+03  0.27917460584E+03  0.21620384691E+03  0.93681949369E+03  0.25500000920E-02 0. -1.
       -2    1    3    3    0  502  0.86772587825E+03 -0.27917460584E+03 -0.88348362758E+03  0.12694211202E+04  0.25500000920E-02 0.  1.
</event>
<event>
 5   0  0.1252477E-04  0.2048795E+04  0.7818609E-02  0.8584141E-01
       -2   -1    0    0    0  501  0.00000000000E+00  0.00000000000E+00  0.10440680219E+04  0.10440680219E+04  0.25500000920E-02 0.  1.
        2   -1    0    0  501    0  0.00000000000E+00  0.00000000000E+00 -0.10050975048E+04  0.10050975048E+04  0.25500000920E-02 0. -1.
    10030    2    1    2    0    0  0.00000000000E+00  0.00000000000E+00  0.38970517078E+02  0.20491655267E+04  0.20487949274E+04 0.  0.
        4    1    3    3  502    0 -0.77265830275E+03 -0.39128503091E+03 -0.52768199659E+03  0.10141768735E+04  0.12699999809E+01 0. -1.
       -4    1    3    3    0  502  0.77265830275E+03  0.39128503091E+03  0.56665251367E+03  0.10349886533E+04  0.12699999809E+01 0.  1.
</event>
<event>
 5   0  0.1325673E-04  0.2061214E+04  0.7818609E-02  0.8578524E-01
       -2   -1    0    0    0  501  0.00000000000E+00  0.00000000000E+00  0.70240154543E+03  0.70240154543E+03  0.25500000920E-02 0. -1.
        2   -1    0    0  501    0  0.00000000000E+00  0.00000000000E+00 -0.15121705747E+04  0.15121705747E+04  0.25500000920E-02 0.  1.
    10030    2    1    2    0    0  0.00000000000E+00  0.00000000000E+00 -0.80976902924E+03  0.22145721201E+04  0.20612141554E+04 0.  0.
        5    1    3    3  502    0  0.41904198938E+03 -0.49120464707E+03  0.45815551971E+03  0.79171128854E+03  0.46999998093E+01 0. -1.
       -5    1    3    3    0  502 -0.41904198938E+03  0.49120464707E+03 -0.12679245490E+04  0.14228608316E+04  0.46999998093E+01 0.  1.
</event>
<event>
 5   0  0.1252477E-04  0.2069688E+04  0.7818609E-02  0.8574715E-01
       -2   -1    0    0    0  501  0.00000000000E+00  0.00000000000E+00  0.62259081489E+03  0.62259081489E+03  0.25500000920E-02 0. -1.
        2   -1    0    0  501    0  0.00000000000E+00  0.00000000000E+00 -0.17200742553E+04  0.17200742553E+04  0.25500000920E-02 0.  1.
    10030    2    1    2    0    0  0.00000000000E+00  0.00000000000E+00 -0.10974834404E+04  0.23426650702E+04  0.20696883169E+04 0.  0.
        4    1    3    3  502    0  0.16858912255E+03 -0.97523336234E+03 -0.89093745245E+03  0.13316431806E+04  0.12699999809E+01 0.  1.
       -4    1    3    3    0  502 -0.16858912255E+03  0.97523336234E+03 -0.20654598796E+03  0.10110218896E+04  0.12699999809E+01 0. -1.
</event>
<event>
 5   0  0.1235817E-04  0.2105226E+04  0.7818609E-02  0.8558945E-01
       -2   -1    0    0    0  501  0.00000000000E+00  0.00000000000E+00  0.79268323192E+03  0.79268323192E+03  0.25500000920E-02 0. -1.
        2   -1    0    0  501    0  0.00000000000E+00  0.00000000000E+00 -0.13977764581E+04  0.13977764581E+04  0.25500000920E-02 0.  1.
    10030    2    1    2    0    0  0.00000000000E+00  0.00000000000E+00 -0.60509322615E+03  0.21904596900E+04  0.21052258409E+04 0.  0.
        1    1    3    3  502    0  0.74311867281E+03  0.12248633181E+03 -0.10676870253E+04  0.13065924565E+04  0.50400001928E-02 0.  1.
       -1    1    3    3    0  502 -0.74311867281E+03 -0.12248633181E+03  0.46259379918E+03  0.88386723348E+03  0.50400001928E-02 0. -1.
</event>
<event>
 5   0  0.1325673E-04  0.2097038E+04  0.7818609E-02  0.8562549E-01
        2   -1    0    0  501    0  0.00000000000E+00  0.00000000000E+00  0.24178956935E+04  0.24178956935E+04  0.25500000920E-02 0.  1.
       -2   -1    0    0    0  501  0.00000000000E+00  0.00000000000E+00 -0.45468963608E+03  0.45468963609E+03  0.25500000920E-02 0. -1.
    10030    2    1    2    0    0  0.00000000000E+00  0.00000000000E+00  0.19632060574E+04  0.28725853296E+04  0.20970380187E+04 0.  0.
        5    1    3    3  502    0  0.68703223919E+03 -0.12928561378E+03 -0.88831116653E+02  0.70472769556E+03  0.46999998093E+01 0. -1.
       -5    1    3    3    0  502 -0.68703223919E+03  0.12928561378E+03  0.20520371741E+04  0.21678576340E+04  0.46999998093E+01 0.  1.
</event>
<event>
 5   0  0.1281470E-04  0.2088798E+04  0.7818609E-02  0.8566194E-01
       -2   -1    0    0    0  501  0.00000000000E+00  0.00000000000E+00  0.96944384071E+03  0.96944384071E+03  0.25500000920E-02 0.  1.
        2   -1    0    0  501    0  0.00000000000E+00  0.00000000000E+00 -0.11251498083E+04  0.11251498083E+04  0.25500000920E-02 0. -1.
    10030    2    1    2    0    0  0.00000000000E+00  0.00000000000E+00 -0.15570596763E+03  0.20945936491E+04  0.20887982685E+04 0.  0.
        3    1    3    3  502    0 -0.74237545554E+03  0.52501730247E+03 -0.59309278752E+03  0.10855982451E+04  0.10100000352E+00 0. -1.
       -3    1    3    3    0  502  0.74237545554E+03 -0.52501730247E+03  0.43738681989E+03  0.10089954040E+04  0.10100000352E+00 0.  1.
</event>
<event>
 5   0  0.1252477E-04  0.2116733E+04  0.7818609E-02  0.8553908E-01
        2   -1    0    0  501    0  0.00000000000E+00  0.00000000000E+00  0.10532492336E+04  0.10532492336E+04  0.25500000920E-02 0. -1.
       -2   -1    0    0    0  501  0.00000000000E+00  0.00000000000E+00 -0.10635081669E+04  0.10635081669E+04  0.25500000920E-02 0.  1.
    10030    2    1    2    0    0  0.00000000000E+00  0.00000000000E+00 -0.10258933304E+02  0.21167574006E+04  0.21167325403E+04 0.  0.
        4    1    3    3  502    0 -0.60854631483E+03 -0.53181766240E+03  0.67823710747E+03  0.10550667421E+04  0.12699999809E+01 0.  1.
       -4    1    3    3    0  502  0.60854631483E+03  0.53181766240E+03 -0.68849604077E+03  0.10616906585E+04  0.12699999809E+01 0. -1.
</event>
<event>
 5   0  0.6221148E-05  0.2121728E+04  0.7818609E-02  0.8551732E-01
        1   -1    0    0  501    0  0.00000000000E+00  0.00000000000E+00  0.12009840709E+04  0.12009840710E+04  0.50400001928E-02 0. -1.
       -1   -1    0    0    0  501  0.00000000000E+00  0.00000000000E+00 -0.93709173627E+03  0.93709173629E+03  0.50400001928E-02 0.  1.
    10030    2    1    2    0    0  0.00000000000E+00  0.00000000000E+00  0.26389233467E+03  0.21380758072E+04  0.21217278320E+04 0.  0.
        3    1    3    3  502    0  0.37758957977E+03  0.23138362932E+02 -0.86681253029E+03  0.94576595807E+03  0.10100000352E+00 0.  1.
       -3    1    3    3    0  502 -0.37758957977E+03 -0.23138362932E+02  0.11307048650E+04  0.11923098492E+04  0.10100000352E+00 0. -1.
</event>
<event>
 5   0  0.5933905E-05  0.2090640E+04  0.7818609E-02  0.8565378E-01
       -1   -1    0    0    0  501  0.00000000000E+00  0.00000000000E+00  0.96280048361E+03  0.96280048362E+03  0.50400001928E-02 0. -1.
        1   -1    0    0  501    0  0.00000000000E+00  0.00000000000E+00 -0.11349122576E+04  0.11349122576E+04  0.50400001928E-02 0.  1.
    10030    2    1    2    0    0  0.00000000000E+00  0.00000000000E+00 -0.17211177396E+03  0.20977127412E+04  0.20906401608E+04 0.  0.
        2    1    3    3  502    0 -0.92296239962E+03  0.46296810164E+03 -0.24937944104E+03  0.10622566356E+04  0.25500000920E-02 0.  1.
       -2    1    3    3    0  502  0.92296239962E+03 -0.46296810164E+03  0.77267667081E+02  0.10354561056E+04  0.25500000920E-02 0. -1.
</event>
<event>
 5   0  0.5846187E-05  0.2087958E+04  0.7818609E-02  0.8566567E-01
        1   -1    0    0  501    0  0.00000000000E+00  0.00000000000E+00  0.16424069503E+04  0.16424069503E+04  0.50400001928E-02 0.  1.
       -1   -1    0    0    0  501  0.00000000000E+00  0.00000000000E+00 -0.66359422364E+03  0.66359422366E+03  0.50400001928E-02 0. -1.
    10030    2    1    2    0    0  0.00000000000E+00  0.00000000000E+00  0.97881272667E+03  0.23060011740E+04  0.20879576290E+04 0.  0.
        5    1    3    3  502    0  0.32461448008E+03 -0.84473591558E+03 -0.85444845013E+02  0.90899738134E+03  0.46999998093E+01 0. -1.
       -5    1    3    3    0  502 -0.32461448008E+03  0.84473591558E+03  0.10642575717E+04  0.13970037926E+04  0.46999998093E+01 0.  1.
</event>
<event>
 5   0  0.1252477E-04  0.2099148E+04  0.7818609E-02  0.8561619E-01
        2   -1    0    0  501    0  0.00000000000E+00  0.00000000000E+00  0.12027134217E+04  0.12027134217E+04  0.25500000920E-02 0. -1.
       -2   -1    0    0    0  501  0.00000000000E+00  0.00000000000E+00 -0.91593363658E+03  0.91593363658E+03  0.25500000920E-02 0.  1.
    10030    2    1    2    0    0  0.00000000000E+00  0.00000000000E+00  0.28677978509E+03  0.21186470582E+04  0.20991480920E+04 0.  0.
        4    1    3    3  502    0  0.66261246346E+02  0.59556917353E+03  0.10130848346E+04  0.11770453212E+04  0.12699999809E+01 0. -1.
       -4    1    3    3    0  502 -0.66261246346E+02 -0.59556917353E+03 -0.72630504954E+03  0.94160173700E+03  0.12699999809E+01 0.  1.
</event>
<event>
 5   0  0.6052292E-05  0.2111923E+04  0.7818609E-02  0.8556010E-01
       -1   -1    0    0    0  501  0.00000000000E+00  0.00000000000E+00  0.86826236974E+03  0.86826236976E+03  0.50400001928E-02 0. -1.
        1   -1    0    0  501    0  0.00000000000E+00  0.00000000000E+00 -0.12842365133E+04  0.12842365133E+04  0.50400001928E-02 0.  1.
    10030    2    1    2    0    0  0.00000000000E+00  0.00000000000E+00 -0.41597414353E+03  0.21524988830E+04  0.21119225728E+04 0.  0.
        1    1    3    3  502    0  0.50366948118E+02  0.92864366311E+03  0.30176040902E+03  0.97773985650E+03  0.50400001928E-02 0. -1.
       -1    1    3    3    0  502 -0.50366948118E+02 -0.92864366311E+03 -0.71773455255E+03  0.11747590265E+04  0.50400001928E-02 0.  1.
</event>
<event>
 5   0  0.5846187E-05  0.2031277E+04  0.7818609E-02  0.8592136E-01
       -1   -1    0    0    0  501  0.00000000000E+00  0.00000000000E+00  0.16773231684E+04  0.16773231684E+04  0.50400001928E-02 0. -1.
        1   -1    0    0  501    0  0.00000000000E+00  0.00000000000E+00 -0.61498062427E+03  0.61498062429E+03  0.50400001928E-02 0.  1.
    10030    2    1    2    0    0  0.00000000000E+00  0.00000000000E+00  0.10623425442E+04  0.22923037927E+04  0.20312766914E+04 0.  0.
        5    1    3    3  502    0 -0.24416241733E+03  0.70229132469E+02 -0.57852847740E+03  0.63187396389E+03  0.46999998093E+01 0.  1.
       -5    1    3    3    0  502  0.24416241733E+03 -0.70229132469E+02  0.16408710216E+04  0.16604298288E+04  0.46999998093E+01 0. -1.
</event>
<event>
 5   0  0.6052292E-05  0.2029053E+04  0.7818609E-02  0.8593156E-01
       -1   -1    0    0    0  501  0.00000000000E+00  0.00000000000E+00  0.75891138421E+03  0.75891138423E+03  0.50400001928E-02 0. -1.
        1   -1    0    0  501    0  0.00000000000E+00  0.00000000000E+00 -0.13562380870E+04  0.13562380870E+04  0.50400001928E-02 0.  1.
    10030    2    1    2    0    0  0.00000000000E+00  0.00000000000E+00 -0.59732670275E+03  0.21151494712E+04  0.20290534975E+04 0.  0.
        1    1    3    3  502    0  0.25256605612E+03 -0.67293321153E+03  0.44770296783E+03  0.84679789048E+03  0.50400001928E-02 0. -1.
       -1    1    3    3    0  502 -0.25256605612E+03  0.67293321153E+03 -0.10450296706E+04  0.12683515807E+04  0.50400001928E-02 0.  1.
</event>
<event>
 5   0  0.5933905E-05  0.2135574E+04  0.7818609E-02  0.8545733E-01
        1   -1    0    0  501    0  0.00000000000E+00  0.00000000000E+00  0.21738978189E+04  0.21738978189E+04  0.50400001928E-02 0. -1.
       -1   -1    0    0    0  501  0.00000000000E+00  0.00000000000E+00 -0.52448142851E+03  0.52448142854E+03  0.50400001928E-02 0.  1.
    10030    2    1    2    0    0  0.00000000000E+00  0.00000000000E+00  0.16494163904E+04  0.26983792474E+04  0.21355739589E+04 0.  0.
        2    1    3    3  502    0  0.22547479432E+02  0.91113909037E+03  0.12178314939E+03  0.91951833386E+03  0.25500000920E-02 0.  1.
       -2    1    3    3    0  502 -0.22547479432E+02 -0.91113909037E+03  0.15276332410E+04  0.17788609135E+04  0.25500000920E-02 0. -1.
</event>
<event>
 5   0  0.1325673E-04  0.1501501E+04  0.7818609E-02  0.8883455E-01
        2   -1    0    0  501    0  0.00000000000E+00  0.00000000000E+00  0.78201545871E+03  0.78201545871E+03  0.25500000920E-02 0. -1.
       -2   -1    0    0    0  501  0.00000000000E+00  0.00000000000E+00 -0.72073576243E+03  0.72073576244E+03  0.25500000920E-02 0.  1.
    10030    2    1    2    0    0  0.00000000000E+00  0.00000000000E+00  0.61279696273E+02  0.15027512212E+04  0.15015012592E+04 0.  0.
        5    1    3    3  502    0 -0.24563462531E+03 -0.55178351522E+03 -0.41560463171E+03  0.73317850263E+03  0.46999998093E+01 0.  1.
       -5    1    3    3    0  502  0.24563462531E+03  0.55178351522E+03  0.47688432798E+03  0.76957271852E+03  0.46999998093E+01 0. -1.
</event>
<event>
 5   0  0.1252477E-04  0.2140339E+04  0.7818609E-02  0.8543679E-01
       -2   -1    0    0    0  501  0.00000000000E+00  0.00000000000E+00  0.87269530425E+03  0.87269530425E+03  0.25500000920E-02 0.  1.
        2   -1    0    0  501    0  0.00000000000E+00  0.00000000000E+00 -0.13123283948E+04  0.13123283948E+04  0.25500000920E-02 0. -1.
    10030    2    1    2    0    0  0.00000000000E+00  0.00000000000E+00 -0.43963309059E+03  0.21850236991E+04  0.21403390646E+04 0.  0.
        4    1    3    3  502    0 -0.60152473369E+03  0.38366084088E+03  0.59447863340E+03  0.92867330345E+03  0.12699999809E+01 0.  1.
       -4    1    3    3    0  502  0.60152473369E+03 -0.38366084088E+03 -0.10341117240E+04  0.12563503957E+04  0.12699999809E+01 0. -1.
</event>
<event>
 5   0  0.6221148E-05  0.2103086E+04  0.7818609E-02  0.8559885E-01
        1   -1    0    0  501    0  0.00000000000E+00  0.00000000000E+00  0.57469097245E+03  0.57469097247E+03  0.50400001928E-02 0.  1.
       -1   -1    0    0    0  501  0.00000000000E+00  0.00000000000E+00 -0.19240640899E+04  0.19240640899E+04  0.50400001928E-02 0. -1.
    10030    2    1    2    0    0  0.00000000000E+00  0.00000000000E+00 -0.13493731174E+04  0.24987550624E+04  0.21030856025E+04 0.  0.
        3    1    3    3  502    0  0.24608091061E+03 -0.93207529366E+03 -0.17563753304E+03  0.97988199331E+03  0.10100000352E+00 0.  1.
       -3    1    3    3    0  502 -0.24608091061E+03  0.93207529366E+03 -0.11737355844E+04  0.15188730690E+04  0.10100000352E+00 0. -1.
</event>
<event>
 5   0  0.5933905E-05  0.2115710E+04  0.7818609E-02  0.8554355E-01
       -1   -1    0    0    0  501  0.00000000000E+00  0.00000000000E+00  0.83730807391E+03  0.83730807393E+03  0.50400001928E-02 0.  1.
        1   -1    0    0  501    0  0.00000000000E+00  0.00000000000E+00 -0.13364934934E+04  0.13364934934E+04  0.50400001928E-02 0. -1.
    10030    2    1    2    0    0  0.00000000000E+00  0.00000000000E+00 -0.49918541952E+03  0.21738015674E+04  0.21157096141E+04 0.  0.
        2    1    3    3  502    0 -0.10268403105E+04  0.19130154848E+03 -0.77483661737E+02  0.10473781664E+04  0.25500000920E-02 0. -1.
       -2    1    3    3    0  502  0.10268403105E+04 -0.19130154848E+03 -0.42170175779E+03  0.11264234009E+04  0.25500000920E-02 0.  1.
</event>
<event>
 5   0  0.1252477E-04  0.2094176E+04  0.7818609E-02  0.8563813E-01
        2   -1    0    0  501    0  0.00000000000E+00  0.00000000000E+00  0.12195045543E+04  0.12195045544E+04  0.25500000920E-02 0.  1.
       -2   -1    0    0    0  501  0.00000000000E+00  0.00000000000E+00 -0.89904796539E+03  0.89904796539E+03  0.25500000920E-02 0. -1.
    10030    2    1    2    0    0  0.00000000000E+00  0.00000000000E+00  0.32045658896E+03  0.21185525197E+04  0.20941758172E+04 0.  0.
        4    1    3    3  502    0 -0.47727389395E+03 -0.36914770678E+03  0.10259530301E+04  0.11902275548E+04  0.12699999809E+01 0.  1.
       -4    1    3    3    0  502  0.47727389395E+03  0.36914770678E+03 -0.70549644113E+03  0.92832496498E+03  0.12699999809E+01 0. -1.
</event>
<event>
 5   0  0.6052292E-05  0.2243411E+04  0.7818609E-02  0.8500573E-01
        1   -1    0    0  501    0  0.00000000000E+00  0.00000000000E+00  0.17397376052E+04  0.17397376052E+04  0.50400001928E-02 0. -1.
       -1   -1    0    0    0  501  0.00000000000E+00  0.00000000000E+00 -0.72322617990E+03  0.72322617992E+03  0.50400001928E-02 0.  1.
    10030    2    1    2    0    0  0.00000000000E+00  0.00000000000E+00  0.10165114253E+04  0.24629637852E+04  0.22434114935E+04 0.  0.
        1    1    3    3  502    0  0.18020806059E+02  0.80489434660E+02  0.17364037408E+04  0.17383616568E+04  0.50400001928E-02 0. -1.
       -1    1    3    3    0  502 -0.18020806059E+02 -0.80489434660E+02 -0.71989231549E+03  0.72460212840E+03  0.50400001928E-02 0.  1.
</event>
<event>
 5   0  0.1235817E-04  0.2053324E+04  0.7818609E-02  0.8582088E-01
        2   -1    0    0  501    0  0.00000000000E+00  0.00000000000E+00  0.94045679066E+03  0.94045679066E+03  0.25500000920E-02 0. -1.
       -2   -1    0    0    0  501  0.00000000000E+00  0.00000000000E+00 -0.11207694302E+04  0.11207694302E+04  0.25500000920E-02 0.  1.
    10030    2    1    2    0    0  0.00000000000E+00  0.00000000000E+00 -0.18031263951E+03  0.20612262208E+04  0.20533243498E+04 0.  0.
        1    1    3    3  502    0 -0.21971732485E+03  0.65904160937E+03 -0.84899107957E+03  0.10969947124E+04  0.50400001928E-02 0.  1.
       -1    1    3    3    0  502  0.21971732485E+03 -0.65904160937E+03  0.66867844005E+03  0.96423150848E+03  0.50400001928E-02 0. -1.
</event>
<event>
 5   0  0.6052292E-05  0.2119430E+04  0.7818609E-02  0.8552732E-01
       -1   -1    0    0    0  501  0.00000000000E+00  0.00000000000E+00  0.64554318881E+03  0.64554318883E+03  0.50400001928E-02 0. -1.
        1   -1    0    0  501    0  0.00000000000E+00  0.00000000000E+00 -0.17396132134E+04  0.17396132134E+04  0.50400001928E-02 0.  1.
    10030    2    1    2    0    0  0.00000000000E+00  0.00000000000E+00 -0.10940700245E+04  0.23851564022E+04  0.21194296035E+04 0.  0.
        1    1    3    3  502    0 -0.38474371799E+03  0.56864845551E+03 -0.14554632505E+04  0.16092737704E+04  0.50400001928E-02 0.  1.
       -1    1    3    3    0  502  0.38474371799E+03 -0.56864845551E+03  0.36139322598E+03  0.77588263178E+03  0.50400001928E-02 0. -1.
</event>
<event>
 5   0  0.6052292E-05  0.2120584E+04  0.7818609E-02  0.8552230E-01
       -1   -1    0    0    0  501  0.00000000000E+00  0.00000000000E+00  0.79703986704E+03  0.79703986705E+03  0.50400001928E-02 0.  1.
        1   -1    0    0  501    0  0.00000000000E+00  0.00000000000E+00 -0.14104929653E+04  0.14104929653E+04  0.50400001928E-02 0. -1.
    10030    2    1    2    0    0  0.00000000000E+00  0.00000000000E+00 -0.61345309828E+03  0.22075328324E+04  0.21205840003E+04 0.  0.
        1    1    3    3  502    0  0.73885473693E+03 -0.23809672069E+03 -0.10585743874E+04  0.13126980249E+04  0.50400001928E-02 0. -1.
       -1    1    3    3    0  502 -0.73885473693E+03  0.23809672069E+03  0.44512128916E+03  0.89483480753E+03  0.50400001928E-02 0.  1.
</event>
<event>
 5   0  0.1281470E-04  0.2195880E+04  0.7818609E-02  0.8520145E-01
        2   -1    0    0  501    0  0.00000000000E+00  0.00000000000E+00  0.22840952704E+04  0.22840952704E+04  0.25500000920E-02 0.  1.
       -2   -1    0    0    0  501  0.00000000000E+00  0.00000000000E+00 -0.52776806442E+03  0.52776806443E+03  0.25500000920E-02 0. -1.
    10030    2    1    2    0    0  0.00000000000E+00  0.00000000000E+00  0.17563272060E+04  0.28118633349E+04  0.21958802698E+04 0.  0.
        3    1    3    3  502    0  0.87667258142E+03  0.51911644638E+03  0.14021376200E+04  0.17332128016E+04  0.10100000352E+00 0.  1.
       -3    1    3    3    0  502 -0.87667258142E+03 -0.51911644638E+03  0.35418958598E+03  0.10786505333E+04  0.10100000352E+00 0. -1.
</event>
<event>
 5   0  0.5846187E-05  0.1861812E+04  0.7818609E-02  0.8674102E-01
       -1   -1    0    0    0  501  0.00000000000E+00  0.00000000000E+00  0.10529708600E+04  0.10529708600E+04  0.50400001928E-02 0.  1.
        1   -1    0    0  501    0  0.00000000000E+00  0.00000000000E+00 -0.82299168106E+03  0.82299168108E+03  0.50400001928E-02 0. -1.
    10030    2    1    2    0    0  0.00000000000E+00  0.00000000000E+00  0.22997917891E+03  0.18759625411E+04  0.18618122979E+04 0.  0.
        5    1    3    3  502    0 -0.15514604827E+03 -0.63673003778E+03 -0.55114676510E+03  0.85631786387E+03  0.46999998093E+01 0. -1.
       -5    1    3    3    0  502  0.15514604827E+03  0.63673003778E+03  0.78112594401E+03  0.10196446772E+04  0.46999998093E+01 0.  1.
</event>
<event>
 5   0  0.1281470E-04  0.2087608E+04  0.7818609E-02  0.8566722E-01
       -2   -1    0    0    0  501  0.00000000000E+00  0.00000000000E+00  0.13225618976E+04  0.13225618976E+04  0.25500000920E-02 0.  1.
        2   -1    0    0  501    0  0.00000000000E+00  0.00000000000E+00 -0.82380039060E+03  0.82380039061E+03  0.25500000920E-02 0. -1.
    10030    2    1    2    0    0  0.00000000000E+00  0.00000000000E+00  0.49876150700E+03  0.21463622882E+04  0.20876082083E+04 0.  0.
        3    1    3    3  502    0 -0.71927766927E+03  0.74852908621E+03  0.36140054115E+03  0.10992117720E+04  0.10100000352E+00 0. -1.
       -3    1    3    3    0  502  0.71927766927E+03 -0.74852908621E+03  0.13736096585E+03  0.10471505162E+04  0.10100000352E+00 0.  1.
</event>
<event>
 5   0  0.1252477E-04  0.2102482E+04  0.7818609E-02  0.8560151E-01
        2   -1    0    0  501    0  0.00000000000E+00  0.00000000000E+00  0.87204769929E+03  0.87204769929E+03  0.25500000920E-02 0.  1.
       -2   -1    0    0    0  501  0.00000000000E+00  0.00000000000E+00 -0.12672560717E+04  0.12672560717E+04  0.25500000920E-02 0. -1.
    10030    2    1    2    0    0  0.00000000000E+00  0.00000000000E+00 -0.39520837241E+03  0.21393037710E+04  0.21024820967E+04 0.  0.
        4    1    3    3  502    0  0.29973983585E+03  0.93084533134E+03 -0.59009161475E+03  0.11421588010E+04  0.12699999809E+01 0. -1.
       -4    1    3    3    0  502 -0.29973983585E+03 -0.93084533134E+03  0.19488324234E+03  0.99714496996E+03  0.12699999809E+01 0.  1.
</event>
<event>
 5   0  0.1281470E-04  0.2092472E+04  0.7818609E-02  0.8564567E-01
       -2   -1    0    0    0  501  0.00000000000E+00  0.00000000000E+00  0.79081179845E+03  0.79081179845E+03  0.25500000920E-02 0.  1.
        2   -1    0    0  501    0  0.00000000000E+00  0.00000000000E+00 -0.13841596145E+04  0.13841596145E+04  0.25500000920E-02 0. -1.
    10030    2    1    2    0    0  0.00000000000E+00  0.00000000000E+00 -0.59334781604E+03  0.21749714129E+04  0.20924719870E+04 0.  0.
        3    1    3    3  502    0  0.60039555647E+03  0.71623120460E+03  0.19213059009E+03  0.95413633016E+03  0.10100000352E+00 0. -1.
       -3    1    3    3    0  502 -0.60039555647E+03 -0.71623120460E+03 -0.78547840613E+03  0.12208350828E+04  0.10100000352E+00 0.  1.
</event>
<event>
 5   0  0.1235817E-04  0.2101458E+04  0.7818609E-02  0.8560601E-01
       -2   -1    0    0    0  501  0.00000000000E+00  0.00000000000E+00  0.10175094985E+04  0.10175094985E+04  0.25500000920E-02 0.  1.
        2   -1    0    0  501    0  0.00000000000E+00  0.00000000000E+00 -0.10850335134E+04  0.10850335134E+04  0.25500000920E-02 0. -1.
    10030    2    1    2    0    0  0.00000000000E+00  0.00000000000E+00 -0.67524014860E+02  0.21025430119E+04  0.21014584517E+04 0.  0.
        1    1    3    3  502    0  0.58166437084E+03 -0.87137595102E+03  0.46294397688E+02  0.10487004623E+04  0.50400001928E-02 0. -1.
       -1    1    3    3    0  502 -0.58166437084E+03  0.87137595102E+03 -0.11381841255E+03  0.10538425496E+04  0.50400001928E-02 0.  1.
</event>
<event>
 5   0  0.5933905E-05  0.2149406E+04  0.7818609E-02  0.8539787E-01
       -1   -1    0    0    0  501  0.00000000000E+00  0.00000000000E+00  0.62480260311E+03  0.62480260313E+03  0.50400001928E-02 0. -1.
        1   -1    0    0  501    0  0.00000000000E+00  0.00000000000E+00 -0.18485619529E+04  0.18485619529E+04  0.50400001928E-02 0.  1.
    10030    2    1    2    0    0  0.00000000000E+00  0.00000000000E+00 -0.12237593498E+04  0.24733645561E+04  0.21494057972E+04 0.  0.
        2    1    3    3  502    0  0.48476928683E+03 -0.61811259572E+03  0.23209481731E+03  0.81910466161E+03  0.25500000920E-02 0. -1.
       -2    1    3    3    0  502 -0.48476928683E+03  0.61811259572E+03 -0.14558541671E+04  0.16542598945E+04  0.25500000920E-02 0.  1.
</event>
<event>
 5   0  0.6263616E-05  0.2081030E+04  0.7818609E-02  0.8569646E-01
       -1   -1    0    0    0  501  0.00000000000E+00  0.00000000000E+00  0.53026867145E+03  0.53026867147E+03  0.50400001928E-02 0.  1.
        1   -1    0    0  501    0  0.00000000000E+00  0.00000000000E+00 -0.20417410025E+04  0.20417410025E+04  0.50400001928E-02 0. -1.
    10030    2    1    2    0    0  0.00000000000E+00  0.00000000000E+00 -0.15114723310E+04  0.25720096739E+04  0.20810298305E+04 0.  0.
        4    1    3    3  502    0  0.96478796464E+01  0.88153990451E+03 -0.72651866457E+02  0.88458215640E+03  0.12699999809E+01 0.  1.
       -4    1    3    3    0  502 -0.96478796464E+01 -0.88153990451E+03 -0.14388204645E+04  0.16874275175E+04  0.12699999809E+01 0. -1.
</event>
<event>
 5   0  0.1325673E-04  0.2081601E+04  0.7818609E-02  0.8569392E-01
       -2   -1    0    0    0  501  0.00000000000E+00  0.00000000000E+00  0.42220191874E+03  0.42220191875E+03  0.25500000920E-02 0.  1.
        2   -1    0    0  501    0  0.00000000000E+00  0.00000000000E+00 -0.25657528118E+04  0.25657528118E+04  0.25500000920E-02 0. -1.
    10030    2    1    2    0    0  0.00000000000E+00  0.00000000000E+00 -0.21435508930E+04  0.29879547305E+04  0.20816010762E+04 0.  0.
        5    1    3    3  502    0  0.62250041485E+02 -0.27932582000E+03 -0.25081527223E+04  0.25244306585E+04  0.46999998093E+01 0. -1.
       -5    1    3    3    0  502 -0.62250041485E+02  0.27932582000E+03  0.36460182928E+03  0.46352407197E+03  0.46999998093E+01 0.  1.
</event>
<event>
 5   0  0.6052292E-05  0.2077286E+04  0.7818609E-02  0.8571316E-01
       -1   -1    0    0    0  501  0.00000000000E+00  0.00000000000E+00  0.48812965293E+03  0.48812965296E+03  0.50400001928E-02 0.  1.
        1   -1    0    0  501    0  0.00000000000E+00  0.00000000000E+00 -0.22100260389E+04  0.22100260389E+04  0.50400001928E-02 0. -1.
    10030    2    1    2    0    0  0.00000000000E+00  0.00000000000E+00 -0.17218963860E+04  0.26981556919E+04  0.20772859634E+04 0.  0.
        1    1    3    3  502    0  0.37020305662E+02 -0.94401871054E+03 -0.30041131984E+03  0.99135704466E+03  0.50400001928E-02 0.  1.
       -1    1    3    3    0  502 -0.37020305662E+02  0.94401871054E+03 -0.14214850662E+04  0.17067986472E+04  0.50400001928E-02 0. -1.
</event>
<event>
 5   0  0.6263616E-05  0.1863902E+04  0.7818609E-02  0.8673036E-01
       -1   -1    0    0    0  501  0.00000000000E+00  0.00000000000E+00  0.75927768264E+03  0.75927768265E+03  0.50400001928E-02 0.  1.
        1   -1    0    0  501    0  0.00000000000E+00  0.00000000000E+00 -0.11438930176E+04  0.11438930176E+04  0.50400001928E-02 0. -1.
    10030    2    1    2    0    0  0.00000000000E+00  0.00000000000E+00 -0.38461533491E+03  0.19031707002E+04  0.18639017566E+04 0.  0.
        4    1    3    3  502    0 -0.12020333170E+03 -0.91119076774E+03 -0.34740706059E+02  0.91974234747E+03  0.12699999809E+01 0. -1.
       -4    1    3    3    0  502  0.12020333170E+03  0.91119076774E+03 -0.34987462886E+03  0.98342835275E+03  0.12699999809E+01 0.  1.
</event>
<event>
 5   0  0.5846187E-05  0.2068175E+04  0.7818609E-02  0.8575394E-01
        1   -1    0    0  501    0  0.00000000000E+00  0.00000000000E+00  0.15127097931E+04  0.15127097931E+04  0.50400001928E-02 0. -1.
       -1   -1    0    0    0  501  0.00000000000E+00  0.00000000000E+00 -0.70690148402E+03  0.70690148404E+03  0.50400001928E-02 0.  1.
    10030    2    1    2    0    0  0.00000000000E+00  0.00000000000E+00  0.80580830908E+03  0.22196112771E+04  0.20681748453E+04 0.  0.
        5    1    3    3  502    0  0.99249357199E+02  0.87981991055E+03  0.97623109450E+03  0.13179464138E+04  0.46999998093E+01 0. -1.
       -5    1    3    3    0  502 -0.99249357199E+02 -0.87981991055E+03 -0.17042278542E+03  0.90166486330E+03  0.46999998093E+01 0.  1.
</event>
<event>
 5   0  0.1252477E-04  0.2081950E+04  0.7818609E-02  0.8569236E-01
       -2   -1    0    0    0  501  0.00000000000E+00  0.00000000000E+00  0.10672080992E+04  0.10672080992E+04  0.25500000920E-02 0. -1.
        2   -1    0    0  501    0  0.00000000000E+00  0.00000000000E+00 -0.10153872004E+04  0.10153872004E+04  0.25500000920E-02 0.  1.
    10030    2    1    2    0    0  0.00000000000E+00  0.00000000000E+00  0.51820898797E+02  0.20825952996E+04  0.20819504740E+04 0.  0.
        4    1    3    3  502    0 -0.56781647930E+03  0.89929739295E+02 -0.84218603701E+03  0.10196969383E+04  0.12699999809E+01 0.  1.
       -4    1    3    3    0  502  0.56781647930E+03 -0.89929739295E+02  0.89400693581E+03  0.10628983612E+04  0.12699999809E+01 0. -1.
</event>
<event>
 5   0  0.6052292E-05  0.2094310E+04  0.7818609E-02  0.8563754E-01
       -1   -1    0    0    0  501  0.00000000000E+00  0.00000000000E+00  0.90811068816E+03  0.90811068818E+03  0.50400001928E-02 0.  1.
        1   -1    0    0  501    0  0.00000000000E+00  0.00000000000E+00 -0.12074891140E+04  0.12074891140E+04  0.50400001928E-02 0. -1.
    10030    2    1    2    0    0  0.00000000000E+00  0.00000000000E+00 -0.29937842585E+03  0.21155998022E+04  0.20943101683E+04 0.  0.
        1    1    3    3  502    0  0.14910461172E+03 -0.10310120758E+04 -0.42232652596E+02  0.10425937284E+04  0.50400001928E-02 0. -1.
       -1    1    3    3    0  502 -0.14910461172E+03  0.10310120758E+04 -0.25714577326E+03  0.10730060738E+04  0.50400001928E-02 0.  1.
</event>
<event>
 5   0  0.1349252E-04  0.2156544E+04  0.7818609E-02  0.8536736E-01
        2   -1    0    0  501    0  0.00000000000E+00  0.00000000000E+00  0.88365170335E+03  0.88365170335E+03  0.25500000920E-02 0. -1.
       -2   -1    0    0    0  501  0.00000000000E+00  0.00000000000E+00 -0.13157571076E+04  0.13157571076E+04  0.25500000920E-02 0.  1.
    10030    2    1    2    0    0  0.00000000000E+00  0.00000000000E+00 -0.43210540425E+03  0.21994088110E+04  0.21565444668E+04 0.  0.
        2    1    3    3  502    0  0.47895628391E+03 -0.57468649198E+03 -0.10080228947E+04  0.12552983080E+04  0.25500000920E-02 0.  1.
       -2    1    3    3    0  502 -0.47895628391E+03  0.57468649198E+03  0.57591749042E+03  0.94411050293E+03  0.25500000920E-02 0. -1.
</event>
<event>
 5   0  0.1325673E-04  0.2092153E+04  0.7818609E-02  0.8564708E-01
       -2   -1    0    0    0  501  0.00000000000E+00  0.00000000000E+00  0.49903771171E+03  0.49903771171E+03  0.25500000920E-02 0.  1.
        2   -1    0    0  501    0  0.00000000000E+00  0.00000000000E+00 -0.21927716907E+04  0.21927716907E+04  0.25500000920E-02 0. -1.
    10030    2    1    2    0    0  0.00000000000E+00  0.00000000000E+00 -0.16937339790E+04  0.26918094024E+04  0.20921527352E+04 0.  0.
        5    1    3    3  502    0 -0.92414328442E+03  0.49002390286E+03 -0.83469896695E+03  0.13382483667E+04  0.46999998093E+01 0. -1.
       -5    1    3    3    0  502  0.92414328442E+03 -0.49002390286E+03 -0.85903501205E+03  0.13535610357E+04  0.46999998093E+01 0.  1.
</event>
<event>
 5   0  0.6221148E-05  0.2124869E+04  0.7818609E-02  0.8550367E-01
       -1   -1    0    0    0  501  0.00000000000E+00  0.00000000000E+00  0.92271587923E+03  0.92271587924E+03  0.50400001928E-02 0.  1.
        1   -1    0    0  501    0  0.00000000000E+00  0.00000000000E+00 -0.12233092142E+04  0.12233092143E+04  0.50400001928E-02 0. -1.
    10030    2    1    2    0    0  0.00000000000E+00  0.00000000000E+00 -0.30059333501E+03  0.21460250935E+04  0.21248687839E+04 0.  0.
        3    1    3    3  502    0  0.10494207360E+04 -0.76219616322E+02 -0.16115968134E+01  0.10521862566E+04  0.10100000352E+00 0.  1.
       -3    1    3    3    0  502 -0.10494207360E+04  0.76219616322E+02 -0.29898173820E+03  0.10938388369E+04  0.10100000352E+00 0. -1.
</event>
<event>
 5   0  0.5846187E-05  0.2133155E+04  0.7818609E-02  0.8546777E-01
       -1   -1    0    0    0  501  0.00000000000E+00  0.00000000000E+00  0.76149030829E+03  0.76149030831E+03  0.50400001928E-02 0. -1.
        1   -1    0    0  501    0  0.00000000000E+00  0.00000000000E+00 -0.14938959705E+04  0.14938959705E+04  0.50400001928E-02 0.  1.
    10030    2    1    2    0    0  0.00000000000E+00  0.00000000000E+00 -0.73240566223E+03  0.22553862788E+04  0.21331547559E+04 0.  0.
        5    1    3    3  502    0  0.79680593064E+03 -0.13288636533E+03 -0.11025327637E+04  0.13668061539E+04  0.46999998093E+01 0.  1.
       -5    1    3    3    0  502 -0.79680593064E+03  0.13288636533E+03  0.37012710151E+03  0.88858012495E+03  0.46999998093E+01 0. -1.
</event>
<event>
 5   0  0.1349252E-04  0.2070895E+04  0.7818609E-02  0.8574174E-01
        2   -1    0    0  501    0  0.00000000000E+00  0.00000000000E+00  0.23066425639E+04  0.23066425639E+04  0.25500000920E-02 0. -1.
       -2   -1    0    0    0  501  0.00000000000E+00  0.00000000000E+00 -0.46481043519E+03  0.46481043520E+03  0.25500000920E-02 0.  1.
    10030    2    1    2    0    0  0.00000000000E+00  0.00000000000E+00  0.18418321287E+04  0.27714529991E+04  0.20708950084E+04 0.  0.
        2    1    3    3  502    0  0.15169391553E+02  0.18596025314E+03  0.22839605884E+04  0.22915687412E+04  0.25500000920E-02 0. -1.
       -2    1    3    3    0  502 -0.15169391553E+02 -0.18596025314E+03 -0.44212845966E+03  0.47988425796E+03  0.25500000920E-02 0.  1.
</event>
<event>
 5   0  0.6263616E-05  0.2102340E+04  0.7818609E-02  0.8560213E-01
       -1   -1    0    0    0  501  0.00000000000E+00  0.00000000000E+00  0.13726733009E+04  0.13726733010E+04  0.50400001928E-02 0. -1.
        1   -1    0    0  501    0  0.00000000000E+00  0.00000000000E+00 -0.80496855464E+03  0.80496855466E+03  0.50400001928E-02 0.  1.
    10030    2    1    2    0    0  0.00000000000E+00  0.00000000000E+00  0.56770474630E+03  0.21776418556E+04  0.21023404511E+04 0.  0.
        4    1    3    3  502    0 -0.77015691111E+03  0.44429125957E+03  0.86466903962E+03  0.12402381030E+04  0.12699999809E+01 0. -1.
       -4    1    3    3    0  502  0.77015691111E+03 -0.44429125957E+03 -0.29696429331E+03  0.93740375264E+03  0.12699999809E+01 0.  1.
</event>
<event>
 5   0  0.1281470E-04  0.2081843E+04  0.7818609E-02  0.8569284E-01
        2   -1    0    0  501    0  0.00000000000E+00  0.00000000000E+00  0.17126095993E+04  0.17126095993E+04  0.25500000920E-02 0.  1.
       -2   -1    0    0    0  501  0.00000000000E+00  0.00000000000E+00 -0.63267020590E+03  0.63267020590E+03  0.25500000920E-02 0. -1.
    10030    2    1    2    0    0  0.00000000000E+00  0.00000000000E+00  0.10799393934E+04  0.23452798052E+04  0.20818425184E+04 0.  0.
        3    1    3    3  502    0 -0.29887432364E+03 -0.90926750249E+03  0.10009213681E+04  0.13848959700E+04  0.10100000352E+00 0.  1.
       -3    1    3    3    0  502  0.29887432364E+03  0.90926750249E+03  0.79018025319E+02  0.96038383521E+03  0.10100000352E+00 0. -1.
</event>
<event>
 5   0  0.1325673E-04  0.2119097E+04  0.7818609E-02  0.8552877E-01
       -2   -1    0    0    0  501  0.00000000000E+00  0.00000000000E+00  0.56413896667E+03  0.56413896667E+03  0.25500000920E-02 0. -1.
        2   -1    0    0  501    0  0.00000000000E+00  0.00000000000E+00 -0.19900122697E+04  0.19900122697E+04  0.25500000920E-02 0.  1.
    10030    2    1    2    0    0  0.00000000000E+00  0.00000000000E+00 -0.14258733030E+04  0.25541512364E+04  0.21190974168E+04 0.  0.
        5    1    3    3  502    0  0.10033933078E+04  0.16538504217E+03 -0.10714424932E+04  0.14772140835E+04  0.46999998093E+01 0.  1.
       -5    1    3    3    0  502 -0.10033933078E+04 -0.16538504217E+03 -0.35443080980E+03  0.10769371528E+04  0.46999998093E+01 0. -1.
</event>
<event>
 5   0  0.1235817E-04  0.2129424E+04  0.7818609E-02  0.8548391E-01
       -2   -1    0    0    0  501  0.00000000000E+00  0.00000000000E+00  0.67569369736E+03  0.67569369737E+03  0.25500000920E-02 0.  1.
        2   -1    0    0  501    0  0.00000000000E+00  0.00000000000E+00 -0.16777010632E+04  0.16777010632E+04  0.25500000920E-02 0. -1.
    10030    2    1    2    0    0  0.00000000000E+00  0.00000000000E+00 -0.10020073658E+04  0.23533947606E+04  0.21294243677E+04 0.  0.
        1    1    3    3  502    0  0.93541370418E+03  0.43515501638E+03 -0.21016447699E+03  0.10528664653E+04  0.50400001928E-02 0.  1.
       -1    1    3    3    0  502 -0.93541370418E+03 -0.43515501638E+03 -0.79184288885E+03  0.13005282953E+04  0.50400001928E-02 0. -1.
</event>
<event>
 5   0  0.6263616E-05  0.2098013E+04  0.7818609E-02  0.8562119E-01
       -1   -1    0    0    0  501  0.00000000000E+00  0.00000000000E+00  0.93521753118E+03  0.93521753119E+03  0.50400001928E-02 0. -1.
        1   -1    0    0  501    0  0.00000000000E+00  0.00000000000E+00 -0.11766408455E+04  0.11766408456E+04  0.50400001928E-02 0.  1.
    10030    2    1    2    0    0  0.00000000000E+00  0.00000000000E+00 -0.24142331436E+03  0.21118583767E+04  0.20980134858E+04 0.  0.
        4    1    3    3  502    0  0.86768277218E+03 -0.15234069278E+03  0.45254844820E+03  0.99039526992E+03  0.12699999809E+01 0. -1.
       -4    1    3    3    0  502 -0.86768277218E+03  0.15234069278E+03 -0.69397176257E+03  0.11214631068E+04  0.12699999809E+01 0.  1.
</event>
<event>
 5   0  0.1235817E-04  0.2036384E+04  0.7818609E-02  0.8589796E-01
       -2   -1    0    0    0  501  0.00000000000E+00  0.00000000000E+00  0.70757386561E+03  0.70757386561E+03  0.25500000920E-02 0. -1.
        2   -1    0    0  501    0  0.00000000000E+00  0.00000000000E+00 -0.14651690297E+04  0.14651690297E+04  0.25500000920E-02 0.  1.
    10030    2    1    2    0    0  0.00000000000E+00  0.00000000000E+00 -0.75759516412E+03  0.21727428953E+04  0.20363843588E+04 0.  0.
        1    1    3    3  502    0 -0.36397349071E+03  0.41601925572E+03 -0.12911376645E+04  0.14044875193E+04  0.50400001928E-02 0.  1.
       -1    1    3    3    0  502  0.36397349071E+03 -0.41601925572E+03  0.53354250040E+03  0.76825537605E+03  0.50400001928E-02 0. -1.
</event>
<event>
 5   0  0.6263616E-05  0.2103145E+04  0.7818609E-02  0.8559859E-01
       -1   -1    0    0    0  501  0.00000000000E+00  0.00000000000E+00  0.71049329223E+03  0.71049329224E+03  0.50400001928E-02 0.  1.
        1   -1    0    0  501    0  0.00000000000E+00  0.00000000000E+00 -0.15563907123E+04  0.15563907123E+04  0.50400001928E-02 0. -1.
    10030    2    1    2    0    0  0.00000000000E+00  0.00000000000E+00 -0.84589742006E+03  0.22668840045E+04  0.21031454169E+04 0.  0.
        4    1    3    3  502    0 -0.55085696660E+03  0.39048836574E+03 -0.12918616072E+04  0.14576805502E+04  0.12699999809E+01 0. -1.
       -4    1    3    3    0  502  0.55085696660E+03 -0.39048836574E+03  0.44596418711E+03  0.80920345434E+03  0.12699999809E+01 0.  1.
</event>
<event>
 5   0  0.1252477E-04  0.2110931E+04  0.7818609E-02  0.8556444E-01
        2   -1    0    0  501    0  0.00000000000E+00  0.00000000000E+00  0.64419417393E+03  0.64419417394E+03  0.25500000920E-02 0.  1.
       -2   -1    0    0    0  501  0.00000000000E+00  0.00000000000E+00 -0.17293030444E+04  0.17293030444E+04  0.25500000920E-02 0. -1.
    10030    2    1    2    0    0  0.00000000000E+00  0.00000000000E+00 -0.10851088705E+04  0.23734972183E+04  0.21109305495E+04 0.  0.
        4    1    3    3  502    0 -0.29098085900E+03  0.84893829443E+03  0.82100759690E+02  0.90117048093E+03  0.12699999809E+01 0.  1.
       -4    1    3    3    0  502  0.29098085900E+03 -0.84893829443E+03 -0.11672096302E+04  0.14723267374E+04  0.12699999809E+01 0. -1.
</event>
<event>
 5   0  0.6052292E-05  0.2094435E+04  0.7818609E-02  0.8563699E-01
        1   -1    0    0  501    0  0.00000000000E+00  0.00000000000E+00  0.20095912019E+04  0.20095912019E+04  0.50400001928E-02 0. -1.
       -1   -1    0    0    0  501  0.00000000000E+00  0.00000000000E+00 -0.54571517465E+03  0.54571517468E+03  0.50400001928E-02 0.  1.
    10030    2    1    2    0    0  0.00000000000E+00  0.00000000000E+00  0.14638760272E+04  0.25553063766E+04  0.20944349250E+04 0.  0.
        1    1    3    3  502    0  0.14207022234E+03 -0.66944112364E+03  0.16990342125E+04  0.18316802727E+04  0.50400001928E-02 0. -1.
       -1    1    3    3    0  502 -0.14207022234E+03  0.66944112364E+03 -0.23515818526E+03  0.72362610388E+03  0.50400001928E-02 0.  1.
</event>
<event>
 5   0  0.1325673E-04  0.2045474E+04  0.7818609E-02  0.8585650E-01
       -2   -1    0    0    0  501  0.00000000000E+00  0.00000000000E+00  0.73966312848E+03  0.73966312848E+03  0.25500000920E-02 0.  1.
        2   -1    0    0  501    0  0.00000000000E+00  0.00000000000E+00 -0.14141450137E+04  0.14141450137E+04  0.25500000920E-02 0. -1.
    10030    2    1    2    0    0  0.00000000000E+00  0.00000000000E+00 -0.67448188526E+03  0.21538081422E+04  0.20454739549E+04 0.  0.
        5    1    3    3  502    0 -0.58594910744E+03  0.70387301326E+03  0.14205413417E+03  0.92680906466E+03  0.46999998093E+01 0. -1.
       -5    1    3    3    0  502  0.58594910744E+03 -0.70387301326E+03 -0.81653601943E+03  0.12269990776E+04  0.46999998093E+01 0.  1.
</event>
<event>
 5   0  0.1325673E-04  0.2238003E+04  0.7818609E-02  0.8502775E-01
        2   -1    0    0  501    0  0.00000000000E+00  0.00000000000E+00  0.13871149173E+04  0.13871149173E+04  0.25500000920E-02 0. -1.
       -2   -1    0    0    0  501  0.00000000000E+00  0.00000000000E+00 -0.90271140719E+03  0.90271140720E+03  0.25500000920E-02 0.  1.
    10030    2    1    2    0    0  0.00000000000E+00  0.00000000000E+00  0.48440351014E+03  0.22898263245E+04  0.22380030911E+04 0.  0.
        5    1    3    3  502    0 -0.14969369832E+03  0.98525937280E+03  0.76290487437E+03  0.12550658040E+04  0.46999998093E+01 0. -1.
       -5    1    3    3    0  502  0.14969369832E+03 -0.98525937280E+03 -0.27850136423E+03  0.10347605205E+04  0.46999998093E+01 0.  1.
</event>
<event>
 5   0  0.1349252E-04  0.2100786E+04  0.7818609E-02  0.8560897E-01
       -2   -1    0    0    0  501  0.00000000000E+00  0.00000000000E+00  0.13651686164E+04  0.13651686164E+04  0.25500000920E-02 0.  1.
        2   -1    0    0  501    0  0.00000000000E+00  0.00000000000E+00 -0.80819725746E+03  0.80819725747E+03  0.25500000920E-02 0. -1.
    10030    2    1    2    0    0  0.00000000000E+00  0.00000000000E+00  0.55697135897E+03  0.21733658739E+04  0.21007860736E+04 0.  0.
        2    1    3    3  502    0  0.12997205578E+03  0.62580952864E+03  0.11408274595E+04  0.13076764102E+04  0.25500000920E-02 0.  1.
       -2    1    3    3    0  502 -0.12997205578E+03 -0.62580952864E+03 -0.58385610054E+03  0.86568946370E+03  0.25500000920E-02 0. -1.
</event>
<event>
 5   0  0.1349252E-04  0.2100199E+04  0.7818609E-02  0.8561156E-01
       -2   -1    0    0    0  501  0.00000000000E+00  0.00000000000E+00  0.55779405820E+03  0.55779405821E+03  0.25500000920E-02 0. -1.
        2   -1    0    0  501    0  0.00000000000E+00  0.00000000000E+00 -0.19769113706E+04  0.19769113706E+04  0.25500000920E-02 0.  1.
    10030    2    1    2    0    0  0.00000000000E+00  0.00000000000E+00 -0.14191173124E+04  0.25347054288E+04  0.21001994344E+04 0.  0.
        2    1    3    3  502    0  0.38440482817E+03 -0.47684049063E+03  0.31988600033E+03  0.69099274862E+03  0.25500000920E-02 0. -1.
       -2    1    3    3    0  502 -0.38440482817E+03  0.47684049063E+03 -0.17390033127E+04  0.18437126802E+04  0.25500000920E-02 0.  1.
</event>
<event>
 5   0  0.1235817E-04  0.2087321E+04  0.7818609E-02  0.8566849E-01
        2   -1    0    0  501    0  0.00000000000E+00  0.00000000000E+00  0.13289034617E+04  0.13289034617E+04  0.25500000920E-02 0. -1.
       -2   -1    0    0    0  501  0.00000000000E+00  0.00000000000E+00 -0.81964382047E+03  0.81964382047E+03  0.25500000920E-02 0.  1.
    10030    2    1    2    0    0  0.00000000000E+00  0.00000000000E+00  0.50925964123E+03  0.21485472822E+04  0.20873212598E+04 0.  0.
        1    1    3    3  502    0  0.70237555545E+03 -0.59351720703E+03  0.76270039726E+03  0.11946991219E+04  0.50400001928E-02 0. -1.
       -1    1    3    3    0  502 -0.70237555545E+03  0.59351720703E+03 -0.25344075603E+03  0.95384816023E+03  0.50400001928E-02 0.  1.
</event>
<event>
 5   0  0.6221148E-05  0.1998338E+04  0.7818609E-02  0.8607398E-01
       -1   -1    0    0    0  501  0.00000000000E+00  0.00000000000E+00  0.50492256342E+03  0.50492256345E+03  0.50400001928E-02 0. -1.
        1   -1    0    0  501    0  0.00000000000E+00  0.00000000000E+00 -0.19772110716E+04  0.19772110716E+04  0.50400001928E-02 0.  1.
    10030    2    1    2    0    0  0.00000000000E+00  0.00000000000E+00 -0.14722885082E+04  0.24821336350E+04  0.19983377920E+04 0.  0.
        3    1    3    3  502    0 -0.34742656178E+03  0.14143368352E+03 -0.18864311752E+04  0.19233645758E+04  0.10100000352E+00 0.  1.
       -3    1    3    3    0  502  0.34742656178E+03 -0.14143368352E+03  0.41414266703E+03  0.55876905920E+03  0.10100000352E+00 0. -1.
</event>
<event>
 5   0  0.6221148E-05  0.2020587E+04  0.7818609E-02  0.8597055E-01
       -1   -1    0    0    0  501  0.00000000000E+00  0.00000000000E+00  0.98617549258E+03  0.98617549259E+03  0.50400001928E-02 0.  1.
        1   -1    0    0  501    0  0.00000000000E+00  0.00000000000E+00 -0.10350018233E+04  0.10350018233E+04  0.50400001928E-02 0. -1.
    10030    2    1    2    0    0  0.00000000000E+00  0.00000000000E+00 -0.48826330706E+02  0.20211773159E+04  0.20205874719E+04 0.  0.
        3    1    3    3  502    0  0.12112041343E+03 -0.25573164568E+03  0.94572798029E+03  0.98715259816E+03  0.10100000352E+00 0.  1.
       -3    1    3    3    0  502 -0.12112041343E+03  0.25573164568E+03 -0.99455431099E+03  0.10340247177E+04  0.10100000352E+00 0. -1.
</event>
<event>
 5   0  0.4615125E-05  0.2106696E+04  0.7818609E-02  0.8558299E-01
        3   -1    0    0  501    0  0.00000000000E+00  0.00000000000E+00  0.82413587271E+03  0.82413587890E+03  0.10100000352E+00 0.  1.
       -3   -1    0    0    0  501  0.00000000000E+00  0.00000000000E+00 -0.13463098120E+04  0.13463098158E+04  0.10100000352E+00 0. -1.
    10030    2    1    2    0    0  0.00000000000E+00  0.00000000000E+00 -0.52217393926E+03  0.21704456947E+04  0.21066962027E+04 0.  0.
        3    1    3    3  502    0  0.38432762240E+03  0.17468429749E+03  0.73316497738E+03  0.84602199698E+03  0.10100000352E+00 0.  1.
       -3    1    3    3    0  502 -0.38432762240E+03 -0.17468429749E+03 -0.12553389166E+04  0.13244236977E+04  0.10100000352E+00 0. -1.
</event>
<event>
 5   0  0.1281470E-04  0.2096503E+04  0.7818609E-02  0.8562785E-01
        2   -1    0    0  501    0  0.00000000000E+00  0.00000000000E+00  0.10271986850E+04  0.10271986850E+04  0.25500000920E-02 0.  1.
       -2   -1    0    0    0  501  0.00000000000E+00  0.00000000000E+00 -0.10697360983E+04  0.10697360983E+04  0.25500000920E-02 0. -1.
    10030    2    1    2    0    0  0.00000000000E+00  0.00000000000E+00 -0.42537413315E+02  0.20969347834E+04  0.20965032922E+04 0.  0.
        3    1    3    3  502    0  0.24626496181E+03 -0.65201483501E+03  0.76187502667E+03  0.10325809135E+04  0.10100000352E+00 0.  1.
       -3    1    3    3    0  502 -0.24626496181E+03  0.65201483501E+03 -0.80441243998E+03  0.10643538699E+04  0.10100000352E+00 0. -1.
</event>
<event>
 5   0  0.6052292E-05  0.2112784E+04  0.7818609E-02  0.8555633E-01
        1   -1    0    0  501    0  0.00000000000E+00  0.00000000000E+00  0.14365885664E+04  0.14365885664E+04  0.50400001928E-02 0. -1.
       -1   -1    0    0    0  501  0.00000000000E+00  0.00000000000E+00 -0.77681516542E+03  0.77681516544E+03  0.50400001928E-02 0.  1.
    10030    2    1    2    0    0  0.00000000000E+00  0.00000000000E+00  0.65977340101E+03  0.22134037319E+04  0.21127837418E+04 0.  0.
        1    1    3    3  502    0  0.30969403387E+03  0.55115244744E+02  0.13863865032E+04  0.14216242897E+04  0.50400001928E-02 0. -1.
       -1    1    3    3    0  502 -0.30969403387E+03 -0.55115244744E+02 -0.72661310216E+03  0.79177944219E+03  0.50400001928E-02 0.  1.
</event>
<event>
 5   0  0.1349252E-04  0.2095563E+04  0.7818609E-02  0.8563200E-01
       -2   -1    0    0    0  501  0.00000000000E+00  0.00000000000E+00  0.73521445565E+03  0.73521445566E+03  0.25500000920E-02 0. -1.
        2   -1    0    0  501    0  0.00000000000E+00  0.00000000000E+00 -0.14932328962E+04  0.14932328962E+04  0.25500000920E-02 0.  1.
    10030    2    1    2    0    0  0.00000000000E+00  0.00000000000E+00 -0.75801844054E+03  0.22284473518E+04  0.20955633237E+04 0.  0.
        2    1    3    3  502    0 -0.68601915134E+03 -0.74991742757E+03 -0.64980995484E+03  0.12063380130E+04  0.25500000920E-02 0.  1.
       -2    1    3    3    0  502  0.68601915134E+03  0.74991742757E+03 -0.10820848569E+03  0.10221093388E+04  0.25500000920E-02 0. -1.
</event>
<event>
 5   0  0.6263616E-05  0.2006928E+04  0.7818609E-02  0.8603389E-01
        1   -1    0    0  501    0  0.00000000000E+00  0.00000000000E+00  0.18941455038E+04  0.18941455038E+04  0.50400001928E-02 0. -1.
       -1   -1    0    0    0  501  0.00000000000E+00  0.00000000000E+00 -0.53160622062E+03  0.53160622065E+03  0.50400001928E-02 0.  1.
    10030    2    1    2    0    0  0.00000000000E+00  0.00000000000E+00  0.13625392832E+04  0.24257517245E+04  0.20069275349E+04 0.  0.
        4    1    3    3  502    0 -0.28904493766E+03 -0.69983913818E+03  0.14771858868E+04  0.16599402255E+04  0.12699999809E+01 0. -1.
       -4    1    3    3    0  502  0.28904493766E+03  0.69983913818E+03 -0.11464660357E+03  0.76581149895E+03  0.12699999809E+01 0.  1.
</event>
<event>
 5   0  0.6052292E-05  0.2102000E+04  0.7818609E-02  0.8560363E-01
        1   -1    0    0  501    0  0.00000000000E+00  0.00000000000E+00  0.85644828563E+03  0.85644828565E+03  0.50400001928E-02 0. -1.
       -1   -1    0    0    0  501  0.00000000000E+00  0.00000000000E+00 -0.12897458155E+04  0.12897458155E+04  0.50400001928E-02 0.  1.
    10030    2    1    2    0    0  0.00000000000E+00  0.00000000000E+00 -0.43329752989E+03  0.21461941012E+04  0.21019996124E+04 0.  0.
        1    1    3    3  502    0  0.66968642531E+03  0.58185263392E+03 -0.79202890387E+03  0.11892611910E+04  0.50400001928E-02 0.  1.
       -1    1    3    3    0  502 -0.66968642531E+03 -0.58185263392E+03  0.35873137399E+03  0.95693291017E+03  0.50400001928E-02 0. -1.
</event>
<event>
 5   0  0.5933905E-05  0.2254912E+04  0.7818609E-02  0.8495914E-01
       -1   -1    0    0    0  501  0.00000000000E+00  0.00000000000E+00  0.15690268458E+04  0.15690268458E+04  0.50400001928E-02 0. -1.
        1   -1    0    0  501    0  0.00000000000E+00  0.00000000000E+00 -0.81015628891E+03  0.81015628892E+03  0.50400001928E-02 0.  1.
    10030    2    1    2    0    0  0.00000000000E+00  0.00000000000E+00  0.75887055688E+03  0.23791831347E+04  0.22549119421E+04 0.  0.
        2    1    3    3  502    0 -0.59164994473E+02 -0.10595404382E+04  0.78125199713E+03  0.13177560927E+04  0.25500000920E-02 0. -1.
       -2    1    3    3    0  502  0.59164994473E+02  0.10595404382E+04 -0.22381440251E+02  0.10614270421E+04  0.25500000920E-02 0.  1.
</event>
<event>
 5   0  0.6221148E-05  0.2139745E+04  0.7818609E-02  0.8543935E-01
        1   -1    0    0  501    0  0.00000000000E+00  0.00000000000E+00  0.15870962598E+04  0.15870962598E+04  0.50400001928E-02 0.  1.
       -1   -1    0    0    0  501  0.00000000000E+00  0.00000000000E+00 -0.72120852185E+03  0.72120852187E+03  0.50400001928E-02 0. -1.
    10030    2    1    2    0    0  0.00000000000E+00  0.00000000000E+00  0.86588773795E+03  0.23083047817E+04  0.21397451695E+04 0.  0.
        3    1    3    3  502    0  0.82985655630E+02  0.13574194240E+03  0.15742633444E+04  0.15822823963E+04  0.10100000352E+00 0.  1.
       -3    1    3    3    0  502 -0.82985655630E+02 -0.13574194240E+03 -0.70837560647E+03  0.72602238534E+03  0.10100000352E+00 0. -1.
</event>
<event>
 5   0  0.1252477E-04  0.2086268E+04  0.7818609E-02  0.8567317E-01
        2   -1    0    0  501    0  0.00000000000E+00  0.00000000000E+00  0.28248431616E+04  0.28248431616E+04  0.25500000920E-02 0. -1.
       -2   -1    0    0    0  501  0.00000000000E+00  0.00000000000E+00 -0.38519964377E+03  0.38519964378E+03  0.25500000920E-02 0.  1.
    10030    2    1    2    0    0  0.00000000000E+00  0.00000000000E+00  0.24396435179E+04  0.32100428054E+04  0.20862680361E+04 0.  0.
        4    1    3    3  502    0  0.84055992388E+03 -0.40934445311E+03  0.19316431655E+04  0.21460081077E+04  0.12699999809E+01 0. -1.
       -4    1    3    3    0  502 -0.84055992388E+03  0.40934445311E+03  0.50800035241E+03  0.10640346977E+04  0.12699999809E+01 0.  1.
</event>
<event>
 5   0  0.1252477E-04  0.2059264E+04  0.7818609E-02  0.8579403E-01
        2   -1    0    0  501    0  0.00000000000E+00  0.00000000000E+00  0.11378684381E+04  0.11378684381E+04  0.25500000920E-02 0.  1.
       -2   -1    0    0    0  501  0.00000000000E+00  0.00000000000E+00 -0.93169131022E+03  0.93169131023E+03  0.25500000920E-02 0. -1.
    10030    2    1    2    0    0  0.00000000000E+00  0.00000000000E+00  0.20617712791E+03  0.20695597484E+04  0.20592640783E+04 0.  0.
        4    1    3    3  502    0  0.24804619465E+03  0.63036570157E+03 -0.67619307146E+03  0.95714498128E+03  0.12699999809E+01 0. -1.
       -4    1    3    3    0  502 -0.24804619465E+03 -0.63036570157E+03  0.88237019937E+03  0.11124147671E+04  0.12699999809E+01 0.  1.
</event>
<event>
 5   0  0.5933905E-05  0.2066288E+04  0.7818609E-02  0.8576241E-01
        1   -1    0    0  501    0  0.00000000000E+00  0.00000000000E+00  0.12530881441E+04  0.12530881441E+04  0.50400001928E-02 0.  1.
       -1   -1    0    0    0  501  0.00000000000E+00  0.00000000000E+00 -0.85180460145E+03  0.85180460146E+03  0.50400001928E-02 0. -1.
    10030    2    1    2    0    0  0.00000000000E+00  0.00000000000E+00  0.40128354262E+03  0.21048927455E+04  0.20662877313E+04 0.  0.
        2    1    3    3  502    0  0.23767106552E+03 -0.61734391773E+03 -0.60777515712E+03  0.89832716188E+03  0.25500000920E-02 0. -1.
       -2    1    3    3    0  502 -0.23767106552E+03  0.61734391773E+03  0.10090586997E+04  0.12065655837E+04  0.25500000920E-02 0.  1.
</event>
<event>
 5   0  0.1252477E-04  0.2122020E+04  0.7818609E-02  0.8551605E-01
        2   -1    0    0  501    0  0.00000000000E+00  0.00000000000E+00  0.81752375028E+03  0.81752375028E+03  0.25500000920E-02 0. -1.
       -2   -1    0    0    0  501  0.00000000000E+00  0.00000000000E+00 -0.13770149219E+04  0.13770149219E+04  0.25500000920E-02 0.  1.
    10030    2    1    2    0    0  0.00000000000E+00  0.00000000000E+00 -0.55949117157E+03  0.21945386721E+04  0.21220201725E+04 0.  0.
        4    1    3    3  502    0  0.16194771943E+03  0.96113450104E+03 -0.71327829653E+03  0.12077972239E+04  0.12699999809E+01 0.  1.
       -4    1    3    3    0  502 -0.16194771943E+03 -0.96113450104E+03  0.15378712496E+03  0.98674144821E+03  0.12699999809E+01 0. -1.
</event>
<event>
 5   0  0.1235817E-04  0.2090585E+04  0.7818609E-02  0.8565402E-01
        2   -1    0    0  501    0  0.00000000000E+00  0.00000000000E+00  0.99034032756E+03  0.99034032756E+03  0.25500000920E-02 0. -1.
       -2   -1    0    0    0  501  0.00000000000E+00  0.00000000000E+00 -0.11032940839E+04  0.11032940840E+04  0.25500000920E-02 0.  1.
    10030    2    1    2    0    0  0.00000000000E+00  0.00000000000E+00 -0.11295375639E+03  0.20936344115E+04  0.20905852047E+04 0.  0.
        1    1    3    3  502    0 -0.65881435903E+03  0.38682882138E+03 -0.77093436518E+03  0.10853629311E+04  0.50400001928E-02 0.  1.
       -1    1    3    3    0  502  0.65881435903E+03 -0.38682882138E+03  0.65798060879E+03  0.10082714804E+04  0.50400001928E-02 0. -1.
</event>
<event>
 5   0  0.1252477E-04  0.2086000E+04  0.7818609E-02  0.8567435E-01
        2   -1    0    0  501    0  0.00000000000E+00  0.00000000000E+00  0.63531880087E+03  0.63531880088E+03  0.25500000920E-02 0.  1.
       -2   -1    0    0    0  501  0.00000000000E+00  0.00000000000E+00 -0.17122891247E+04  0.17122891247E+04  0.25500000920E-02 0. -1.
    10030    2    1    2    0    0  0.00000000000E+00  0.00000000000E+00 -0.10769703238E+04  0.23476079256E+04  0.20860004539E+04 0.  0.
        4    1    3    3  502    0  0.47214767431E+03  0.69680247833E+03  0.15470841828E+03  0.85579987599E+03  0.12699999809E+01 0.  1.
       -4    1    3    3    0  502 -0.47214767431E+03 -0.69680247833E+03 -0.12316787421E+04  0.14918080496E+04  0.12699999809E+01 0. -1.
</event>
<event>
 5   0  0.6221148E-05  0.2182376E+04  0.7818609E-02  0.8525800E-01
        1   -1    0    0  501    0  0.00000000000E+00  0.00000000000E+00  0.10547061706E+04  0.10547061706E+04  0.50400001928E-02 0. -1.
       -1   -1    0    0    0  501  0.00000000000E+00  0.00000000000E+00 -0.11289315169E+04  0.11289315169E+04  0.50400001928E-02 0.  1.
    10030    2    1    2    0    0  0.00000000000E+00  0.00000000000E+00 -0.74225346275E+02  0.21836376876E+04  0.21823758037E+04 0.  0.
        3    1    3    3  502    0 -0.10806364566E+04  0.99275244516E+02 -0.15146042788E+03  0.10957057073E+04  0.10100000352E+00 0.  1.
       -3    1    3    3    0  502  0.10806364566E+04 -0.99275244516E+02  0.77235081609E+02  0.10879319802E+04  0.10100000352E+00 0. -1.
</event>
<event>
 5   0  0.1325673E-04  0.2105909E+04  0.7818609E-02  0.8558645E-01
       -2   -1    0    0    0  501  0.00000000000E+00  0.00000000000E+00  0.11251864831E+04  0.11251864831E+04  0.25500000920E-02 0.  1.
        2   -1    0    0  501    0  0.00000000000E+00  0.00000000000E+00 -0.98535960374E+03  0.98535960375E+03  0.25500000920E-02 0. -1.
    10030    2    1    2    0    0  0.00000000000E+00  0.00000000000E+00  0.13982687938E+03  0.21105460869E+04  0.21059091216E+04 0.  0.
        5    1    3    3  502    0  0.79212656837E+03  0.69308701876E+03  0.40572684669E+02  0.10533291739E+04  0.46999998093E+01 0.  1.
       -5    1    3    3    0  502 -0.79212656837E+03 -0.69308701876E+03  0.99254194712E+02  0.10572169130E+04  0.46999998093E+01 0. -1.
</event>
<event>
 5   0  0.5846187E-05  0.1953639E+04  0.7818609E-02  0.8628608E-01
        1   -1    0    0  501    0  0.00000000000E+00  0.00000000000E+00  0.16397658470E+04  0.16397658470E+04  0.50400001928E-02 0. -1.
       -1   -1    0    0    0  501  0.00000000000E+00  0.00000000000E+00 -0.58189808198E+03  0.58189808200E+03  0.50400001928E-02 0.  1.
    10030    2    1    2    0    0  0.00000000000E+00  0.00000000000E+00  0.10578677650E+04  0.22216639290E+04  0.19536392720E+04 0.  0.
        5    1    3    3  502    0 -0.37805354097E+03  0.32748536459E+03 -0.42521289140E+03  0.65650532129E+03  0.46999998093E+01 0.  1.
       -5    1    3    3    0  502  0.37805354097E+03 -0.32748536459E+03  0.14830806564E+04  0.15651586077E+04  0.46999998093E+01 0. -1.
</event>
<event>
 5   0  0.6221148E-05  0.2104143E+04  0.7818609E-02  0.8559421E-01
       -1   -1    0    0    0  501  0.00000000000E+00  0.00000000000E+00  0.83801269065E+03  0.83801269067E+03  0.50400001928E-02 0. -1.
        1   -1    0    0  501    0  0.00000000000E+00  0.00000000000E+00 -0.13208083116E+04  0.13208083116E+04  0.50400001928E-02 0.  1.
    10030    2    1    2    0    0  0.00000000000E+00  0.00000000000E+00 -0.48279562098E+03  0.21588210023E+04  0.21041427015E+04 0.  0.
        3    1    3    3  502    0 -0.62540119277E+03 -0.72731084298E+03  0.20197347883E+03  0.98025558432E+03  0.10100000352E+00 0. -1.
       -3    1    3    3    0  502  0.62540119277E+03  0.72731084298E+03 -0.68476909981E+03  0.11785654180E+04  0.10100000352E+00 0.  1.
</event>
<event>
 5   0  0.1281470E-04  0.2094522E+04  0.7818609E-02  0.8563660E-01
       -2   -1    0    0    0  501  0.00000000000E+00  0.00000000000E+00  0.40871192559E+03  0.40871192560E+03  0.25500000920E-02 0.  1.
        2   -1    0    0  501    0  0.00000000000E+00  0.00000000000E+00 -0.26834439019E+04  0.26834439019E+04  0.25500000920E-02 0. -1.
    10030    2    1    2    0    0  0.00000000000E+00  0.00000000000E+00 -0.22747319763E+04  0.30921558275E+04  0.20945219258E+04 0.  0.
        3    1    3    3  502    0  0.53759937513E+02  0.85214896306E+03 -0.20325817528E+04  0.22046397842E+04  0.10100000352E+00 0. -1.
       -3    1    3    3    0  502 -0.53759937513E+02 -0.85214896306E+03 -0.24215022349E+03  0.88751604327E+03  0.10100000352E+00 0.  1.
</event>
<event>
 5   0  0.6052292E-05  0.2131711E+04  0.7818609E-02  0.8547402E-01
        1   -1    0    0  501    0  0.00000000000E+00  0.00000000000E+00  0.11522562436E+04  0.11522562436E+04  0.50400001928E-02 0. -1.
       -1   -1    0    0    0  501  0.00000000000E+00  0.00000000000E+00 -0.98593358042E+03  0.98593358043E+03  0.50400001928E-02 0.  1.
    10030    2    1    2    0    0  0.00000000000E+00  0.00000000000E+00  0.16632266320E+03  0.21381898241E+04  0.21317111660E+04 0.  0.
        1    1    3    3  502    0 -0.76908603719E+03  0.95108548743E+02  0.81717026954E+03  0.11261910220E+04  0.50400001928E-02 0. -1.
       -1    1    3    3    0  502  0.76908603719E+03 -0.95108548743E+02 -0.65084760634E+03  0.10119988020E+04  0.50400001928E-02 0.  1.
</event>
<event>
 5   0  0.6263616E-05  0.2097815E+04  0.7818609E-02  0.8562207E-01
       -1   -1    0    0    0  501  0.00000000000E+00  0.00000000000E+00  0.10523438953E+04  0.10523438953E+04  0.50400001928E-02 0.  1.
        1   -1    0    0  501    0  0.00000000000E+00  0.00000000000E+00 -0.10454822722E+04  0.10454822722E+04  0.50400001928E-02 0. -1.
    10030    2    1    2    0    0  0.00000000000E+00  0.00000000000E+00  0.68616230459E+01  0.20978261675E+04  0.20978149459E+04 0.  0.
        4    1    3    3  502    0  0.93069161619E+03  0.40838372191E+03 -0.25587951317E+03  0.10480649250E+04  0.12699999809E+01 0. -1.
       -4    1    3    3    0  502 -0.93069161619E+03 -0.40838372191E+03  0.26274113622E+03  0.10497612425E+04  0.12699999809E+01 0.  1.
</event>
<event>
 5   0  0.5846187E-05  0.2068273E+04  0.7818609E-02  0.8575350E-01
        1   -1    0    0  501    0  0.00000000000E+00  0.00000000000E+00  0.11457595535E+04  0.11457595535E+04  0.50400001928E-02 0. -1.
       -1   -1    0    0    0  501  0.00000000000E+00  0.00000000000E+00 -0.93338779477E+03  0.93338779479E+03  0.50400001928E-02 0.  1.
    10030    2    1    2    0    0  0.00000000000E+00  0.00000000000E+00  0.21237175871E+03  0.20791473483E+04  0.20682726928E+04 0.  0.
        5    1    3    3  502    0  0.89451932036E+03 -0.39896332958E+03  0.43971240500E+03  0.10736413004E+04  0.46999998093E+01 0. -1.
       -5    1    3    3    0  502 -0.89451932036E+03  0.39896332958E+03 -0.22734064629E+03  0.10055060479E+04  0.46999998093E+01 0.  1.
</event>
<event>
 5   0  0.6263616E-05  0.2044709E+04  0.7818609E-02  0.8585998E-01
       -1   -1    0    0    0  501  0.00000000000E+00  0.00000000000E+00  0.67867018646E+03  0.67867018648E+03  0.50400001928E-02 0. -1.
        1   -1    0    0  501    0  0.00000000000E+00  0.00000000000E+00 -0.15400840048E+04  0.15400840048E+04  0.50400001928E-02 0.  1.
    10030    2    1    2    0    0  0.00000000000E+00  0.00000000000E+00 -0.86141381831E+03  0.22187541913E+04  0.20447093668E+04 0.  0.
        4    1    3    3  502    0  0.10173523411E+04 -0.30711710748E+01 -0.32115674951E+03  0.10668451100E+04  0.12699999809E+01 0. -1.
       -4    1    3    3    0  502 -0.10173523411E+04  0.30711710748E+01 -0.54025706880E+03  0.11519090812E+04  0.12699999809E+01 0.  1.
</event>
<event>
 5   0  0.6052292E-05  0.2124348E+04  0.7818609E-02  0.8550593E-01
        1   -1    0    0  501    0  0.00000000000E+00  0.00000000000E+00  0.92509930967E+03  0.92509930968E+03  0.50400001928E-02 0.  1.
       -1   -1    0    0    0  501  0.00000000000E+00  0.00000000000E+00 -0.12195599912E+04  0.12195599913E+04  0.50400001928E-02 0. -1.
    10030    2    1    2    0    0  0.00000000000E+00  0.00000000000E+00 -0.29446068158E+03  0.21446593009E+04  0.21243484705E+04 0.  0.
        1    1    3    3  502    0  0.85559475005E+03  0.57386603512E+03 -0.40825506449E+03  0.11081682184E+04  0.50400001928E-02 0. -1.
       -1    1    3    3    0  502 -0.85559475005E+03 -0.57386603512E+03  0.11379438290E+03  0.10364910825E+04  0.50400001928E-02 0.  1.
</event>
<event>
 5   0  0.1252477E-04  0.2121471E+04  0.7818609E-02  0.8551844E-01
       -2   -1    0    0    0  501  0.00000000000E+00  0.00000000000E+00  0.68568871792E+03  0.68568871792E+03  0.25500000920E-02 0.  1.
        2   -1    0    0  501    0  0.00000000000E+00  0.00000000000E+00 -0.16409193909E+04  0.16409193909E+04  0.25500000920E-02 0. -1.
    10030    2    1    2    0    0  0.00000000000E+00  0.00000000000E+00 -0.95523067298E+03  0.23266081088E+04  0.21214711060E+04 0.  0.
        4    1    3    3  502    0  0.93789584388E+02 -0.10513450912E+04 -0.59282222731E+03  0.12106043090E+04  0.12699999809E+01 0.  1.
       -4    1    3    3    0  502 -0.93789584388E+02  0.10513450912E+04 -0.36240844567E+03  0.11160037998E+04  0.12699999809E+01 0. -1.
</event>
<event>
 5   0  0.6263616E-05  0.2088295E+04  0.7818609E-02  0.8566417E-01
       -1   -1    0    0    0  501  0.00000000000E+00  0.00000000000E+00  0.53909003492E+03  0.53909003494E+03  0.50400001928E-02 0.  1.
        1   -1    0    0  501    0  0.00000000000E+00  0.00000000000E+00 -0.20223786691E+04  0.20223786691E+04  0.50400001928E-02 0. -1.
    10030    2    1    2    0    0  0.00000000000E+00  0.00000000000E+00 -0.14832886342E+04  0.25614687041E+04  0.20882951778E+04 0.  0.
        4    1    3    3  502    0  0.13233666137E+02 -0.19326080546E+03 -0.20001440628E+04  0.20095031111E+04  0.12699999809E+01 0. -1.
       -4    1    3    3    0  502 -0.13233666137E+02  0.19326080546E+03  0.51685542857E+03  0.55196559294E+03  0.12699999809E+01 0.  1.
</event>
<event>
 5   0  0.6052292E-05  0.2091932E+04  0.7818609E-02  0.8564806E-01
       -1   -1    0    0    0  501  0.00000000000E+00  0.00000000000E+00  0.25419806993E+04  0.25419806993E+04  0.50400001928E-02 0.  1.
        1   -1    0    0  501    0  0.00000000000E+00  0.00000000000E+00 -0.43039067608E+03  0.43039067611E+03  0.50400001928E-02 0. -1.
    10030    2    1    2    0    0  0.00000000000E+00  0.00000000000E+00  0.21115900233E+04  0.29723713754E+04  0.20919319222E+04 0.  0.
        1    1    3    3  502    0  0.90253356089E+03  0.97356705420E+02  0.17941022254E+04  0.20106834539E+04  0.50400001928E-02 0.  1.
       -1    1    3    3    0  502 -0.90253356089E+03 -0.97356705420E+02  0.31748779788E+03  0.96168792155E+03  0.50400001928E-02 0. -1.
</event>
<event>
 5   0  0.6221148E-05  0.2108332E+04  0.7818609E-02  0.8557582E-01
       -1   -1    0    0    0  501  0.00000000000E+00  0.00000000000E+00  0.11437544690E+04  0.11437544690E+04  0.50400001928E-02 0.  1.
        1   -1    0    0  501    0  0.00000000000E+00  0.00000000000E+00 -0.97159477031E+03  0.97159477032E+03  0.50400001928E-02 0. -1.
    10030    2    1    2    0    0  0.00000000000E+00  0.00000000000E+00  0.17215969871E+03  0.21153492394E+04  0.21083319100E+04 0.  0.
        3    1    3    3  502    0 -0.73231884072E+03 -0.75559604496E+03  0.14992798770E+03  0.10628709608E+04  0.10100000352E+00 0.  1.
       -3    1    3    3    0  502  0.73231884072E+03  0.75559604496E+03  0.22231711011E+02  0.10524782785E+04  0.10100000352E+00 0. -1.
</event>
<event>
 5   0  0.6221148E-05  0.2108495E+04  0.7818609E-02  0.8557511E-01
       -1   -1    0    0    0  501  0.00000000000E+00  0.00000000000E+00  0.10846140138E+04  0.10846140138E+04  0.50400001928E-02 0. -1.
        1   -1    0    0  501    0  0.00000000000E+00  0.00000000000E+00 -0.10247309453E+04  0.10247309454E+04  0.50400001928E-02 0.  1.
    10030    2    1    2    0    0  0.00000000000E+00  0.00000000000E+00  0.59883068412E+02  0.21093449591E+04  0.21084947651E+04 0.  0.
        3    1    3    3  502    0  0.11765705549E+03 -0.80500739109E+03 -0.64081927869E+03  0.10356299728E+04  0.10100000352E+00 0.  1.
       -3    1    3    3    0  502 -0.11765705549E+03  0.80500739109E+03  0.70070234710E+03  0.10737149863E+04  0.10100000352E+00 0. -1.
</event>
<event>
 5   0  0.1252477E-04  0.2056837E+04  0.7818609E-02  0.8580499E-01
        2   -1    0    0  501    0  0.00000000000E+00  0.00000000000E+00  0.79277922315E+03  0.79277922315E+03  0.25500000920E-02 0.  1.
       -2   -1    0    0    0  501  0.00000000000E+00  0.00000000000E+00 -0.13340974870E+04  0.13340974870E+04  0.25500000920E-02 0. -1.
    10030    2    1    2    0    0  0.00000000000E+00  0.00000000000E+00 -0.54131826386E+03  0.21268767102E+04  0.20568371539E+04 0.  0.
        4    1    3    3  502    0 -0.54590478974E+03  0.11073276727E+03 -0.11646025988E+04  0.12909587953E+04  0.12699999809E+01 0. -1.
       -4    1    3    3    0  502  0.54590478974E+03 -0.11073276727E+03  0.62328433496E+03  0.83591791482E+03  0.12699999809E+01 0.  1.
</event>
<event>
 5   0  0.5933905E-05  0.2081281E+04  0.7818609E-02  0.8569534E-01
       -1   -1    0    0    0  501  0.00000000000E+00  0.00000000000E+00  0.11760398707E+04  0.11760398707E+04  0.50400001928E-02 0. -1.
        1   -1    0    0  501    0  0.00000000000E+00  0.00000000000E+00 -0.92083004326E+03  0.92083004328E+03  0.50400001928E-02 0.  1.
    10030    2    1    2    0    0  0.00000000000E+00  0.00000000000E+00  0.25520982739E+03  0.20968699139E+04  0.20812811872E+04 0.  0.
        2    1    3    3  502    0  0.13279114899E+02 -0.76235299972E+03  0.84112863675E+03  0.11352778579E+04  0.25500000920E-02 0. -1.
       -2    1    3    3    0  502 -0.13279114899E+02  0.76235299972E+03 -0.58591880936E+03  0.96159205604E+03  0.25500000920E-02 0.  1.
</event>
<event>
 5   0  0.6263616E-05  0.2116151E+04  0.7818609E-02  0.8554162E-01
       -1   -1    0    0    0  501  0.00000000000E+00  0.00000000000E+00  0.29986914143E+04  0.29986914143E+04  0.50400001928E-02 0.  1.
        1   -1    0    0  501    0  0.00000000000E+00  0.00000000000E+00 -0.37333753928E+03  0.37333753931E+03  0.50400001928E-02 0. -1.
    10030    2    1    2    0    0  0.00000000000E+00  0.00000000000E+00  0.26253538750E+04  0.33720289536E+04  0.21161512930E+04 0.  0.
        4    1    3    3  502    0  0.41940625291E+03 -0.27048373842E+03 -0.17400765797E+03  0.52852940851E+03  0.12699999809E+01 0. -1.
       -4    1    3    3    0  502 -0.41940625291E+03  0.27048373842E+03  0.27993615330E+04  0.28434995451E+04  0.12699999809E+01 0.  1.
</event>
<event>
 5   0  0.1252477E-04  0.2134121E+04  0.7818609E-02  0.8546360E-01
       -2   -1    0    0    0  501  0.00000000000E+00  0.00000000000E+00  0.60895392630E+03  0.60895392631E+03  0.25500000920E-02 0.  1.
        2   -1    0    0  501    0  0.00000000000E+00  0.00000000000E+00 -0.18697927446E+04  0.18697927446E+04  0.25500000920E-02 0. -1.
    10030    2    1    2    0    0  0.00000000000E+00  0.00000000000E+00 -0.12608388183E+04  0.24787466709E+04  0.21341205525E+04 0.  0.
        4    1    3    3  502    0  0.71871557727E+03 -0.62502339711E+03 -0.11891519532E+04  0.15235781269E+04  0.12699999809E+01 0. -1.
       -4    1    3    3    0  502 -0.71871557727E+03  0.62502339711E+03 -0.71686865053E+02  0.95516854401E+03  0.12699999809E+01 0.  1.
</event>
<event>
 5   0  0.1325673E-04  0.2081211E+04  0.7818609E-02  0.8569565E-01
        2   -1    0    0  501    0  0.00000000000E+00  0.00000000000E+00  0.13918523272E+04  0.13918523272E+04  0.25500000920E-02 0.  1.
       -2   -1    0    0    0  501  0.00000000000E+00  0.00000000000E+00 -0.77799928952E+03  0.77799928952E+03  0.25500000920E-02 0. -1.
    10030    2    1    2    0    0  0.00000000000E+00  0.00000000000E+00  0.61385303768E+03  0.21698516167E+04  0.20812113028E+04 0.  0.
        5    1    3    3  502    0 -0.33043323006E+03 -0.31631931506E+03 -0.66754394961E+03  0.80924720777E+03  0.46999998093E+01 0. -1.
       -5    1    3    3    0  502  0.33043323006E+03  0.31631931506E+03  0.12813969873E+04  0.13606044090E+04  0.46999998093E+01 0.  1.
</event>
<event>
 5   0  0.6263616E-05  0.2153879E+04  0.7818609E-02  0.8537874E-01
        1   -1    0    0  501    0  0.00000000000E+00  0.00000000000E+00  0.15654442922E+04  0.15654442922E+04  0.50400001928E-02 0.  1.
       -1   -1    0    0    0  501  0.00000000000E+00  0.00000000000E+00 -0.74087489734E+03  0.74087489735E+03  0.50400001928E-02 0. -1.
    10030    2    1    2    0    0  0.00000000000E+00  0.00000000000E+00  0.82456939484E+03  0.23063191895E+04  0.21538787146E+04 0.  0.
        4    1    3    3  502    0  0.46084393473E+03  0.10724882179E+02  0.14544653194E+04  0.15257664085E+04  0.12699999809E+01 0.  1.
       -4    1    3    3    0  502 -0.46084393473E+03 -0.10724882179E+02 -0.62989592454E+03  0.78055278099E+03  0.12699999809E+01 0. -1.
</event>
<event>
 5   0  0.1252477E-04  0.2111261E+04  0.7818609E-02  0.8556299E-01
       -2   -1    0    0    0  501  0.00000000000E+00  0.00000000000E+00  0.70187790706E+03  0.70187790707E+03  0.25500000920E-02 0. -1.
        2   -1    0    0  501    0  0.00000000000E+00  0.00000000000E+00 -0.15876767861E+04  0.15876767861E+04  0.25500000920E-02 0.  1.
    10030    2    1    2    0    0  0.00000000000E+00  0.00000000000E+00 -0.88579887902E+03  0.22895546932E+04  0.21112605332E+04 0.  0.
        4    1    3    3  502    0 -0.44282298141E+03  0.89572588903E+03 -0.73650338794E+02  0.10019196806E+04  0.12699999809E+01 0. -1.
       -4    1    3    3    0  502  0.44282298141E+03 -0.89572588903E+03 -0.81214854023E+03  0.12876350125E+04  0.12699999809E+01 0.  1.
</event>
<event>
 5   0  0.1281470E-04  0.2104952E+04  0.7818609E-02  0.8559065E-01
        2   -1    0    0  501    0  0.00000000000E+00  0.00000000000E+00  0.27477688068E+04  0.27477688068E+04  0.25500000920E-02 0.  1.
       -2   -1    0    0    0  501  0.00000000000E+00  0.00000000000E+00 -0.40312909376E+03  0.40312909377E+03  0.25500000920E-02 0. -1.
    10030    2    1    2    0    0  0.00000000000E+00  0.00000000000E+00  0.23446397131E+04  0.31508979006E+04  0.21049518275E+04 0.  0.
        3    1    3    3  502    0 -0.88273405555E+03 -0.18616995190E+03  0.19837253200E+04  0.21792303272E+04  0.10100000352E+00 0.  1.
       -3    1    3    3    0  502  0.88273405555E+03  0.18616995190E+03  0.36091439312E+03  0.97166757340E+03  0.10100000352E+00 0. -1.
</event>
<event>
 5   0  0.5846187E-05  0.2085096E+04  0.7818609E-02  0.8567837E-01
       -1   -1    0    0    0  501  0.00000000000E+00  0.00000000000E+00  0.12401576066E+04  0.12401576066E+04  0.50400001928E-02 0. -1.
        1   -1    0    0  501    0  0.00000000000E+00  0.00000000000E+00 -0.87642598706E+03  0.87642598708E+03  0.50400001928E-02 0.  1.
    10030    2    1    2    0    0  0.00000000000E+00  0.00000000000E+00  0.36373161949E+03  0.21165835936E+04  0.20850960213E+04 0.  0.
        5    1    3    3  502    0 -0.33774599548E+03 -0.25544023200E+03  0.11489127702E+04  0.12244773225E+04  0.46999998093E+01 0. -1.
       -5    1    3    3    0  502  0.33774599548E+03  0.25544023200E+03 -0.78518115075E+03  0.89210627118E+03  0.46999998093E+01 0.  1.
</event>
<event>
 5   0  0.1349252E-04  0.2095837E+04  0.7818609E-02  0.8563079E-01
        2   -1    0    0  501    0  0.00000000000E+00  0.00000000000E+00  0.13902992356E+04  0.13902992357E+04  0.25500000920E-02 0. -1.
       -2   -1    0    0    0  501  0.00000000000E+00  0.00000000000E+00 -0.78985377981E+03  0.78985377981E+03  0.25500000920E-02 0.  1.
    10030    2    1    2    0    0  0.00000000000E+00  0.00000000000E+00  0.60044545584E+03  0.21801530155E+04  0.20958369272E+04 0.  0.
        2    1    3    3  502    0  0.23289739403E+03 -0.64907063937E+03  0.11210159705E+04  0.13161347565E+04  0.25500000920E-02 0. -1.
       -2    1    3    3    0  502 -0.23289739403E+03  0.64907063937E+03 -0.52057051470E+03  0.86401825896E+03  0.25500000920E-02 0.  1.
</event>
<event>
 5   0  0.5846187E-05  0.2164501E+04  0.7818609E-02  0.8533350E-01
       -1   -1    0    0    0  501  0.00000000000E+00  0.00000000000E+00  0.15720180504E+04  0.15720180504E+04  0.50400001928E-02 0.  1.
        1   -1    0    0  501    0  0.00000000000E+00  0.00000000000E+00 -0.74507177344E+03  0.74507177346E+03  0.50400001928E-02 0. -1.
    10030    2    1    2    0    0  0.00000000000E+00  0.00000000000E+00  0.82694627695E+03  0.23170898239E+04  0.21645011219E+04 0.  0.
        5    1    3    3  502    0 -0.57023596890E+03  0.85334558620E+03  0.45938263822E+02  0.10273753763E+04  0.46999998093E+01 0. -1.
       -5    1    3    3    0  502  0.57023596890E+03 -0.85334558620E+03  0.78100801313E+03  0.12897144476E+04  0.46999998093E+01 0.  1.
</event>
<event>
 5   0  0.1349252E-04  0.2190056E+04  0.7818609E-02  0.8522579E-01
       -2   -1    0    0    0  501  0.00000000000E+00  0.00000000000E+00  0.88971062409E+03  0.88971062410E+03  0.25500000920E-02 0.  1.
        2   -1    0    0  501    0  0.00000000000E+00  0.00000000000E+00 -0.13477258967E+04  0.13477258967E+04  0.25500000920E-02 0. -1.
    10030    2    1    2    0    0  0.00000000000E+00  0.00000000000E+00 -0.45801527261E+03  0.22374365208E+04  0.21900557515E+04 0.  0.
        2    1    3    3  502    0  0.61233439969E+03  0.90554388803E+03 -0.16340868871E+03  0.11052898035E+04  0.25500000920E-02 0. -1.
       -2    1    3    3    0  502 -0.61233439969E+03 -0.90554388803E+03 -0.29460658390E+03  0.11321467173E+04  0.25500000920E-02 0.  1.
</event>
<event>
 5   0  0.6221148E-05  0.2110616E+04  0.7818609E-02  0.8556581E-01
        1   -1    0    0  501    0  0.00000000000E+00  0.00000000000E+00  0.82211653524E+03  0.82211653525E+03  0.50400001928E-02 0. -1.
       -1   -1    0    0    0  501  0.00000000000E+00  0.00000000000E+00 -0.13546432910E+04  0.13546432910E+04  0.50400001928E-02 0.  1.
    10030    2    1    2    0    0  0.00000000000E+00  0.00000000000E+00 -0.53252675575E+03  0.21767598262E+04  0.21106156911E+04 0.  0.
        3    1    3    3  502    0  0.63373430086E+02 -0.72486754554E+03  0.52203675773E+03  0.89552863541E+03  0.10100000352E+00 0. -1.
       -3    1    3    3    0  502 -0.63373430086E+02  0.72486754554E+03 -0.10545635135E+04  0.12812311908E+04  0.10100000352E+00 0.  1.
</event>
<event>
 5   0  0.1281470E-04  0.2074698E+04  0.7818609E-02  0.8572472E-01
        2   -1    0    0  501    0  0.00000000000E+00  0.00000000000E+00  0.15473854119E+04  0.15473854119E+04  0.25500000920E-02 0.  1.
       -2   -1    0    0    0  501  0.00000000000E+00  0.00000000000E+00 -0.69542671426E+03  0.69542671426E+03  0.25500000920E-02 0. -1.
    10030    2    1    2    0    0  0.00000000000E+00  0.00000000000E+00  0.85195869761E+03  0.22428121261E+04  0.20746981975E+04 0.  0.
        3    1    3    3  502    0 -0.57434796403E+03  0.65164301940E+03  0.10390093957E+04  0.13542727728E+04  0.10100000352E+00 0.  1.
       -3    1    3    3    0  502  0.57434796403E+03 -0.65164301940E+03 -0.18705069814E+03  0.88853935332E+03  0.10100000352E+00 0. -1.
</event>
<event>
 5   0  0.5933905E-05  0.2005669E+04  0.7818609E-02  0.8603975E-01
       -1   -1    0    0    0  501  0.00000000000E+00  0.00000000000E+00  0.42615906909E+03  0.42615906912E+03  0.50400001928E-02 0.  1.
        1   -1    0    0  501    0  0.00000000000E+00  0.00000000000E+00 -0.23598626098E+04  0.23598626098E+04  0.50400001928E-02 0. -1.
    10030    2    1    2    0    0  0.00000000000E+00  0.00000000000E+00 -0.19337035407E+04  0.27860216790E+04  0.20056688192E+04 0.  0.
        2    1    3    3  502    0  0.49478367132E+03  0.51017390554E+03 -0.19496530830E+04  0.20751470886E+04  0.25500000920E-02 0. -1.
       -2    1    3    3    0  502 -0.49478367132E+03 -0.51017390554E+03  0.15949542265E+02  0.71087459035E+03  0.25500000920E-02 0.  1.
</event>
<event>
 5   0  0.6052292E-05  0.2094086E+04  0.7818609E-02  0.8563853E-01
        1   -1    0    0  501    0  0.00000000000E+00  0.00000000000E+00  0.12435234774E+04  0.12435234774E+04  0.50400001928E-02 0.  1.
       -1   -1    0    0    0  501  0.00000000000E+00  0.00000000000E+00 -0.88160672228E+03  0.88160672229E+03  0.50400001928E-02 0. -1.
    10030    2    1    2    0    0  0.00000000000E+00  0.00000000000E+00  0.36191675513E+03  0.21251301997E+04  0.20940856305E+04 0.  0.
        1    1    3    3  502    0  0.59800972564E+03  0.82529726709E+03  0.42444751280E+03  0.11040321110E+04  0.50400001928E-02 0. -1.
       -1    1    3    3    0  502 -0.59800972564E+03 -0.82529726709E+03 -0.62530757674E+02  0.10210980887E+04  0.50400001928E-02 0.  1.
</event>
<event>
 5   0  0.1349252E-04  0.2122897E+04  0.7818609E-02  0.8551224E-01
       -2   -1    0    0    0  501  0.00000000000E+00  0.00000000000E+00  0.11373314108E+04  0.11373314108E+04  0.25500000920E-02 0.  1.
        2   -1    0    0  501    0  0.00000000000E+00  0.00000000000E+00 -0.99062871989E+03  0.99062871989E+03  0.25500000920E-02 0. -1.
    10030    2    1    2    0    0  0.00000000000E+00  0.00000000000E+00  0.14670269091E+03  0.21279601307E+04  0.21228972274E+04 0.  0.
        2    1    3    3  502    0 -0.26708504240E+03  0.38529740641E+03 -0.88122472258E+03  0.99817108902E+03  0.25500000920E-02 0. -1.
       -2    1    3    3    0  502  0.26708504240E+03 -0.38529740641E+03  0.10279274135E+04  0.11297890417E+04  0.25500000920E-02 0.  1.
</event>
<event>
 5   0  0.6221148E-05  0.2218768E+04  0.7818609E-02  0.8510657E-01
        1   -1    0    0  501    0  0.00000000000E+00  0.00000000000E+00  0.16516022682E+04  0.16516022682E+04  0.50400001928E-02 0.  1.
       -1   -1    0    0    0  501  0.00000000000E+00  0.00000000000E+00 -0.74517500547E+03  0.74517500549E+03  0.50400001928E-02 0. -1.
    10030    2    1    2    0    0  0.00000000000E+00  0.00000000000E+00  0.90642726275E+03  0.23967772737E+04  0.22187678827E+04 0.  0.
        3    1    3    3  502    0  0.22077537369E+03  0.37980083968E+03  0.15536389195E+04  0.16145539154E+04  0.10100000352E+00 0.  1.
       -3    1    3    3    0  502 -0.22077537369E+03 -0.37980083968E+03 -0.64721165674E+03  0.78222335830E+03  0.10100000352E+00 0. -1.
</event>
<event>
 5   0  0.1252477E-04  0.2059010E+04  0.7818609E-02  0.8579518E-01
       -2   -1    0    0    0  501  0.00000000000E+00  0.00000000000E+00  0.80047346478E+03  0.80047346478E+03  0.25500000920E-02 0.  1.
        2   -1    0    0  501    0  0.00000000000E+00  0.00000000000E+00 -0.13240674367E+04  0.13240674367E+04  0.25500000920E-02 0. -1.
    10030    2    1    2    0    0  0.00000000000E+00  0.00000000000E+00 -0.52359397193E+03  0.21245409015E+04  0.20590102949E+04 0.  0.
        4    1    3    3  502    0  0.85347855966E+02 -0.74008725156E+03  0.47135593886E+03  0.88158461332E+03  0.12699999809E+01 0.  1.
       -4    1    3    3    0  502 -0.85347855966E+02  0.74008725156E+03 -0.99494991079E+03  0.12429562882E+04  0.12699999809E+01 0. -1.
</event>
<event>
 5   0  0.1281470E-04  0.2074231E+04  0.7818609E-02  0.8572681E-01
       -2   -1    0    0    0  501  0.00000000000E+00  0.00000000000E+00  0.53077541226E+03  0.53077541227E+03  0.25500000920E-02 0. -1.
        2   -1    0    0  501    0  0.00000000000E+00  0.00000000000E+00 -0.20264851065E+04  0.20264851065E+04  0.25500000920E-02 0.  1.
    10030    2    1    2    0    0  0.00000000000E+00  0.00000000000E+00 -0.14957096943E+04  0.25572605188E+04  0.20742309108E+04 0.  0.
        3    1    3    3  502    0 -0.69512198487E+03  0.99035320169E+02 -0.16888888296E+04  0.18290292664E+04  0.10100000352E+00 0.  1.
       -3    1    3    3    0  502  0.69512198487E+03 -0.99035320169E+02  0.19317913528E+03  0.72823125242E+03  0.10100000352E+00 0. -1.
</event>
<event>
 5   0  0.1325673E-04  0.2093379E+04  0.7818609E-02  0.8564166E-01
       -2   -1    0    0    0  501  0.00000000000E+00  0.00000000000E+00  0.85303603406E+03  0.85303603406E+03  0.25500000920E-02 0.  1.
        2   -1    0    0  501    0  0.00000000000E+00  0.00000000000E+00 -0.12843053322E+04  0.12843053322E+04  0.25500000920E-02 0. -1.
    10030    2    1    2    0    0  0.00000000000E+00  0.00000000000E+00 -0.43126929815E+03  0.21373413663E+04  0.20933788258E+04 0.  0.
        5    1    3    3  502    0  0.35822427028E+03  0.97826682532E+03 -0.31878113507E+03  0.10894834149E+04  0.46999998093E+01 0. -1.
       -5    1    3    3    0  502 -0.35822427028E+03 -0.97826682532E+03 -0.11248816308E+03  0.10478579513E+04  0.46999998093E+01 0.  1.
</event>
<event>
 5   0  0.6263616E-05  0.2106016E+04  0.7818609E-02  0.8558598E-01
        1   -1    0    0  501    0  0.00000000000E+00  0.00000000000E+00  0.11198921744E+04  0.11198921744E+04  0.50400001928E-02 0. -1.
       -1   -1    0    0    0  501  0.00000000000E+00  0.00000000000E+00 -0.99011807821E+03  0.99011807822E+03  0.50400001928E-02 0.  1.
    10030    2    1    2    0    0  0.00000000000E+00  0.00000000000E+00  0.12977409616E+03  0.21100102526E+04  0.21060156576E+04 0.  0.
        4    1    3    3  502    0  0.23061701272E+03 -0.58568308166E+03 -0.78087939208E+03  0.10029870969E+04  0.12699999809E+01 0.  1.
       -4    1    3    3    0  502 -0.23061701272E+03  0.58568308166E+03  0.91065348824E+03  0.11070231557E+04  0.12699999809E+01 0. -1.
</event>
<event>
 5   0  0.6221148E-05  0.2075733E+04  0.7818609E-02  0.8572009E-01
       -1   -1    0    0    0  501  0.00000000000E+00  0.00000000000E+00  0.42013964139E+03  0.42013964142E+03  0.50400001928E-02 0.  1.
        1   -1    0    0  501    0  0.00000000000E+00  0.00000000000E+00 -0.25638310985E+04  0.25638310985E+04  0.50400001928E-02 0. -1.
    10030    2    1    2    0    0  0.00000000000E+00  0.00000000000E+00 -0.21436914571E+04  0.29839707400E+04  0.20757331990E+04 0.  0.
        3    1    3    3  502    0  0.24984084017E+03 -0.55867429224E+03  0.13315210888E+03  0.62631214624E+03  0.10100000352E+00 0.  1.
       -3    1    3    3    0  502 -0.24984084017E+03  0.55867429224E+03 -0.22768435660E+04  0.23576585937E+04  0.10100000352E+00 0. -1.
</event>
<event>
 5   0  0.5846187E-05  0.2134373E+04  0.7818609E-02  0.8546251E-01
        1   -1    0    0  501    0  0.00000000000E+00  0.00000000000E+00  0.10439631360E+04  0.10439631360E+04  0.50400001928E-02 0. -1.
       -1   -1    0    0    0  501  0.00000000000E+00  0.00000000000E+00 -0.10909261289E+04  0.10909261289E+04  0.50400001928E-02 0.  1.
    10030    2    1    2    0    0  0.00000000000E+00  0.00000000000E+00 -0.46962992897E+02  0.21348892649E+04  0.21343726598E+04 0.  0.
        5    1    3    3  502    0 -0.36079599069E+03  0.99327661372E+02  0.97617265006E+03  0.10454543816E+04  0.46999998093E+01 0. -1.
       -5    1    3    3    0  502  0.36079599069E+03 -0.99327661372E+02 -0.10231356430E+04  0.10894348834E+04  0.46999998093E+01 0.  1.
</event>
<event>
 5   0  0.1252477E-04  0.2066640E+04  0.7818609E-02  0.8576083E-01
        2   -1    0    0  501    0  0.00000000000E+00  0.00000000000E+00  0.18439185580E+04  0.18439185580E+04  0.25500000920E-02 0. -1.
       -2   -1    0    0    0  501  0.00000000000E+00  0.00000000000E+00 -0.57906590710E+03  0.57906590710E+03  0.25500000920E-02 0.  1.
    10030    2    1    2    0    0  0.00000000000E+00  0.00000000000E+00  0.12648526509E+04  0.24229844651E+04  0.20666401452E+04 0.  0.
        4    1    3    3  502    0  0.55643378646E+03  0.86688196454E+03  0.53684756926E+03  0.11615979617E+04  0.12699999809E+01 0.  1.
       -4    1    3    3    0  502 -0.55643378646E+03 -0.86688196454E+03  0.72800508168E+03  0.12613865034E+04  0.12699999809E+01 0. -1.
</event>
<event>
 5   0  0.1235817E-04  0.2084823E+04  0.7818609E-02  0.8567959E-01
       -2   -1    0    0    0  501  0.00000000000E+00  0.00000000000E+00  0.11860493504E+04  0.11860493504E+04  0.25500000920E-02 0. -1.
        2   -1    0    0  501    0  0.00000000000E+00  0.00000000000E+00 -0.91616891319E+03  0.91616891319E+03  0.25500000920E-02 0.  1.
    10030    2    1    2    0    0  0.00000000000E+00  0.00000000000E+00  0.26988043721E+03  0.21022182636E+04  0.20848228168E+04 0.  0.
        1    1    3    3  502    0 -0.85269320614E+03  0.28614723003E+03 -0.39638676779E+03  0.98289796559E+03  0.50400001928E-02 0.  1.
       -1    1    3    3    0  502  0.85269320614E+03 -0.28614723003E+03  0.66626720500E+03  0.11193202980E+04  0.50400001928E-02 0. -1.
</event>
<event>
 5   0  0.1325673E-04  0.2084887E+04  0.7818609E-02  0.8567930E-01
        2   -1    0    0  501    0  0.00000000000E+00  0.00000000000E+00  0.23528756640E+04  0.23528756640E+04  0.25500000920E-02 0.  1.
       -2   -1    0    0    0  501  0.00000000000E+00  0.00000000000E+00 -0.46185543223E+03  0.46185543224E+03  0.25500000920E-02 0. -1.
    10030    2    1    2    0    0  0.00000000000E+00  0.00000000000E+00  0.18910202318E+04  0.28147310963E+04  0.20848869579E+04 0.  0.
        5    1    3    3  502    0  0.15402045262E+02  0.36217356071E+03 -0.37400709662E+03  0.52087456205E+03  0.46999998093E+01 0. -1.
       -5    1    3    3    0  502 -0.15402045262E+02 -0.36217356071E+03  0.22650273284E+04  0.22938565342E+04  0.46999998093E+01 0.  1.
</event>
<event>
 5   0  0.1252477E-04  0.2062298E+04  0.7818609E-02  0.8578036E-01
       -2   -1    0    0    0  501  0.00000000000E+00  0.00000000000E+00  0.92720753276E+03  0.92720753277E+03  0.25500000920E-02 0. -1.
        2   -1    0    0  501    0  0.00000000000E+00  0.00000000000E+00 -0.11467422394E+04  0.11467422394E+04  0.25500000920E-02 0.  1.
    10030    2    1    2    0    0  0.00000000000E+00  0.00000000000E+00 -0.21953470666E+03  0.20739497722E+04  0.20622977889E+04 0.  0.
        4    1    3    3  502    0 -0.12583249196E+03  0.10001581383E+04 -0.32805668079E+03  0.10600815612E+04  0.12699999809E+01 0.  1.
       -4    1    3    3    0  502  0.12583249196E+03 -0.10001581383E+04  0.10852197413E+03  0.10138682110E+04  0.12699999809E+01 0. -1.
</event>
<event>
 5   0  0.1349252E-04  0.2087354E+04  0.7818609E-02  0.8566835E-01
       -2   -1    0    0    0  501  0.00000000000E+00  0.00000000000E+00  0.49593474517E+03  0.49593474518E+03  0.25500000920E-02 0.  1.
        2   -1    0    0  501    0  0.00000000000E+00  0.00000000000E+00 -0.21963813056E+04  0.21963813056E+04  0.25500000920E-02 0. -1.
    10030    2    1    2    0    0  0.00000000000E+00  0.00000000000E+00 -0.17004465604E+04  0.26923160508E+04  0.20873541176E+04 0.  0.
        2    1    3    3  502    0 -0.39058104241E+03  0.54239605041E+02  0.39615252401E+03  0.55895644529E+03  0.25500000920E-02 0.  1.
       -2    1    3    3    0  502  0.39058104241E+03 -0.54239605041E+02 -0.20965990844E+04  0.21333596055E+04  0.25500000920E-02 0. -1.
</event>
<event>
 5   0  0.1325673E-04  0.2110410E+04  0.7818609E-02  0.8556671E-01
        2   -1    0    0  501    0  0.00000000000E+00  0.00000000000E+00  0.19630927489E+04  0.19630927489E+04  0.25500000920E-02 0.  1.
       -2   -1    0    0    0  501  0.00000000000E+00  0.00000000000E+00 -0.56719580243E+03  0.56719580244E+03  0.25500000920E-02 0. -1.
    10030    2    1    2    0    0  0.00000000000E+00  0.00000000000E+00  0.13958969464E+04  0.25302885513E+04  0.21104103553E+04 0.  0.
        5    1    3    3  502    0 -0.39304162376E+03  0.97858924817E+03  0.65443377486E+03  0.12411383043E+04  0.46999998093E+01 0. -1.
       -5    1    3    3    0  502  0.39304162376E+03 -0.97858924817E+03  0.74146317156E+03  0.12891502470E+04  0.46999998093E+01 0.  1.
</event>
<event>
 5   0  0.1325673E-04  0.2038985E+04  0.7818609E-02  0.8588608E-01
       -2   -1    0    0    0  501  0.00000000000E+00  0.00000000000E+00  0.56050752969E+03  0.56050752970E+03  0.25500000920E-02 0.  1.
        2   -1    0    0  501    0  0.00000000000E+00  0.00000000000E+00 -0.18543283734E+04  0.18543283734E+04  0.25500000920E-02 0. -1.
    10030    2    1    2    0    0  0.00000000000E+00  0.00000000000E+00 -0.12938208437E+04  0.24148359031E+04  0.20389850572E+04 0.  0.
        5    1    3    3  502    0 -0.74067583467E+03  0.22118514282E+03 -0.14341301250E+04  0.16291945448E+04  0.46999998093E+01 0. -1.
       -5    1    3    3    0  502  0.74067583467E+03 -0.22118514282E+03  0.14030928126E+03  0.78564135830E+03  0.46999998093E+01 0.  1.
</event>
<event>
 5   0  0.5933905E-05  0.2091117E+04  0.7818609E-02  0.8565167E-01
        1   -1    0    0  501    0  0.00000000000E+00  0.00000000000E+00  0.44005032712E+03  0.44005032714E+03  0.50400001928E-02 0. -1.
       -1   -1    0    0    0  501  0.00000000000E+00  0.00000000000E+00 -0.24842433287E+04  0.24842433287E+04  0.50400001928E-02 0.  1.
    10030    2    1    2    0    0  0.00000000000E+00  0.00000000000E+00 -0.20441930016E+04  0.29242936559E+04  0.20911165338E+04 0.  0.
        2    1    3    3  502    0 -0.80759290774E+03 -0.92849161615E+02 -0.19416307720E+04  0.21049364185E+04  0.25500000920E-02 0.  1.
       -2    1    3    3    0  502  0.80759290774E+03  0.92849161615E+02 -0.10256222966E+03  0.81935723735E+03  0.25500000920E-02 0. -1.
</event>
<event>
 5   0  0.5933905E-05  0.2071650E+04  0.7818609E-02  0.8573836E-01
       -1   -1    0    0    0  501  0.00000000000E+00  0.00000000000E+00  0.13024474703E+04  0.13024474703E+04  0.50400001928E-02 0.  1.
        1   -1    0    0  501    0  0.00000000000E+00  0.00000000000E+00 -0.82378255268E+03  0.82378255270E+03  0.50400001928E-02 0. -1.
    10030    2    1    2    0    0  0.00000000000E+00  0.00000000000E+00  0.47866491759E+03  0.21262300230E+04  0.20716500687E+04 0.  0.
        2    1    3    3  502    0  0.13492109947E+03 -0.68132896403E+03  0.10280316381E+04  0.12406699437E+04  0.25500000920E-02 0.  1.
       -2    1    3    3    0  502 -0.13492109947E+03  0.68132896403E+03 -0.54936672054E+03  0.88556007924E+03  0.25500000920E-02 0. -1.
</event>
<event>
 5   0  0.4615125E-05  0.2133344E+04  0.7818609E-02  0.8546696E-01
        4   -1    0    0  501    0  0.00000000000E+00  0.00000000000E+00  0.95846648236E+03  0.95846732376E+03  0.12699999809E+01 0.  1.
       -4   -1    0    0    0  501  0.00000000000E+00  0.00000000000E+00 -0.11870913736E+04  0.11870920529E+04  0.12699999809E+01 0. -1.
    10030    2    1    2    0    0  0.00000000000E+00  0.00000000000E+00 -0.22862489119E+03  0.21455593767E+04  0.21333437833E+04 0.  0.
        1    1    3    3  502    0  0.29850358631E+03  0.98963703837E+03 -0.37907460492E+03  0.11009920140E+04  0.50400001928E-02 0. -1.
       -1    1    3    3    0  502 -0.29850358631E+03 -0.98963703837E+03  0.15044971373E+03  0.10445673627E+04  0.50400001928E-02 0.  1.
</event>
<event>
 5   0  0.5846187E-05  0.2089762E+04  0.7818609E-02  0.8565767E-01
       -1   -1    0    0    0  501  0.00000000000E+00  0.00000000000E+00  0.11867104062E+04  0.11867104062E+04  0.50400001928E-02 0. -1.
        1   -1    0    0  501    0  0.00000000000E+00  0.00000000000E+00 -0.92000270433E+03  0.92000270434E+03  0.50400001928E-02 0.  1.
    10030    2    1    2    0    0  0.00000000000E+00  0.00000000000E+00  0.26670770188E+03  0.21067131106E+04  0.20897624583E+04 0.  0.
        5    1    3    3  502    0  0.59992461199E+03 -0.64577959066E+03 -0.43228001812E+03  0.98174789220E+03  0.46999998093E+01 0.  1.
       -5    1    3    3    0  502 -0.59992461199E+03  0.64577959066E+03  0.69898772000E+03  0.11249652183E+04  0.46999998093E+01 0. -1.
</event>
<event>
 5   0  0.1281470E-04  0.2066512E+04  0.7818609E-02  0.8576140E-01
        2   -1    0    0  501    0  0.00000000000E+00  0.00000000000E+00  0.20118434953E+04  0.20118434953E+04  0.25500000920E-02 0.  1.
       -2   -1    0    0    0  501  0.00000000000E+00  0.00000000000E+00 -0.53066670157E+03  0.53066670157E+03  0.25500000920E-02 0. -1.
    10030    2    1    2    0    0  0.00000000000E+00  0.00000000000E+00  0.14811767937E+04  0.25425101969E+04  0.20665123776E+04 0.  0.
        3    1    3    3  502    0 -0.34384305798E+03  0.35868069540E+03  0.18552090419E+04  0.19205937855E+04  0.10100000352E+00 0.  1.
       -3    1    3    3    0  502  0.34384305798E+03 -0.35868069540E+03 -0.37403224818E+03  0.62191641131E+03  0.10100000352E+00 0. -1.
</event>
<event>
 5   0  0.6052292E-05  0.2146143E+04  0.7818609E-02  0.8541185E-01
        1   -1    0    0  501    0  0.00000000000E+00  0.00000000000E+00  0.95013078603E+03  0.95013078605E+03  0.50400001928E-02 0. -1.
       -1   -1    0    0    0  501  0.00000000000E+00  0.00000000000E+00 -0.12119202799E+04  0.12119202799E+04  0.50400001928E-02 0.  1.
    10030    2    1    2    0    0  0.00000000000E+00  0.00000000000E+00 -0.26178949389E+03  0.21620510660E+04  0.21461433020E+04 0.  0.
        1    1    3    3  502    0 -0.31442436394E+02 -0.10234153935E+03  0.94473680287E+03  0.95078391036E+03  0.50400001928E-02 0. -1.
       -1    1    3    3    0  502  0.31442436394E+02  0.10234153935E+03 -0.12065262968E+04  0.12112671556E+04  0.50400001928E-02 0.  1.
</event>
<event>
 5   0  0.5933905E-05  0.2074872E+04  0.7818609E-02  0.8572394E-01
        1   -1    0    0  501    0  0.00000000000E+00  0.00000000000E+00  0.10117389055E+04  0.10117389055E+04  0.50400001928E-02 0. -1.
       -1   -1    0    0    0  501  0.00000000000E+00  0.00000000000E+00 -0.10637857493E+04  0.10637857493E+04  0.50400001928E-02 0.  1.
    10030    2    1    2    0    0  0.00000000000E+00  0.00000000000E+00 -0.52046843745E+02  0.20755246548E+04  0.20748719765E+04 0.  0.
        2    1    3    3  502    0 -0.82431238677E+03 -0.36797356621E+03  0.48538877875E+03  0.10249379118E+04  0.25500000920E-02 0. -1.
       -2    1    3    3    0  502  0.82431238677E+03  0.36797356621E+03 -0.53743562249E+03  0.10505867431E+04  0.25500000920E-02 0.  1.
</event>
<event>
 5   0  0.5846187E-05  0.2082493E+04  0.7818609E-02  0.8568995E-01
        1   -1    0    0  501    0  0.00000000000E+00  0.00000000000E+00  0.18751818865E+04  0.18751818865E+04  0.50400001928E-02 0. -1.
       -1   -1    0    0    0  501  0.00000000000E+00  0.00000000000E+00 -0.57818107815E+03  0.57818107818E+03  0.50400001928E-02 0.  1.
    10030    2    1    2    0    0  0.00000000000E+00  0.00000000000E+00  0.12970008084E+04  0.24533629647E+04  0.20824933949E+04 0.  0.
        5    1    3    3  502    0  0.36256102836E+03  0.42170706829E+03 -0.38854284286E+03  0.67843568706E+03  0.46999998093E+01 0.  1.
       -5    1    3    3    0  502 -0.36256102836E+03 -0.42170706829E+03  0.16855436512E+04  0.17749272776E+04  0.46999998093E+01 0. -1.
</event>
<event>
 5   0  0.1349252E-04  0.2101948E+04  0.7818609E-02  0.8560386E-01
       -2   -1    0    0    0  501  0.00000000000E+00  0.00000000000E+00  0.62632896770E+03  0.62632896770E+03  0.25500000920E-02 0. -1.
        2   -1    0    0  501    0  0.00000000000E+00  0.00000000000E+00 -0.17635242615E+04  0.17635242615E+04  0.25500000920E-02 0.  1.
    10030    2    1    2    0    0  0.00000000000E+00  0.00000000000E+00 -0.11371952938E+04  0.23898532292E+04  0.21019479825E+04 0.  0.
        2    1    3    3  502    0  0.25949648796E+03 -0.52688319481E+03  0.42233084576E+03  0.72340007709E+03  0.25500000920E-02 0. -1.
       -2    1    3    3    0  502 -0.25949648796E+03  0.52688319481E+03 -0.15595261396E+04  0.16664531521E+04  0.25500000920E-02 0.  1.
</event>
<event>
 5   0  0.1252477E-04  0.2041069E+04  0.7818609E-02  0.8587657E-01
       -2   -1    0    0    0  501  0.00000000000E+00  0.00000000000E+00  0.42500844051E+03  0.42500844051E+03  0.25500000920E-02 0.  1.
        2   -1    0    0  501    0  0.00000000000E+00  0.00000000000E+00 -0.24505166007E+04  0.24505166007E+04  0.25500000920E-02 0. -1.
    10030    2    1    2    0    0  0.00000000000E+00  0.00000000000E+00 -0.20255081602E+04  0.28755250412E+04  0.20410685818E+04 0.  0.
        4    1    3    3  502    0 -0.71731799860E+03 -0.19639299903E+03 -0.28209207676E+02  0.74425311117E+03  0.12699999809E+01 0.  1.
       -4    1    3    3    0  502  0.71731799860E+03  0.19639299903E+03 -0.19972989525E+04  0.21312719301E+04  0.12699999809E+01 0. -1.
</event>
<event>
 5   0  0.6221148E-05  0.2108000E+04  0.7818609E-02  0.8557728E-01
        1   -1    0    0  501    0  0.00000000000E+00  0.00000000000E+00  0.12437402813E+04  0.12437402813E+04  0.50400001928E-02 0. -1.
       -1   -1    0    0    0  501  0.00000000000E+00  0.00000000000E+00 -0.89320557859E+03  0.89320557861E+03  0.50400001928E-02 0.  1.
    10030    2    1    2    0    0  0.00000000000E+00  0.00000000000E+00  0.35053470266E+03  0.21369458599E+04  0.21079997700E+04 0.  0.
        3    1    3    3  502    0 -0.18557006544E+02  0.30442954965E+03  0.11980285528E+04  0.12362419410E+04  0.10100000352E+00 0. -1.
       -3    1    3    3    0  502  0.18557006544E+02 -0.30442954965E+03 -0.84749385015E+03  0.90070391885E+03  0.10100000352E+00 0.  1.
</event>
<event>
 5   0  0.1349252E-04  0.2105670E+04  0.7818609E-02  0.8558750E-01
       -2   -1    0    0    0  501  0.00000000000E+00  0.00000000000E+00  0.15268414398E+04  0.15268414398E+04  0.25500000920E-02 0.  1.
        2   -1    0    0  501    0  0.00000000000E+00  0.00000000000E+00 -0.72598314378E+03  0.72598314379E+03  0.25500000920E-02 0. -1.
    10030    2    1    2    0    0  0.00000000000E+00  0.00000000000E+00  0.80085829603E+03  0.22528245836E+04  0.21056696308E+04 0.  0.
        2    1    3    3  502    0 -0.41909388623E+03  0.80786890974E+03 -0.16587195319E+03  0.92509748981E+03  0.25500000920E-02 0. -1.
       -2    1    3    3    0  502  0.41909388623E+03 -0.80786890974E+03  0.96673024922E+03  0.13277270938E+04  0.25500000920E-02 0.  1.
</event>
<event>
 5   0  0.5846187E-05  0.2033430E+04  0.7818609E-02  0.8591149E-01
       -1   -1    0    0    0  501  0.00000000000E+00  0.00000000000E+00  0.16458346899E+04  0.16458346899E+04  0.50400001928E-02 0. -1.
        1   -1    0    0  501    0  0.00000000000E+00  0.00000000000E+00 -0.62807591844E+03  0.62807591846E+03  0.50400001928E-02 0.  1.
    10030    2    1    2    0    0  0.00000000000E+00  0.00000000000E+00  0.10177587714E+04  0.22739106083E+04  0.20334297475E+04 0.  0.
        5    1    3    3  502    0  0.61152784794E+03 -0.26172170911E+02  0.14166972050E+04  0.15432771468E+04  0.46999998093E+01 0. -1.
       -5    1    3    3    0  502 -0.61152784794E+03  0.26172170911E+02 -0.39893843354E+03  0.73063346151E+03  0.46999998093E+01 0.  1.
</event>
<event>
 5   0  0.4615125E-05  0.2078529E+04  0.7818609E-02  0.8570761E-01
       -3   -1    0    0    0  501  0.00000000000E+00  0.00000000000E+00  0.64872184702E+03  0.64872185488E+03  0.10100000352E+00 0. -1.
        3   -1    0    0  501    0  0.00000000000E+00  0.00000000000E+00 -0.16649206437E+04  0.16649206468E+04  0.10100000352E+00 0.  1.
    10030    2    1    2    0    0  0.00000000000E+00  0.00000000000E+00 -0.10161987967E+04  0.23136425016E+04  0.20785287179E+04 0.  0.
        5    1    3    3  502    0  0.64605764803E+03  0.24363972784E+03  0.35648221041E+03  0.77707944117E+03  0.46999998093E+01 0. -1.
       -5    1    3    3    0  502 -0.64605764803E+03 -0.24363972784E+03 -0.13726810071E+04  0.15365630605E+04  0.46999998093E+01 0.  1.
</event>
<event>
 5   0  0.6263616E-05  0.2058300E+04  0.7818609E-02  0.8579839E-01
        1   -1    0    0  501    0  0.00000000000E+00  0.00000000000E+00  0.16102410895E+04  0.16102410895E+04  0.50400001928E-02 0.  1.
       -1   -1    0    0    0  501  0.00000000000E+00  0.00000000000E+00 -0.65775818811E+03  0.65775818813E+03  0.50400001928E-02 0. -1.
    10030    2    1    2    0    0  0.00000000000E+00  0.00000000000E+00  0.95248290141E+03  0.22679992776E+04  0.20582995520E+04 0.  0.
        4    1    3    3  502    0 -0.27473178828E+03  0.46783017825E+03 -0.48738718352E+03  0.72930824123E+03  0.12699999809E+01 0. -1.
       -4    1    3    3    0  502  0.27473178828E+03 -0.46783017825E+03  0.14398700849E+04  0.15386910364E+04  0.12699999809E+01 0.  1.
</event>
<event>
 5   0  0.5933905E-05  0.1817132E+04  0.7818609E-02  0.8697241E-01
        1   -1    0    0  501    0  0.00000000000E+00  0.00000000000E+00  0.88760363742E+03  0.88760363744E+03  0.50400001928E-02 0.  1.
       -1   -1    0    0    0  501  0.00000000000E+00  0.00000000000E+00 -0.93002369355E+03  0.93002369357E+03  0.50400001928E-02 0. -1.
    10030    2    1    2    0    0  0.00000000000E+00  0.00000000000E+00 -0.42420056132E+02  0.18176273310E+04  0.18171322608E+04 0.  0.
        2    1    3    3  502    0  0.86681985283E+03 -0.26241938033E+02 -0.29225823783E+03  0.91513942881E+03  0.25500000920E-02 0. -1.
       -2    1    3    3    0  502 -0.86681985283E+03  0.26241938033E+02  0.24983818170E+03  0.90248790220E+03  0.25500000920E-02 0.  1.
</event>
<event>
 5   0  0.5846187E-05  0.2103918E+04  0.7818609E-02  0.8559519E-01
       -1   -1    0    0    0  501  0.00000000000E+00  0.00000000000E+00  0.45306726430E+03  0.45306726433E+03  0.50400001928E-02 0.  1.
        1   -1    0    0  501    0  0.00000000000E+00  0.00000000000E+00 -0.24425017770E+04  0.24425017770E+04  0.50400001928E-02 0. -1.
    10030    2    1    2    0    0  0.00000000000E+00  0.00000000000E+00 -0.19894345127E+04  0.28955690413E+04  0.21039178674E+04 0.  0.
        5    1    3    3  502    0  0.30762897788E+03 -0.96041061686E+03 -0.14066153143E+04  0.17307838899E+04  0.46999998093E+01 0. -1.
       -5    1    3    3    0  502 -0.30762897788E+03  0.96041061686E+03 -0.58281919833E+03  0.11647851514E+04  0.46999998093E+01 0.  1.
</event>
<event>
 5   0  0.6052292E-05  0.2143916E+04  0.7818609E-02  0.8542141E-01
       -1   -1    0    0    0  501  0.00000000000E+00  0.00000000000E+00  0.64199284025E+03  0.64199284027E+03  0.50400001928E-02 0. -1.
        1   -1    0    0  501    0  0.00000000000E+00  0.00000000000E+00 -0.17898857376E+04  0.17898857376E+04  0.50400001928E-02 0.  1.
    10030    2    1    2    0    0  0.00000000000E+00  0.00000000000E+00 -0.11478928974E+04  0.24318785779E+04  0.21439158831E+04 0.  0.
        1    1    3    3  502    0  0.25049404456E+03  0.87639675132E+03 -0.12138810762E+04  0.15180005927E+04  0.50400001928E-02 0.  1.
       -1    1    3    3    0  502 -0.25049404456E+03 -0.87639675132E+03  0.65988178867E+02  0.91387798522E+03  0.50400001928E-02 0. -1.
</event>
<event>
 5   0  0.1281470E-04  0.2072077E+04  0.7818609E-02  0.8573645E-01
       -2   -1    0    0    0  501  0.00000000000E+00  0.00000000000E+00  0.91376825218E+03  0.91376825219E+03  0.25500000920E-02 0. -1.
        2   -1    0    0  501    0  0.00000000000E+00  0.00000000000E+00 -0.11746690817E+04  0.11746690817E+04  0.25500000920E-02 0.  1.
    10030    2    1    2    0    0  0.00000000000E+00  0.00000000000E+00 -0.26090082952E+03  0.20884373339E+04  0.20720765562E+04 0.  0.
        3    1    3    3  502    0  0.10415577782E+01  0.40143964589E+03 -0.10930940600E+04  0.11644782129E+04  0.10100000352E+00 0.  1.
       -3    1    3    3    0  502 -0.10415577782E+01 -0.40143964589E+03  0.83219323050E+03  0.92395912097E+03  0.10100000352E+00 0. -1.
</event>
<event>
 5   0  0.1281470E-04  0.1639468E+04  0.7818609E-02  0.8796662E-01
        2   -1    0    0  501    0  0.00000000000E+00  0.00000000000E+00  0.74778040518E+03  0.74778040518E+03  0.25500000920E-02 0. -1.
       -2   -1    0    0    0  501  0.00000000000E+00  0.00000000000E+00 -0.89861108391E+03  0.89861108392E+03  0.25500000920E-02 0.  1.
    10030    2    1    2    0    0  0.00000000000E+00  0.00000000000E+00 -0.15083067874E+03  0.16463914891E+04  0.16394679142E+04 0.  0.
        3    1    3    3  502    0  0.15503592085E+03  0.80282719123E+03 -0.16893043933E+02  0.81783434806E+03  0.10100000352E+00 0. -1.
       -3    1    3    3    0  502 -0.15503592085E+03 -0.80282719123E+03 -0.13393763480E+03  0.82855714103E+03  0.10100000352E+00 0.  1.
</event>
<event>
 5   0  0.5846187E-05  0.2025556E+04  0.7818609E-02  0.8594765E-01
        1   -1    0    0  501    0  0.00000000000E+00  0.00000000000E+00  0.80395775482E+03  0.80395775483E+03  0.50400001928E-02 0.  1.
       -1   -1    0    0    0  501  0.00000000000E+00  0.00000000000E+00 -0.12758372888E+04  0.12758372888E+04  0.50400001928E-02 0. -1.
    10030    2    1    2    0    0  0.00000000000E+00  0.00000000000E+00 -0.47187953397E+03  0.20797950436E+04  0.20255560049E+04 0.  0.
        5    1    3    3  502    0 -0.39796995324E+03 -0.92785919903E+03 -0.15383342502E+03  0.10212686177E+04  0.46999998093E+01 0. -1.
       -5    1    3    3    0  502  0.39796995324E+03  0.92785919903E+03 -0.31804610895E+03  0.10585264259E+04  0.46999998093E+01 0.  1.
</event>
<event>
 5   0  0.6221148E-05  0.2115081E+04  0.7818609E-02  0.8554629E-01
        1   -1    0    0  501    0  0.00000000000E+00  0.00000000000E+00  0.10235778481E+04  0.10235778481E+04  0.50400001928E-02 0. -1.
       -1   -1    0    0    0  501  0.00000000000E+00  0.00000000000E+00 -0.10926301935E+04  0.10926301935E+04  0.50400001928E-02 0.  1.
    10030    2    1    2    0    0  0.00000000000E+00  0.00000000000E+00 -0.69052345399E+02  0.21162080417E+04  0.21150811448E+04 0.  0.
        3    1    3    3  502    0  0.90007178189E+03  0.50630317985E+02 -0.58772165821E+03  0.10761549142E+04  0.10100000352E+00 0.  1.
       -3    1    3    3    0  502 -0.90007178189E+03 -0.50630317985E+02  0.51866931281E+03  0.10400531274E+04  0.10100000352E+00 0. -1.
</event>
<event>
 5   0  0.6221148E-05  0.2080864E+04  0.7818609E-02  0.8569720E-01
       -1   -1    0    0    0  501  0.00000000000E+00  0.00000000000E+00  0.53087336096E+03  0.53087336098E+03  0.50400001928E-02 0.  1.
        1   -1    0    0  501    0  0.00000000000E+00  0.00000000000E+00 -0.20390909540E+04  0.20390909540E+04  0.50400001928E-02 0. -1.
    10030    2    1    2    0    0  0.00000000000E+00  0.00000000000E+00 -0.15082175930E+04  0.25699643150E+04  0.20808643090E+04 0.  0.
        3    1    3    3  502    0  0.30142106888E+03  0.96648740954E+03 -0.45783534971E+03  0.11111101616E+04  0.10100000352E+00 0.  1.
       -3    1    3    3    0  502 -0.30142106888E+03 -0.96648740954E+03 -0.10503822433E+04  0.14588541534E+04  0.10100000352E+00 0. -1.
</event>
<event>
 5   0  0.1349252E-04  0.2344079E+04  0.7818609E-02  0.8460741E-01
       -2   -1    0    0    0  501  0.00000000000E+00  0.00000000000E+00  0.62968363819E+03  0.62968363820E+03  0.25500000920E-02 0. -1.
        2   -1    0    0  501    0  0.00000000000E+00  0.00000000000E+00 -0.21815342119E+04  0.21815342119E+04  0.25500000920E-02 0.  1.
    10030    2    1    2    0    0  0.00000000000E+00  0.00000000000E+00 -0.15518505737E+04  0.28112178501E+04  0.23440788378E+04 0.  0.
        2    1    3    3  502    0 -0.12387556879E+03  0.11631696903E+04 -0.68806170532E+03  0.13571064053E+04  0.25500000920E-02 0.  1.
       -2    1    3    3    0  502  0.12387556879E+03 -0.11631696903E+04 -0.86378886840E+03  0.14541114449E+04  0.25500000920E-02 0. -1.
</event>
<event>
 5   0  0.1349252E-04  0.2073445E+04  0.7818609E-02  0.8573032E-01
        2   -1    0    0  501    0  0.00000000000E+00  0.00000000000E+00  0.84378938774E+03  0.84378938774E+03  0.25500000920E-02 0. -1.
       -2   -1    0    0    0  501  0.00000000000E+00  0.00000000000E+00 -0.12737700873E+04  0.12737700873E+04  0.25500000920E-02 0.  1.
    10030    2    1    2    0    0  0.00000000000E+00  0.00000000000E+00 -0.42998069958E+03  0.21175594751E+04  0.20734451351E+04 0.  0.
        2    1    3    3  502    0  0.61843239743E+03 -0.64949373152E+03  0.31616436371E+03  0.95092620237E+03  0.25500000920E-02 0. -1.
       -2    1    3    3    0  502 -0.61843239743E+03  0.64949373152E+03 -0.74614506329E+03  0.11666332727E+04  0.25500000920E-02 0.  1.
</event>
<event>
 5   0  0.6263616E-05  0.2173517E+04  0.7818609E-02  0.8529533E-01
        1   -1    0    0  501    0  0.00000000000E+00  0.00000000000E+00  0.10949982604E+04  0.10949982604E+04  0.50400001928E-02 0.  1.
       -1   -1    0    0    0  501  0.00000000000E+00  0.00000000000E+00 -0.10785804138E+04  0.10785804138E+04  0.50400001928E-02 0. -1.
    10030    2    1    2    0    0  0.00000000000E+00  0.00000000000E+00  0.16417846608E+02  0.21735786742E+04  0.21735166682E+04 0.  0.
        4    1    3    3  502    0  0.36462365321E+03  0.78946276347E+03 -0.64360733949E+03  0.10818659269E+04  0.12699999809E+01 0. -1.
       -4    1    3    3    0  502 -0.36462365321E+03 -0.78946276347E+03  0.66002518609E+03  0.10917127473E+04  0.12699999809E+01 0.  1.
</event>
<event>
 5   0  0.1235817E-04  0.2081247E+04  0.7818609E-02  0.8569549E-01
       -2   -1    0    0    0  501  0.00000000000E+00  0.00000000000E+00  0.86065614798E+03  0.86065614798E+03  0.25500000920E-02 0. -1.
        2   -1    0    0  501    0  0.00000000000E+00  0.00000000000E+00 -0.12582233367E+04  0.12582233367E+04  0.25500000920E-02 0.  1.
    10030    2    1    2    0    0  0.00000000000E+00  0.00000000000E+00 -0.39756718873E+03  0.21188794847E+04  0.20812473666E+04 0.  0.
        1    1    3    3  502    0 -0.37276567425E+03  0.19533561486E+03  0.77015374478E+03  0.87763719210E+03  0.50400001928E-02 0. -1.
       -1    1    3    3    0  502  0.37276567425E+03 -0.19533561486E+03 -0.11677209335E+04  0.12412422926E+04  0.50400001928E-02 0.  1.
</event>
<event>
 5   0  0.4615125E-05  0.2106366E+04  0.7818609E-02  0.8558444E-01
        3   -1    0    0  501    0  0.00000000000E+00  0.00000000000E+00  0.59305057980E+03  0.59305058840E+03  0.10100000352E+00 0. -1.
       -3   -1    0    0    0  501  0.00000000000E+00  0.00000000000E+00 -0.18703208118E+04  0.18703208145E+04  0.10100000352E+00 0.  1.
    10030    2    1    2    0    0  0.00000000000E+00  0.00000000000E+00 -0.12772702320E+04  0.24633714029E+04  0.21063664029E+04 0.  0.
        3    1    3    3  502    0 -0.62026175718E+03 -0.40680324400E+03  0.23573362573E+03  0.77832119285E+03  0.10100000352E+00 0. -1.
       -3    1    3    3    0  502  0.62026175718E+03  0.40680324400E+03 -0.15130038577E+04  0.16850502100E+04  0.10100000352E+00 0.  1.
</event>
<event>
 5   0  0.1325673E-04  0.2089991E+04  0.7818609E-02  0.8565665E-01
       -2   -1    0    0    0  501  0.00000000000E+00  0.00000000000E+00  0.81316912995E+03  0.81316912995E+03  0.25500000920E-02 0.  1.
        2   -1    0    0  501    0  0.00000000000E+00  0.00000000000E+00 -0.13429128154E+04  0.13429128154E+04  0.25500000920E-02 0. -1.
    10030    2    1    2    0    0  0.00000000000E+00  0.00000000000E+00 -0.52974368547E+03  0.21560819454E+04  0.20899906657E+04 0.  0.
        5    1    3    3  502    0  0.10682767677E+03  0.10329360637E+04 -0.14445847771E+03  0.10484557244E+04  0.46999998093E+01 0.  1.
       -5    1    3    3    0  502 -0.10682767677E+03 -0.10329360637E+04 -0.38528520777E+03  0.11076262210E+04  0.46999998093E+01 0. -1.
</event>
<event>
 5   0  0.1325673E-04  0.2115880E+04  0.7818609E-02  0.8554280E-01
       -2   -1    0    0    0  501  0.00000000000E+00  0.00000000000E+00  0.98065419761E+03  0.98065419762E+03  0.25500000920E-02 0.  1.
        2   -1    0    0  501    0  0.00000000000E+00  0.00000000000E+00 -0.11413164640E+04  0.11413164640E+04  0.25500000920E-02 0. -1.
    10030    2    1    2    0    0  0.00000000000E+00  0.00000000000E+00 -0.16066226642E+03  0.21219706617E+04  0.21158797520E+04 0.  0.
        5    1    3    3  502    0  0.97681758433E+03 -0.32765689731E+03  0.16053321507E+03  0.10427485980E+04  0.46999998093E+01 0. -1.
       -5    1    3    3    0  502 -0.97681758433E+03  0.32765689731E+03 -0.32119548149E+03  0.10792220637E+04  0.46999998093E+01 0.  1.
</event>
<event>
 5   0  0.1349252E-04  0.1876871E+04  0.7818609E-02  0.8666456E-01
        2   -1    0    0  501    0  0.00000000000E+00  0.00000000000E+00  0.10169694989E+04  0.10169694989E+04  0.25500000920E-02 0. -1.
       -2   -1    0    0    0  501  0.00000000000E+00  0.00000000000E+00 -0.86596574198E+03  0.86596574198E+03  0.25500000920E-02 0.  1.
    10030    2    1    2    0    0  0.00000000000E+00  0.00000000000E+00  0.15100375696E+03  0.18829352409E+04  0.18768705301E+04 0.  0.
        2    1    3    3  502    0  0.56460484368E+03 -0.33616246847E+03 -0.59664579929E+03  0.88756410728E+03  0.25500000920E-02 0.  1.
       -2    1    3    3    0  502 -0.56460484368E+03  0.33616246847E+03  0.74764955625E+03  0.99537113364E+03  0.25500000920E-02 0. -1.
</event>
<event>
 5   0  0.5846187E-05  0.2093155E+04  0.7818609E-02  0.8564265E-01
        1   -1    0    0  501    0  0.00000000000E+00  0.00000000000E+00  0.14904920139E+04  0.14904920139E+04  0.50400001928E-02 0. -1.
       -1   -1    0    0    0  501  0.00000000000E+00  0.00000000000E+00 -0.73487421217E+03  0.73487421219E+03  0.50400001928E-02 0.  1.
    10030    2    1    2    0    0  0.00000000000E+00  0.00000000000E+00  0.75561780177E+03  0.22253662261E+04  0.20931546952E+04 0.  0.
        5    1    3    3  502    0  0.81542588412E+03  0.10371540581E+03  0.10665107607E+04  0.13465301892E+04  0.46999998093E+01 0. -1.
       -5    1    3    3    0  502 -0.81542588412E+03 -0.10371540581E+03 -0.31089295889E+03  0.87883603691E+03  0.46999998093E+01 0.  1.
</event>
<event>
 5   0  0.1281470E-04  0.2087428E+04  0.7818609E-02  0.8566802E-01
        2   -1    0    0  501    0  0.00000000000E+00  0.00000000000E+00  0.14502093200E+04  0.14502093200E+04  0.25500000920E-02 0.  1.
       -2   -1    0    0    0  501  0.00000000000E+00  0.00000000000E+00 -0.75115998626E+03  0.75115998626E+03  0.25500000920E-02 0. -1.
    10030    2    1    2    0    0  0.00000000000E+00  0.00000000000E+00  0.69904933372E+03  0.22013693062E+04  0.20874282865E+04 0.  0.
        3    1    3    3  502    0  0.10167143987E+04  0.18583494395E+03  0.19635047472E+03  0.10520438746E+04  0.10100000352E+00 0. -1.
       -3    1    3    3    0  502 -0.10167143987E+04 -0.18583494395E+03  0.50269885900E+03  0.11493254317E+04  0.10100000352E+00 0.  1.
</event>
<event>
 5   0  0.6221148E-05  0.2095697E+04  0.7818609E-02  0.8563141E-01
       -1   -1    0    0    0  501  0.00000000000E+00  0.00000000000E+00  0.57640955966E+03  0.57640955968E+03  0.50400001928E-02 0.  1.
        1   -1    0    0  501    0  0.00000000000E+00  0.00000000000E+00 -0.19048715333E+04  0.19048715333E+04  0.50400001928E-02 0. -1.
    10030    2    1    2    0    0  0.00000000000E+00  0.00000000000E+00 -0.13284619736E+04  0.24812810929E+04  0.20956966973E+04 0.  0.
        3    1    3    3  502    0  0.18432612030E+03 -0.63721494923E+03  0.29616345988E+03  0.72645152303E+03  0.10100000352E+00 0.  1.
       -3    1    3    3    0  502 -0.18432612030E+03  0.63721494923E+03 -0.16246254335E+04  0.17548295699E+04  0.10100000352E+00 0. -1.
</event>
<event>
 5   0  0.1252477E-04  0.2115744E+04  0.7818609E-02  0.8554339E-01
        2   -1    0    0  501    0  0.00000000000E+00  0.00000000000E+00  0.17967655143E+04  0.17967655143E+04  0.25500000920E-02 0.  1.
       -2   -1    0    0    0  501  0.00000000000E+00  0.00000000000E+00 -0.62283780578E+03  0.62283780579E+03  0.25500000920E-02 0. -1.
    10030    2    1    2    0    0  0.00000000000E+00  0.00000000000E+00  0.11739277086E+04  0.24196033201E+04  0.21157443045E+04 0.  0.
        4    1    3    3  502    0  0.81235708679E+03 -0.67573206611E+03  0.64475919022E+03  0.12378424326E+04  0.12699999809E+01 0. -1.
       -4    1    3    3    0  502 -0.81235708679E+03  0.67573206611E+03  0.52916851833E+03  0.11817608875E+04  0.12699999809E+01 0.  1.
</event>
<event>
 5   0  0.5933905E-05  0.2089977E+04  0.7818609E-02  0.8565671E-01
       -1   -1    0    0    0  501  0.00000000000E+00  0.00000000000E+00  0.85326428099E+03  0.85326428100E+03  0.50400001928E-02 0.  1.
        1   -1    0    0  501    0  0.00000000000E+00  0.00000000000E+00 -0.12797922011E+04  0.12797922011E+04  0.50400001928E-02 0. -1.
    10030    2    1    2    0    0  0.00000000000E+00  0.00000000000E+00 -0.42652792006E+03  0.21330564821E+04  0.20899770068E+04 0.  0.
        2    1    3    3  502    0  0.41804831639E+03  0.87424796706E+02 -0.11866486636E+04  0.12611671343E+04  0.25500000920E-02 0. -1.
       -2    1    3    3    0  502 -0.41804831639E+03 -0.87424796706E+02  0.76012074354E+03  0.87188934772E+03  0.25500000920E-02 0.  1.
</event>
<event>
 5   0  0.6052292E-05  0.2132780E+04  0.7818609E-02  0.8546940E-01
       -1   -1    0    0    0  501  0.00000000000E+00  0.00000000000E+00  0.62727849027E+03  0.62727849029E+03  0.50400001928E-02 0. -1.
        1   -1    0    0  501    0  0.00000000000E+00  0.00000000000E+00 -0.18128906587E+04  0.18128906587E+04  0.50400001928E-02 0.  1.
    10030    2    1    2    0    0  0.00000000000E+00  0.00000000000E+00 -0.11856121684E+04  0.24401691490E+04  0.21327797031E+04 0.  0.
        1    1    3    3  502    0 -0.92144371760E+02 -0.97514445491E+03 -0.10752286622E+04  0.14544806527E+04  0.50400001928E-02 0.  1.
       -1    1    3    3    0  502  0.92144371760E+02  0.97514445491E+03 -0.11038350627E+03  0.98568849627E+03  0.50400001928E-02 0. -1.
</event>
<event>
 5   0  0.1325673E-04  0.2113263E+04  0.7818609E-02  0.8555423E-01
       -2   -1    0    0    0  501  0.00000000000E+00  0.00000000000E+00  0.99870226831E+03  0.99870226831E+03  0.25500000920E-02 0. -1.
        2   -1    0    0  501    0  0.00000000000E+00  0.00000000000E+00 -0.11179207103E+04  0.11179207103E+04  0.25500000920E-02 0.  1.
    10030    2    1    2    0    0  0.00000000000E+00  0.00000000000E+00 -0.11921844200E+03  0.21166229786E+04  0.21132628319E+04 0.  0.
        5    1    3    3  502    0  0.10248726638E+04  0.19592412408E+03 -0.22629986212E+03  0.10677003123E+04  0.46999998093E+01 0. -1.
       -5    1    3    3    0  502 -0.10248726638E+04 -0.19592412408E+03  0.10708142012E+03  0.10489226663E+04  0.46999998093E+01 0.  1.
</event>
<event>
 5   0  0.5846187E-05  0.2161958E+04  0.7818609E-02  0.8534431E-01
       -1   -1    0    0    0  501  0.00000000000E+00  0.00000000000E+00  0.66349562578E+03  0.66349562580E+03  0.50400001928E-02 0. -1.
        1   -1    0    0  501    0  0.00000000000E+00  0.00000000000E+00 -0.17611496742E+04  0.17611496742E+04  0.50400001928E-02 0.  1.
    10030    2    1    2    0    0  0.00000000000E+00  0.00000000000E+00 -0.10976540484E+04  0.24246453000E+04  0.21619575437E+04 0.  0.
        5    1    3    3  502    0  0.75403682525E+03 -0.84806514773E+02  0.31460721237E+03  0.82143987415E+03  0.46999998093E+01 0. -1.
       -5    1    3    3    0  502 -0.75403682525E+03  0.84806514773E+02 -0.14122612608E+04  0.16032054259E+04  0.46999998093E+01 0.  1.
</event>
<event>
 5   0  0.1281470E-04  0.2105783E+04  0.7818609E-02  0.8558700E-01
        2   -1    0    0  501    0  0.00000000000E+00  0.00000000000E+00  0.15065942068E+04  0.15065942068E+04  0.25500000920E-02 0. -1.
       -2   -1    0    0    0  501  0.00000000000E+00  0.00000000000E+00 -0.73581916891E+03  0.73581916892E+03  0.25500000920E-02 0.  1.
    10030    2    1    2    0    0  0.00000000000E+00  0.00000000000E+00  0.77077503786E+03  0.22424133757E+04  0.21057833669E+04 0.  0.
        3    1    3    3  502    0 -0.21077239641E+03  0.12035849441E+03 -0.70562144339E+03  0.74619890233E+03  0.10100000352E+00 0.  1.
       -3    1    3    3    0  502  0.21077239641E+03 -0.12035849441E+03  0.14763964813E+04  0.14962144734E+04  0.10100000352E+00 0. -1.
</event>
<event>
 5   0  0.1235817E-04  0.2119686E+04  0.7818609E-02  0.8552621E-01
        2   -1    0    0  501    0  0.00000000000E+00  0.00000000000E+00  0.10529196355E+04  0.10529196355E+04  0.25500000920E-02 0. -1.
       -2   -1    0    0    0  501  0.00000000000E+00  0.00000000000E+00 -0.10668117133E+04  0.10668117133E+04  0.25500000920E-02 0.  1.
    10030    2    1    2    0    0  0.00000000000E+00  0.00000000000E+00 -0.13892077732E+02  0.21197313488E+04  0.21196858261E+04 0.  0.
        1    1    3    3  502    0 -0.56407910019E+03  0.88838062292E+03 -0.13289173797E+03  0.10606910844E+04  0.50400001928E-02 0. -1.
       -1    1    3    3    0  502  0.56407910019E+03 -0.88838062292E+03  0.11899966024E+03  0.10590402644E+04  0.50400001928E-02 0.  1.
</event>
<event>
 5   0  0.5933905E-05  0.1862990E+04  0.7818609E-02  0.8673501E-01
       -1   -1    0    0    0  501  0.00000000000E+00  0.00000000000E+00  0.10228120652E+04  0.10228120652E+04  0.50400001928E-02 0. -1.
        1   -1    0    0  501    0  0.00000000000E+00  0.00000000000E+00 -0.84833040710E+03  0.84833040711E+03  0.50400001928E-02 0.  1.
    10030    2    1    2    0    0  0.00000000000E+00  0.00000000000E+00  0.17448165806E+03  0.18711424723E+04  0.18629896142E+04 0.  0.
        2    1    3    3  502    0  0.31969915101E+03  0.43986352559E+03 -0.67237250561E+03  0.86473825786E+03  0.25500000920E-02 0.  1.
       -2    1    3    3    0  502 -0.31969915101E+03 -0.43986352559E+03  0.84685416367E+03  0.10064042144E+04  0.25500000920E-02 0. -1.
</event>
<event>
 5   0  0.5933905E-05  0.2027610E+04  0.7818609E-02  0.8593820E-01
        1   -1    0    0  501    0  0.00000000000E+00  0.00000000000E+00  0.71319231466E+03  0.71319231468E+03  0.50400001928E-02 0.  1.
       -1   -1    0    0    0  501  0.00000000000E+00  0.00000000000E+00 -0.14411264388E+04  0.14411264389E+04  0.50400001928E-02 0. -1.
    10030    2    1    2    0    0  0.00000000000E+00  0.00000000000E+00 -0.72793412419E+03  0.21543187535E+04  0.20276097264E+04 0.  0.
        2    1    3    3  502    0 -0.85173891869E+03  0.31245833602E+03  0.11675724652E+03  0.91472490509E+03  0.25500000920E-02 0.  1.
       -2    1    3    3    0  502  0.85173891869E+03 -0.31245833602E+03 -0.84469137071E+03  0.12395938485E+04  0.25500000920E-02 0. -1.
</event>
<event>
 5   0  0.1281470E-04  0.2069794E+04  0.7818609E-02  0.8574667E-01
        2   -1    0    0  501    0  0.00000000000E+00  0.00000000000E+00  0.21343615615E+04  0.21343615615E+04  0.25500000920E-02 0.  1.
       -2   -1    0    0    0  501  0.00000000000E+00  0.00000000000E+00 -0.50179481594E+03  0.50179481595E+03  0.25500000920E-02 0. -1.
    10030    2    1    2    0    0  0.00000000000E+00  0.00000000000E+00  0.16325667455E+04  0.26361563774E+04  0.20697937742E+04 0.  0.
        3    1    3    3  502    0 -0.18395135120E+03 -0.92692671205E+03  0.13535997696E+04  0.16508372347E+04  0.10100000352E+00 0.  1.
       -3    1    3    3    0  502  0.18395135120E+03  0.92692671205E+03  0.27896697596E+03  0.98531914271E+03  0.10100000352E+00 0. -1.
</event>
<event>
 5   0  0.1281470E-04  0.2103764E+04  0.7818609E-02  0.8559587E-01
        2   -1    0    0  501    0  0.00000000000E+00  0.00000000000E+00  0.16400824676E+04  0.16400824676E+04  0.25500000920E-02 0.  1.
       -2   -1    0    0    0  501  0.00000000000E+00  0.00000000000E+00 -0.67463392081E+03  0.67463392082E+03  0.25500000920E-02 0. -1.
    10030    2    1    2    0    0  0.00000000000E+00  0.00000000000E+00  0.96544854682E+03  0.23147163885E+04  0.21037635472E+04 0.  0.
        3    1    3    3  502    0  0.54636645331E+03  0.83024413922E+03  0.10375433737E+03  0.99929305248E+03  0.10100000352E+00 0. -1.
       -3    1    3    3    0  502 -0.54636645331E+03 -0.83024413922E+03  0.86169420945E+03  0.13154233360E+04  0.10100000352E+00 0.  1.
</event>
<event>
 5   0  0.6263616E-05  0.2142540E+04  0.7818609E-02  0.8542732E-01
        1   -1    0    0  501    0  0.00000000000E+00  0.00000000000E+00  0.13886019843E+04  0.13886019843E+04  0.50400001928E-02 0. -1.
       -1   -1    0    0    0  501  0.00000000000E+00  0.00000000000E+00 -0.82645650043E+03  0.82645650044E+03  0.50400001928E-02 0.  1.
    10030    2    1    2    0    0  0.00000000000E+00  0.00000000000E+00  0.56214548388E+03  0.22150584848E+04  0.21425397420E+04 0.  0.
        4    1    3    3  502    0 -0.46009779736E+03  0.94475760551E+03  0.49635289276E+03  0.11621638109E+04  0.12699999809E+01 0.  1.
       -4    1    3    3    0  502  0.46009779736E+03 -0.94475760551E+03  0.65792591118E+02  0.10528946739E+04  0.12699999809E+01 0. -1.
</event>
<event>
 5   0  0.6263616E-05  0.2171241E+04  0.7818609E-02  0.8530494E-01
        1   -1    0    0  501    0  0.00000000000E+00  0.00000000000E+00  0.25568880930E+04  0.25568880930E+04  0.50400001928E-02 0.  1.
       -1   -1    0    0    0  501  0.00000000000E+00  0.00000000000E+00 -0.46094007504E+03  0.46094007507E+03  0.50400001928E-02 0. -1.
    10030    2    1    2    0    0  0.00000000000E+00  0.00000000000E+00  0.20959480180E+04  0.30178281681E+04  0.21712412943E+04 0.  0.
        4    1    3    3  502    0  0.70249576585E+03 -0.26738760266E+03 -0.40755372515E+02  0.75276758989E+03  0.12699999809E+01 0. -1.
       -4    1    3    3    0  502 -0.70249576585E+03  0.26738760266E+03  0.21367033905E+04  0.22650605782E+04  0.12699999809E+01 0.  1.
</event>
<event>
 5   0  0.6052292E-05  0.2053475E+04  0.7818609E-02  0.8582019E-01
        1   -1    0    0  501    0  0.00000000000E+00  0.00000000000E+00  0.15092619281E+04  0.15092619281E+04  0.50400001928E-02 0.  1.
       -1   -1    0    0    0  501  0.00000000000E+00  0.00000000000E+00 -0.69848071757E+03  0.69848071759E+03  0.50400001928E-02 0. -1.
    10030    2    1    2    0    0  0.00000000000E+00  0.00000000000E+00  0.81078121054E+03  0.22077426457E+04  0.20534754487E+04 0.  0.
        1    1    3    3  502    0 -0.50932448425E+03  0.48479290328E+02  0.13624502966E+04  0.14553461728E+04  0.50400001928E-02 0.  1.
       -1    1    3    3    0  502  0.50932448425E+03 -0.48479290328E+02 -0.55166908610E+03  0.75239647290E+03  0.50400001928E-02 0. -1.
</event>
<event>
 5   0  0.6052292E-05  0.2122802E+04  0.7818609E-02  0.8551265E-01
       -1   -1    0    0    0  501  0.00000000000E+00  0.00000000000E+00  0.19245380848E+04  0.19245380848E+04  0.50400001928E-02 0. -1.
        1   -1    0    0  501    0  0.00000000000E+00  0.00000000000E+00 -0.58537276979E+03  0.58537276982E+03  0.50400001928E-02 0.  1.
    10030    2    1    2    0    0  0.00000000000E+00  0.00000000000E+00  0.13391653150E+04  0.25099108546E+04  0.21228021004E+04 0.  0.
        1    1    3    3  502    0  0.18272214984E+03  0.65915464707E+03  0.16291878858E+04  0.17669537062E+04  0.50400001928E-02 0. -1.
       -1    1    3    3    0  502 -0.18272214984E+03 -0.65915464707E+03 -0.29002257075E+03  0.74295714841E+03  0.50400001928E-02 0.  1.
</event>
<event>
 5   0  0.5933905E-05  0.2101152E+04  0.7818609E-02  0.8560736E-01
        1   -1    0    0  501    0  0.00000000000E+00  0.00000000000E+00  0.16536822268E+04  0.16536822268E+04  0.50400001928E-02 0. -1.
       -1   -1    0    0    0  501  0.00000000000E+00  0.00000000000E+00 -0.66742592331E+03  0.66742592333E+03  0.50400001928E-02 0.  1.
    10030    2    1    2    0    0  0.00000000000E+00  0.00000000000E+00  0.98625630345E+03  0.23211081501E+04  0.21011524334E+04 0.  0.
        2    1    3    3  502    0  0.26106667810E+03 -0.83879795207E+03 -0.14335793960E+03  0.89010634964E+03  0.25500000920E-02 0.  1.
       -2    1    3    3    0  502 -0.26106667810E+03  0.83879795207E+03  0.11296142430E+04  0.14310018005E+04  0.25500000920E-02 0. -1.
</event>
<event>
 5   0  0.5846187E-05  0.2083620E+04  0.7818609E-02  0.8568493E-01
        1   -1    0    0  501    0  0.00000000000E+00  0.00000000000E+00  0.12560673708E+04  0.12560673708E+04  0.50400001928E-02 0. -1.
       -1   -1    0    0    0  501  0.00000000000E+00  0.00000000000E+00 -0.86410036584E+03  0.86410036586E+03  0.50400001928E-02 0.  1.
    10030    2    1    2    0    0  0.00000000000E+00  0.00000000000E+00  0.39196700491E+03  0.21201677366E+04  0.20836201906E+04 0.  0.
        5    1    3    3  502    0  0.47819346342E+02 -0.99086838784E+02 -0.85816149275E+03  0.86519831781E+03  0.46999998093E+01 0.  1.
       -5    1    3    3    0  502 -0.47819346342E+02  0.99086838784E+02  0.12501284977E+04  0.12549694188E+04  0.46999998093E+01 0. -1.
</event>
<event>
 5   0  0.5933905E-05  0.2065387E+04  0.7818609E-02  0.8576646E-01
        1   -1    0    0  501    0  0.00000000000E+00  0.00000000000E+00  0.19657923957E+04  0.19657923957E+04  0.50400001928E-02 0. -1.
       -1   -1    0    0    0  501  0.00000000000E+00  0.00000000000E+00 -0.54250660470E+03  0.54250660473E+03  0.50400001928E-02 0.  1.
    10030    2    1    2    0    0  0.00000000000E+00  0.00000000000E+00  0.14232857910E+04  0.25082990004E+04  0.20653865093E+04 0.  0.
        2    1    3    3  502    0 -0.96465825674E+03  0.34670812889E+03  0.55955438502E+03  0.11678498143E+04  0.25500000920E-02 0.  1.
       -2    1    3    3    0  502  0.96465825674E+03 -0.34670812889E+03  0.86373140595E+03  0.13404491861E+04  0.25500000920E-02 0. -1.
</event>
<event>
 5   0  0.1235817E-04  0.2110758E+04  0.7818609E-02  0.8556519E-01
        2   -1    0    0  501    0  0.00000000000E+00  0.00000000000E+00  0.53530847087E+03  0.53530847088E+03  0.25500000920E-02 0. -1.
       -2   -1    0    0    0  501  0.00000000000E+00  0.00000000000E+00 -0.20807150791E+04  0.20807150791E+04  0.25500000920E-02 0.  1.
    10030    2    1    2    0    0  0.00000000000E+00  0.00000000000E+00 -0.15454066082E+04  0.26160235500E+04  0.21107575960E+04 0.  0.
        1    1    3    3  502    0 -0.63397338611E+03  0.83605918675E+03 -0.91350864463E+03  0.13911920291E+04  0.50400001928E-02 0.  1.
       -1    1    3    3    0  502  0.63397338611E+03 -0.83605918675E+03 -0.63189796358E+03  0.12248315208E+04  0.50400001928E-02 0. -1.
</event>
<event>
 5   0  0.1235817E-04  0.2081625E+04  0.7818609E-02  0.8569381E-01
       -2   -1    0    0    0  501  0.00000000000E+00  0.00000000000E+00  0.95857553007E+03  0.95857553007E+03  0.25500000920E-02 0. -1.
        2   -1    0    0  501    0  0.00000000000E+00  0.00000000000E+00 -0.11301042724E+04  0.11301042724E+04  0.25500000920E-02 0.  1.
    10030    2    1    2    0    0  0.00000000000E+00  0.00000000000E+00 -0.17152874229E+03  0.20886798024E+04  0.20816246558E+04 0.  0.
        1    1    3    3  502    0 -0.17825913206E+02 -0.67805274842E+03 -0.87788093114E+03  0.11093909239E+04  0.50400001928E-02 0.  1.
       -1    1    3    3    0  502  0.17825913206E+02  0.67805274842E+03  0.70635218885E+03  0.97928887850E+03  0.50400001928E-02 0. -1.
</event>
<event>
 5   0  0.1349252E-04  0.2115677E+04  0.7818609E-02  0.8554369E-01
       -2   -1    0    0    0  501  0.00000000000E+00  0.00000000000E+00  0.65620889754E+03  0.65620889755E+03  0.25500000920E-02 0. -1.
        2   -1    0    0  501    0  0.00000000000E+00  0.00000000000E+00 -0.17052840393E+04  0.17052840393E+04  0.25500000920E-02 0.  1.
    10030    2    1    2    0    0  0.00000000000E+00  0.00000000000E+00 -0.10490751418E+04  0.23614929368E+04  0.21156772527E+04 0.  0.
        2    1    3    3  502    0  0.13758525364E+03  0.30777144505E+03  0.59464285985E+03  0.68355913803E+03  0.25500000920E-02 0. -1.
       -2    1    3    3    0  502 -0.13758525364E+03 -0.30777144505E+03 -0.16437180016E+04  0.16779337988E+04  0.25500000920E-02 0.  1.
</event>
<event>
 5   0  0.6263616E-05  0.2079532E+04  0.7818609E-02  0.8570314E-01
        1   -1    0    0  501    0  0.00000000000E+00  0.00000000000E+00  0.16795552997E+04  0.16795552997E+04  0.50400001928E-02 0.  1.
       -1   -1    0    0    0  501  0.00000000000E+00  0.00000000000E+00 -0.64369006343E+03  0.64369006345E+03  0.50400001928E-02 0. -1.
    10030    2    1    2    0    0  0.00000000000E+00  0.00000000000E+00  0.10358652362E+04  0.23232453631E+04  0.20795317333E+04 0.  0.
        4    1    3    3  502    0  0.11107213745E+03 -0.24206907907E+03 -0.60493423586E+03  0.66097012139E+03  0.12699999809E+01 0. -1.
       -4    1    3    3    0  502 -0.11107213745E+03  0.24206907907E+03  0.16407994721E+04  0.16622752417E+04  0.12699999809E+01 0.  1.
</event>
<event>
 5   0  0.6263616E-05  0.2123349E+04  0.7818609E-02  0.8551027E-01
        1   -1    0    0  501    0  0.00000000000E+00  0.00000000000E+00  0.20971142824E+04  0.20971142824E+04  0.50400001928E-02 0. -1.
       -1   -1    0    0    0  501  0.00000000000E+00  0.00000000000E+00 -0.53747816951E+03  0.53747816953E+03  0.50400001928E-02 0.  1.
    10030    2    1    2    0    0  0.00000000000E+00  0.00000000000E+00  0.15596361129E+04  0.26345924519E+04  0.21233493785E+04 0.  0.
        4    1    3    3  502    0 -0.84588263650E+03 -0.57007253474E+03  0.41457683706E+03  0.11010793324E+04  0.12699999809E+01 0.  1.
       -4    1    3    3    0  502  0.84588263650E+03  0.57007253474E+03  0.11450592758E+04  0.15335131195E+04  0.12699999809E+01 0. -1.
</event>
<event>
 5   0  0.6052292E-05  0.1992962E+04  0.7818609E-02  0.8609918E-01
        1   -1    0    0  501    0  0.00000000000E+00  0.00000000000E+00  0.14129210208E+04  0.14129210208E+04  0.50400001928E-02 0.  1.
       -1   -1    0    0    0  501  0.00000000000E+00  0.00000000000E+00 -0.70278088955E+03  0.70278088957E+03  0.50400001928E-02 0. -1.
    10030    2    1    2    0    0  0.00000000000E+00  0.00000000000E+00  0.71014013128E+03  0.21157019104E+04  0.19929615068E+04 0.  0.
        1    1    3    3  502    0 -0.52944582254E+03 -0.50066932233E+03 -0.36648991666E+03  0.81565771520E+03  0.50400001928E-02 0. -1.
       -1    1    3    3    0  502  0.52944582254E+03  0.50066932233E+03  0.10766300479E+04  0.13000441952E+04  0.50400001928E-02 0.  1.
</event>
<event>
 5   0  0.5933905E-05  0.2101386E+04  0.7818609E-02  0.8560633E-01
       -1   -1    0    0    0  501  0.00000000000E+00  0.00000000000E+00  0.64773081824E+03  0.64773081825E+03  0.50400001928E-02 0. -1.
        1   -1    0    0  501    0  0.00000000000E+00  0.00000000000E+00 -0.17043432899E+04  0.17043432899E+04  0.50400001928E-02 0.  1.
    10030    2    1    2    0    0  0.00000000000E+00  0.00000000000E+00 -0.10566124716E+04  0.23520741081E+04  0.21013858986E+04 0.  0.
        2    1    3    3  502    0 -0.10142411635E+04 -0.11535677726E+03 -0.80692645679E+03  0.13012004574E+04  0.25500000920E-02 0.  1.
       -2    1    3    3    0  502  0.10142411635E+04  0.11535677726E+03 -0.24968601484E+03  0.10508736507E+04  0.25500000920E-02 0. -1.
</event>
<event>
 5   0  0.5933905E-05  0.2096489E+04  0.7818609E-02  0.8562792E-01
        1   -1    0    0  501    0  0.00000000000E+00  0.00000000000E+00  0.12561065889E+04  0.12561065889E+04  0.50400001928E-02 0.  1.
       -1   -1    0    0    0  501  0.00000000000E+00  0.00000000000E+00 -0.87477982374E+03  0.87477982376E+03  0.50400001928E-02 0. -1.
    10030    2    1    2    0    0  0.00000000000E+00  0.00000000000E+00  0.38132676519E+03  0.21308864127E+04  0.20964891609E+04 0.  0.
        2    1    3    3  502    0 -0.21466187972E+03 -0.85329186718E+03  0.76977460728E+03  0.11690764215E+04  0.25500000920E-02 0.  1.
       -2    1    3    3    0  502  0.21466187972E+03  0.85329186718E+03 -0.38844784209E+03  0.96180999123E+03  0.25500000920E-02 0. -1.
</event>
<event>
 5   0  0.1281470E-04  0.2053091E+04  0.7818609E-02  0.8582193E-01
       -2   -1    0    0    0  501  0.00000000000E+00  0.00000000000E+00  0.71460810814E+03  0.71460810814E+03  0.25500000920E-02 0. -1.
        2   -1    0    0  501    0  0.00000000000E+00  0.00000000000E+00 -0.14746480493E+04  0.14746480493E+04  0.25500000920E-02 0.  1.
    10030    2    1    2    0    0  0.00000000000E+00  0.00000000000E+00 -0.76003994116E+03  0.21892561574E+04  0.20530907946E+04 0.  0.
        3    1    3    3  502    0  0.23724785004E+03 -0.27423944692E+03 -0.14040788114E+04  0.14501486597E+04  0.10100000352E+00 0.  1.
       -3    1    3    3    0  502 -0.23724785004E+03  0.27423944692E+03  0.64403887022E+03  0.73910749769E+03  0.10100000352E+00 0. -1.
</event>
<event>
 5   0  0.1235817E-04  0.2030230E+04  0.7818609E-02  0.8592616E-01
        2   -1    0    0  501    0  0.00000000000E+00  0.00000000000E+00  0.71363787404E+03  0.71363787405E+03  0.25500000920E-02 0. -1.
       -2   -1    0    0    0  501  0.00000000000E+00  0.00000000000E+00 -0.14439520251E+04  0.14439520251E+04  0.25500000920E-02 0.  1.
    10030    2    1    2    0    0  0.00000000000E+00  0.00000000000E+00 -0.73031415106E+03  0.21575898992E+04  0.20302303844E+04 0.  0.
        1    1    3    3  502    0 -0.18136543748E+03  0.18526552637E+02 -0.14264115782E+04  0.14380148279E+04  0.50400001928E-02 0.  1.
       -1    1    3    3    0  502  0.18136543748E+03 -0.18526552637E+02  0.69609742710E+03  0.71957507121E+03  0.50400001928E-02 0. -1.
</event>
<event>
 5   0  0.1281470E-04  0.2117862E+04  0.7818609E-02  0.8553416E-01
       -2   -1    0    0    0  501  0.00000000000E+00  0.00000000000E+00  0.65605128127E+03  0.65605128127E+03  0.25500000920E-02 0. -1.
        2   -1    0    0  501    0  0.00000000000E+00  0.00000000000E+00 -0.17092178978E+04  0.17092178978E+04  0.25500000920E-02 0.  1.
    10030    2    1    2    0    0  0.00000000000E+00  0.00000000000E+00 -0.10531666165E+04  0.23652691790E+04  0.21178617441E+04 0.  0.
        3    1    3    3  502    0  0.28150356116E+03 -0.82252777183E+03  0.14864317135E+03  0.88198128833E+03  0.10100000352E+00 0. -1.
       -3    1    3    3    0  502 -0.28150356116E+03  0.82252777183E+03 -0.12018097879E+04  0.14832878907E+04  0.10100000352E+00 0.  1.
</event>
<event>
 5   0  0.6052292E-05  0.2095790E+04  0.7818609E-02  0.8563100E-01
       -1   -1    0    0    0  501  0.00000000000E+00  0.00000000000E+00  0.71282663869E+03  0.71282663871E+03  0.50400001928E-02 0.  1.
        1   -1    0    0  501    0  0.00000000000E+00  0.00000000000E+00 -0.15404644318E+04  0.15404644318E+04  0.50400001928E-02 0. -1.
    10030    2    1    2    0    0  0.00000000000E+00  0.00000000000E+00 -0.82763779308E+03  0.22532910705E+04  0.20957901450E+04 0.  0.
        1    1    3    3  502    0  0.20950962674E+03 -0.37891306508E+03 -0.14397940123E+04  0.15034880088E+04  0.50400001928E-02 0. -1.
       -1    1    3    3    0  502 -0.20950962674E+03  0.37891306508E+03  0.61215621924E+03  0.74980306172E+03  0.50400001928E-02 0.  1.
</event>
<event>
 5   0  0.1349252E-04  0.2110865E+04  0.7818609E-02  0.8556472E-01
       -2   -1    0    0    0  501  0.00000000000E+00  0.00000000000E+00  0.48907602411E+03  0.48907602412E+03  0.25500000920E-02 0. -1.
        2   -1    0    0  501    0  0.00000000000E+00  0.00000000000E+00 -0.22776366094E+04  0.22776366094E+04  0.25500000920E-02 0.  1.
    10030    2    1    2    0    0  0.00000000000E+00  0.00000000000E+00 -0.17885605853E+04  0.27667126335E+04  0.21108647113E+04 0.  0.
        2    1    3    3  502    0 -0.69179311111E+03 -0.27037632170E+03  0.88532622414E+02  0.74801008626E+03  0.25500000920E-02 0. -1.
       -2    1    3    3    0  502  0.69179311111E+03  0.27037632170E+03 -0.18770932077E+04  0.20187025473E+04  0.25500000920E-02 0.  1.
</event>
<event>
 5   0  0.1349252E-04  0.2075132E+04  0.7818609E-02  0.8572278E-01
       -2   -1    0    0    0  501  0.00000000000E+00  0.00000000000E+00  0.63657029545E+03  0.63657029545E+03  0.25500000920E-02 0. -1.
        2   -1    0    0  501    0  0.00000000000E+00  0.00000000000E+00 -0.16911608921E+04  0.16911608921E+04  0.25500000920E-02 0.  1.
    10030    2    1    2    0    0  0.00000000000E+00  0.00000000000E+00 -0.10545905966E+04  0.23277311875E+04  0.20751315994E+04 0.  0.
        2    1    3    3  502    0  0.66912856550E+03  0.35116863465E+03 -0.13248190255E+04  0.15251878236E+04  0.25500000920E-02 0.  1.
       -2    1    3    3    0  502 -0.66912856550E+03 -0.35116863465E+03  0.27022842885E+03  0.80254336387E+03  0.25500000920E-02 0. -1.
</event>
<event>
 5   0  0.6052292E-05  0.2197670E+04  0.7818609E-02  0.8519399E-01
        1   -1    0    0  501    0  0.00000000000E+00  0.00000000000E+00  0.12513913842E+04  0.12513913842E+04  0.50400001928E-02 0.  1.
       -1   -1    0    0    0  501  0.00000000000E+00  0.00000000000E+00 -0.96487629255E+03  0.96487629256E+03  0.50400001928E-02 0. -1.
    10030    2    1    2    0    0  0.00000000000E+00  0.00000000000E+00  0.28651509168E+03  0.22162676768E+04  0.21976695651E+04 0.  0.
        1    1    3    3  502    0  0.89904328913E+02  0.33791973857E+03  0.11937858935E+04  0.12439442502E+04  0.50400001928E-02 0.  1.
       -1    1    3    3    0  502 -0.89904328913E+02 -0.33791973857E+03 -0.90727080182E+03  0.97232342660E+03  0.50400001928E-02 0. -1.
</event>
<event>
 5   0  0.5933905E-05  0.2012290E+04  0.7818609E-02  0.8600896E-01
       -1   -1    0    0    0  501  0.00000000000E+00  0.00000000000E+00  0.10135830931E+04  0.10135830931E+04  0.50400001928E-02 0. -1.
        1   -1    0    0  501    0  0.00000000000E+00  0.00000000000E+00 -0.99876100418E+03  0.99876100419E+03  0.50400001928E-02 0.  1.
    10030    2    1    2    0    0  0.00000000000E+00  0.00000000000E+00  0.14822088936E+02  0.20123440973E+04  0.20122895099E+04 0.  0.
        2    1    3    3  502    0 -0.82493458235E+03  0.47577476271E+03  0.33214832138E+03  0.10085639283E+04  0.25500000920E-02 0. -1.
       -2    1    3    3    0  502  0.82493458235E+03 -0.47577476271E+03 -0.31732623244E+03  0.10037801691E+04  0.25500000920E-02 0.  1.
</event>
<event>
 5   0  0.5846187E-05  0.2171693E+04  0.7818609E-02  0.8530303E-01
        1   -1    0    0  501    0  0.00000000000E+00  0.00000000000E+00  0.87215275345E+03  0.87215275347E+03  0.50400001928E-02 0. -1.
       -1   -1    0    0    0  501  0.00000000000E+00  0.00000000000E+00 -0.13518993730E+04  0.13518993730E+04  0.50400001928E-02 0.  1.
    10030    2    1    2    0    0  0.00000000000E+00  0.00000000000E+00 -0.47974661956E+03  0.22240521265E+04  0.21716931280E+04 0.  0.
        5    1    3    3  502    0  0.38339007800E+03 -0.66602834327E+02  0.79828144800E+03  0.88808741105E+03  0.46999998093E+01 0. -1.
       -5    1    3    3    0  502 -0.38339007800E+03  0.66602834327E+02 -0.12780280676E+04  0.13359647154E+04  0.46999998093E+01 0.  1.
</event>
<event>
 5   0  0.1252477E-04  0.2115926E+04  0.7818609E-02  0.8554260E-01
       -2   -1    0    0    0  501  0.00000000000E+00  0.00000000000E+00  0.56484004244E+03  0.56484004245E+03  0.25500000920E-02 0. -1.
        2   -1    0    0  501    0  0.00000000000E+00  0.00000000000E+00 -0.19815982044E+04  0.19815982044E+04  0.25500000920E-02 0.  1.
    10030    2    1    2    0    0  0.00000000000E+00  0.00000000000E+00 -0.14167581619E+04  0.25464382468E+04  0.21159262878E+04 0.  0.
        4    1    3    3  502    0  0.11786983365E+03  0.10327022964E+04 -0.47096707179E+03  0.11411305475E+04  0.12699999809E+01 0. -1.
       -4    1    3    3    0  502 -0.11786983365E+03 -0.10327022964E+04 -0.94579109016E+03  0.14053076994E+04  0.12699999809E+01 0.  1.
</event>
<event>
 5   0  0.5846187E-05  0.2084469E+04  0.7818609E-02  0.8568116E-01
       -1   -1    0    0    0  501  0.00000000000E+00  0.00000000000E+00  0.75936291500E+03  0.75936291501E+03  0.50400001928E-02 0.  1.
        1   -1    0    0  501    0  0.00000000000E+00  0.00000000000E+00 -0.14304789739E+04  0.14304789739E+04  0.50400001928E-02 0. -1.
    10030    2    1    2    0    0  0.00000000000E+00  0.00000000000E+00 -0.67111605889E+03  0.21898418889E+04  0.20844689333E+04 0.  0.
        5    1    3    3  502    0 -0.50639284469E+03 -0.50750908321E+02 -0.12910524753E+04  0.13877492395E+04  0.46999998093E+01 0. -1.
       -5    1    3    3    0  502  0.50639284469E+03  0.50750908321E+02  0.61993641639E+03  0.80209264939E+03  0.46999998093E+01 0.  1.
</event>
<event>
 5   0  0.1235817E-04  0.2051512E+04  0.7818609E-02  0.8582909E-01
       -2   -1    0    0    0  501  0.00000000000E+00  0.00000000000E+00  0.99442372966E+03  0.99442372966E+03  0.25500000920E-02 0. -1.
        2   -1    0    0  501    0  0.00000000000E+00  0.00000000000E+00 -0.10580755133E+04  0.10580755133E+04  0.25500000920E-02 0.  1.
    10030    2    1    2    0    0  0.00000000000E+00  0.00000000000E+00 -0.63651783589E+02  0.20524992429E+04  0.20515120260E+04 0.  0.
        1    1    3    3  502    0 -0.46526698960E+03 -0.74399912442E+03  0.49962397474E+03  0.10097683818E+04  0.50400001928E-02 0.  1.
       -1    1    3    3    0  502  0.46526698960E+03  0.74399912442E+03 -0.56327575833E+03  0.10427308611E+04  0.50400001928E-02 0. -1.
</event>
<event>
 5   0  0.5846187E-05  0.2038903E+04  0.7818609E-02  0.8588645E-01
        1   -1    0    0  501    0  0.00000000000E+00  0.00000000000E+00  0.13920779619E+04  0.13920779619E+04  0.50400001928E-02 0.  1.
       -1   -1    0    0    0  501  0.00000000000E+00  0.00000000000E+00 -0.74656813227E+03  0.74656813229E+03  0.50400001928E-02 0. -1.
    10030    2    1    2    0    0  0.00000000000E+00  0.00000000000E+00  0.64550982962E+03  0.21386460942E+04  0.20389026892E+04 0.  0.
        5    1    3    3  502    0  0.25736739077E+03  0.24587672957E+03  0.13247704951E+04  0.13717624775E+04  0.46999998093E+01 0.  1.
       -5    1    3    3    0  502 -0.25736739077E+03 -0.24587672957E+03 -0.67926066545E+03  0.76688361673E+03  0.46999998093E+01 0. -1.
</event>
<event>
 5   0  0.6221148E-05  0.2131452E+04  0.7818609E-02  0.8547514E-01
        1   -1    0    0  501    0  0.00000000000E+00  0.00000000000E+00  0.83423545371E+03  0.83423545372E+03  0.50400001928E-02 0. -1.
       -1   -1    0    0    0  501  0.00000000000E+00  0.00000000000E+00 -0.13614522140E+04  0.13614522140E+04  0.50400001928E-02 0.  1.
    10030    2    1    2    0    0  0.00000000000E+00  0.00000000000E+00 -0.52721676031E+03  0.21956876677E+04  0.21314518108E+04 0.  0.
        3    1    3    3  502    0  0.44743508254E+03  0.94760624239E+03 -0.63815010935E+02  0.10498705204E+04  0.10100000352E+00 0.  1.
       -3    1    3    3    0  502 -0.44743508254E+03 -0.94760624239E+03 -0.46340174938E+03  0.11458171474E+04  0.10100000352E+00 0. -1.
</event>
<event>
 5   0  0.6221148E-05  0.2080812E+04  0.7818609E-02  0.8569743E-01
        1   -1    0    0  501    0  0.00000000000E+00  0.00000000000E+00  0.16485027631E+04  0.16485027631E+04  0.50400001928E-02 0. -1.
       -1   -1    0    0    0  501  0.00000000000E+00  0.00000000000E+00 -0.65662300662E+03  0.65662300664E+03  0.50400001928E-02 0.  1.
    10030    2    1    2    0    0  0.00000000000E+00  0.00000000000E+00  0.99187975650E+03  0.23051257698E+04  0.20808121883E+04 0.  0.
        3    1    3    3  502    0 -0.71084430126E+03  0.21090625763E+03 -0.31257556221E+03  0.80466425448E+03  0.10100000352E+00 0.  1.
       -3    1    3    3    0  502  0.71084430126E+03 -0.21090625763E+03  0.13044553187E+04  0.15004615153E+04  0.10100000352E+00 0. -1.
</event>
<event>
 5   0  0.5846187E-05  0.2116374E+04  0.7818609E-02  0.8554065E-01
        1   -1    0    0  501    0  0.00000000000E+00  0.00000000000E+00  0.14552028877E+04  0.14552028877E+04  0.50400001928E-02 0.  1.
       -1   -1    0    0    0  501  0.00000000000E+00  0.00000000000E+00 -0.76948686861E+03  0.76948686862E+03  0.50400001928E-02 0. -1.
    10030    2    1    2    0    0  0.00000000000E+00  0.00000000000E+00  0.68571601913E+03  0.22246897564E+04  0.21163737981E+04 0.  0.
        5    1    3    3  502    0  0.77408694522E+03 -0.18055225956E+03 -0.39141035738E+03  0.88602137392E+03  0.46999998093E+01 0. -1.
       -5    1    3    3    0  502 -0.77408694522E+03  0.18055225956E+03  0.10771263765E+04  0.13386683824E+04  0.46999998093E+01 0.  1.
</event>
<event>
 5   0  0.1252477E-04  0.2075334E+04  0.7818609E-02  0.8572188E-01
       -2   -1    0    0    0  501  0.00000000000E+00  0.00000000000E+00  0.57725525196E+03  0.57725525197E+03  0.25500000920E-02 0. -1.
        2   -1    0    0  501    0  0.00000000000E+00  0.00000000000E+00 -0.18652971969E+04  0.18652971969E+04  0.25500000920E-02 0.  1.
    10030    2    1    2    0    0  0.00000000000E+00  0.00000000000E+00 -0.12880419449E+04  0.24425524488E+04  0.20753338077E+04 0.  0.
        4    1    3    3  502    0  0.79522075357E+03 -0.62520708699E+03 -0.37181574205E+03  0.10777330409E+04  0.12699999809E+01 0.  1.
       -4    1    3    3    0  502 -0.79522075357E+03  0.62520708699E+03 -0.91622620285E+03  0.13648194079E+04  0.12699999809E+01 0. -1.
</event>
<event>
 5   0  0.1281470E-04  0.2463339E+04  0.7818609E-02  0.8416164E-01
       -2   -1    0    0    0  501  0.00000000000E+00  0.00000000000E+00  0.13685404665E+04  0.13685404665E+04  0.25500000920E-02 0. -1.
        2   -1    0    0  501    0  0.00000000000E+00  0.00000000000E+00 -0.11084876749E+04  0.11084876750E+04  0.25500000920E-02 0.  1.
    10030    2    1    2    0    0  0.00000000000E+00  0.00000000000E+00  0.26005279154E+03  0.24770281414E+04  0.24633393918E+04 0.  0.
        3    1    3    3  502    0  0.37851239928E+03  0.55216472829E+03 -0.90957204476E+03  0.11293709924E+04  0.10100000352E+00 0.  1.
       -3    1    3    3    0  502 -0.37851239928E+03 -0.55216472829E+03  0.11696248363E+04  0.13476571491E+04  0.10100000352E+00 0. -1.
</event>
<event>
 5   0  0.1349252E-04  0.2104755E+04  0.7818609E-02  0.8559152E-01
        2   -1    0    0  501    0  0.00000000000E+00  0.00000000000E+00  0.18041118695E+04  0.18041118695E+04  0.25500000920E-02 0. -1.
       -2   -1    0    0    0  501  0.00000000000E+00  0.00000000000E+00 -0.61387440526E+03  0.61387440527E+03  0.25500000920E-02 0.  1.
    10030    2    1    2    0    0  0.00000000000E+00  0.00000000000E+00  0.11902374643E+04  0.24179862748E+04  0.21047547135E+04 0.  0.
        2    1    3    3  502    0 -0.66051979667E+02 -0.10433179378E+04  0.73404019835E+03  0.12773762938E+04  0.25500000920E-02 0. -1.
       -2    1    3    3    0  502  0.66051979667E+02  0.10433179378E+04  0.45619726593E+03  0.11406099810E+04  0.25500000920E-02 0.  1.
</event>
<event>
 5   0  0.1235817E-04  0.1969822E+04  0.7818609E-02  0.8620861E-01
        2   -1    0    0  501    0  0.00000000000E+00  0.00000000000E+00  0.96216831763E+03  0.96216831763E+03  0.25500000920E-02 0.  1.
       -2   -1    0    0    0  501  0.00000000000E+00  0.00000000000E+00 -0.10081907404E+04  0.10081907404E+04  0.25500000920E-02 0. -1.
    10030    2    1    2    0    0  0.00000000000E+00  0.00000000000E+00 -0.46022422796E+02  0.19703590581E+04  0.19698215032E+04 0.  0.
        1    1    3    3  502    0  0.78758585107E+03 -0.59026479500E+03  0.13675595667E+02  0.98432262138E+03  0.50400001928E-02 0. -1.
       -1    1    3    3    0  502 -0.78758585107E+03  0.59026479500E+03 -0.59698018463E+02  0.98603643668E+03  0.50400001928E-02 0.  1.
</event>
<event>
 5   0  0.1325673E-04  0.2066674E+04  0.7818609E-02  0.8576068E-01
        2   -1    0    0  501    0  0.00000000000E+00  0.00000000000E+00  0.16466431895E+04  0.16466431895E+04  0.25500000920E-02 0.  1.
       -2   -1    0    0    0  501  0.00000000000E+00  0.00000000000E+00 -0.64846182508E+03  0.64846182508E+03  0.25500000920E-02 0. -1.
    10030    2    1    2    0    0  0.00000000000E+00  0.00000000000E+00  0.99818136439E+03  0.22951050145E+04  0.20666738958E+04 0.  0.
        5    1    3    3  502    0  0.89305628036E+03 -0.16465237597E+03 -0.48462081404E+02  0.90941222124E+03  0.46999998093E+01 0. -1.
       -5    1    3    3    0  502 -0.89305628036E+03  0.16465237597E+03  0.10466434458E+04  0.13856927933E+04  0.46999998093E+01 0.  1.
</event>
<event>
 5   0  0.1281470E-04  0.2044459E+04  0.7818609E-02  0.8586112E-01
       -2   -1    0    0    0  501  0.00000000000E+00  0.00000000000E+00  0.13685077061E+04  0.13685077061E+04  0.25500000920E-02 0.  1.
        2   -1    0    0  501    0  0.00000000000E+00  0.00000000000E+00 -0.76357094476E+03  0.76357094477E+03  0.25500000920E-02 0. -1.
    10030    2    1    2    0    0  0.00000000000E+00  0.00000000000E+00  0.60493676135E+03  0.21320786509E+04  0.20444585807E+04 0.  0.
        3    1    3    3  502    0  0.42587588045E+03  0.81320035599E+03  0.77150803948E+03  0.11991204067E+04  0.10100000352E+00 0.  1.
       -3    1    3    3    0  502 -0.42587588045E+03 -0.81320035599E+03 -0.16657127813E+03  0.93295824420E+03  0.10100000352E+00 0. -1.
</event>
<event>
 5   0  0.6052292E-05  0.2117315E+04  0.7818609E-02  0.8553654E-01
       -1   -1    0    0    0  501  0.00000000000E+00  0.00000000000E+00  0.13446356477E+04  0.13446356477E+04  0.50400001928E-02 0.  1.
        1   -1    0    0  501    0  0.00000000000E+00  0.00000000000E+00 -0.83350103715E+03  0.83350103717E+03  0.50400001928E-02 0. -1.
    10030    2    1    2    0    0  0.00000000000E+00  0.00000000000E+00  0.51113461058E+03  0.21781366849E+04  0.21173145321E+04 0.  0.
        1    1    3    3  502    0  0.42376177465E+03  0.86076251025E+03 -0.20480234779E+03  0.98103524014E+03  0.50400001928E-02 0. -1.
       -1    1    3    3    0  502 -0.42376177465E+03 -0.86076251025E+03  0.71593695837E+03  0.11971014448E+04  0.50400001928E-02 0.  1.
</event>
<event>
 5   0  0.6221148E-05  0.2200478E+04  0.7818609E-02  0.8518229E-01
        1   -1    0    0  501    0  0.00000000000E+00  0.00000000000E+00  0.14123342670E+04  0.14123342670E+04  0.50400001928E-02 0. -1.
       -1   -1    0    0    0  501  0.00000000000E+00  0.00000000000E+00 -0.85711033209E+03  0.85711033210E+03  0.50400001928E-02 0.  1.
    10030    2    1    2    0    0  0.00000000000E+00  0.00000000000E+00  0.55522393487E+03  0.22694445991E+04  0.22004783958E+04 0.  0.
        3    1    3    3  502    0  0.58447645720E+03  0.90596721522E+03  0.50388968983E+03  0.11900815744E+04  0.10100000352E+00 0. -1.
       -3    1    3    3    0  502 -0.58447645720E+03 -0.90596721522E+03  0.51334245045E+02  0.10793630247E+04  0.10100000352E+00 0.  1.
</event>
<event>
 5   0  0.5846187E-05  0.2093746E+04  0.7818609E-02  0.8564003E-01
        1   -1    0    0  501    0  0.00000000000E+00  0.00000000000E+00  0.35049101037E+04  0.35049101037E+04  0.50400001928E-02 0.  1.
       -1   -1    0    0    0  501  0.00000000000E+00  0.00000000000E+00 -0.31268791288E+03  0.31268791292E+03  0.50400001928E-02 0. -1.
    10030    2    1    2    0    0  0.00000000000E+00  0.00000000000E+00  0.31922221908E+04  0.38175980166E+04  0.20937459495E+04 0.  0.
        5    1    3    3  502    0 -0.98476637886E+03 -0.33058795390E+03  0.13593041743E+04  0.17107843652E+04  0.46999998093E+01 0.  1.
       -5    1    3    3    0  502  0.98476637886E+03  0.33058795390E+03  0.18329180165E+04  0.21068136514E+04  0.46999998093E+01 0. -1.
</event>
<event>
 5   0  0.6221148E-05  0.2157501E+04  0.7818609E-02  0.8536328E-01
        1   -1    0    0  501    0  0.00000000000E+00  0.00000000000E+00  0.19913340315E+04  0.19913340315E+04  0.50400001928E-02 0. -1.
       -1   -1    0    0    0  501  0.00000000000E+00  0.00000000000E+00 -0.58438368406E+03  0.58438368408E+03  0.50400001928E-02 0.  1.
    10030    2    1    2    0    0  0.00000000000E+00  0.00000000000E+00  0.14069503474E+04  0.25757177156E+04  0.21575014415E+04 0.  0.
        3    1    3    3  502    0  0.98378221191E+03  0.30489757449E+03  0.32048945779E+03  0.10786581823E+04  0.10100000352E+00 0.  1.
       -3    1    3    3    0  502 -0.98378221191E+03 -0.30489757449E+03  0.10864608896E+04  0.14970595333E+04  0.10100000352E+00 0. -1.
</event>
<event>
 5   0  0.1349252E-04  0.2087487E+04  0.7818609E-02  0.8566776E-01
        2   -1    0    0  501    0  0.00000000000E+00  0.00000000000E+00  0.74299926231E+03  0.74299926232E+03  0.25500000920E-02 0. -1.
       -2   -1    0    0    0  501  0.00000000000E+00  0.00000000000E+00 -0.14662196329E+04  0.14662196329E+04  0.25500000920E-02 0.  1.
    10030    2    1    2    0    0  0.00000000000E+00  0.00000000000E+00 -0.72322037062E+03  0.22092188953E+04  0.20874866281E+04 0.  0.
        2    1    3    3  502    0  0.35116505756E+03  0.33940380180E+03 -0.13378383082E+04  0.14241921139E+04  0.25500000920E-02 0.  1.
       -2    1    3    3    0  502 -0.35116505756E+03 -0.33940380180E+03  0.61461793756E+03  0.78502678139E+03  0.25500000920E-02 0. -1.
</event>
<event>
 5   0  0.1281470E-04  0.1945464E+04  0.7818609E-02  0.8632551E-01
       -2   -1    0    0    0  501  0.00000000000E+00  0.00000000000E+00  0.50934820024E+03  0.50934820025E+03  0.25500000920E-02 0.  1.
        2   -1    0    0  501    0  0.00000000000E+00  0.00000000000E+00 -0.18576829805E+04  0.18576829805E+04  0.25500000920E-02 0. -1.
    10030    2    1    2    0    0  0.00000000000E+00  0.00000000000E+00 -0.13483347802E+04  0.23670311807E+04  0.19454639372E+04 0.  0.
        3    1    3    3  502    0 -0.91116011878E+03 -0.29415243342E+03 -0.88303154309E+03  0.13024911257E+04  0.10100000352E+00 0.  1.
       -3    1    3    3    0  502  0.91116011878E+03  0.29415243342E+03 -0.46530323715E+03  0.10645400551E+04  0.10100000352E+00 0. -1.
</event>
<event>
 5   0  0.6221148E-05  0.1973558E+04  0.7818609E-02  0.8619084E-01
        1   -1    0    0  501    0  0.00000000000E+00  0.00000000000E+00  0.13821308556E+04  0.13821308556E+04  0.50400001928E-02 0.  1.
       -1   -1    0    0    0  501  0.00000000000E+00  0.00000000000E+00 -0.70451594823E+03  0.70451594825E+03  0.50400001928E-02 0. -1.
    10030    2    1    2    0    0  0.00000000000E+00  0.00000000000E+00  0.67761490734E+03  0.20866468038E+04  0.19735584413E+04 0.  0.
        3    1    3    3  502    0 -0.50231012772E+03  0.15237328552E+03 -0.54465667019E+03  0.75642843755E+03  0.10100000352E+00 0. -1.
       -3    1    3    3    0  502  0.50231012772E+03 -0.15237328552E+03  0.12222715775E+04  0.13302183663E+04  0.10100000352E+00 0.  1.
</event>
<event>
 5   0  0.5933905E-05  0.2024709E+04  0.7818609E-02  0.8595155E-01
        1   -1    0    0  501    0  0.00000000000E+00  0.00000000000E+00  0.83839603855E+03  0.83839603856E+03  0.50400001928E-02 0. -1.
       -1   -1    0    0    0  501  0.00000000000E+00  0.00000000000E+00 -0.12224069728E+04  0.12224069728E+04  0.50400001928E-02 0.  1.
    10030    2    1    2    0    0  0.00000000000E+00  0.00000000000E+00 -0.38401093428E+03  0.20608030114E+04  0.20247085356E+04 0.  0.
        2    1    3    3  502    0  0.64931667985E+03  0.74969976814E+03  0.14589020456E+02  0.99190459854E+03  0.25500000920E-02 0. -1.
       -2    1    3    3    0  502 -0.64931667985E+03 -0.74969976814E+03 -0.39859995473E+03  0.10688984129E+04  0.25500000920E-02 0.  1.
</event>
<event>
 5   0  0.1349252E-04  0.1959163E+04  0.7818609E-02  0.8625955E-01
       -2   -1    0    0    0  501  0.00000000000E+00  0.00000000000E+00  0.70301084515E+03  0.70301084516E+03  0.25500000920E-02 0. -1.
        2   -1    0    0  501    0  0.00000000000E+00  0.00000000000E+00 -0.13649572434E+04  0.13649572434E+04  0.25500000920E-02 0.  1.
    10030    2    1    2    0    0  0.00000000000E+00  0.00000000000E+00 -0.66194639826E+03  0.20679680886E+04  0.19591628266E+04 0.  0.
        2    1    3    3  502    0  0.85677197274E+03 -0.20442496898E+03  0.12147166185E+03  0.88915867304E+03  0.25500000920E-02 0. -1.
       -2    1    3    3    0  502 -0.85677197274E+03  0.20442496898E+03 -0.78341806011E+03  0.11788094155E+04  0.25500000920E-02 0.  1.
</event>
<event>
 5   0  0.6263616E-05  0.2102247E+04  0.7818609E-02  0.8560254E-01
       -1   -1    0    0    0  501  0.00000000000E+00  0.00000000000E+00  0.12565879721E+04  0.12565879721E+04  0.50400001928E-02 0. -1.
        1   -1    0    0  501    0  0.00000000000E+00  0.00000000000E+00 -0.87925479105E+03  0.87925479106E+03  0.50400001928E-02 0.  1.
    10030    2    1    2    0    0  0.00000000000E+00  0.00000000000E+00  0.37733318109E+03  0.21358427632E+04  0.21022473640E+04 0.  0.
        4    1    3    3  502    0  0.10119015407E+04  0.28061235864E+03  0.23600909069E+03  0.10762852446E+04  0.12699999809E+01 0. -1.
       -4    1    3    3    0  502 -0.10119015407E+04 -0.28061235864E+03  0.14132409040E+03  0.10595575186E+04  0.12699999809E+01 0.  1.
</event>
<event>
 5   0  0.4615125E-05  0.1898101E+04  0.7818609E-02  0.8655802E-01
        3   -1    0    0  501    0  0.00000000000E+00  0.00000000000E+00  0.95680616490E+03  0.95680617023E+03  0.10100000352E+00 0.  1.
       -3   -1    0    0    0  501  0.00000000000E+00  0.00000000000E+00 -0.94135730413E+03  0.94135730954E+03  0.10100000352E+00 0. -1.
    10030    2    1    2    0    0  0.00000000000E+00  0.00000000000E+00  0.15448860772E+02  0.18981634798E+04  0.18981006108E+04 0.  0.
        5    1    3    3  502    0  0.72753854876E+03  0.32224121778E+03 -0.50951861875E+03  0.94487197822E+03  0.46999998093E+01 0. -1.
       -5    1    3    3    0  502 -0.72753854876E+03 -0.32224121778E+03  0.52496747952E+03  0.95329150155E+03  0.46999998093E+01 0.  1.
</event>
<event>
 5   0  0.1235817E-04  0.2114271E+04  0.7818609E-02  0.8554983E-01
        2   -1    0    0  501    0  0.00000000000E+00  0.00000000000E+00  0.20893233945E+04  0.20893233945E+04  0.25500000920E-02 0. -1.
       -2   -1    0    0    0  501  0.00000000000E+00  0.00000000000E+00 -0.53487893882E+03  0.53487893883E+03  0.25500000920E-02 0.  1.
    10030    2    1    2    0    0  0.00000000000E+00  0.00000000000E+00  0.15544444557E+04  0.26242023333E+04  0.21142706356E+04 0.  0.
        1    1    3    3  502    0 -0.63513890389E+03  0.32320851113E+03  0.17463568752E+04  0.18861674116E+04  0.50400001928E-02 0. -1.
       -1    1    3    3    0  502  0.63513890389E+03 -0.32320851113E+03 -0.19191241954E+03  0.73803492173E+03  0.50400001928E-02 0.  1.
</event>
<event>
 5   0  0.6263616E-05  0.2095391E+04  0.7818609E-02  0.8563276E-01
        1   -1    0    0  501    0  0.00000000000E+00  0.00000000000E+00  0.94021525316E+03  0.94021525317E+03  0.50400001928E-02 0.  1.
       -1   -1    0    0    0  501  0.00000000000E+00  0.00000000000E+00 -0.11674620289E+04  0.11674620289E+04  0.50400001928E-02 0. -1.
    10030    2    1    2    0    0  0.00000000000E+00  0.00000000000E+00 -0.22724677573E+03  0.21076772821E+04  0.20953907579E+04 0.  0.
        4    1    3    3  502    0  0.89415141859E+03  0.51544380111E+03 -0.29488805312E+03  0.10733823402E+04  0.12699999809E+01 0. -1.
       -4    1    3    3    0  502 -0.89415141859E+03 -0.51544380111E+03  0.67641277388E+02  0.10342949419E+04  0.12699999809E+01 0.  1.
</event>
<event>
 5   0  0.6221148E-05  0.2074870E+04  0.7818609E-02  0.8572395E-01
       -1   -1    0    0    0  501  0.00000000000E+00  0.00000000000E+00  0.55486195806E+03  0.55486195808E+03  0.50400001928E-02 0.  1.
        1   -1    0    0  501    0  0.00000000000E+00  0.00000000000E+00 -0.19397092444E+04  0.19397092444E+04  0.50400001928E-02 0. -1.
    10030    2    1    2    0    0  0.00000000000E+00  0.00000000000E+00 -0.13848472863E+04  0.24945712025E+04  0.20748695086E+04 0.  0.
        3    1    3    3  502    0 -0.34950022231E+03 -0.53397072725E+03 -0.16757932569E+04  0.17931977563E+04  0.10100000352E+00 0. -1.
       -3    1    3    3    0  502  0.34950022231E+03  0.53397072725E+03  0.29094597064E+03  0.70137344616E+03  0.10100000352E+00 0.  1.
</event>
<event>
 5   0  0.5933905E-05  0.2106732E+04  0.7818609E-02  0.8558283E-01
        1   -1    0    0  501    0  0.00000000000E+00  0.00000000000E+00  0.92057442438E+03  0.92057442440E+03  0.50400001928E-02 0.  1.
       -1   -1    0    0    0  501  0.00000000000E+00  0.00000000000E+00 -0.12053131174E+04  0.12053131175E+04  0.50400001928E-02 0. -1.
    10030    2    1    2    0    0  0.00000000000E+00  0.00000000000E+00 -0.28473869306E+03  0.21258875419E+04  0.21067324741E+04 0.  0.
        2    1    3    3  502    0  0.37110011391E+03 -0.83292220186E+03  0.38978286803E+03  0.99166797524E+03  0.25500000920E-02 0.  1.
       -2    1    3    3    0  502 -0.37110011391E+03  0.83292220186E+03 -0.67452156109E+03  0.11342195666E+04  0.25500000920E-02 0. -1.
</event>
<event>
 5   0  0.1235817E-04  0.2090214E+04  0.7818609E-02  0.8565567E-01
       -2   -1    0    0    0  501  0.00000000000E+00  0.00000000000E+00  0.98509983570E+03  0.98509983570E+03  0.25500000920E-02 0.  1.
        2   -1    0    0  501    0  0.00000000000E+00  0.00000000000E+00 -0.11087692180E+04  0.11087692180E+04  0.25500000920E-02 0. -1.
    10030    2    1    2    0    0  0.00000000000E+00  0.00000000000E+00 -0.12366938234E+03  0.20938690537E+04  0.20902137446E+04 0.  0.
        1    1    3    3  502    0 -0.23236547077E+03  0.95694093878E+03  0.28880414245E+03  0.10262248803E+04  0.50400001928E-02 0.  1.
       -1    1    3    3    0  502  0.23236547077E+03 -0.95694093878E+03 -0.41247352479E+03  0.10676441734E+04  0.50400001928E-02 0. -1.
</event>
<event>
 5   0  0.1325673E-04  0.2106753E+04  0.7818609E-02  0.8558274E-01
        2   -1    0    0  501    0  0.00000000000E+00  0.00000000000E+00  0.15189200485E+04  0.15189200485E+04  0.25500000920E-02 0. -1.
       -2   -1    0    0    0  501  0.00000000000E+00  0.00000000000E+00 -0.73052038723E+03  0.73052038723E+03  0.25500000920E-02 0.  1.
    10030    2    1    2    0    0  0.00000000000E+00  0.00000000000E+00  0.78839966123E+03  0.22494404357E+04  0.21067530106E+04 0.  0.
        5    1    3    3  502    0 -0.19380915543E+03 -0.57849531413E+03 -0.52265589578E+03  0.80337419213E+03  0.46999998093E+01 0.  1.
       -5    1    3    3    0  502  0.19380915543E+03  0.57849531413E+03  0.13110555570E+04  0.14460662436E+04  0.46999998093E+01 0. -1.
</event>
<event>
 5   0  0.5846187E-05  0.2055109E+04  0.7818609E-02  0.8581280E-01
        1   -1    0    0  501    0  0.00000000000E+00  0.00000000000E+00  0.10188134237E+04  0.10188134237E+04  0.50400001928E-02 0. -1.
       -1   -1    0    0    0  501  0.00000000000E+00  0.00000000000E+00 -0.10363704468E+04  0.10363704468E+04  0.50400001928E-02 0.  1.
    10030    2    1    2    0    0  0.00000000000E+00  0.00000000000E+00 -0.17557023068E+02  0.20551838705E+04  0.20551088761E+04 0.  0.
        5    1    3    3  502    0  0.21586222271E+03  0.25448984496E+03 -0.98065987556E+03  0.10358945226E+04  0.46999998093E+01 0.  1.
       -5    1    3    3    0  502 -0.21586222271E+03 -0.25448984496E+03  0.96310285249E+03  0.10192893480E+04  0.46999998093E+01 0. -1.
</event>
<event>
 5   0  0.1252477E-04  0.2151195E+04  0.7818609E-02  0.8539021E-01
        2   -1    0    0  501    0  0.00000000000E+00  0.00000000000E+00  0.13315319704E+04  0.13315319704E+04  0.25500000920E-02 0.  1.
       -2   -1    0    0    0  501  0.00000000000E+00  0.00000000000E+00 -0.86885601587E+03  0.86885601587E+03  0.25500000920E-02 0. -1.
    10030    2    1    2    0    0  0.00000000000E+00  0.00000000000E+00  0.46267595457E+03  0.22003879863E+04  0.21511946103E+04 0.  0.
        4    1    3    3  502    0 -0.69670284863E+03  0.57277688470E+03  0.83077675171E+03  0.12262380858E+04  0.12699999809E+01 0.  1.
       -4    1    3    3    0  502  0.69670284863E+03 -0.57277688470E+03 -0.36810079714E+03  0.97414990053E+03  0.12699999809E+01 0. -1.
</event>
<event>
 5   0  0.6052292E-05  0.2122035E+04  0.7818609E-02  0.8551599E-01
       -1   -1    0    0    0  501  0.00000000000E+00  0.00000000000E+00  0.80634868893E+03  0.80634868895E+03  0.50400001928E-02 0. -1.
        1   -1    0    0  501    0  0.00000000000E+00  0.00000000000E+00 -0.13961179224E+04  0.13961179224E+04  0.50400001928E-02 0.  1.
    10030    2    1    2    0    0  0.00000000000E+00  0.00000000000E+00 -0.58976923345E+03  0.22024666113E+04  0.21220347371E+04 0.  0.
        1    1    3    3  502    0 -0.66909774414E+02 -0.10185389180E+04 -0.59544570062E+03  0.11817165598E+04  0.50400001928E-02 0.  1.
       -1    1    3    3    0  502  0.66909774414E+02  0.10185389180E+04  0.56764671681E+01  0.10207500515E+04  0.50400001928E-02 0. -1.
</event>
<event>
 5   0  0.5846187E-05  0.2147346E+04  0.7818609E-02  0.8540669E-01
        1   -1    0    0  501    0  0.00000000000E+00  0.00000000000E+00  0.18631745774E+04  0.18631745774E+04  0.50400001928E-02 0.  1.
       -1   -1    0    0    0  501  0.00000000000E+00  0.00000000000E+00 -0.61871463960E+03  0.61871463962E+03  0.50400001928E-02 0. -1.
    10030    2    1    2    0    0  0.00000000000E+00  0.00000000000E+00  0.12444599378E+04  0.24818892170E+04  0.21473456985E+04 0.  0.
        5    1    3    3  502    0 -0.90962527681E+02 -0.38045298347E+03 -0.53340948940E+03  0.66148804030E+03  0.46999998093E+01 0. -1.
       -5    1    3    3    0  502  0.90962527681E+02  0.38045298347E+03  0.17778694272E+04  0.18204011768E+04  0.46999998093E+01 0.  1.
</event>
<event>
 5   0  0.5933905E-05  0.1701601E+04  0.7818609E-02  0.8760452E-01
        1   -1    0    0  501    0  0.00000000000E+00  0.00000000000E+00  0.12387653196E+04  0.12387653196E+04  0.50400001928E-02 0. -1.
       -1   -1    0    0    0  501  0.00000000000E+00  0.00000000000E+00 -0.58434118697E+03  0.58434118699E+03  0.50400001928E-02 0.  1.
    10030    2    1    2    0    0  0.00000000000E+00  0.00000000000E+00  0.65442413259E+03  0.18231065066E+04  0.17016011251E+04 0.  0.
        2    1    3    3  502    0  0.58458517740E+03  0.40101851462E+03 -0.17681144012E+03  0.73062847198E+03  0.25500000920E-02 0.  1.
       -2    1    3    3    0  502 -0.58458517740E+03 -0.40101851462E+03  0.83123557271E+03  0.10924780346E+04  0.25500000920E-02 0. -1.
</event>
<event>
 5   0  0.5933905E-05  0.2026284E+04  0.7818609E-02  0.8594430E-01
       -1   -1    0    0    0  501  0.00000000000E+00  0.00000000000E+00  0.77663022037E+03  0.77663022038E+03  0.50400001928E-02 0.  1.
        1   -1    0    0  501    0  0.00000000000E+00  0.00000000000E+00 -0.13216794964E+04  0.13216794965E+04  0.50400001928E-02 0. -1.
    10030    2    1    2    0    0  0.00000000000E+00  0.00000000000E+00 -0.54504927608E+03  0.20983097168E+04  0.20262835326E+04 0.  0.
        2    1    3    3  502    0 -0.26444460724E+03 -0.14390039509E+03 -0.12742878196E+04  0.13093692074E+04  0.25500000920E-02 0. -1.
       -2    1    3    3    0  502  0.26444460724E+03  0.14390039509E+03  0.72923854356E+03  0.78894050943E+03  0.25500000920E-02 0.  1.
</event>
<event>
 5   0  0.5846187E-05  0.2110466E+04  0.7818609E-02  0.8556647E-01
       -1   -1    0    0    0  501  0.00000000000E+00  0.00000000000E+00  0.12792444536E+04  0.12792444536E+04  0.50400001928E-02 0.  1.
        1   -1    0    0  501    0  0.00000000000E+00  0.00000000000E+00 -0.87044877947E+03  0.87044877948E+03  0.50400001928E-02 0. -1.
    10030    2    1    2    0    0  0.00000000000E+00  0.00000000000E+00  0.40879567415E+03  0.21496932331E+04  0.21104660844E+04 0.  0.
        5    1    3    3  502    0 -0.15091545834E+03 -0.71850714109E+03 -0.56762569812E+03  0.92803502657E+03  0.46999998093E+01 0. -1.
       -5    1    3    3    0  502  0.15091545834E+03  0.71850714109E+03  0.97642137227E+03  0.12216582065E+04  0.46999998093E+01 0.  1.
</event>
<event>
 5   0  0.5846187E-05  0.1775088E+04  0.7818609E-02  0.8719661E-01
        1   -1    0    0  501    0  0.00000000000E+00  0.00000000000E+00  0.10664792926E+04  0.10664792926E+04  0.50400001928E-02 0.  1.
       -1   -1    0    0    0  501  0.00000000000E+00  0.00000000000E+00 -0.73863050214E+03  0.73863050216E+03  0.50400001928E-02 0. -1.
    10030    2    1    2    0    0  0.00000000000E+00  0.00000000000E+00  0.32784879042E+03  0.18051097947E+04  0.17750877561E+04 0.  0.
        5    1    3    3  502    0 -0.32748585745E+03  0.35070014955E+03  0.92319447044E+03  0.10404555262E+04  0.46999998093E+01 0.  1.
       -5    1    3    3    0  502  0.32748585745E+03 -0.35070014955E+03 -0.59534568001E+03  0.76465426856E+03  0.46999998093E+01 0. -1.
</event>
<event>
 5   0  0.5933905E-05  0.2131386E+04  0.7818609E-02  0.8547542E-01
       -1   -1    0    0    0  501  0.00000000000E+00  0.00000000000E+00  0.62874522264E+03  0.62874522266E+03  0.50400001928E-02 0. -1.
        1   -1    0    0  501    0  0.00000000000E+00  0.00000000000E+00 -0.18062985207E+04  0.18062985208E+04  0.50400001928E-02 0.  1.
    10030    2    1    2    0    0  0.00000000000E+00  0.00000000000E+00 -0.11775532981E+04  0.24350437434E+04  0.21313859957E+04 0.  0.
        2    1    3    3  502    0  0.45331471871E+03  0.41150857513E+03 -0.15853271824E+04  0.16994398539E+04  0.25500000920E-02 0.  1.
       -2    1    3    3    0  502 -0.45331471871E+03 -0.41150857513E+03  0.40777388430E+03  0.73560388956E+03  0.25500000920E-02 0. -1.
</event>
<event>
 5   0  0.5933905E-05  0.2102829E+04  0.7818609E-02  0.8559998E-01
        1   -1    0    0  501    0  0.00000000000E+00  0.00000000000E+00  0.15723653063E+04  0.15723653063E+04  0.50400001928E-02 0. -1.
       -1   -1    0    0    0  501  0.00000000000E+00  0.00000000000E+00 -0.70306368410E+03  0.70306368412E+03  0.50400001928E-02 0.  1.
    10030    2    1    2    0    0  0.00000000000E+00  0.00000000000E+00  0.86930162217E+03  0.22754289904E+04  0.21028294700E+04 0.  0.
        2    1    3    3  502    0  0.10585336134E+03 -0.10089930973E+04  0.13594793952E+03  0.10235984793E+04  0.25500000920E-02 0. -1.
       -2    1    3    3    0  502 -0.10585336134E+03  0.10089930973E+04  0.73335368265E+03  0.12518305111E+04  0.25500000920E-02 0.  1.
</event>
<event>
 5   0  0.4615125E-05  0.2080960E+04  0.7818609E-02  0.8569677E-01
       -4   -1    0    0    0  501  0.00000000000E+00  0.00000000000E+00  0.14486796079E+04  0.14486801646E+04  0.12699999809E+01 0.  1.
        4   -1    0    0  501    0  0.00000000000E+00  0.00000000000E+00 -0.74729905104E+03  0.74730013019E+03  0.12699999809E+01 0. -1.
    10030    2    1    2    0    0  0.00000000000E+00  0.00000000000E+00  0.70138055690E+03  0.21959802948E+04  0.20809600596E+04 0.  0.
        1    1    3    3  502    0 -0.14083568868E+03  0.99469098339E+03  0.63649944053E+03  0.11892755700E+04  0.50400001928E-02 0.  1.
       -1    1    3    3    0  502  0.14083568868E+03 -0.99469098339E+03  0.64881116373E+02  0.10067047248E+04  0.50400001928E-02 0. -1.
</event>
<event>
 5   0  0.1235817E-04  0.2083754E+04  0.7818609E-02  0.8568434E-01
        2   -1    0    0  501    0  0.00000000000E+00  0.00000000000E+00  0.20618046547E+04  0.20618046547E+04  0.25500000920E-02 0. -1.
       -2   -1    0    0    0  501  0.00000000000E+00  0.00000000000E+00 -0.52648425581E+03  0.52648425582E+03  0.25500000920E-02 0.  1.
    10030    2    1    2    0    0  0.00000000000E+00  0.00000000000E+00  0.15353203989E+04  0.25882889105E+04  0.20837540059E+04 0.  0.
        1    1    3    3  502    0  0.38725688876E+02  0.67729651725E+03  0.17498664261E+04  0.18767692347E+04  0.50400001928E-02 0. -1.
       -1    1    3    3    0  502 -0.38725688876E+02 -0.67729651725E+03 -0.21454602718E+03  0.71151967581E+03  0.50400001928E-02 0.  1.
</event>
<event>
 5   0  0.5846187E-05  0.2087107E+04  0.7818609E-02  0.8566944E-01
       -1   -1    0    0    0  501  0.00000000000E+00  0.00000000000E+00  0.14696243416E+04  0.14696243416E+04  0.50400001928E-02 0.  1.
        1   -1    0    0  501    0  0.00000000000E+00  0.00000000000E+00 -0.74100817384E+03  0.74100817385E+03  0.50400001928E-02 0. -1.
    10030    2    1    2    0    0  0.00000000000E+00  0.00000000000E+00  0.72861616775E+03  0.22106325155E+04  0.20871067530E+04 0.  0.
        5    1    3    3  502    0 -0.27699299643E+03 -0.52645865586E+03 -0.54381440170E+03  0.80600249994E+03  0.46999998093E+01 0. -1.
       -5    1    3    3    0  502  0.27699299643E+03  0.52645865586E+03  0.12724305695E+04  0.14046300155E+04  0.46999998093E+01 0.  1.
</event>
<event>
 5   0  0.5933905E-05  0.2100753E+04  0.7818609E-02  0.8560912E-01
       -1   -1    0    0    0  501  0.00000000000E+00  0.00000000000E+00  0.72182091522E+03  0.72182091524E+03  0.50400001928E-02 0.  1.
        1   -1    0    0  501    0  0.00000000000E+00  0.00000000000E+00 -0.15284828202E+04  0.15284828202E+04  0.50400001928E-02 0. -1.
    10030    2    1    2    0    0  0.00000000000E+00  0.00000000000E+00 -0.80666190501E+03  0.22503037355E+04  0.21007530728E+04 0.  0.
        2    1    3    3  502    0  0.57035179381E+02 -0.57492716673E+03  0.53632634078E+03  0.78831478646E+03  0.25500000920E-02 0.  1.
       -2    1    3    3    0  502 -0.57035179381E+02  0.57492716673E+03 -0.13429882458E+04  0.14619889490E+04  0.25500000920E-02 0. -1.
</event>
<event>
 5   0  0.6052292E-05  0.2121739E+04  0.7818609E-02  0.8551727E-01
       -1   -1    0    0    0  501  0.00000000000E+00  0.00000000000E+00  0.51732718743E+03  0.51732718746E+03  0.50400001928E-02 0.  1.
        1   -1    0    0  501    0  0.00000000000E+00  0.00000000000E+00 -0.21754967715E+04  0.21754967715E+04  0.50400001928E-02 0. -1.
    10030    2    1    2    0    0  0.00000000000E+00  0.00000000000E+00 -0.16581695841E+04  0.26928239590E+04  0.21217385571E+04 0.  0.
        1    1    3    3  502    0 -0.32765462231E+03  0.75199204821E+03 -0.16829130158E+04  0.18721767574E+04  0.50400001928E-02 0. -1.
       -1    1    3    3    0  502  0.32765462231E+03 -0.75199204821E+03  0.24743431693E+02  0.82064720162E+03  0.50400001928E-02 0.  1.
</event>
<event>
 5   0  0.1325673E-04  0.2130827E+04  0.7818609E-02  0.8547784E-01
       -2   -1    0    0    0  501  0.00000000000E+00  0.00000000000E+00  0.87709325302E+03  0.87709325302E+03  0.25500000920E-02 0.  1.
        2   -1    0    0  501    0  0.00000000000E+00  0.00000000000E+00 -0.12941680467E+04  0.12941680467E+04  0.25500000920E-02 0. -1.
    10030    2    1    2    0    0  0.00000000000E+00  0.00000000000E+00 -0.41707479368E+03  0.21712612997E+04  0.21308271277E+04 0.  0.
        5    1    3    3  502    0  0.62470884631E+03 -0.18715455647E+03  0.64994352589E+03  0.92072615229E+03  0.46999998093E+01 0.  1.
       -5    1    3    3    0  502 -0.62470884631E+03  0.18715455647E+03 -0.10670183196E+04  0.12505351474E+04  0.46999998093E+01 0. -1.
</event>
<event>
 5   0  0.1325673E-04  0.2120842E+04  0.7818609E-02  0.8552118E-01
        2   -1    0    0  501    0  0.00000000000E+00  0.00000000000E+00  0.16175552610E+04  0.16175552610E+04  0.25500000920E-02 0.  1.
       -2   -1    0    0    0  501  0.00000000000E+00  0.00000000000E+00 -0.69518035863E+03  0.69518035863E+03  0.25500000920E-02 0. -1.
    10030    2    1    2    0    0  0.00000000000E+00  0.00000000000E+00  0.92237490232E+03  0.23127356196E+04  0.21208419521E+04 0.  0.
        5    1    3    3  502    0 -0.59841644070E+03  0.50944158447E+03  0.12375276833E+04  0.14659910714E+04  0.46999998093E+01 0.  1.
       -5    1    3    3    0  502  0.59841644070E+03 -0.50944158447E+03 -0.31515278100E+03  0.84674454817E+03  0.46999998093E+01 0. -1.
</event>
<event>
 5   0  0.1252477E-04  0.2135680E+04  0.7818609E-02  0.8545687E-01
        2   -1    0    0  501    0  0.00000000000E+00  0.00000000000E+00  0.50052054890E+03  0.50052054890E+03  0.25500000920E-02 0. -1.
       -2   -1    0    0    0  501  0.00000000000E+00  0.00000000000E+00 -0.22781917057E+04  0.22781917057E+04  0.25500000920E-02 0.  1.
    10030    2    1    2    0    0  0.00000000000E+00  0.00000000000E+00 -0.17776711568E+04  0.27787122547E+04  0.21356795294E+04 0.  0.
        4    1    3    3  502    0 -0.51388318436E+03 -0.25891117286E+03  0.28154517311E+03  0.64060925688E+03  0.12699999809E+01 0. -1.
       -4    1    3    3    0  502  0.51388318436E+03  0.25891117286E+03 -0.20592163300E+04  0.21381029978E+04  0.12699999809E+01 0.  1.
</event>
<event>
 5   0  0.5846187E-05  0.2128608E+04  0.7818609E-02  0.8548745E-01
       -1   -1    0    0    0  501  0.00000000000E+00  0.00000000000E+00  0.77054473351E+03  0.77054473353E+03  0.50400001928E-02 0. -1.
        1   -1    0    0  501    0  0.00000000000E+00  0.00000000000E+00 -0.14700543639E+04  0.14700543639E+04  0.50400001928E-02 0.  1.
    10030    2    1    2    0    0  0.00000000000E+00  0.00000000000E+00 -0.69950963037E+03  0.22405990974E+04  0.21286076652E+04 0.  0.
        5    1    3    3  502    0 -0.10533157016E+03 -0.39942206587E+02 -0.14637503439E+04  0.14680862641E+04  0.46999998093E+01 0.  1.
       -5    1    3    3    0  502  0.10533157016E+03  0.39942206587E+02  0.76424071350E+03  0.77251283336E+03  0.46999998093E+01 0. -1.
</event>
<event>
 5   0  0.1349252E-04  0.2066666E+04  0.7818609E-02  0.8576071E-01
        2   -1    0    0  501    0  0.00000000000E+00  0.00000000000E+00  0.12763299919E+04  0.12763299919E+04  0.25500000920E-02 0. -1.
       -2   -1    0    0    0  501  0.00000000000E+00  0.00000000000E+00 -0.83659963611E+03  0.83659963611E+03  0.25500000920E-02 0.  1.
    10030    2    1    2    0    0  0.00000000000E+00  0.00000000000E+00  0.43973035577E+03  0.21129296280E+04  0.20666661141E+04 0.  0.
        2    1    3    3  502    0 -0.87471797229E+03  0.52853968055E+03  0.63833322093E+02  0.10239923916E+04  0.25500000920E-02 0. -1.
       -2    1    3    3    0  502  0.87471797229E+03 -0.52853968055E+03  0.37589703368E+03  0.10889372364E+04  0.25500000920E-02 0.  1.
</event>
<event>
 5   0  0.5933905E-05  0.2128361E+04  0.7818609E-02  0.8548852E-01
        1   -1    0    0  501    0  0.00000000000E+00  0.00000000000E+00  0.10124292647E+04  0.10124292647E+04  0.50400001928E-02 0. -1.
       -1   -1    0    0    0  501  0.00000000000E+00  0.00000000000E+00 -0.11185765695E+04  0.11185765695E+04  0.50400001928E-02 0.  1.
    10030    2    1    2    0    0  0.00000000000E+00  0.00000000000E+00 -0.10614730483E+03  0.21310058343E+04  0.21283605464E+04 0.  0.
        2    1    3    3  502    0  0.60912552920E+03  0.65589769979E+03 -0.62932694118E+03  0.10942066084E+04  0.25500000920E-02 0. -1.
       -2    1    3    3    0  502 -0.60912552920E+03 -0.65589769979E+03  0.52317963635E+03  0.10367992259E+04  0.25500000920E-02 0.  1.
</event>
<event>
 5   0  0.1349252E-04  0.2120392E+04  0.7818609E-02  0.8552313E-01
        2   -1    0    0  501    0  0.00000000000E+00  0.00000000000E+00  0.24369701404E+04  0.24369701404E+04  0.25500000920E-02 0.  1.
       -2   -1    0    0    0  501  0.00000000000E+00  0.00000000000E+00 -0.46123476315E+03  0.46123476315E+03  0.25500000920E-02 0. -1.
    10030    2    1    2    0    0  0.00000000000E+00  0.00000000000E+00  0.19757353772E+04  0.28982049035E+04  0.21203917992E+04 0.  0.
        2    1    3    3  502    0 -0.66417935198E+03  0.35086910161E+03 -0.34762382904E+02  0.75196526604E+03  0.25500000920E-02 0. -1.
       -2    1    3    3    0  502  0.66417935198E+03 -0.35086910161E+03  0.20104977601E+04  0.21462396375E+04  0.25500000920E-02 0.  1.
</event>
<event>
 5   0  0.5846187E-05  0.2011441E+04  0.7818609E-02  0.8601290E-01
       -1   -1    0    0    0  501  0.00000000000E+00  0.00000000000E+00  0.82847736465E+03  0.82847736467E+03  0.50400001928E-02 0. -1.
        1   -1    0    0  501    0  0.00000000000E+00  0.00000000000E+00 -0.12208828076E+04  0.12208828076E+04  0.50400001928E-02 0.  1.
    10030    2    1    2    0    0  0.00000000000E+00  0.00000000000E+00 -0.39240544291E+03  0.20493601722E+04  0.20114410466E+04 0.  0.
        5    1    3    3  502    0  0.26876633359E+03  0.28201776203E+03 -0.11408724118E+04  0.12055626529E+04  0.46999998093E+01 0.  1.
       -5    1    3    3    0  502 -0.26876633359E+03 -0.28201776203E+03  0.74846696885E+03  0.84379751933E+03  0.46999998093E+01 0. -1.
</event>
<event>
 5   0  0.1252477E-04  0.2101203E+04  0.7818609E-02  0.8560714E-01
       -2   -1    0    0    0  501  0.00000000000E+00  0.00000000000E+00  0.75893616573E+03  0.75893616574E+03  0.25500000920E-02 0. -1.
        2   -1    0    0  501    0  0.00000000000E+00  0.00000000000E+00 -0.14543555670E+04  0.14543555670E+04  0.25500000920E-02 0.  1.
    10030    2    1    2    0    0  0.00000000000E+00  0.00000000000E+00 -0.69541940129E+03  0.22132917328E+04  0.21012025487E+04 0.  0.
        4    1    3    3  502    0  0.89728345980E+03 -0.27283141459E+03  0.15105437900E+03  0.94993348522E+03  0.12699999809E+01 0. -1.
       -4    1    3    3    0  502 -0.89728345980E+03  0.27283141459E+03 -0.84647378029E+03  0.12633582475E+04  0.12699999809E+01 0.  1.
</event>
<event>
 5   0  0.6052292E-05  0.2227484E+04  0.7818609E-02  0.8507075E-01
       -1   -1    0    0    0  501  0.00000000000E+00  0.00000000000E+00  0.14122931854E+04  0.14122931855E+04  0.50400001928E-02 0.  1.
        1   -1    0    0  501    0  0.00000000000E+00  0.00000000000E+00 -0.87830330069E+03  0.87830330070E+03  0.50400001928E-02 0. -1.
    10030    2    1    2    0    0  0.00000000000E+00  0.00000000000E+00  0.53398988475E+03  0.22905964862E+04  0.22274844703E+04 0.  0.
        1    1    3    3  502    0  0.54914614692E+03  0.14415888617E+03 -0.71831714758E+03  0.91559969401E+03  0.50400001928E-02 0. -1.
       -1    1    3    3    0  502 -0.54914614692E+03 -0.14415888617E+03  0.12523070323E+04  0.13749967921E+04  0.50400001928E-02 0.  1.
</event>
<event>
 5   0  0.5846187E-05  0.2101279E+04  0.7818609E-02  0.8560680E-01
        1   -1    0    0  501    0  0.00000000000E+00  0.00000000000E+00  0.28317818218E+04  0.28317818218E+04  0.50400001928E-02 0.  1.
       -1   -1    0    0    0  501  0.00000000000E+00  0.00000000000E+00 -0.38980519465E+03  0.38980519468E+03  0.50400001928E-02 0. -1.
    10030    2    1    2    0    0  0.00000000000E+00  0.00000000000E+00  0.24419766272E+04  0.32215870165E+04  0.21012789099E+04 0.  0.
        5    1    3    3  502    0  0.10071368986E+04 -0.32477751493E+02  0.76504111448E+03  0.12651835968E+04  0.46999998093E+01 0. -1.
       -5    1    3    3    0  502 -0.10071368986E+04  0.32477751493E+02  0.16769355127E+04  0.19564034197E+04  0.46999998093E+01 0.  1.
</event>
<event>
 5   0  0.6052292E-05  0.2135720E+04  0.7818609E-02  0.8545669E-01
       -1   -1    0    0    0  501  0.00000000000E+00  0.00000000000E+00  0.86125533973E+03  0.86125533975E+03  0.50400001928E-02 0.  1.
        1   -1    0    0  501    0  0.00000000000E+00  0.00000000000E+00 -0.13240271746E+04  0.13240271746E+04  0.50400001928E-02 0. -1.
    10030    2    1    2    0    0  0.00000000000E+00  0.00000000000E+00 -0.46277183484E+03  0.21852825143E+04  0.21357204631E+04 0.  0.
        1    1    3    3  502    0 -0.76536982733E+03 -0.68721569073E+03 -0.52486796755E+03  0.11547912199E+04  0.50400001928E-02 0. -1.
       -1    1    3    3    0  502  0.76536982733E+03  0.68721569073E+03  0.62096132712E+02  0.10304912944E+04  0.50400001928E-02 0.  1.
</event>
<event>
 5   0  0.1349252E-04  0.2095502E+04  0.7818609E-02  0.8563227E-01
       -2   -1    0    0    0  501  0.00000000000E+00  0.00000000000E+00  0.10080403624E+04  0.10080403624E+04  0.25500000920E-02 0.  1.
        2   -1    0    0  501    0  0.00000000000E+00  0.00000000000E+00 -0.10890257069E+04  0.10890257069E+04  0.25500000920E-02 0. -1.
    10030    2    1    2    0    0  0.00000000000E+00  0.00000000000E+00 -0.80985344490E+02  0.20970660693E+04  0.20955017235E+04 0.  0.
        2    1    3    3  502    0  0.42325618647E+03  0.77694402502E+03  0.52116961837E+03  0.10268425335E+04  0.25500000920E-02 0.  1.
       -2    1    3    3    0  502 -0.42325618647E+03 -0.77694402502E+03 -0.60215496286E+03  0.10702235359E+04  0.25500000920E-02 0. -1.
</event>
<event>
 5   0  0.1281470E-04  0.2067014E+04  0.7818609E-02  0.8575915E-01
       -2   -1    0    0    0  501  0.00000000000E+00  0.00000000000E+00  0.12960681457E+04  0.12960681457E+04  0.25500000920E-02 0. -1.
        2   -1    0    0  501    0  0.00000000000E+00  0.00000000000E+00 -0.82413647406E+03  0.82413647407E+03  0.25500000920E-02 0.  1.
    10030    2    1    2    0    0  0.00000000000E+00  0.00000000000E+00  0.47193167168E+03  0.21202046198E+04  0.20670143026E+04 0.  0.
        3    1    3    3  502    0 -0.99536099308E+03  0.26917499151E+03  0.30804748996E+03  0.10761468064E+04  0.10100000352E+00 0.  1.
       -3    1    3    3    0  502  0.99536099308E+03 -0.26917499151E+03  0.16388418172E+03  0.10440578134E+04  0.10100000352E+00 0. -1.
</event>
<event>
 5   0  0.5846187E-05  0.2154998E+04  0.7818609E-02  0.8537396E-01
        1   -1    0    0  501    0  0.00000000000E+00  0.00000000000E+00  0.13823120218E+04  0.13823120218E+04  0.50400001928E-02 0.  1.
       -1   -1    0    0    0  501  0.00000000000E+00  0.00000000000E+00 -0.83989979819E+03  0.83989979820E+03  0.50400001928E-02 0. -1.
    10030    2    1    2    0    0  0.00000000000E+00  0.00000000000E+00  0.54241222362E+03  0.22222118200E+04  0.21549975296E+04 0.  0.
        5    1    3    3  502    0  0.71278430742E+02 -0.59510433169E+02  0.13781679510E+04  0.13813005095E+04  0.46999998093E+01 0.  1.
       -5    1    3    3    0  502 -0.71278430742E+02  0.59510433169E+02 -0.83575572738E+03  0.84091131054E+03  0.46999998093E+01 0. -1.
</event>
<event>
 5   0  0.1325673E-04  0.2035648E+04  0.7818609E-02  0.8590133E-01
        2   -1    0    0  501    0  0.00000000000E+00  0.00000000000E+00  0.12158909815E+04  0.12158909815E+04  0.25500000920E-02 0. -1.
       -2   -1    0    0    0  501  0.00000000000E+00  0.00000000000E+00 -0.85202203685E+03  0.85202203686E+03  0.25500000920E-02 0.  1.
    10030    2    1    2    0    0  0.00000000000E+00  0.00000000000E+00  0.36386894469E+03  0.20679130184E+04  0.20356482119E+04 0.  0.
        5    1    3    3  502    0 -0.35817720424E+03  0.68844082726E+03  0.85093324492E+03  0.11516732000E+04  0.46999998093E+01 0. -1.
       -5    1    3    3    0  502  0.35817720424E+03 -0.68844082726E+03 -0.48706430023E+03  0.91623981841E+03  0.46999998093E+01 0.  1.
</event>
<event>
 5   0  0.1325673E-04  0.2050192E+04  0.7818609E-02  0.8583507E-01
        2   -1    0    0  501    0  0.00000000000E+00  0.00000000000E+00  0.22827872100E+04  0.22827872100E+04  0.25500000920E-02 0. -1.
       -2   -1    0    0    0  501  0.00000000000E+00  0.00000000000E+00 -0.46032397697E+03  0.46032397698E+03  0.25500000920E-02 0.  1.
    10030    2    1    2    0    0  0.00000000000E+00  0.00000000000E+00  0.18224632330E+04  0.27431111870E+04  0.20501918809E+04 0.  0.
        5    1    3    3  502    0 -0.29444215094E+03  0.61358754664E+03  0.19368714344E+04  0.20529683147E+04  0.46999998093E+01 0. -1.
       -5    1    3    3    0  502  0.29444215094E+03 -0.61358754664E+03 -0.11440820137E+03  0.69014287230E+03  0.46999998093E+01 0.  1.
</event>
<event>
 5   0  0.1325673E-04  0.2139430E+04  0.7818609E-02  0.8544070E-01
        2   -1    0    0  501    0  0.00000000000E+00  0.00000000000E+00  0.77434541121E+03  0.77434541121E+03  0.25500000920E-02 0. -1.
       -2   -1    0    0    0  501  0.00000000000E+00  0.00000000000E+00 -0.14777515462E+04  0.14777515462E+04  0.25500000920E-02 0.  1.
    10030    2    1    2    0    0  0.00000000000E+00  0.00000000000E+00 -0.70340613501E+03  0.22520969574E+04  0.21394299509E+04 0.  0.
        5    1    3    3  502    0  0.89598345818E+01 -0.10679813784E+04 -0.41489380443E+03  0.11457850855E+04  0.46999998093E+01 0.  1.
       -5    1    3    3    0  502 -0.89598345818E+01  0.10679813784E+04 -0.28851233057E+03  0.11063118720E+04  0.46999998093E+01 0. -1.
</event>
<event>
 5   0  0.6052292E-05  0.2049814E+04  0.7818609E-02  0.8583679E-01
        1   -1    0    0  501    0  0.00000000000E+00  0.00000000000E+00  0.14219236241E+04  0.14219236241E+04  0.50400001928E-02 0. -1.
       -1   -1    0    0    0  501  0.00000000000E+00  0.00000000000E+00 -0.73874177172E+03  0.73874177174E+03  0.50400001928E-02 0.  1.
    10030    2    1    2    0    0  0.00000000000E+00  0.00000000000E+00  0.68318185241E+03  0.21606653959E+04  0.20498140183E+04 0.  0.
        1    1    3    3  502    0  0.77054010660E+03  0.28263469640E+03  0.98864414417E+03  0.12849247726E+04  0.50400001928E-02 0.  1.
       -1    1    3    3    0  502 -0.77054010660E+03 -0.28263469640E+03 -0.30546229176E+03  0.87574062325E+03  0.50400001928E-02 0. -1.
</event>
<event>
 5   0  0.1252477E-04  0.2124897E+04  0.7818609E-02  0.8550355E-01
       -2   -1    0    0    0  501  0.00000000000E+00  0.00000000000E+00  0.72824464306E+03  0.72824464306E+03  0.25500000920E-02 0. -1.
        2   -1    0    0  501    0  0.00000000000E+00  0.00000000000E+00 -0.15500236967E+04  0.15500236967E+04  0.25500000920E-02 0.  1.
    10030    2    1    2    0    0  0.00000000000E+00  0.00000000000E+00 -0.82177905367E+03  0.22782683398E+04  0.21248966598E+04 0.  0.
        4    1    3    3  502    0  0.11358705908E+03 -0.98388630971E+03  0.13913779232E+01  0.99042306074E+03  0.12699999809E+01 0. -1.
       -4    1    3    3    0  502 -0.11358705908E+03  0.98388630971E+03 -0.82317043159E+03  0.12878452790E+04  0.12699999809E+01 0.  1.
</event>
<event>
 5   0  0.6052292E-05  0.2037903E+04  0.7818609E-02  0.8589102E-01
       -1   -1    0    0    0  501  0.00000000000E+00  0.00000000000E+00  0.43229957612E+03  0.43229957615E+03  0.50400001928E-02 0.  1.
        1   -1    0    0  501    0  0.00000000000E+00  0.00000000000E+00 -0.24017196447E+04  0.24017196447E+04  0.50400001928E-02 0. -1.
    10030    2    1    2    0    0  0.00000000000E+00  0.00000000000E+00 -0.19694200685E+04  0.28340192208E+04  0.20379032209E+04 0.  0.
        1    1    3    3  502    0 -0.67666081313E+03  0.68907120445E+03 -0.14365623341E+04  0.17310113578E+04  0.50400001928E-02 0. -1.
       -1    1    3    3    0  502  0.67666081313E+03 -0.68907120445E+03 -0.53285773441E+03  0.11030078631E+04  0.50400001928E-02 0.  1.
</event>
<event>
 5   0  0.6052292E-05  0.2078129E+04  0.7818609E-02  0.8570939E-01
        1   -1    0    0  501    0  0.00000000000E+00  0.00000000000E+00  0.81886081735E+03  0.81886081737E+03  0.50400001928E-02 0. -1.
       -1   -1    0    0    0  501  0.00000000000E+00  0.00000000000E+00 -0.13184846266E+04  0.13184846266E+04  0.50400001928E-02 0.  1.
    10030    2    1    2    0    0  0.00000000000E+00  0.00000000000E+00 -0.49962380928E+03  0.21373454440E+04  0.20781293502E+04 0.  0.
        1    1    3    3  502    0  0.58091972380E+03 -0.33929577985E+03  0.56462751707E+03  0.87829014840E+03  0.50400001928E-02 0. -1.
       -1    1    3    3    0  502 -0.58091972380E+03  0.33929577985E+03 -0.10642513264E+04  0.12590552956E+04  0.50400001928E-02 0.  1.
</event>
<event>
 5   0  0.5933905E-05  0.2058605E+04  0.7818609E-02  0.8579700E-01
        1   -1    0    0  501    0  0.00000000000E+00  0.00000000000E+00  0.70888429556E+03  0.70888429558E+03  0.50400001928E-02 0. -1.
       -1   -1    0    0    0  501  0.00000000000E+00  0.00000000000E+00 -0.14945515417E+04  0.14945515417E+04  0.50400001928E-02 0.  1.
    10030    2    1    2    0    0  0.00000000000E+00  0.00000000000E+00 -0.78566724613E+03  0.22034358373E+04  0.20586054667E+04 0.  0.
        2    1    3    3  502    0 -0.53611706415E+03  0.85533723030E+03 -0.60808073465E+03  0.11784674216E+04  0.25500000920E-02 0.  1.
       -2    1    3    3    0  502  0.53611706415E+03 -0.85533723030E+03 -0.17758651148E+03  0.10249684156E+04  0.25500000920E-02 0. -1.
</event>
<event>
 5   0  0.1252477E-04  0.2106066E+04  0.7818609E-02  0.8558576E-01
        2   -1    0    0  501    0  0.00000000000E+00  0.00000000000E+00  0.95247375528E+03  0.95247375529E+03  0.25500000920E-02 0.  1.
       -2   -1    0    0    0  501  0.00000000000E+00  0.00000000000E+00 -0.11642088143E+04  0.11642088143E+04  0.25500000920E-02 0. -1.
    10030    2    1    2    0    0  0.00000000000E+00  0.00000000000E+00 -0.21173505898E+03  0.21166825696E+04  0.21060658501E+04 0.  0.
        4    1    3    3  502    0 -0.21691651015E+03 -0.49411485519E+02 -0.11403191319E+04  0.11618190921E+04  0.12699999809E+01 0. -1.
       -4    1    3    3    0  502  0.21691651015E+03  0.49411485519E+02  0.92858407290E+03  0.95486347748E+03  0.12699999809E+01 0.  1.
</event>
<event>
 5   0  0.6263616E-05  0.2256209E+04  0.7818609E-02  0.8495390E-01
        1   -1    0    0  501    0  0.00000000000E+00  0.00000000000E+00  0.17511046903E+04  0.17511046903E+04  0.50400001928E-02 0.  1.
       -1   -1    0    0    0  501  0.00000000000E+00  0.00000000000E+00 -0.72675272818E+03  0.72675272820E+03  0.50400001928E-02 0. -1.
    10030    2    1    2    0    0  0.00000000000E+00  0.00000000000E+00  0.10243519621E+04  0.24778574185E+04  0.22562093086E+04 0.  0.
        4    1    3    3  502    0 -0.37088760332E+03 -0.10607378329E+04  0.62142805752E+03  0.12840937692E+04  0.12699999809E+01 0. -1.
       -4    1    3    3    0  502  0.37088760332E+03  0.10607378329E+04  0.40292390456E+03  0.11937636493E+04  0.12699999809E+01 0.  1.
</event>
<event>
 5   0  0.6221148E-05  0.2029494E+04  0.7818609E-02  0.8592954E-01
        1   -1    0    0  501    0  0.00000000000E+00  0.00000000000E+00  0.17577525731E+04  0.17577525731E+04  0.50400001928E-02 0. -1.
       -1   -1    0    0    0  501  0.00000000000E+00  0.00000000000E+00 -0.58581130682E+03  0.58581130684E+03  0.50400001928E-02 0.  1.
    10030    2    1    2    0    0  0.00000000000E+00  0.00000000000E+00  0.11719412663E+04  0.23435638800E+04  0.20294938600E+04 0.  0.
        3    1    3    3  502    0  0.90060712145E+02 -0.68047207547E+03 -0.27705411240E+03  0.74021089479E+03  0.10100000352E+00 0.  1.
       -3    1    3    3    0  502 -0.90060712145E+02  0.68047207547E+03  0.14489953787E+04  0.16033529852E+04  0.10100000352E+00 0. -1.
</event>
<event>
 5   0  0.1235817E-04  0.1916140E+04  0.7818609E-02  0.8646864E-01
       -2   -1    0    0    0  501  0.00000000000E+00  0.00000000000E+00  0.52196205884E+03  0.52196205884E+03  0.25500000920E-02 0.  1.
        2   -1    0    0  501    0  0.00000000000E+00  0.00000000000E+00 -0.17585532359E+04  0.17585532359E+04  0.25500000920E-02 0. -1.
    10030    2    1    2    0    0  0.00000000000E+00  0.00000000000E+00 -0.12365911770E+04  0.22805152947E+04  0.19161399402E+04 0.  0.
        1    1    3    3  502    0 -0.85618607483E+03 -0.19964339570E+03 -0.10714735495E+04  0.13859897718E+04  0.50400001928E-02 0. -1.
       -1    1    3    3    0  502  0.85618607483E+03  0.19964339570E+03 -0.16511762751E+03  0.89452552290E+03  0.50400001928E-02 0.  1.
</event>
<event>
 5   0  0.1325673E-04  0.2105050E+04  0.7818609E-02  0.8559022E-01
       -2   -1    0    0    0  501  0.00000000000E+00  0.00000000000E+00  0.65665503015E+03  0.65665503015E+03  0.25500000920E-02 0.  1.
        2   -1    0    0  501    0  0.00000000000E+00  0.00000000000E+00 -0.16870483626E+04  0.16870483626E+04  0.25500000920E-02 0. -1.
    10030    2    1    2    0    0  0.00000000000E+00  0.00000000000E+00 -0.10303933325E+04  0.23437033928E+04  0.21050499219E+04 0.  0.
        5    1    3    3  502    0  0.48753007998E+02  0.51375891246E+02  0.65398714240E+03  0.65782794894E+03  0.46999998093E+01 0.  1.
       -5    1    3    3    0  502 -0.48753007998E+02 -0.51375891246E+02 -0.16843804749E+04  0.16858754438E+04  0.46999998093E+01 0. -1.
</event>
<event>
 5   0  0.6263616E-05  0.2113568E+04  0.7818609E-02  0.8555290E-01
        1   -1    0    0  501    0  0.00000000000E+00  0.00000000000E+00  0.85495218565E+03  0.85495218566E+03  0.50400001928E-02 0.  1.
       -1   -1    0    0    0  501  0.00000000000E+00  0.00000000000E+00 -0.13062631008E+04  0.13062631008E+04  0.50400001928E-02 0. -1.
    10030    2    1    2    0    0  0.00000000000E+00  0.00000000000E+00 -0.45131091517E+03  0.21612152865E+04  0.21135680667E+04 0.  0.
        4    1    3    3  502    0 -0.76264540987E+03  0.56600295461E+03 -0.69957267104E+03  0.11795723381E+04  0.12699999809E+01 0. -1.
       -4    1    3    3    0  502  0.76264540987E+03 -0.56600295461E+03  0.24826175586E+03  0.98164294840E+03  0.12699999809E+01 0.  1.
</event>
<event>
 5   0  0.1252477E-04  0.1555004E+04  0.7818609E-02  0.8848678E-01
       -2   -1    0    0    0  501  0.00000000000E+00  0.00000000000E+00  0.12910277315E+04  0.12910277315E+04  0.25500000920E-02 0. -1.
        2   -1    0    0  501    0  0.00000000000E+00  0.00000000000E+00 -0.46823862022E+03  0.46823862023E+03  0.25500000920E-02 0.  1.
    10030    2    1    2    0    0  0.00000000000E+00  0.00000000000E+00  0.82278911129E+03  0.17592663517E+04  0.15550035932E+04 0.  0.
        4    1    3    3  502    0  0.14990164423E+02 -0.68105571255E+03 -0.12594496460E+02  0.68133825877E+03  0.12699999809E+01 0.  1.
       -4    1    3    3    0  502 -0.14990164423E+02  0.68105571255E+03  0.83538360775E+03  0.10779280930E+04  0.12699999809E+01 0. -1.
</event>
<event>
 5   0  0.1349252E-04  0.2120566E+04  0.7818609E-02  0.8552238E-01
       -2   -1    0    0    0  501  0.00000000000E+00  0.00000000000E+00  0.61069332880E+03  0.61069332880E+03  0.25500000920E-02 0. -1.
        2   -1    0    0  501    0  0.00000000000E+00  0.00000000000E+00 -0.18408577879E+04  0.18408577879E+04  0.25500000920E-02 0.  1.
    10030    2    1    2    0    0  0.00000000000E+00  0.00000000000E+00 -0.12301644591E+04  0.24515511167E+04  0.21205655570E+04 0.  0.
        2    1    3    3  502    0 -0.57693628324E+03 -0.88235049127E+03 -0.74588687694E+03  0.12914120557E+04  0.25500000920E-02 0. -1.
       -2    1    3    3    0  502  0.57693628324E+03  0.88235049127E+03 -0.48427758220E+03  0.11601390611E+04  0.25500000920E-02 0.  1.
</event>
<event>
 5   0  0.6052292E-05  0.2106545E+04  0.7818609E-02  0.8558366E-01
        1   -1    0    0  501    0  0.00000000000E+00  0.00000000000E+00  0.13945225656E+04  0.13945225657E+04  0.50400001928E-02 0.  1.
       -1   -1    0    0    0  501  0.00000000000E+00  0.00000000000E+00 -0.79552880282E+03  0.79552880284E+03  0.50400001928E-02 0. -1.
    10030    2    1    2    0    0  0.00000000000E+00  0.00000000000E+00  0.59899376282E+03  0.21900513685E+04  0.21065449126E+04 0.  0.
        1    1    3    3  502    0 -0.17548507190E+03 -0.23520521017E+03 -0.75216934787E+03  0.80738790507E+03  0.50400001928E-02 0. -1.
       -1    1    3    3    0  502  0.17548507190E+03  0.23520521017E+03  0.13511631107E+04  0.13826634634E+04  0.50400001928E-02 0.  1.
</event>
<event>
 5   0  0.1349252E-04  0.2074983E+04  0.7818609E-02  0.8572344E-01
        2   -1    0    0  501    0  0.00000000000E+00  0.00000000000E+00  0.23548052170E+04  0.23548052170E+04  0.25500000920E-02 0.  1.
       -2   -1    0    0    0  501  0.00000000000E+00  0.00000000000E+00 -0.45710322030E+03  0.45710322031E+03  0.25500000920E-02 0. -1.
    10030    2    1    2    0    0  0.00000000000E+00  0.00000000000E+00  0.18977019967E+04  0.28119084373E+04  0.20749834196E+04 0.  0.
        2    1    3    3  502    0 -0.95010105698E+03 -0.30718069716E+02  0.38560270681E+03  0.10258289652E+04  0.25500000920E-02 0. -1.
       -2    1    3    3    0  502  0.95010105698E+03  0.30718069716E+02  0.15120992899E+04  0.17860794721E+04  0.25500000920E-02 0.  1.
</event>
<event>
 5   0  0.5933905E-05  0.2097347E+04  0.7818609E-02  0.8562413E-01
        1   -1    0    0  501    0  0.00000000000E+00  0.00000000000E+00  0.77010483275E+03  0.77010483276E+03  0.50400001928E-02 0. -1.
       -1   -1    0    0    0  501  0.00000000000E+00  0.00000000000E+00 -0.14280078726E+04  0.14280078726E+04  0.50400001928E-02 0.  1.
    10030    2    1    2    0    0  0.00000000000E+00  0.00000000000E+00 -0.65790303983E+03  0.21981127054E+04  0.20973466703E+04 0.  0.
        2    1    3    3  502    0  0.42488408764E+03 -0.77437323870E+03 -0.92138446288E+03  0.12763736636E+04  0.25500000920E-02 0.  1.
       -2    1    3    3    0  502 -0.42488408764E+03  0.77437323870E+03  0.26348142305E+03  0.92173904173E+03  0.25500000920E-02 0. -1.
</event>
<event>
 5   0  0.6263616E-05  0.2108272E+04  0.7818609E-02  0.8557608E-01
        1   -1    0    0  501    0  0.00000000000E+00  0.00000000000E+00  0.10678241062E+04  0.10678241062E+04  0.50400001928E-02 0.  1.
       -1   -1    0    0    0  501  0.00000000000E+00  0.00000000000E+00 -0.10406230351E+04  0.10406230351E+04  0.50400001928E-02 0. -1.
    10030    2    1    2    0    0  0.00000000000E+00  0.00000000000E+00  0.27201071106E+02  0.21084471413E+04  0.21082716735E+04 0.  0.
        4    1    3    3  502    0 -0.31585804423E+03  0.91349000194E+03 -0.40711304963E+03  0.10487959458E+04  0.12699999809E+01 0. -1.
       -4    1    3    3    0  502  0.31585804423E+03 -0.91349000194E+03  0.43431412074E+03  0.10596511955E+04  0.12699999809E+01 0.  1.
</event>
<event>
 5   0  0.1235817E-04  0.2113269E+04  0.7818609E-02  0.8555421E-01
        2   -1    0    0  501    0  0.00000000000E+00  0.00000000000E+00  0.14725061760E+04  0.14725061760E+04  0.25500000920E-02 0. -1.
       -2   -1    0    0    0  501  0.00000000000E+00  0.00000000000E+00 -0.75821535495E+03  0.75821535495E+03  0.25500000920E-02 0.  1.
    10030    2    1    2    0    0  0.00000000000E+00  0.00000000000E+00  0.71429082109E+03  0.22307215310E+04  0.21132693089E+04 0.  0.
        1    1    3    3  502    0  0.44821901634E+03 -0.47481430408E+03  0.12340559716E+04  0.13961529468E+04  0.50400001928E-02 0. -1.
       -1    1    3    3    0  502 -0.44821901634E+03  0.47481430408E+03 -0.51976515049E+03  0.83456858415E+03  0.50400001928E-02 0.  1.
</event>
<event>
 5   0  0.1349252E-04  0.2108930E+04  0.7818609E-02  0.8557320E-01
       -2   -1    0    0    0  501  0.00000000000E+00  0.00000000000E+00  0.13061692215E+04  0.13061692215E+04  0.25500000920E-02 0. -1.
        2   -1    0    0  501    0  0.00000000000E+00  0.00000000000E+00 -0.85126517030E+03  0.85126517030E+03  0.25500000920E-02 0.  1.
    10030    2    1    2    0    0  0.00000000000E+00  0.00000000000E+00  0.45490405116E+03  0.21574343918E+04  0.21089299322E+04 0.  0.
        2    1    3    3  502    0  0.51879352909E+03  0.68214369550E+03  0.85593488148E+03  0.12112354307E+04  0.25500000920E-02 0. -1.
       -2    1    3    3    0  502 -0.51879352909E+03 -0.68214369550E+03 -0.40103083032E+03  0.94619896111E+03  0.25500000920E-02 0.  1.
</event>
<event>
 5   0  0.6052292E-05  0.1993857E+04  0.7818609E-02  0.8609498E-01
       -1   -1    0    0    0  501  0.00000000000E+00  0.00000000000E+00  0.12755795420E+04  0.12755795420E+04  0.50400001928E-02 0. -1.
        1   -1    0    0  501    0  0.00000000000E+00  0.00000000000E+00 -0.77914913772E+03  0.77914913774E+03  0.50400001928E-02 0.  1.
    10030    2    1    2    0    0  0.00000000000E+00  0.00000000000E+00  0.49643040431E+03  0.20547286798E+04  0.19938572670E+04 0.  0.
        1    1    3    3  502    0 -0.97614731597E+03  0.19706264097E+03  0.29621435489E+03  0.10389611210E+04  0.50400001928E-02 0.  1.
       -1    1    3    3    0  502  0.97614731597E+03 -0.19706264097E+03  0.20021604943E+03  0.10157675588E+04  0.50400001928E-02 0. -1.
</event>
<event>
 5   0  0.5933905E-05  0.2103251E+04  0.7818609E-02  0.8559813E-01
        1   -1    0    0  501    0  0.00000000000E+00  0.00000000000E+00  0.99168930292E+03  0.99168930294E+03  0.50400001928E-02 0. -1.
       -1   -1    0    0    0  501  0.00000000000E+00  0.00000000000E+00 -0.11151841005E+04  0.11151841005E+04  0.50400001928E-02 0.  1.
    10030    2    1    2    0    0  0.00000000000E+00  0.00000000000E+00 -0.12349479756E+03  0.21068734034E+04  0.21032509534E+04 0.  0.
        2    1    3    3  502    0 -0.96442000356E+03 -0.19613580301E+03 -0.43298107387E+03  0.10751966364E+04  0.25500000920E-02 0.  1.
       -2    1    3    3    0  502  0.96442000356E+03  0.19613580301E+03  0.30948627632E+03  0.10316767671E+04  0.25500000920E-02 0. -1.
</event>
<event>
 5   0  0.1235817E-04  0.2077558E+04  0.7818609E-02  0.8571194E-01
        2   -1    0    0  501    0  0.00000000000E+00  0.00000000000E+00  0.11206797668E+04  0.11206797668E+04  0.25500000920E-02 0.  1.
       -2   -1    0    0    0  501  0.00000000000E+00  0.00000000000E+00 -0.96286332574E+03  0.96286332574E+03  0.25500000920E-02 0. -1.
    10030    2    1    2    0    0  0.00000000000E+00  0.00000000000E+00  0.15781644110E+03  0.20835430926E+04  0.20775576501E+04 0.  0.
        1    1    3    3  502    0  0.36941860326E+02 -0.13209946854E+03  0.11115574427E+04  0.11199888031E+04  0.50400001928E-02 0.  1.
       -1    1    3    3    0  502 -0.36941860326E+02  0.13209946854E+03 -0.95374100160E+03  0.96355428949E+03  0.50400001928E-02 0. -1.
</event>
<event>
 5   0  0.5933905E-05  0.1956971E+04  0.7818609E-02  0.8627007E-01
        1   -1    0    0  501    0  0.00000000000E+00  0.00000000000E+00  0.59011961797E+03  0.59011961799E+03  0.50400001928E-02 0. -1.
       -1   -1    0    0    0  501  0.00000000000E+00  0.00000000000E+00 -0.16224404791E+04  0.16224404792E+04  0.50400001928E-02 0.  1.
    10030    2    1    2    0    0  0.00000000000E+00  0.00000000000E+00 -0.10323208612E+04  0.22125600971E+04  0.19569710839E+04 0.  0.
        2    1    3    3  502    0  0.37361959071E+03  0.29853584048E+03  0.44898026238E+03  0.65597143431E+03  0.25500000920E-02 0. -1.
       -2    1    3    3    0  502 -0.37361959071E+03 -0.29853584048E+03 -0.14813011236E+04  0.15565886628E+04  0.25500000920E-02 0.  1.
</event>
<event>
 5   0  0.6221148E-05  0.2113849E+04  0.7818609E-02  0.8555167E-01
        1   -1    0    0  501    0  0.00000000000E+00  0.00000000000E+00  0.11675317446E+04  0.11675317446E+04  0.50400001928E-02 0. -1.
       -1   -1    0    0    0  501  0.00000000000E+00  0.00000000000E+00 -0.95679547152E+03  0.95679547154E+03  0.50400001928E-02 0.  1.
    10030    2    1    2    0    0  0.00000000000E+00  0.00000000000E+00  0.21073627309E+03  0.21243272162E+04  0.21138487043E+04 0.  0.
        3    1    3    3  502    0  0.76667145835E+03  0.32509801550E+03 -0.54871551836E+03  0.99727758173E+03  0.10100000352E+00 0.  1.
       -3    1    3    3    0  502 -0.76667145835E+03 -0.32509801550E+03  0.75945179146E+03  0.11270496344E+04  0.10100000352E+00 0. -1.
</event>
<event>
 5   0  0.1252477E-04  0.2101803E+04  0.7818609E-02  0.8560450E-01
        2   -1    0    0  501    0  0.00000000000E+00  0.00000000000E+00  0.14727796239E+04  0.14727796239E+04  0.25500000920E-02 0.  1.
       -2   -1    0    0    0  501  0.00000000000E+00  0.00000000000E+00 -0.74987033004E+03  0.74987033005E+03  0.25500000920E-02 0. -1.
    10030    2    1    2    0    0  0.00000000000E+00  0.00000000000E+00  0.72290929381E+03  0.22226499539E+04  0.21018027906E+04 0.  0.
        4    1    3    3  502    0 -0.74651996335E+02 -0.66260351984E+03 -0.49751396138E+03  0.83194837564E+03  0.12699999809E+01 0. -1.
       -4    1    3    3    0  502  0.74651996335E+02  0.66260351984E+03  0.12204232552E+04  0.13907015783E+04  0.12699999809E+01 0.  1.
</event>
<event>
 5   0  0.1252477E-04  0.2159466E+04  0.7818609E-02  0.8535491E-01
       -2   -1    0    0    0  501  0.00000000000E+00  0.00000000000E+00  0.11264372766E+04  0.11264372766E+04  0.25500000920E-02 0. -1.
        2   -1    0    0  501    0  0.00000000000E+00  0.00000000000E+00 -0.10349652073E+04  0.10349652073E+04  0.25500000920E-02 0.  1.
    10030    2    1    2    0    0  0.00000000000E+00  0.00000000000E+00  0.91472069306E+02  0.21614024839E+04  0.21594660354E+04 0.  0.
        4    1    3    3  502    0 -0.68378523660E+02  0.52973625694E+03  0.98494077276E+03  0.11204490453E+04  0.12699999809E+01 0. -1.
       -4    1    3    3    0  502  0.68378523660E+02 -0.52973625694E+03 -0.89346870345E+03  0.10409534386E+04  0.12699999809E+01 0.  1.
</event>
<event>
 5   0  0.1252477E-04  0.2098082E+04  0.7818609E-02  0.8562089E-01
        2   -1    0    0  501    0  0.00000000000E+00  0.00000000000E+00  0.12276346317E+04  0.12276346317E+04  0.25500000920E-02 0.  1.
       -2   -1    0    0    0  501  0.00000000000E+00  0.00000000000E+00 -0.89642896682E+03  0.89642896682E+03  0.25500000920E-02 0. -1.
    10030    2    1    2    0    0  0.00000000000E+00  0.00000000000E+00  0.33120566485E+03  0.21240635985E+04  0.20980822143E+04 0.  0.
        4    1    3    3  502    0 -0.10330983235E+04  0.16267432295E+03  0.24865869570E+03  0.10749827167E+04  0.12699999809E+01 0.  1.
       -4    1    3    3    0  502  0.10330983235E+04 -0.16267432295E+03  0.82546969158E+02  0.10490808818E+04  0.12699999809E+01 0. -1.
</event>
<event>
 5   0  0.1281470E-04  0.2067289E+04  0.7818609E-02  0.8575791E-01
       -2   -1    0    0    0  501  0.00000000000E+00  0.00000000000E+00  0.12946463848E+04  0.12946463848E+04  0.25500000920E-02 0. -1.
        2   -1    0    0  501    0  0.00000000000E+00  0.00000000000E+00 -0.82526083489E+03  0.82526083490E+03  0.25500000920E-02 0.  1.
    10030    2    1    2    0    0  0.00000000000E+00  0.00000000000E+00  0.46938554989E+03  0.21199072197E+04  0.20672890039E+04 0.  0.
        3    1    3    3  502    0  0.74415640893E+03 -0.23501899679E+03  0.92974875454E+03  0.12138514928E+04  0.10100000352E+00 0. -1.
       -3    1    3    3    0  502 -0.74415640893E+03  0.23501899679E+03 -0.46036320466E+03  0.90605572688E+03  0.10100000352E+00 0.  1.
</event>
<event>
 5   0  0.6052292E-05  0.2091660E+04  0.7818609E-02  0.8564926E-01
       -1   -1    0    0    0  501  0.00000000000E+00  0.00000000000E+00  0.86604663863E+03  0.86604663865E+03  0.50400001928E-02 0. -1.
        1   -1    0    0  501    0  0.00000000000E+00  0.00000000000E+00 -0.12629344093E+04  0.12629344093E+04  0.50400001928E-02 0.  1.
    10030    2    1    2    0    0  0.00000000000E+00  0.00000000000E+00 -0.39688777069E+03  0.21289810480E+04  0.20916597238E+04 0.  0.
        1    1    3    3  502    0  0.41206507740E+03 -0.72721022457E+03  0.44136391923E+03  0.94521661431E+03  0.50400001928E-02 0. -1.
       -1    1    3    3    0  502 -0.41206507740E+03  0.72721022457E+03 -0.83825168992E+03  0.11837644337E+04  0.50400001928E-02 0.  1.
</event>
<event>
 5   0  0.1349252E-04  0.2082537E+04  0.7818609E-02  0.8568975E-01
       -2   -1    0    0    0  501  0.00000000000E+00  0.00000000000E+00  0.59373887007E+03  0.59373887008E+03  0.25500000920E-02 0. -1.
        2   -1    0    0  501    0  0.00000000000E+00  0.00000000000E+00 -0.18261232878E+04  0.18261232878E+04  0.25500000920E-02 0.  1.
    10030    2    1    2    0    0  0.00000000000E+00  0.00000000000E+00 -0.12323844177E+04  0.24198621579E+04  0.20825372770E+04 0.  0.
        2    1    3    3  502    0 -0.53258968428E+03 -0.80190180675E+03 -0.15498492603E+03  0.97504800229E+03  0.25500000920E-02 0. -1.
       -2    1    3    3    0  502  0.53258968428E+03  0.80190180675E+03 -0.10773994917E+04  0.14448141556E+04  0.25500000920E-02 0.  1.
</event>
<event>
 5   0  0.1235817E-04  0.2132431E+04  0.7818609E-02  0.8547090E-01
       -2   -1    0    0    0  501  0.00000000000E+00  0.00000000000E+00  0.14698651426E+04  0.14698651426E+04  0.25500000920E-02 0.  1.
        2   -1    0    0  501    0  0.00000000000E+00  0.00000000000E+00 -0.77341469231E+03  0.77341469232E+03  0.25500000920E-02 0. -1.
    10030    2    1    2    0    0  0.00000000000E+00  0.00000000000E+00  0.69645045033E+03  0.22432798350E+04  0.21324308167E+04 0.  0.
        1    1    3    3  502    0  0.50104868638E+03 -0.19614442328E+03  0.13165594455E+04  0.14222697334E+04  0.50400001928E-02 0.  1.
       -1    1    3    3    0  502 -0.50104868638E+03  0.19614442328E+03 -0.62010899520E+03  0.82101010156E+03  0.50400001928E-02 0. -1.
</event>
<event>
 5   0  0.5933905E-05  0.2123004E+04  0.7818609E-02  0.8551177E-01
        1   -1    0    0  501    0  0.00000000000E+00  0.00000000000E+00  0.17565531333E+04  0.17565531333E+04  0.50400001928E-02 0. -1.
       -1   -1    0    0    0  501  0.00000000000E+00  0.00000000000E+00 -0.64147571163E+03  0.64147571165E+03  0.50400001928E-02 0.  1.
    10030    2    1    2    0    0  0.00000000000E+00  0.00000000000E+00  0.11150774217E+04  0.23980288450E+04  0.21230036940E+04 0.  0.
        2    1    3    3  502    0 -0.43568228394E+03  0.30901216647E+03 -0.47861739535E+03  0.71720442184E+03  0.25500000920E-02 0.  1.
       -2    1    3    3    0  502  0.43568228394E+03 -0.30901216647E+03  0.15936948170E+04  0.16808244231E+04  0.25500000920E-02 0. -1.
</event>
<event>
 5   0  0.5933905E-05  0.2127045E+04  0.7818609E-02  0.8549423E-01
       -1   -1    0    0    0  501  0.00000000000E+00  0.00000000000E+00  0.12206980429E+04  0.12206980429E+04  0.50400001928E-02 0. -1.
        1   -1    0    0  501    0  0.00000000000E+00  0.00000000000E+00 -0.92658439212E+03  0.92658439214E+03  0.50400001928E-02 0.  1.
    10030    2    1    2    0    0  0.00000000000E+00  0.00000000000E+00  0.29411365073E+03  0.21472824350E+04  0.21270446672E+04 0.  0.
        2    1    3    3  502    0 -0.57164650757E+03 -0.17764149393E+03  0.10344789429E+04  0.11951915802E+04  0.25500000920E-02 0. -1.
       -2    1    3    3    0  502  0.57164650757E+03  0.17764149393E+03 -0.74036529218E+03  0.95209085483E+03  0.25500000920E-02 0.  1.
</event>
<event>
 5   0  0.1235817E-04  0.2122170E+04  0.7818609E-02  0.8551540E-01
        2   -1    0    0  501    0  0.00000000000E+00  0.00000000000E+00  0.21372228280E+04  0.21372228280E+04  0.25500000920E-02 0.  1.
       -2   -1    0    0    0  501  0.00000000000E+00  0.00000000000E+00 -0.52680576150E+03  0.52680576150E+03  0.25500000920E-02 0. -1.
    10030    2    1    2    0    0  0.00000000000E+00  0.00000000000E+00  0.16104170665E+04  0.26640285895E+04  0.21221699266E+04 0.  0.
        1    1    3    3  502    0 -0.30090234974E+03 -0.96426030984E+03  0.12130681821E+04  0.15785672566E+04  0.50400001928E-02 0.  1.
       -1    1    3    3    0  502  0.30090234974E+03  0.96426030984E+03  0.39734888438E+03  0.10854613329E+04  0.50400001928E-02 0. -1.
</event>
<event>
 5   0  0.1252477E-04  0.2079221E+04  0.7818609E-02  0.8570452E-01
       -2   -1    0    0    0  501  0.00000000000E+00  0.00000000000E+00  0.61448572592E+03  0.61448572593E+03  0.25500000920E-02 0. -1.
        2   -1    0    0  501    0  0.00000000000E+00  0.00000000000E+00 -0.17588534013E+04  0.17588534013E+04  0.25500000920E-02 0.  1.
    10030    2    1    2    0    0  0.00000000000E+00  0.00000000000E+00 -0.11443676754E+04  0.23733391272E+04  0.20792213053E+04 0.  0.
        4    1    3    3  502    0  0.65739125067E+03  0.73381270642E+03 -0.19335747170E+03  0.10040085006E+04  0.12699999809E+01 0. -1.
       -4    1    3    3    0  502 -0.65739125067E+03 -0.73381270642E+03 -0.95101020367E+03  0.13693306266E+04  0.12699999809E+01 0.  1.
</event>
<event>
 5   0  0.1252477E-04  0.2082771E+04  0.7818609E-02  0.8568871E-01
        2   -1    0    0  501    0  0.00000000000E+00  0.00000000000E+00  0.15371926048E+04  0.15371926048E+04  0.25500000920E-02 0.  1.
       -2   -1    0    0    0  501  0.00000000000E+00  0.00000000000E+00 -0.70549604371E+03  0.70549604372E+03  0.25500000920E-02 0. -1.
    10030    2    1    2    0    0  0.00000000000E+00  0.00000000000E+00  0.83169656107E+03  0.22426886485E+04  0.20827705597E+04 0.  0.
        4    1    3    3  502    0  0.67223055072E+02 -0.59385108309E+03 -0.50245351872E+03  0.78079395451E+03  0.12699999809E+01 0. -1.
       -4    1    3    3    0  502 -0.67223055072E+02  0.59385108309E+03  0.13341500798E+04  0.14618946940E+04  0.12699999809E+01 0.  1.
</event>
<event>
 5   0  0.6221148E-05  0.2086708E+04  0.7818609E-02  0.8567121E-01
       -1   -1    0    0    0  501  0.00000000000E+00  0.00000000000E+00  0.68895757920E+03  0.68895757922E+03  0.50400001928E-02 0. -1.
        1   -1    0    0  501    0  0.00000000000E+00  0.00000000000E+00 -0.15800501981E+04  0.15800501981E+04  0.50400001928E-02 0.  1.
    10030    2    1    2    0    0  0.00000000000E+00  0.00000000000E+00 -0.89109261887E+03  0.22690077773E+04  0.20867079906E+04 0.  0.
        3    1    3    3  502    0  0.30874327369E+03  0.90673069305E+03  0.42388646832E+01  0.95786269211E+03  0.10100000352E+00 0. -1.
       -3    1    3    3    0  502 -0.30874327369E+03 -0.90673069305E+03 -0.89533148355E+03  0.13111450852E+04  0.10100000352E+00 0.  1.
</event>
<event>
 5   0  0.5846187E-05  0.2089273E+04  0.7818609E-02  0.8565983E-01
        1   -1    0    0  501    0  0.00000000000E+00  0.00000000000E+00  0.93866392013E+03  0.93866392015E+03  0.50400001928E-02 0. -1.
       -1   -1    0    0    0  501  0.00000000000E+00  0.00000000000E+00 -0.11625734504E+04  0.11625734504E+04  0.50400001928E-02 0.  1.
    10030    2    1    2    0    0  0.00000000000E+00  0.00000000000E+00 -0.22390953023E+03  0.21012373705E+04  0.20892733209E+04 0.  0.
        5    1    3    3  502    0 -0.79237026433E+02  0.95487170441E+03  0.30658355362E+03  0.10060189082E+04  0.46999998093E+01 0. -1.
       -5    1    3    3    0  502  0.79237026433E+02 -0.95487170441E+03 -0.53049308385E+03  0.10952184623E+04  0.46999998093E+01 0.  1.
</event>
<event>
 5   0  0.1349252E-04  0.2113187E+04  0.7818609E-02  0.8555457E-01
        2   -1    0    0  501    0  0.00000000000E+00  0.00000000000E+00  0.51402752311E+03  0.51402752312E+03  0.25500000920E-02 0.  1.
       -2   -1    0    0    0  501  0.00000000000E+00  0.00000000000E+00 -0.21718482496E+04  0.21718482497E+04  0.25500000920E-02 0. -1.
    10030    2    1    2    0    0  0.00000000000E+00  0.00000000000E+00 -0.16578207265E+04  0.26858757728E+04  0.21131869547E+04 0.  0.
        2    1    3    3  502    0  0.62807125665E+02 -0.92887959512E+03 -0.19388010038E+03  0.95097399049E+03  0.25500000920E-02 0. -1.
       -2    1    3    3    0  502 -0.62807125665E+02  0.92887959512E+03 -0.14639406262E+04  0.17349017823E+04  0.25500000920E-02 0.  1.
</event>
<event>
 5   0  0.5933905E-05  0.2079052E+04  0.7818609E-02  0.8570528E-01
       -1   -1    0    0    0  501  0.00000000000E+00  0.00000000000E+00  0.40171770990E+03  0.40171770993E+03  0.50400001928E-02 0. -1.
        1   -1    0    0  501    0  0.00000000000E+00  0.00000000000E+00 -0.26899838994E+04  0.26899838994E+04  0.50400001928E-02 0.  1.
    10030    2    1    2    0    0  0.00000000000E+00  0.00000000000E+00 -0.22882661895E+04  0.30917016094E+04  0.20790518722E+04 0.  0.
        2    1    3    3  502    0 -0.81783906962E+03 -0.29051764511E+03 -0.29330786347E+03  0.91612812897E+03  0.25500000920E-02 0. -1.
       -2    1    3    3    0  502  0.81783906962E+03  0.29051764511E+03 -0.19949583261E+04  0.21755734804E+04  0.25500000920E-02 0.  1.
</event>
<event>
 5   0  0.5933905E-05  0.2088708E+04  0.7818609E-02  0.8566234E-01
       -1   -1    0    0    0  501  0.00000000000E+00  0.00000000000E+00  0.23230788807E+04  0.23230788807E+04  0.50400001928E-02 0.  1.
        1   -1    0    0  501    0  0.00000000000E+00  0.00000000000E+00 -0.46949556804E+03  0.46949556807E+03  0.50400001928E-02 0. -1.
    10030    2    1    2    0    0  0.00000000000E+00  0.00000000000E+00  0.18535833126E+04  0.27925744488E+04  0.20887079631E+04 0.  0.
        2    1    3    3  502    0 -0.51599505087E+03  0.45208268447E+03 -0.12599131095E+03  0.69749799753E+03  0.25500000920E-02 0. -1.
       -2    1    3    3    0  502  0.51599505087E+03 -0.45208268447E+03  0.19795746236E+04  0.20950764512E+04  0.25500000920E-02 0.  1.
</event>
<event>
 5   0  0.6052292E-05  0.2082852E+04  0.7818609E-02  0.8568835E-01
        1   -1    0    0  501    0  0.00000000000E+00  0.00000000000E+00  0.97070807710E+03  0.97070807712E+03  0.50400001928E-02 0. -1.
       -1   -1    0    0    0  501  0.00000000000E+00  0.00000000000E+00 -0.11172954786E+04  0.11172954787E+04  0.50400001928E-02 0.  1.
    10030    2    1    2    0    0  0.00000000000E+00  0.00000000000E+00 -0.14658740154E+03  0.20880035558E+04  0.20828516468E+04 0.  0.
        1    1    3    3  502    0  0.58899156493E+03  0.83397591504E+03  0.13249644194E+03  0.10295543684E+04  0.50400001928E-02 0. -1.
       -1    1    3    3    0  502 -0.58899156493E+03 -0.83397591504E+03 -0.27908384348E+03  0.10584491873E+04  0.50400001928E-02 0.  1.
</event>
<event>
 5   0  0.1349252E-04  0.2039893E+04  0.7818609E-02  0.8588193E-01
        2   -1    0    0  501    0  0.00000000000E+00  0.00000000000E+00  0.18063032313E+04  0.18063032313E+04  0.25500000920E-02 0.  1.
       -2   -1    0    0    0  501  0.00000000000E+00  0.00000000000E+00 -0.57592267693E+03  0.57592267694E+03  0.25500000920E-02 0. -1.
    10030    2    1    2    0    0  0.00000000000E+00  0.00000000000E+00  0.12303805543E+04  0.23822259082E+04  0.20398931269E+04 0.  0.
        2    1    3    3  502    0  0.95788828991E+03  0.25363794208E+03  0.33295278105E+03  0.10453419230E+04  0.25500000920E-02 0.  1.
       -2    1    3    3    0  502 -0.95788828991E+03 -0.25363794208E+03  0.89742777328E+03  0.13368839852E+04  0.25500000920E-02 0. -1.
</event>
<event>
 5   0  0.1252477E-04  0.1988502E+04  0.7818609E-02  0.8612015E-01
       -2   -1    0    0    0  501  0.00000000000E+00  0.00000000000E+00  0.67584556562E+03  0.67584556563E+03  0.25500000920E-02 0. -1.
        2   -1    0    0  501    0  0.00000000000E+00  0.00000000000E+00 -0.14626640154E+04  0.14626640154E+04  0.25500000920E-02 0.  1.
    10030    2    1    2    0    0  0.00000000000E+00  0.00000000000E+00 -0.78681844976E+03  0.21385095810E+04  0.19885019374E+04 0.  0.
        4    1    3    3  502    0 -0.41458168163E+03  0.75843572649E+03  0.13501337955E+03  0.87483309695E+03  0.12699999809E+01 0. -1.
       -4    1    3    3    0  502  0.41458168163E+03 -0.75843572649E+03 -0.92183182931E+03  0.12636764841E+04  0.12699999809E+01 0.  1.
</event>
<event>
 5   0  0.6052292E-05  0.2108332E+04  0.7818609E-02  0.8557582E-01
       -1   -1    0    0    0  501  0.00000000000E+00  0.00000000000E+00  0.56570064039E+03  0.56570064041E+03  0.50400001928E-02 0.  1.
        1   -1    0    0  501    0  0.00000000000E+00  0.00000000000E+00 -0.19644066749E+04  0.19644066749E+04  0.50400001928E-02 0. -1.
    10030    2    1    2    0    0  0.00000000000E+00  0.00000000000E+00 -0.13987060345E+04  0.25301073153E+04  0.21083321503E+04 0.  0.
        1    1    3    3  502    0  0.19377350388E+03  0.71465993367E+03 -0.15997749304E+04  0.17628292089E+04  0.50400001928E-02 0. -1.
       -1    1    3    3    0  502 -0.19377350388E+03 -0.71465993367E+03  0.20106889597E+03  0.76727810640E+03  0.50400001928E-02 0.  1.
</event>
<event>
 5   0  0.1235817E-04  0.2084041E+04  0.7818609E-02  0.8568306E-01
        2   -1    0    0  501    0  0.00000000000E+00  0.00000000000E+00  0.15081990450E+04  0.15081990450E+04  0.25500000920E-02 0. -1.
       -2   -1    0    0    0  501  0.00000000000E+00  0.00000000000E+00 -0.71993591192E+03  0.71993591193E+03  0.25500000920E-02 0.  1.
    10030    2    1    2    0    0  0.00000000000E+00  0.00000000000E+00  0.78826313303E+03  0.22281349569E+04  0.20840409351E+04 0.  0.
        1    1    3    3  502    0 -0.80363972898E+03  0.64217765710E+03  0.57167893869E+03  0.11768796736E+04  0.50400001928E-02 0. -1.
       -1    1    3    3    0  502  0.80363972898E+03 -0.64217765710E+03  0.21658419434E+03  0.10512552832E+04  0.50400001928E-02 0.  1.
</event>
<event>
 5   0  0.5933905E-05  0.1930414E+04  0.7818609E-02  0.8639864E-01
        1   -1    0    0  501    0  0.00000000000E+00  0.00000000000E+00  0.56904568757E+03  0.56904568759E+03  0.50400001928E-02 0. -1.
       -1   -1    0    0    0  501  0.00000000000E+00  0.00000000000E+00 -0.16371698436E+04  0.16371698436E+04  0.50400001928E-02 0.  1.
    10030    2    1    2    0    0  0.00000000000E+00  0.00000000000E+00 -0.10681241560E+04  0.22062155312E+04  0.19304138824E+04 0.  0.
        2    1    3    3  502    0 -0.47712926475E+02  0.94901668510E+03 -0.34039589791E+03  0.10093456094E+04  0.25500000920E-02 0. -1.
       -2    1    3    3    0  502  0.47712926475E+02 -0.94901668510E+03 -0.72772825809E+03  0.11968699217E+04  0.25500000920E-02 0.  1.
</event>
<event>
 5   0  0.6052292E-05  0.2084470E+04  0.7818609E-02  0.8568116E-01
       -1   -1    0    0    0  501  0.00000000000E+00  0.00000000000E+00  0.62875568375E+03  0.62875568377E+03  0.50400001928E-02 0. -1.
        1   -1    0    0  501    0  0.00000000000E+00  0.00000000000E+00 -0.17276242933E+04  0.17276242933E+04  0.50400001928E-02 0.  1.
    10030    2    1    2    0    0  0.00000000000E+00  0.00000000000E+00 -0.10988686095E+04  0.23563799771E+04  0.20844698068E+04 0.  0.
        1    1    3    3  502    0  0.45709206785E+03 -0.69649633743E+03 -0.12573978023E+04  0.15083399948E+04  0.50400001928E-02 0.  1.
       -1    1    3    3    0  502 -0.45709206785E+03  0.69649633743E+03  0.15852919280E+03  0.84803998227E+03  0.50400001928E-02 0. -1.
</event>
<event>
 5   0  0.6052292E-05  0.2176125E+04  0.7818609E-02  0.8528432E-01
        1   -1    0    0  501    0  0.00000000000E+00  0.00000000000E+00  0.74049794951E+03  0.74049794953E+03  0.50400001928E-02 0.  1.
       -1   -1    0    0    0  501  0.00000000000E+00  0.00000000000E+00 -0.15987621532E+04  0.15987621532E+04  0.50400001928E-02 0. -1.
    10030    2    1    2    0    0  0.00000000000E+00  0.00000000000E+00 -0.85826420368E+03  0.23392601027E+04  0.21761250848E+04 0.  0.
        1    1    3    3  502    0 -0.26662969161E+02  0.65228998062E+02 -0.15963065931E+04  0.15978612190E+04  0.50400001928E-02 0. -1.
       -1    1    3    3    0  502  0.26662969161E+02 -0.65228998062E+02  0.73804238943E+03  0.74139888369E+03  0.50400001928E-02 0.  1.
</event>
<event>
 5   0  0.6052292E-05  0.2079473E+04  0.7818609E-02  0.8570340E-01
       -1   -1    0    0    0  501  0.00000000000E+00  0.00000000000E+00  0.10307667694E+04  0.10307667695E+04  0.50400001928E-02 0.  1.
        1   -1    0    0  501    0  0.00000000000E+00  0.00000000000E+00 -0.10487839842E+04  0.10487839843E+04  0.50400001928E-02 0. -1.
    10030    2    1    2    0    0  0.00000000000E+00  0.00000000000E+00 -0.18017214811E+02  0.20795507537E+04  0.20794727017E+04 0.  0.
        1    1    3    3  502    0  0.49756947341E+03 -0.29521663593E+03  0.85492394963E+03  0.10322902705E+04  0.50400001928E-02 0.  1.
       -1    1    3    3    0  502 -0.49756947341E+03  0.29521663593E+03 -0.87294116444E+03  0.10472604832E+04  0.50400001928E-02 0. -1.
</event>
<event>
 5   0  0.6052292E-05  0.2101900E+04  0.7818609E-02  0.8560407E-01
       -1   -1    0    0    0  501  0.00000000000E+00  0.00000000000E+00  0.71410857803E+03  0.71410857805E+03  0.50400001928E-02 0.  1.
        1   -1    0    0  501    0  0.00000000000E+00  0.00000000000E+00 -0.15466773228E+04  0.15466773228E+04  0.50400001928E-02 0. -1.
    10030    2    1    2    0    0  0.00000000000E+00  0.00000000000E+00 -0.83256874476E+03  0.22607859009E+04  0.21018996586E+04 0.  0.
        1    1    3    3  502    0  0.11878109558E+03 -0.89199575194E+03 -0.10002129851E+04  0.13454335307E+04  0.50400001928E-02 0. -1.
       -1    1    3    3    0  502 -0.11878109558E+03  0.89199575194E+03  0.16764424030E+03  0.91535237011E+03  0.50400001928E-02 0.  1.
</event>
<event>
 5   0  0.5933905E-05  0.2104554E+04  0.7818609E-02  0.8559240E-01
       -1   -1    0    0    0  501  0.00000000000E+00  0.00000000000E+00  0.10327752360E+04  0.10327752360E+04  0.50400001928E-02 0. -1.
        1   -1    0    0  501    0  0.00000000000E+00  0.00000000000E+00 -0.10721473512E+04  0.10721473512E+04  0.50400001928E-02 0.  1.
    10030    2    1    2    0    0  0.00000000000E+00  0.00000000000E+00 -0.39372115138E+02  0.21049225872E+04  0.21045543316E+04 0.  0.
        2    1    3    3  502    0 -0.48693089880E+03 -0.83105654176E+03 -0.44347066320E+03  0.10603880917E+04  0.25500000920E-02 0.  1.
       -2    1    3    3    0  502  0.48693089880E+03  0.83105654176E+03  0.40409854807E+03  0.10445344955E+04  0.25500000920E-02 0. -1.
</event>
<event>
 5   0  0.6263616E-05  0.2116687E+04  0.7818609E-02  0.8553928E-01
        1   -1    0    0  501    0  0.00000000000E+00  0.00000000000E+00  0.12987927660E+04  0.12987927660E+04  0.50400001928E-02 0.  1.
       -1   -1    0    0    0  501  0.00000000000E+00  0.00000000000E+00 -0.86240931899E+03  0.86240931900E+03  0.50400001928E-02 0. -1.
    10030    2    1    2    0    0  0.00000000000E+00  0.00000000000E+00  0.43638344699E+03  0.21612020850E+04  0.21166870197E+04 0.  0.
        4    1    3    3  502    0  0.23851975184E+03 -0.97303575067E+03 -0.13015649547E+03  0.10102636143E+04  0.12699999809E+01 0. -1.
       -4    1    3    3    0  502 -0.23851975184E+03  0.97303575067E+03  0.56653994246E+03  0.11509384707E+04  0.12699999809E+01 0.  1.
</event>
<event>
 5   0  0.1349252E-04  0.2084922E+04  0.7818609E-02  0.8567915E-01
       -2   -1    0    0    0  501  0.00000000000E+00  0.00000000000E+00  0.66405853806E+03  0.66405853806E+03  0.25500000920E-02 0. -1.
        2   -1    0    0  501    0  0.00000000000E+00  0.00000000000E+00 -0.16364895360E+04  0.16364895360E+04  0.25500000920E-02 0.  1.
    10030    2    1    2    0    0  0.00000000000E+00  0.00000000000E+00 -0.97243099792E+03  0.23005480740E+04  0.20849219159E+04 0.  0.
        2    1    3    3  502    0  0.73712491742E+03 -0.22951441024E+03  0.28672713771E+03  0.82355477043E+03  0.25500000920E-02 0. -1.
       -2    1    3    3    0  502 -0.73712491742E+03  0.22951441024E+03 -0.12591581356E+04  0.14769933036E+04  0.25500000920E-02 0.  1.
</event>
<event>
 5   0  0.5933905E-05  0.2098883E+04  0.7818609E-02  0.8561735E-01
       -1   -1    0    0    0  501  0.00000000000E+00  0.00000000000E+00  0.13708159519E+04  0.13708159519E+04  0.50400001928E-02 0.  1.
        1   -1    0    0  501    0  0.00000000000E+00  0.00000000000E+00 -0.80341040038E+03  0.80341040040E+03  0.50400001928E-02 0. -1.
    10030    2    1    2    0    0  0.00000000000E+00  0.00000000000E+00  0.56740555149E+03  0.21742263523E+04  0.20988833153E+04 0.  0.
        2    1    3    3  502    0 -0.35660761751E+03 -0.86122655795E+03 -0.21573226325E+03  0.95677614226E+03  0.25500000920E-02 0. -1.
       -2    1    3    3    0  502  0.35660761751E+03  0.86122655795E+03  0.78313781473E+03  0.12174502100E+04  0.25500000920E-02 0.  1.
</event>
<event>
 5   0  0.5846187E-05  0.2148679E+04  0.7818609E-02  0.8540098E-01
       -1   -1    0    0    0  501  0.00000000000E+00  0.00000000000E+00  0.69002700482E+03  0.69002700483E+03  0.50400001928E-02 0. -1.
        1   -1    0    0  501    0  0.00000000000E+00  0.00000000000E+00 -0.16726959361E+04  0.16726959361E+04  0.50400001928E-02 0.  1.
    10030    2    1    2    0    0  0.00000000000E+00  0.00000000000E+00 -0.98266893126E+03  0.23627229409E+04  0.21486790051E+04 0.  0.
        5    1    3    3  502    0  0.22919047117E+03  0.10179793547E+04 -0.77248608671E+03  0.12982939124E+04  0.46999998093E+01 0.  1.
       -5    1    3    3    0  502 -0.22919047117E+03 -0.10179793547E+04 -0.21018284455E+03  0.10644290286E+04  0.46999998093E+01 0. -1.
</event>
<event>
 5   0  0.1235817E-04  0.2095868E+04  0.7818609E-02  0.8563066E-01
        2   -1    0    0  501    0  0.00000000000E+00  0.00000000000E+00  0.20103732914E+04  0.20103732914E+04  0.25500000920E-02 0.  1.
       -2   -1    0    0    0  501  0.00000000000E+00  0.00000000000E+00 -0.54624974400E+03  0.54624974400E+03  0.25500000920E-02 0. -1.
    10030    2    1    2    0    0  0.00000000000E+00  0.00000000000E+00  0.14641235474E+04  0.25566230354E+04  0.20958682170E+04 0.  0.
        1    1    3    3  502    0 -0.20110129997E+03 -0.76741071181E+03 -0.10315426562E+03  0.80000108499E+03  0.50400001928E-02 0. -1.
       -1    1    3    3    0  502  0.20110129997E+03  0.76741071181E+03  0.15672778130E+04  0.17566219504E+04  0.50400001928E-02 0.  1.
</event>
<event>
 5   0  0.1235817E-04  0.2113369E+04  0.7818609E-02  0.8555377E-01
       -2   -1    0    0    0  501  0.00000000000E+00  0.00000000000E+00  0.49950522964E+03  0.49950522965E+03  0.25500000920E-02 0. -1.
        2   -1    0    0  501    0  0.00000000000E+00  0.00000000000E+00 -0.22353767080E+04  0.22353767080E+04  0.25500000920E-02 0.  1.
    10030    2    1    2    0    0  0.00000000000E+00  0.00000000000E+00 -0.17358714783E+04  0.27348819376E+04  0.21133692113E+04 0.  0.
        1    1    3    3  502    0 -0.63013238514E+03  0.17317656398E+03 -0.19425147282E+04  0.20494927213E+04  0.50400001928E-02 0.  1.
       -1    1    3    3    0  502  0.63013238514E+03 -0.17317656398E+03  0.20664324991E+03  0.68538921634E+03  0.50400001928E-02 0. -1.
</event>
<event>
 5   0  0.1349252E-04  0.2034056E+04  0.7818609E-02  0.8590862E-01
       -2   -1    0    0    0  501  0.00000000000E+00  0.00000000000E+00  0.78895719190E+03  0.78895719190E+03  0.25500000920E-02 0.  1.
        2   -1    0    0  501    0  0.00000000000E+00  0.00000000000E+00 -0.13110297573E+04  0.13110297573E+04  0.25500000920E-02 0. -1.
    10030    2    1    2    0    0  0.00000000000E+00  0.00000000000E+00 -0.52207256544E+03  0.20999869492E+04  0.20340563963E+04 0.  0.
        2    1    3    3  502    0 -0.29765188685E+03  0.43817571061E+03  0.63529339112E+03  0.82715916964E+03  0.25500000920E-02 0.  1.
       -2    1    3    3    0  502  0.29765188685E+03 -0.43817571061E+03 -0.11573659566E+04  0.12728277796E+04  0.25500000920E-02 0. -1.
</event>
<event>
 5   0  0.1325673E-04  0.2103392E+04  0.7818609E-02  0.8559751E-01
        2   -1    0    0  501    0  0.00000000000E+00  0.00000000000E+00  0.93567810638E+03  0.93567810639E+03  0.25500000920E-02 0.  1.
       -2   -1    0    0    0  501  0.00000000000E+00  0.00000000000E+00 -0.11820995607E+04  0.11820995608E+04  0.25500000920E-02 0. -1.
    10030    2    1    2    0    0  0.00000000000E+00  0.00000000000E+00 -0.24642145436E+03  0.21177776671E+04  0.21033921922E+04 0.  0.
        5    1    3    3  502    0  0.85536126873E+03 -0.39336131669E+03  0.34868069628E+03  0.10039802505E+04  0.46999998093E+01 0.  1.
       -5    1    3    3    0  502 -0.85536126873E+03  0.39336131669E+03 -0.59510215064E+03  0.11137974166E+04  0.46999998093E+01 0. -1.
</event>
<event>
 5   0  0.6263616E-05  0.2082830E+04  0.7818609E-02  0.8568845E-01
       -1   -1    0    0    0  501  0.00000000000E+00  0.00000000000E+00  0.64535564504E+03  0.64535564506E+03  0.50400001928E-02 0. -1.
        1   -1    0    0  501    0  0.00000000000E+00  0.00000000000E+00 -0.16805392132E+04  0.16805392132E+04  0.50400001928E-02 0.  1.
    10030    2    1    2    0    0  0.00000000000E+00  0.00000000000E+00 -0.10351835682E+04  0.23258948583E+04  0.20828302552E+04 0.  0.
        4    1    3    3  502    0 -0.52641590725E+03  0.53514453870E+02 -0.15192444094E+04  0.16087519052E+04  0.12699999809E+01 0.  1.
       -4    1    3    3    0  502  0.52641590725E+03 -0.53514453870E+02  0.48406084123E+03  0.71714295304E+03  0.12699999809E+01 0. -1.
</event>
<event>
 5   0  0.1235817E-04  0.2083511E+04  0.7818609E-02  0.8568542E-01
       -2   -1    0    0    0  501  0.00000000000E+00  0.00000000000E+00  0.86709204429E+03  0.86709204430E+03  0.25500000920E-02 0.  1.
        2   -1    0    0  501    0  0.00000000000E+00  0.00000000000E+00 -0.12516021289E+04  0.12516021289E+04  0.25500000920E-02 0. -1.
    10030    2    1    2    0    0  0.00000000000E+00  0.00000000000E+00 -0.38451008464E+03  0.21186941732E+04  0.20835107378E+04 0.  0.
        1    1    3    3  502    0 -0.59463296798E+03 -0.41899945450E+03 -0.95057251273E+03  0.11969699292E+04  0.50400001928E-02 0. -1.
       -1    1    3    3    0  502  0.59463296798E+03  0.41899945450E+03  0.56606242809E+03  0.92172424401E+03  0.50400001928E-02 0.  1.
</event>
<event>
 5   0  0.6052292E-05  0.2129382E+04  0.7818609E-02  0.8548410E-01
       -1   -1    0    0    0  501  0.00000000000E+00  0.00000000000E+00  0.10928227521E+04  0.10928227521E+04  0.50400001928E-02 0.  1.
        1   -1    0    0  501    0  0.00000000000E+00  0.00000000000E+00 -0.10372829535E+04  0.10372829535E+04  0.50400001928E-02 0. -1.
    10030    2    1    2    0    0  0.00000000000E+00  0.00000000000E+00  0.55539798602E+02  0.21301057057E+04  0.21293815177E+04 0.  0.
        1    1    3    3  502    0 -0.17286557469E+03 -0.87471021220E+03 -0.55429219086E+03  0.10498763237E+04  0.50400001928E-02 0. -1.
       -1    1    3    3    0  502  0.17286557469E+03  0.87471021220E+03  0.60983198946E+03  0.10802293819E+04  0.50400001928E-02 0.  1.
</event>
<event>
 5   0  0.5933905E-05  0.2123577E+04  0.7818609E-02  0.8550928E-01
        1   -1    0    0  501    0  0.00000000000E+00  0.00000000000E+00  0.79732221841E+03  0.79732221843E+03  0.50400001928E-02 0.  1.
       -1   -1    0    0    0  501  0.00000000000E+00  0.00000000000E+00 -0.14139758125E+04  0.14139758125E+04  0.50400001928E-02 0. -1.
    10030    2    1    2    0    0  0.00000000000E+00  0.00000000000E+00 -0.61665359409E+03  0.22112980309E+04  0.21235765412E+04 0.  0.
        2    1    3    3  502    0 -0.25420736820E+03 -0.51546968707E+03  0.62133705112E+03  0.84639831961E+03  0.25500000920E-02 0.  1.
       -2    1    3    3    0  502  0.25420736820E+03  0.51546968707E+03 -0.12379906452E+04  0.13648997113E+04  0.25500000920E-02 0. -1.
</event>
<event>
 5   0  0.6052292E-05  0.2031467E+04  0.7818609E-02  0.8592049E-01
        1   -1    0    0  501    0  0.00000000000E+00  0.00000000000E+00  0.14354911225E+04  0.14354911225E+04  0.50400001928E-02 0. -1.
       -1   -1    0    0    0  501  0.00000000000E+00  0.00000000000E+00 -0.71871867037E+03  0.71871867039E+03  0.50400001928E-02 0.  1.
    10030    2    1    2    0    0  0.00000000000E+00  0.00000000000E+00  0.71677245210E+03  0.21542097929E+04  0.20314667321E+04 0.  0.
        1    1    3    3  502    0 -0.25374585941E+03  0.86868333646E+02  0.13972638714E+04  0.14227717297E+04  0.50400001928E-02 0. -1.
       -1    1    3    3    0  502  0.25374585941E+03 -0.86868333646E+02 -0.68049141926E+03  0.73143806318E+03  0.50400001928E-02 0.  1.
</event>
<event>
 5   0  0.5846187E-05  0.2069477E+04  0.7818609E-02  0.8574809E-01
        1   -1    0    0  501    0  0.00000000000E+00  0.00000000000E+00  0.90429100034E+03  0.90429100035E+03  0.50400001928E-02 0.  1.
       -1   -1    0    0    0  501  0.00000000000E+00  0.00000000000E+00 -0.11840039050E+04  0.11840039050E+04  0.50400001928E-02 0. -1.
    10030    2    1    2    0    0  0.00000000000E+00  0.00000000000E+00 -0.27971290467E+03  0.20882949054E+04  0.20694773018E+04 0.  0.
        5    1    3    3  502    0  0.55817206116E+03 -0.50150606711E+03 -0.85879362898E+03  0.11404441996E+04  0.46999998093E+01 0. -1.
       -5    1    3    3    0  502 -0.55817206116E+03  0.50150606711E+03  0.57908072430E+03  0.94785070579E+03  0.46999998093E+01 0.  1.
</event>
<event>
 5   0  0.5933905E-05  0.2067812E+04  0.7818609E-02  0.8575557E-01
        1   -1    0    0  501    0  0.00000000000E+00  0.00000000000E+00  0.10141354071E+04  0.10141354071E+04  0.50400001928E-02 0.  1.
       -1   -1    0    0    0  501  0.00000000000E+00  0.00000000000E+00 -0.10540618469E+04  0.10540618469E+04  0.50400001928E-02 0. -1.
    10030    2    1    2    0    0  0.00000000000E+00  0.00000000000E+00 -0.39926439780E+02  0.20681972540E+04  0.20678118292E+04 0.  0.
        2    1    3    3  502    0 -0.10231976417E+04 -0.11410754906E+03 -0.11488872512E+03  0.10359311589E+04  0.25500000920E-02 0.  1.
       -2    1    3    3    0  502  0.10231976417E+04  0.11410754906E+03  0.74962285342E+02  0.10322660951E+04  0.25500000920E-02 0. -1.
</event>
<event>
 5   0  0.1235817E-04  0.2095008E+04  0.7818609E-02  0.8563445E-01
        2   -1    0    0  501    0  0.00000000000E+00  0.00000000000E+00  0.16777752421E+04  0.16777752421E+04  0.25500000920E-02 0.  1.
       -2   -1    0    0    0  501  0.00000000000E+00  0.00000000000E+00 -0.65399993409E+03  0.65399993409E+03  0.25500000920E-02 0. -1.
    10030    2    1    2    0    0  0.00000000000E+00  0.00000000000E+00  0.10237753080E+04  0.23317751762E+04  0.20950082556E+04 0.  0.
        1    1    3    3  502    0 -0.65383804951E+02 -0.71566231925E+03  0.13601314812E+04  0.15383124661E+04  0.50400001928E-02 0.  1.
       -1    1    3    3    0  502  0.65383804951E+02  0.71566231925E+03 -0.33635617315E+03  0.79346271014E+03  0.50400001928E-02 0. -1.
</event>
<event>
 5   0  0.1281470E-04  0.2108606E+04  0.7818609E-02  0.8557462E-01
       -2   -1    0    0    0  501  0.00000000000E+00  0.00000000000E+00  0.79367333963E+03  0.79367333964E+03  0.25500000920E-02 0. -1.
        2   -1    0    0  501    0  0.00000000000E+00  0.00000000000E+00 -0.14005186756E+04  0.14005186756E+04  0.25500000920E-02 0.  1.
    10030    2    1    2    0    0  0.00000000000E+00  0.00000000000E+00 -0.60684533595E+03  0.21941920152E+04  0.21086055435E+04 0.  0.
        3    1    3    3  502    0 -0.26387330912E+03  0.29514153929E+02  0.75831185537E+03  0.80345322747E+03  0.10100000352E+00 0. -1.
       -3    1    3    3    0  502  0.26387330912E+03 -0.29514153929E+02 -0.13651571913E+04  0.13907387878E+04  0.10100000352E+00 0.  1.
</event>
<event>
 5   0  0.6052292E-05  0.1628004E+04  0.7818609E-02  0.8803527E-01
       -1   -1    0    0    0  501  0.00000000000E+00  0.00000000000E+00  0.75233050722E+03  0.75233050723E+03  0.50400001928E-02 0. -1.
        1   -1    0    0  501    0  0.00000000000E+00  0.00000000000E+00 -0.88072868387E+03  0.88072868388E+03  0.50400001928E-02 0.  1.
    10030    2    1    2    0    0  0.00000000000E+00  0.00000000000E+00 -0.12839817665E+03  0.16330591911E+04  0.16280037561E+04 0.  0.
        1    1    3    3  502    0  0.65607058083E+03 -0.36794200172E+03 -0.37627469632E+03  0.84106632960E+03  0.50400001928E-02 0.  1.
       -1    1    3    3    0  502 -0.65607058083E+03  0.36794200172E+03  0.24787651967E+03  0.79199286152E+03  0.50400001928E-02 0. -1.
</event>
<event>
 5   0  0.5933905E-05  0.2099459E+04  0.7818609E-02  0.8561482E-01
       -1   -1    0    0    0  501  0.00000000000E+00  0.00000000000E+00  0.72682410055E+03  0.72682410057E+03  0.50400001928E-02 0.  1.
        1   -1    0    0  501    0  0.00000000000E+00  0.00000000000E+00 -0.15160919717E+04  0.15160919717E+04  0.50400001928E-02 0. -1.
    10030    2    1    2    0    0  0.00000000000E+00  0.00000000000E+00 -0.78926787115E+03  0.22429160723E+04  0.20994591529E+04 0.  0.
        2    1    3    3  502    0  0.64336578274E+01  0.34783227394E+03  0.66344662605E+03  0.74912622993E+03  0.25500000920E-02 0.  1.
       -2    1    3    3    0  502 -0.64336578274E+01 -0.34783227394E+03 -0.14527144972E+04  0.14937898424E+04  0.25500000920E-02 0. -1.
</event>
<event>
 5   0  0.4615125E-05  0.2068045E+04  0.7818609E-02  0.8575452E-01
       -3   -1    0    0    0  501  0.00000000000E+00  0.00000000000E+00  0.66091712404E+03  0.66091713176E+03  0.10100000352E+00 0. -1.
        3   -1    0    0  501    0  0.00000000000E+00  0.00000000000E+00 -0.16177564565E+04  0.16177564597E+04  0.10100000352E+00 0.  1.
    10030    2    1    2    0    0  0.00000000000E+00  0.00000000000E+00 -0.95683933249E+03  0.22786735914E+04  0.20680454125E+04 0.  0.
        5    1    3    3  502    0 -0.90977189124E+03 -0.49139449355E+03 -0.47264944274E+03  0.11369138174E+04  0.46999998093E+01 0. -1.
       -5    1    3    3    0  502  0.90977189124E+03  0.49139449355E+03 -0.48418988975E+03  0.11417597741E+04  0.46999998093E+01 0.  1.
</event>
<event>
 5   0  0.6052292E-05  0.2112873E+04  0.7818609E-02  0.8555594E-01
        1   -1    0    0  501    0  0.00000000000E+00  0.00000000000E+00  0.16963608017E+04  0.16963608017E+04  0.50400001928E-02 0.  1.
       -1   -1    0    0    0  501  0.00000000000E+00  0.00000000000E+00 -0.65791286608E+03  0.65791286609E+03  0.50400001928E-02 0. -1.
    10030    2    1    2    0    0  0.00000000000E+00  0.00000000000E+00  0.10384479356E+04  0.23542736678E+04  0.21128725442E+04 0.  0.
        1    1    3    3  502    0  0.91316794259E+03  0.43716831862E+03  0.18297479872E+03  0.10288204932E+04  0.50400001928E-02 0. -1.
       -1    1    3    3    0  502 -0.91316794259E+03 -0.43716831862E+03  0.85547313693E+03  0.13254531747E+04  0.50400001928E-02 0.  1.
</event>
<event>
 5   0  0.5933905E-05  0.2081125E+04  0.7818609E-02  0.8569604E-01
        1   -1    0    0  501    0  0.00000000000E+00  0.00000000000E+00  0.16725311092E+04  0.16725311092E+04  0.50400001928E-02 0.  1.
       -1   -1    0    0    0  501  0.00000000000E+00  0.00000000000E+00 -0.64738395939E+03  0.64738395941E+03  0.50400001928E-02 0. -1.
    10030    2    1    2    0    0  0.00000000000E+00  0.00000000000E+00  0.10251471498E+04  0.23199150686E+04  0.20811245150E+04 0.  0.
        2    1    3    3  502    0  0.78682140835E+03 -0.59953446512E+03  0.15266527339E+03  0.10009176735E+04  0.25500000920E-02 0. -1.
       -2    1    3    3    0  502 -0.78682140835E+03  0.59953446512E+03  0.87248187641E+03  0.13189973951E+04  0.25500000920E-02 0.  1.
</event>
<event>
 5   0  0.6221148E-05  0.2111977E+04  0.7818609E-02  0.8555986E-01
       -1   -1    0    0    0  501  0.00000000000E+00  0.00000000000E+00  0.11105819316E+04  0.11105819316E+04  0.50400001928E-02 0.  1.
        1   -1    0    0  501    0  0.00000000000E+00  0.00000000000E+00 -0.10040790964E+04  0.10040790964E+04  0.50400001928E-02 0. -1.
    10030    2    1    2    0    0  0.00000000000E+00  0.00000000000E+00  0.10650283515E+03  0.21146610280E+04  0.21119773696E+04 0.  0.
        3    1    3    3  502    0 -0.98688737251E+03  0.29550456853E+03 -0.17908320473E+03  0.10456292079E+04  0.10100000352E+00 0.  1.
       -3    1    3    3    0  502  0.98688737251E+03 -0.29550456853E+03  0.28558603988E+03  0.10690318201E+04  0.10100000352E+00 0. -1.
</event>
<event>
 5   0  0.1235817E-04  0.2048733E+04  0.7818609E-02  0.8584169E-01
        2   -1    0    0  501    0  0.00000000000E+00  0.00000000000E+00  0.11271812055E+04  0.11271812055E+04  0.25500000920E-02 0.  1.
       -2   -1    0    0    0  501  0.00000000000E+00  0.00000000000E+00 -0.93092984179E+03  0.93092984179E+03  0.25500000920E-02 0. -1.
    10030    2    1    2    0    0  0.00000000000E+00  0.00000000000E+00  0.19625136375E+03  0.20581110473E+04  0.20487328975E+04 0.  0.
        1    1    3    3  502    0  0.69858549286E+03  0.33600110619E+03  0.77082382574E+03  0.10932007156E+04  0.50400001928E-02 0.  1.
       -1    1    3    3    0  502 -0.69858549286E+03 -0.33600110619E+03 -0.57457246200E+03  0.96491033175E+03  0.50400001928E-02 0. -1.
</event>
<event>
 5   0  0.5846187E-05  0.2038377E+04  0.7818609E-02  0.8588886E-01
        1   -1    0    0  501    0  0.00000000000E+00  0.00000000000E+00  0.63163180071E+03  0.63163180073E+03  0.50400001928E-02 0. -1.
       -1   -1    0    0    0  501  0.00000000000E+00  0.00000000000E+00 -0.16445416134E+04  0.16445416134E+04  0.50400001928E-02 0.  1.
    10030    2    1    2    0    0  0.00000000000E+00  0.00000000000E+00 -0.10129098127E+04  0.22761734142E+04  0.20383765900E+04 0.  0.
        5    1    3    3  502    0 -0.30014746324E+03 -0.97191000192E+03 -0.57730026012E+03  0.11696132830E+04  0.46999998093E+01 0.  1.
       -5    1    3    3    0  502  0.30014746324E+03  0.97191000192E+03 -0.43560955261E+03  0.11065601311E+04  0.46999998093E+01 0. -1.
</event>
<event>
 5   0  0.1349252E-04  0.2067907E+04  0.7818609E-02  0.8575514E-01
       -2   -1    0    0    0  501  0.00000000000E+00  0.00000000000E+00  0.77968350138E+03  0.77968350138E+03  0.25500000920E-02 0. -1.
        2   -1    0    0  501    0  0.00000000000E+00  0.00000000000E+00 -0.13711460666E+04  0.13711460666E+04  0.25500000920E-02 0.  1.
    10030    2    1    2    0    0  0.00000000000E+00  0.00000000000E+00 -0.59146256522E+03  0.21508295680E+04  0.20679071218E+04 0.  0.
        2    1    3    3  502    0 -0.51978514450E+03 -0.72480369616E+03 -0.83971731613E+03  0.12250070063E+04  0.25500000920E-02 0.  1.
       -2    1    3    3    0  502  0.51978514450E+03  0.72480369616E+03  0.24825475091E+03  0.92582256171E+03  0.25500000920E-02 0. -1.
</event>
<event>
 5   0  0.5933905E-05  0.2131932E+04  0.7818609E-02  0.8547306E-01
       -1   -1    0    0    0  501  0.00000000000E+00  0.00000000000E+00  0.87830204651E+03  0.87830204652E+03  0.50400001928E-02 0.  1.
        1   -1    0    0  501    0  0.00000000000E+00  0.00000000000E+00 -0.12937273144E+04  0.12937273144E+04  0.50400001928E-02 0. -1.
    10030    2    1    2    0    0  0.00000000000E+00  0.00000000000E+00 -0.41542526789E+03  0.21720293609E+04  0.21319318450E+04 0.  0.
        2    1    3    3  502    0  0.47833169342E+03 -0.55267394777E+03  0.58278897235E+03  0.93482227604E+03  0.25500000920E-02 0.  1.
       -2    1    3    3    0  502 -0.47833169342E+03  0.55267394777E+03 -0.99821424024E+03  0.12372070849E+04  0.25500000920E-02 0. -1.
</event>
<event>
 5   0  0.1281470E-04  0.2104475E+04  0.7818609E-02  0.8559275E-01
        2   -1    0    0  501    0  0.00000000000E+00  0.00000000000E+00  0.14918910362E+04  0.14918910362E+04  0.25500000920E-02 0. -1.
       -2   -1    0    0    0  501  0.00000000000E+00  0.00000000000E+00 -0.74214788931E+03  0.74214788932E+03  0.25500000920E-02 0.  1.
    10030    2    1    2    0    0  0.00000000000E+00  0.00000000000E+00  0.74974314685E+03  0.22340389255E+04  0.21044750258E+04 0.  0.
        3    1    3    3  502    0 -0.90403103937E+03 -0.75303459620E+02 -0.19111435209E+03  0.92707466633E+03  0.10100000352E+00 0.  1.
       -3    1    3    3    0  502  0.90403103937E+03  0.75303459620E+02  0.94085749893E+03  0.13069642591E+04  0.10100000352E+00 0. -1.
</event>
<event>
 5   0  0.6052292E-05  0.2076727E+04  0.7818609E-02  0.8571565E-01
        1   -1    0    0  501    0  0.00000000000E+00  0.00000000000E+00  0.13520291567E+04  0.13520291567E+04  0.50400001928E-02 0.  1.
       -1   -1    0    0    0  501  0.00000000000E+00  0.00000000000E+00 -0.79746746149E+03  0.79746746151E+03  0.50400001928E-02 0. -1.
    10030    2    1    2    0    0  0.00000000000E+00  0.00000000000E+00  0.55456169523E+03  0.21494966182E+04  0.20767274828E+04 0.  0.
        1    1    3    3  502    0  0.98461598461E+03  0.87039728475E+02  0.60647363124E+03  0.11596787559E+04  0.50400001928E-02 0.  1.
       -1    1    3    3    0  502 -0.98461598461E+03 -0.87039728475E+02 -0.51911936006E+02  0.98981786234E+03  0.50400001928E-02 0. -1.
</event>
<event>
 5   0  0.1281470E-04  0.2056109E+04  0.7818609E-02  0.8580828E-01
        2   -1    0    0  501    0  0.00000000000E+00  0.00000000000E+00  0.10506421869E+04  0.10506421869E+04  0.25500000920E-02 0. -1.
       -2   -1    0    0    0  501  0.00000000000E+00  0.00000000000E+00 -0.10059521977E+04  0.10059521977E+04  0.25500000920E-02 0.  1.
    10030    2    1    2    0    0  0.00000000000E+00  0.00000000000E+00  0.44689989203E+02  0.20565943845E+04  0.20561087684E+04 0.  0.
        3    1    3    3  502    0  0.61561943439E+03  0.37373651298E+03 -0.71146956504E+03  0.10123513329E+04  0.10100000352E+00 0.  1.
       -3    1    3    3    0  502 -0.61561943439E+03 -0.37373651298E+03  0.75615955424E+03  0.10442430516E+04  0.10100000352E+00 0. -1.
</event>
<event>
 5   0  0.6221148E-05  0.2004152E+04  0.7818609E-02  0.8604682E-01
        1   -1    0    0  501    0  0.00000000000E+00  0.00000000000E+00  0.15693791841E+04  0.15693791841E+04  0.50400001928E-02 0. -1.
       -1   -1    0    0    0  501  0.00000000000E+00  0.00000000000E+00 -0.63984321638E+03  0.63984321640E+03  0.50400001928E-02 0.  1.
    10030    2    1    2    0    0  0.00000000000E+00  0.00000000000E+00  0.92953596767E+03  0.22092224005E+04  0.20041523145E+04 0.  0.
        3    1    3    3  502    0  0.29976167707E+03  0.95425744984E+03  0.53174958149E+03  0.11327938785E+04  0.10100000352E+00 0.  1.
       -3    1    3    3    0  502 -0.29976167707E+03 -0.95425744984E+03  0.39778638618E+03  0.10764285219E+04  0.10100000352E+00 0. -1.
</event>
<event>
 5   0  0.5846187E-05  0.2092582E+04  0.7818609E-02  0.8564518E-01
       -1   -1    0    0    0  501  0.00000000000E+00  0.00000000000E+00  0.11398563547E+04  0.11398563547E+04  0.50400001928E-02 0.  1.
        1   -1    0    0  501    0  0.00000000000E+00  0.00000000000E+00 -0.96040610895E+03  0.96040610896E+03  0.50400001928E-02 0. -1.
    10030    2    1    2    0    0  0.00000000000E+00  0.00000000000E+00  0.17945024576E+03  0.21002624637E+04  0.20925821431E+04 0.  0.
        5    1    3    3  502    0 -0.91519815941E+03  0.37189079428E+03  0.43568209774E+03  0.10796904251E+04  0.46999998093E+01 0.  1.
       -5    1    3    3    0  502  0.91519815941E+03 -0.37189079428E+03 -0.25623185199E+03  0.10205720385E+04  0.46999998093E+01 0. -1.
</event>
<event>
 5   0  0.6221148E-05  0.2034758E+04  0.7818609E-02  0.8590541E-01
        1   -1    0    0  501    0  0.00000000000E+00  0.00000000000E+00  0.12416995569E+04  0.12416995569E+04  0.50400001928E-02 0. -1.
       -1   -1    0    0    0  501  0.00000000000E+00  0.00000000000E+00 -0.83358292561E+03  0.83358292562E+03  0.50400001928E-02 0.  1.
    10030    2    1    2    0    0  0.00000000000E+00  0.00000000000E+00  0.40811663133E+03  0.20752824826E+04  0.20347575280E+04 0.  0.
        3    1    3    3  502    0 -0.79607337683E+03 -0.51837601096E+03  0.57547178896E+03  0.11106819077E+04  0.10100000352E+00 0. -1.
       -3    1    3    3    0  502  0.79607337683E+03  0.51837601096E+03 -0.16735515763E+03  0.96460057486E+03  0.10100000352E+00 0.  1.
</event>
<event>
 5   0  0.1325673E-04  0.2111033E+04  0.7818609E-02  0.8556399E-01
        2   -1    0    0  501    0  0.00000000000E+00  0.00000000000E+00  0.18066852215E+04  0.18066852215E+04  0.25500000920E-02 0.  1.
       -2   -1    0    0    0  501  0.00000000000E+00  0.00000000000E+00 -0.61666235662E+03  0.61666235662E+03  0.25500000920E-02 0. -1.
    10030    2    1    2    0    0  0.00000000000E+00  0.00000000000E+00  0.11900228649E+04  0.24233475781E+04  0.21110327012E+04 0.  0.
        5    1    3    3  502    0 -0.39523123403E+03  0.96869364661E+03  0.75538529459E+03  0.12904278913E+04  0.46999998093E+01 0.  1.
       -5    1    3    3    0  502  0.39523123403E+03 -0.96869364661E+03  0.43463757031E+03  0.11329196868E+04  0.46999998093E+01 0. -1.
</event>
<event>
 5   0  0.1235817E-04  0.2160543E+04  0.7818609E-02  0.8535033E-01
       -2   -1    0    0    0  501  0.00000000000E+00  0.00000000000E+00  0.75485904312E+03  0.75485904312E+03  0.25500000920E-02 0.  1.
        2   -1    0    0  501    0  0.00000000000E+00  0.00000000000E+00 -0.15459661451E+04  0.15459661451E+04  0.25500000920E-02 0. -1.
    10030    2    1    2    0    0  0.00000000000E+00  0.00000000000E+00 -0.79110710196E+03  0.23008251882E+04  0.21605430104E+04 0.  0.
        1    1    3    3  502    0 -0.33949620865E+03 -0.91063966026E+03  0.10673216743E+03  0.97770855683E+03  0.50400001928E-02 0.  1.
       -1    1    3    3    0  502  0.33949620865E+03  0.91063966026E+03 -0.89783926939E+03  0.13231166314E+04  0.50400001928E-02 0. -1.
</event>
<event>
 5   0  0.1235817E-04  0.1657182E+04  0.7818609E-02  0.8786169E-01
        2   -1    0    0  501    0  0.00000000000E+00  0.00000000000E+00  0.80697781831E+03  0.80697781831E+03  0.25500000920E-02 0.  1.
       -2   -1    0    0    0  501  0.00000000000E+00  0.00000000000E+00 -0.85078292898E+03  0.85078292899E+03  0.25500000920E-02 0. -1.
    10030    2    1    2    0    0  0.00000000000E+00  0.00000000000E+00 -0.43805110675E+02  0.16577607473E+04  0.16571818873E+04 0.  0.
        1    1    3    3  502    0  0.23957419017E+03  0.24563160861E+03 -0.77637570405E+03  0.84881677269E+03  0.50400001928E-02 0. -1.
       -1    1    3    3    0  502 -0.23957419017E+03 -0.24563160861E+03  0.73257059338E+03  0.80894397460E+03  0.50400001928E-02 0.  1.
</event>
<event>
 5   0  0.5933905E-05  0.2105000E+04  0.7818609E-02  0.8559044E-01
       -1   -1    0    0    0  501  0.00000000000E+00  0.00000000000E+00  0.59461636428E+03  0.59461636430E+03  0.50400001928E-02 0. -1.
        1   -1    0    0  501    0  0.00000000000E+00  0.00000000000E+00 -0.18629758323E+04  0.18629758323E+04  0.50400001928E-02 0.  1.
    10030    2    1    2    0    0  0.00000000000E+00  0.00000000000E+00 -0.12683594680E+04  0.24575921966E+04  0.21049996828E+04 0.  0.
        2    1    3    3  502    0 -0.33194603113E+03 -0.15892423442E+03  0.51704562502E+03  0.63465050085E+03  0.25500000920E-02 0. -1.
       -2    1    3    3    0  502  0.33194603113E+03  0.15892423442E+03 -0.17854050930E+04  0.18229416957E+04  0.25500000920E-02 0.  1.
</event>
<event>
 5   0  0.4615125E-05  0.2061036E+04  0.7818609E-02  0.8578604E-01
        4   -1    0    0  501    0  0.00000000000E+00  0.00000000000E+00  0.10308568300E+04  0.10308576123E+04  0.12699999809E+01 0.  1.
       -4   -1    0    0    0  501  0.00000000000E+00  0.00000000000E+00 -0.10301777696E+04  0.10301785525E+04  0.12699999809E+01 0. -1.
    10030    2    1    2    0    0  0.00000000000E+00  0.00000000000E+00  0.67906034223E+00  0.20610361647E+04  0.20610360529E+04 0.  0.
        2    1    3    3  502    0 -0.51184817346E+03  0.67193692544E+03 -0.58998212469E+03  0.10303235860E+04  0.25500000920E-02 0. -1.
       -2    1    3    3    0  502  0.51184817346E+03 -0.67193692544E+03  0.59066118503E+03  0.10307125787E+04  0.25500000920E-02 0.  1.
</event>
<event>
 5   0  0.1349252E-04  0.2239203E+04  0.7818609E-02  0.8502286E-01
       -2   -1    0    0    0  501  0.00000000000E+00  0.00000000000E+00  0.61141683284E+03  0.61141683284E+03  0.25500000920E-02 0. -1.
        2   -1    0    0  501    0  0.00000000000E+00  0.00000000000E+00 -0.20501687941E+04  0.20501687941E+04  0.25500000920E-02 0.  1.
    10030    2    1    2    0    0  0.00000000000E+00  0.00000000000E+00 -0.14387519613E+04  0.26615856269E+04  0.22392031716E+04 0.  0.
        2    1    3    3  502    0 -0.21091319484E+03  0.24534524373E+02 -0.20260165684E+04  0.20371130195E+04  0.25500000920E-02 0.  1.
       -2    1    3    3    0  502  0.21091319484E+03 -0.24534524373E+02  0.58726460716E+03  0.62447260746E+03  0.25500000920E-02 0. -1.
</event>
<event>
 5   0  0.5846187E-05  0.2046558E+04  0.7818609E-02  0.8585158E-01
        1   -1    0    0  501    0  0.00000000000E+00  0.00000000000E+00  0.12926393893E+04  0.12926393893E+04  0.50400001928E-02 0.  1.
       -1   -1    0    0    0  501  0.00000000000E+00  0.00000000000E+00 -0.81004769093E+03  0.81004769095E+03  0.50400001928E-02 0. -1.
    10030    2    1    2    0    0  0.00000000000E+00  0.00000000000E+00  0.48259169834E+03  0.21026870802E+04  0.20465576489E+04 0.  0.
        5    1    3    3  502    0  0.60655858384E+03 -0.38181171912E+03  0.99165751427E+03  0.12235604685E+04  0.46999998093E+01 0.  1.
       -5    1    3    3    0  502 -0.60655858384E+03  0.38181171912E+03 -0.50906581593E+03  0.87912661172E+03  0.46999998093E+01 0. -1.
</event>
<event>
 5   0  0.6263616E-05  0.2155544E+04  0.7818609E-02  0.8537163E-01
       -1   -1    0    0    0  501  0.00000000000E+00  0.00000000000E+00  0.61535292789E+03  0.61535292791E+03  0.50400001928E-02 0.  1.
        1   -1    0    0  501    0  0.00000000000E+00  0.00000000000E+00 -0.18876856641E+04  0.18876856642E+04  0.50400001928E-02 0. -1.
    10030    2    1    2    0    0  0.00000000000E+00  0.00000000000E+00 -0.12723327363E+04  0.25030385921E+04  0.21555443864E+04 0.  0.
        4    1    3    3  502    0  0.90286212531E+03 -0.50747489647E+03 -0.98239475824E+03  0.14275124734E+04  0.12699999809E+01 0.  1.
       -4    1    3    3    0  502 -0.90286212531E+03  0.50747489647E+03 -0.28993797802E+03  0.10755261186E+04  0.12699999809E+01 0. -1.
</event>
<event>
 5   0  0.6221148E-05  0.2101213E+04  0.7818609E-02  0.8560709E-01
       -1   -1    0    0    0  501  0.00000000000E+00  0.00000000000E+00  0.73208701798E+03  0.73208701800E+03  0.50400001928E-02 0. -1.
        1   -1    0    0  501    0  0.00000000000E+00  0.00000000000E+00 -0.15077083660E+04  0.15077083660E+04  0.50400001928E-02 0.  1.
    10030    2    1    2    0    0  0.00000000000E+00  0.00000000000E+00 -0.77562134797E+03  0.22397953840E+04  0.21012127181E+04 0.  0.
        3    1    3    3  502    0  0.54732848042E+03  0.54713224205E+03  0.36958038487E+03  0.85761986151E+03  0.10100000352E+00 0. -1.
       -3    1    3    3    0  502 -0.54732848042E+03 -0.54713224205E+03 -0.11452017328E+04  0.13821755225E+04  0.10100000352E+00 0.  1.
</event>
<event>
 5   0  0.5846187E-05  0.2131281E+04  0.7818609E-02  0.8547588E-01
        1   -1    0    0  501    0  0.00000000000E+00  0.00000000000E+00  0.23140625787E+04  0.23140625787E+04  0.50400001928E-02 0.  1.
       -1   -1    0    0    0  501  0.00000000000E+00  0.00000000000E+00 -0.49073403145E+03  0.49073403147E+03  0.50400001928E-02 0. -1.
    10030    2    1    2    0    0  0.00000000000E+00  0.00000000000E+00  0.18233285473E+04  0.28047966102E+04  0.21312806088E+04 0.  0.
        5    1    3    3  502    0  0.18821405586E+03  0.10478080653E+04  0.97396191117E+03  0.14428964505E+04  0.46999998093E+01 0.  1.
       -5    1    3    3    0  502 -0.18821405586E+03 -0.10478080653E+04  0.84936663610E+03  0.13619001597E+04  0.46999998093E+01 0. -1.
</event>
<event>
 5   0  0.1349252E-04  0.2102150E+04  0.7818609E-02  0.8560297E-01
       -2   -1    0    0    0  501  0.00000000000E+00  0.00000000000E+00  0.13103150163E+04  0.13103150163E+04  0.25500000920E-02 0.  1.
        2   -1    0    0  501    0  0.00000000000E+00  0.00000000000E+00 -0.84312418911E+03  0.84312418912E+03  0.25500000920E-02 0. -1.
    10030    2    1    2    0    0  0.00000000000E+00  0.00000000000E+00  0.46719082714E+03  0.21534392054E+04  0.21021496479E+04 0.  0.
        2    1    3    3  502    0 -0.61988855149E+02 -0.78365061617E+03  0.94833454911E+03  0.12317829855E+04  0.25500000920E-02 0.  1.
       -2    1    3    3    0  502  0.61988855149E+02  0.78365061617E+03 -0.48114372197E+03  0.92165621985E+03  0.25500000920E-02 0. -1.
</event>
<event>
 5   0  0.1349252E-04  0.2095300E+04  0.7818609E-02  0.8563316E-01
       -2   -1    0    0    0  501  0.00000000000E+00  0.00000000000E+00  0.39745764542E+03  0.39745764542E+03  0.25500000920E-02 0. -1.
        2   -1    0    0  501    0  0.00000000000E+00  0.00000000000E+00 -0.27614792262E+04  0.27614792262E+04  0.25500000920E-02 0.  1.
    10030    2    1    2    0    0  0.00000000000E+00  0.00000000000E+00 -0.23640215808E+04  0.31589368716E+04  0.20953004855E+04 0.  0.
        2    1    3    3  502    0 -0.19087128717E+03  0.43460230105E+03 -0.25900593013E+04  0.26331954338E+04  0.25500000920E-02 0.  1.
       -2    1    3    3    0  502  0.19087128717E+03 -0.43460230105E+03  0.22603772052E+03  0.52574143782E+03  0.25500000920E-02 0. -1.
</event>
<event>
 5   0  0.6263616E-05  0.2057173E+04  0.7818609E-02  0.8580347E-01
        1   -1    0    0  501    0  0.00000000000E+00  0.00000000000E+00  0.19150509576E+04  0.19150509576E+04  0.50400001928E-02 0.  1.
       -1   -1    0    0    0  501  0.00000000000E+00  0.00000000000E+00 -0.55246037852E+03  0.55246037854E+03  0.50400001928E-02 0. -1.
    10030    2    1    2    0    0  0.00000000000E+00  0.00000000000E+00  0.13625905791E+04  0.24675113362E+04  0.20571726004E+04 0.  0.
        4    1    3    3  502    0 -0.95743924964E+03 -0.16388903609E+03  0.27553013164E+03  0.10096870799E+04  0.12699999809E+01 0.  1.
       -4    1    3    3    0  502  0.95743924964E+03  0.16388903609E+03  0.10870604475E+04  0.14578242563E+04  0.12699999809E+01 0. -1.
</event>
<event>
 5   0  0.6052292E-05  0.2087200E+04  0.7818609E-02  0.8566903E-01
        1   -1    0    0  501    0  0.00000000000E+00  0.00000000000E+00  0.10645909360E+04  0.10645909360E+04  0.50400001928E-02 0.  1.
       -1   -1    0    0    0  501  0.00000000000E+00  0.00000000000E+00 -0.10230225978E+04  0.10230225978E+04  0.50400001928E-02 0. -1.
    10030    2    1    2    0    0  0.00000000000E+00  0.00000000000E+00  0.41568338254E+02  0.20876135338E+04  0.20871996407E+04 0.  0.
        1    1    3    3  502    0  0.35704889416E+03  0.60570656102E+03 -0.75056019671E+03  0.10284478401E+04  0.50400001928E-02 0. -1.
       -1    1    3    3    0  502 -0.35704889416E+03 -0.60570656102E+03  0.79212853496E+03  0.10591656937E+04  0.50400001928E-02 0.  1.
</event>
<event>
 5   0  0.6052292E-05  0.2110272E+04  0.7818609E-02  0.8556732E-01
       -1   -1    0    0    0  501  0.00000000000E+00  0.00000000000E+00  0.63326946316E+03  0.63326946318E+03  0.50400001928E-02 0. -1.
        1   -1    0    0  501    0  0.00000000000E+00  0.00000000000E+00 -0.17580382204E+04  0.17580382204E+04  0.50400001928E-02 0.  1.
    10030    2    1    2    0    0  0.00000000000E+00  0.00000000000E+00 -0.11247687573E+04  0.23913076836E+04  0.21102719446E+04 0.  0.
        1    1    3    3  502    0 -0.10249425973E+04 -0.19573643599E+03 -0.38504395551E+03  0.11122404991E+04  0.50400001928E-02 0. -1.
       -1    1    3    3    0  502  0.10249425973E+04  0.19573643599E+03 -0.73972480174E+03  0.12790671845E+04  0.50400001928E-02 0.  1.
</event>
<event>
 5   0  0.5846187E-05  0.2075785E+04  0.7818609E-02  0.8571986E-01
        1   -1    0    0  501    0  0.00000000000E+00  0.00000000000E+00  0.80236002444E+03  0.80236002446E+03  0.50400001928E-02 0.  1.
       -1   -1    0    0    0  501  0.00000000000E+00  0.00000000000E+00 -0.13425656678E+04  0.13425656679E+04  0.50400001928E-02 0. -1.
    10030    2    1    2    0    0  0.00000000000E+00  0.00000000000E+00 -0.54020564341E+03  0.21449256923E+04  0.20757851739E+04 0.  0.
        5    1    3    3  502    0  0.49073934284E+02  0.98723376760E+03 -0.59712512294E+03  0.11548243439E+04  0.46999998093E+01 0. -1.
       -5    1    3    3    0  502 -0.49073934284E+02 -0.98723376760E+03  0.56919479530E+02  0.99010134838E+03  0.46999998093E+01 0.  1.
</event>
<event>
 5   0  0.1235817E-04  0.2100513E+04  0.7818609E-02  0.8561017E-01
        2   -1    0    0  501    0  0.00000000000E+00  0.00000000000E+00  0.14436621045E+04  0.14436621045E+04  0.25500000920E-02 0. -1.
       -2   -1    0    0    0  501  0.00000000000E+00  0.00000000000E+00 -0.76405621419E+03  0.76405621420E+03  0.25500000920E-02 0.  1.
    10030    2    1    2    0    0  0.00000000000E+00  0.00000000000E+00  0.67960589032E+03  0.22077183187E+04  0.21005132727E+04 0.  0.
        1    1    3    3  502    0 -0.56290959895E+03 -0.71178170352E+03  0.89550130877E+03  0.12749207835E+04  0.50400001928E-02 0. -1.
       -1    1    3    3    0  502  0.56290959895E+03  0.71178170352E+03 -0.21589541845E+03  0.93279753526E+03  0.50400001928E-02 0.  1.
</event>
<event>
 5   0  0.1281470E-04  0.1997046E+04  0.7818609E-02  0.8608003E-01
        2   -1    0    0  501    0  0.00000000000E+00  0.00000000000E+00  0.21782674606E+04  0.21782674606E+04  0.25500000920E-02 0. -1.
       -2   -1    0    0    0  501  0.00000000000E+00  0.00000000000E+00 -0.45772519734E+03  0.45772519734E+03  0.25500000920E-02 0.  1.
    10030    2    1    2    0    0  0.00000000000E+00  0.00000000000E+00  0.17205422632E+04  0.26359926579E+04  0.19970457213E+04 0.  0.
        3    1    3    3  502    0 -0.90159974838E+03 -0.80080733087E+02  0.30377200058E+03  0.95476304318E+03  0.10100000352E+00 0.  1.
       -3    1    3    3    0  502  0.90159974838E+03  0.80080733087E+02  0.14167702626E+04  0.16812296147E+04  0.10100000352E+00 0. -1.
</event>
<event>
 5   0  0.1235817E-04  0.2107865E+04  0.7818609E-02  0.8557787E-01
       -2   -1    0    0    0  501  0.00000000000E+00  0.00000000000E+00  0.45882845749E+03  0.45882845750E+03  0.25500000920E-02 0. -1.
        2   -1    0    0  501    0  0.00000000000E+00  0.00000000000E+00 -0.24208919466E+04  0.24208919466E+04  0.25500000920E-02 0.  1.
    10030    2    1    2    0    0  0.00000000000E+00  0.00000000000E+00 -0.19620634891E+04  0.28797204041E+04  0.21078653824E+04 0.  0.
        1    1    3    3  502    0 -0.87247614625E+03  0.37664389984E+03 -0.16036538178E+04  0.18640763988E+04  0.50400001928E-02 0.  1.
       -1    1    3    3    0  502  0.87247614625E+03 -0.37664389984E+03 -0.35840967130E+03  0.10156440053E+04  0.50400001928E-02 0. -1.
</event>
<event>
 5   0  0.1281470E-04  0.2076026E+04  0.7818609E-02  0.8571878E-01
       -2   -1    0    0    0  501  0.00000000000E+00  0.00000000000E+00  0.54126585176E+03  0.54126585177E+03  0.25500000920E-02 0.  1.
        2   -1    0    0  501    0  0.00000000000E+00  0.00000000000E+00 -0.19906501040E+04  0.19906501040E+04  0.25500000920E-02 0. -1.
    10030    2    1    2    0    0  0.00000000000E+00  0.00000000000E+00 -0.14493842523E+04  0.25319159558E+04  0.20760259383E+04 0.  0.
        3    1    3    3  502    0  0.32177691230E+03 -0.75887453847E+03  0.44756894710E+02  0.82549023995E+03  0.10100000352E+00 0.  1.
       -3    1    3    3    0  502 -0.32177691230E+03  0.75887453847E+03 -0.14941411470E+04  0.17064257159E+04  0.10100000352E+00 0. -1.
</event>
<event>
 5   0  0.1325673E-04  0.2123762E+04  0.7818609E-02  0.8550848E-01
        2   -1    0    0  501    0  0.00000000000E+00  0.00000000000E+00  0.17547210187E+04  0.17547210187E+04  0.25500000920E-02 0.  1.
       -2   -1    0    0    0  501  0.00000000000E+00  0.00000000000E+00 -0.64260447678E+03  0.64260447679E+03  0.25500000920E-02 0. -1.
    10030    2    1    2    0    0  0.00000000000E+00  0.00000000000E+00  0.11121165419E+04  0.23973254955E+04  0.21237623051E+04 0.  0.
        5    1    3    3  502    0  0.44435402719E+03  0.37273987496E+03 -0.44800212562E+03  0.73288028382E+03  0.46999998093E+01 0. -1.
       -5    1    3    3    0  502 -0.44435402719E+03 -0.37273987496E+03  0.15601186675E+04  0.16644452117E+04  0.46999998093E+01 0.  1.
</event>
<event>
 5   0  0.1325673E-04  0.2096231E+04  0.7818609E-02  0.8562905E-01
       -2   -1    0    0    0  501  0.00000000000E+00  0.00000000000E+00  0.84261469309E+03  0.84261469309E+03  0.25500000920E-02 0. -1.
        2   -1    0    0  501    0  0.00000000000E+00  0.00000000000E+00 -0.13037352643E+04  0.13037352643E+04  0.25500000920E-02 0.  1.
    10030    2    1    2    0    0  0.00000000000E+00  0.00000000000E+00 -0.46112057124E+03  0.21463499574E+04  0.20962313705E+04 0.  0.
        5    1    3    3  502    0  0.51771962540E+03  0.23531937140E+03 -0.11320163237E+04  0.12668432674E+04  0.46999998093E+01 0.  1.
       -5    1    3    3    0  502 -0.51771962540E+03 -0.23531937140E+03  0.67089575246E+03  0.87950669000E+03  0.46999998093E+01 0. -1.
</event>
<event>
 5   0  0.6052292E-05  0.2111941E+04  0.7818609E-02  0.8556002E-01
        1   -1    0    0  501    0  0.00000000000E+00  0.00000000000E+00  0.10110095231E+04  0.10110095231E+04  0.50400001928E-02 0. -1.
       -1   -1    0    0    0  501  0.00000000000E+00  0.00000000000E+00 -0.11029304683E+04  0.11029304683E+04  0.50400001928E-02 0.  1.
    10030    2    1    2    0    0  0.00000000000E+00  0.00000000000E+00 -0.91920945215E+02  0.21139399914E+04  0.21119405359E+04 0.  0.
        1    1    3    3  502    0  0.86139810083E+03  0.11883328251E+03  0.55372706755E+03  0.10308936427E+04  0.50400001928E-02 0. -1.
       -1    1    3    3    0  502 -0.86139810083E+03 -0.11883328251E+03 -0.64564801276E+03  0.10830463488E+04  0.50400001928E-02 0.  1.
</event>
<event>
 5   0  0.1235817E-04  0.2095688E+04  0.7818609E-02  0.8563145E-01
        2   -1    0    0  501    0  0.00000000000E+00  0.00000000000E+00  0.13385731421E+04  0.13385731421E+04  0.25500000920E-02 0.  1.
       -2   -1    0    0    0  501  0.00000000000E+00  0.00000000000E+00 -0.82025906079E+03  0.82025906079E+03  0.25500000920E-02 0. -1.
    10030    2    1    2    0    0  0.00000000000E+00  0.00000000000E+00  0.51831408133E+03  0.21588322029E+04  0.20956877137E+04 0.  0.
        1    1    3    3  502    0 -0.21914528324E+03  0.94813686335E+03 -0.14112340349E+03  0.98331275891E+03  0.50400001928E-02 0. -1.
       -1    1    3    3    0  502  0.21914528324E+03 -0.94813686335E+03  0.65943748482E+03  0.11755194440E+04  0.50400001928E-02 0.  1.
</event>
<event>
 5   0  0.6221148E-05  0.2077099E+04  0.7818609E-02  0.8571399E-01
       -1   -1    0    0    0  501  0.00000000000E+00  0.00000000000E+00  0.63884617822E+03  0.63884617824E+03  0.50400001928E-02 0. -1.
        1   -1    0    0  501    0  0.00000000000E+00  0.00000000000E+00 -0.16883334022E+04  0.16883334022E+04  0.50400001928E-02 0.  1.
    10030    2    1    2    0    0  0.00000000000E+00  0.00000000000E+00 -0.10494872239E+04  0.23271795804E+04  0.20770992673E+04 0.  0.
        3    1    3    3  502    0 -0.49447489704E+03  0.59764001205E+03  0.24898594153E+03  0.81466128979E+03  0.10100000352E+00 0.  1.
       -3    1    3    3    0  502  0.49447489704E+03 -0.59764001205E+03 -0.12984731655E+04  0.15125182906E+04  0.10100000352E+00 0. -1.
</event>
<event>
 5   0  0.5933905E-05  0.2077005E+04  0.7818609E-02  0.8571441E-01
       -1   -1    0    0    0  501  0.00000000000E+00  0.00000000000E+00  0.12781292374E+04  0.12781292374E+04  0.50400001928E-02 0. -1.
        1   -1    0    0  501    0  0.00000000000E+00  0.00000000000E+00 -0.84380179145E+03  0.84380179146E+03  0.50400001928E-02 0.  1.
    10030    2    1    2    0    0  0.00000000000E+00  0.00000000000E+00  0.43432744597E+03  0.21219310289E+04  0.20770052867E+04 0.  0.
        2    1    3    3  502    0  0.71188630450E+03 -0.59125384182E+03 -0.26433142696E+03  0.96241068120E+03  0.25500000920E-02 0.  1.
       -2    1    3    3    0  502 -0.71188630450E+03  0.59125384182E+03  0.69865887293E+03  0.11595203477E+04  0.25500000920E-02 0. -1.
</event>
<event>
 5   0  0.6263616E-05  0.2108925E+04  0.7818609E-02  0.8557322E-01
       -1   -1    0    0    0  501  0.00000000000E+00  0.00000000000E+00  0.71207977455E+03  0.71207977456E+03  0.50400001928E-02 0. -1.
        1   -1    0    0  501    0  0.00000000000E+00  0.00000000000E+00 -0.15614701085E+04  0.15614701085E+04  0.50400001928E-02 0.  1.
    10030    2    1    2    0    0  0.00000000000E+00  0.00000000000E+00 -0.84939033393E+03  0.22735498830E+04  0.21089251128E+04 0.  0.
        4    1    3    3  502    0  0.69487798722E+03  0.20148734373E+02  0.43005715008E+03  0.81744244682E+03  0.12699999809E+01 0. -1.
       -4    1    3    3    0  502 -0.69487798722E+03 -0.20148734373E+02 -0.12794474840E+04  0.14561074362E+04  0.12699999809E+01 0.  1.
</event>
<event>
 5   0  0.1252477E-04  0.2131411E+04  0.7818609E-02  0.8547531E-01
       -2   -1    0    0    0  501  0.00000000000E+00  0.00000000000E+00  0.84510605350E+03  0.84510605350E+03  0.25500000920E-02 0.  1.
        2   -1    0    0  501    0  0.00000000000E+00  0.00000000000E+00 -0.13438884406E+04  0.13438884406E+04  0.25500000920E-02 0. -1.
    10030    2    1    2    0    0  0.00000000000E+00  0.00000000000E+00 -0.49878238713E+03  0.21889944941E+04  0.21314110410E+04 0.  0.
        4    1    3    3  502    0 -0.82338106007E+02  0.88304238131E+03 -0.85627304275E+03  0.12327808189E+04  0.12699999809E+01 0. -1.
       -4    1    3    3    0  502  0.82338106007E+02 -0.88304238131E+03  0.35749065562E+03  0.95621367520E+03  0.12699999809E+01 0.  1.
</event>
<event>
 5   0  0.5846187E-05  0.2052541E+04  0.7818609E-02  0.8582442E-01
        1   -1    0    0  501    0  0.00000000000E+00  0.00000000000E+00  0.16384621450E+04  0.16384621450E+04  0.50400001928E-02 0. -1.
       -1   -1    0    0    0  501  0.00000000000E+00  0.00000000000E+00 -0.64281714723E+03  0.64281714725E+03  0.50400001928E-02 0.  1.
    10030    2    1    2    0    0  0.00000000000E+00  0.00000000000E+00  0.99564499781E+03  0.22812792923E+04  0.20525414119E+04 0.  0.
        5    1    3    3  502    0  0.89450476635E+03  0.43581849887E+02  0.10548434773E+04  0.13837467276E+04  0.46999998093E+01 0. -1.
       -5    1    3    3    0  502 -0.89450476635E+03 -0.43581849887E+02 -0.59198479469E+02  0.89753256466E+03  0.46999998093E+01 0.  1.
</event>
<event>
 5   0  0.5846187E-05  0.2122435E+04  0.7818609E-02  0.8551425E-01
       -1   -1    0    0    0  501  0.00000000000E+00  0.00000000000E+00  0.11223026536E+04  0.11223026536E+04  0.50400001928E-02 0.  1.
        1   -1    0    0  501    0  0.00000000000E+00  0.00000000000E+00 -0.10034568263E+04  0.10034568264E+04  0.50400001928E-02 0. -1.
    10030    2    1    2    0    0  0.00000000000E+00  0.00000000000E+00  0.11884582727E+03  0.21257594800E+04  0.21224346954E+04 0.  0.
        5    1    3    3  502    0  0.64106423427E+03 -0.62905698258E+03 -0.50669178692E+03  0.10312297012E+04  0.46999998093E+01 0. -1.
       -5    1    3    3    0  502 -0.64106423427E+03  0.62905698258E+03  0.62553761419E+03  0.10945297787E+04  0.46999998093E+01 0.  1.
</event>
<event>
 5   0  0.5846187E-05  0.2109979E+04  0.7818609E-02  0.8556860E-01
       -1   -1    0    0    0  501  0.00000000000E+00  0.00000000000E+00  0.12217301934E+04  0.12217301934E+04  0.50400001928E-02 0.  1.
        1   -1    0    0  501    0  0.00000000000E+00  0.00000000000E+00 -0.91100508358E+03  0.91100508359E+03  0.50400001928E-02 0. -1.
    10030    2    1    2    0    0  0.00000000000E+00  0.00000000000E+00  0.31072510981E+03  0.21327352770E+04  0.21099785942E+04 0.  0.
        5    1    3    3  502    0 -0.25748702506E+03 -0.33455037810E+03 -0.82189316386E+03  0.92398808778E+03  0.46999998093E+01 0. -1.
       -5    1    3    3    0  502  0.25748702506E+03  0.33455037810E+03  0.11326182737E+04  0.12087471892E+04  0.46999998093E+01 0.  1.
</event>
<event>
 5   0  0.1325673E-04  0.2089253E+04  0.7818609E-02  0.8565992E-01
        2   -1    0    0  501    0  0.00000000000E+00  0.00000000000E+00  0.12924860304E+04  0.12924860305E+04  0.25500000920E-02 0. -1.
       -2   -1    0    0    0  501  0.00000000000E+00  0.00000000000E+00 -0.84429884231E+03  0.84429884232E+03  0.25500000920E-02 0.  1.
    10030    2    1    2    0    0  0.00000000000E+00  0.00000000000E+00  0.44818718814E+03  0.21367848728E+04  0.20892529375E+04 0.  0.
        5    1    3    3  502    0 -0.67280406610E+03  0.35153351390E+03 -0.50985473493E+03  0.91444795559E+03  0.46999998093E+01 0.  1.
       -5    1    3    3    0  502  0.67280406610E+03 -0.35153351390E+03  0.95804192307E+03  0.12223369172E+04  0.46999998093E+01 0. -1.
</event>
<event>
 5   0  0.1235817E-04  0.2047998E+04  0.7818609E-02  0.8584503E-01
       -2   -1    0    0    0  501  0.00000000000E+00  0.00000000000E+00  0.11491651604E+04  0.11491651604E+04  0.25500000920E-02 0. -1.
        2   -1    0    0  501    0  0.00000000000E+00  0.00000000000E+00 -0.91246569924E+03  0.91246569924E+03  0.25500000920E-02 0.  1.
    10030    2    1    2    0    0  0.00000000000E+00  0.00000000000E+00  0.23669946114E+03  0.20616308596E+04  0.20479978434E+04 0.  0.
        1    1    3    3  502    0  0.21886987048E+03 -0.10803542959E+03  0.11194536088E+04  0.11457539249E+04  0.50400001928E-02 0. -1.
       -1    1    3    3    0  502 -0.21886987048E+03  0.10803542959E+03 -0.88275414766E+03  0.91587693468E+03  0.50400001928E-02 0.  1.
</event>
<event>
 5   0  0.5933905E-05  0.2088708E+04  0.7818609E-02  0.8566234E-01
        1   -1    0    0  501    0  0.00000000000E+00  0.00000000000E+00  0.14862682049E+04  0.14862682049E+04  0.50400001928E-02 0. -1.
       -1   -1    0    0    0  501  0.00000000000E+00  0.00000000000E+00 -0.73383444813E+03  0.73383444815E+03  0.50400001928E-02 0.  1.
    10030    2    1    2    0    0  0.00000000000E+00  0.00000000000E+00  0.75243375681E+03  0.22201026531E+04  0.20887075506E+04 0.  0.
        2    1    3    3  502    0 -0.52494316981E+03  0.89987149992E+03  0.45389468485E+03  0.11363777685E+04  0.25500000920E-02 0.  1.
       -2    1    3    3    0  502  0.52494316981E+03 -0.89987149992E+03  0.29853907195E+03  0.10837248845E+04  0.25500000920E-02 0. -1.
</event>
<event>
 5   0  0.1325673E-04  0.2039100E+04  0.7818609E-02  0.8588555E-01
       -2   -1    0    0    0  501  0.00000000000E+00  0.00000000000E+00  0.10638285990E+04  0.10638285990E+04  0.25500000920E-02 0.  1.
        2   -1    0    0  501    0  0.00000000000E+00  0.00000000000E+00 -0.97711479460E+03  0.97711479460E+03  0.25500000920E-02 0. -1.
    10030    2    1    2    0    0  0.00000000000E+00  0.00000000000E+00  0.86713804397E+02  0.20409433936E+04  0.20391004517E+04 0.  0.
        5    1    3    3  502    0  0.73153970019E+02 -0.47261578585E+03 -0.85786979126E+03  0.98218117123E+03  0.46999998093E+01 0. -1.
       -5    1    3    3    0  502 -0.73153970019E+02  0.47261578585E+03  0.94458359565E+03  0.10587622224E+04  0.46999998093E+01 0.  1.
</event>
<event>
 5   0  0.1235817E-04  0.2060333E+04  0.7818609E-02  0.8578921E-01
       -2   -1    0    0    0  501  0.00000000000E+00  0.00000000000E+00  0.51154504007E+03  0.51154504008E+03  0.25500000920E-02 0.  1.
        2   -1    0    0  501    0  0.00000000000E+00  0.00000000000E+00 -0.20745830253E+04  0.20745830253E+04  0.25500000920E-02 0. -1.
    10030    2    1    2    0    0  0.00000000000E+00  0.00000000000E+00 -0.15630379852E+04  0.25861280654E+04  0.20603326497E+04 0.  0.
        1    1    3    3  502    0  0.28909026443E+03  0.21062535036E+03 -0.19941392341E+04  0.20259633521E+04  0.50400001928E-02 0. -1.
       -1    1    3    3    0  502 -0.28909026443E+03 -0.21062535036E+03  0.43110124885E+03  0.56016471327E+03  0.50400001928E-02 0.  1.
</event>
<event>
 5   0  0.4615125E-05  0.2060669E+04  0.7818609E-02  0.8578769E-01
       -3   -1    0    0    0  501  0.00000000000E+00  0.00000000000E+00  0.73282514892E+03  0.73282515588E+03  0.10100000352E+00 0.  1.
        3   -1    0    0  501    0  0.00000000000E+00  0.00000000000E+00 -0.14486260686E+04  0.14486260722E+04  0.10100000352E+00 0. -1.
    10030    2    1    2    0    0  0.00000000000E+00  0.00000000000E+00 -0.71580091971E+03  0.21814512280E+04  0.20606694309E+04 0.  0.
        3    1    3    3  502    0  0.69000305093E+03  0.23324563019E+03 -0.11293684689E+04  0.13438678816E+04  0.10100000352E+00 0. -1.
       -3    1    3    3    0  502 -0.69000305093E+03 -0.23324563019E+03  0.41356754923E+03  0.83758334646E+03  0.10100000352E+00 0.  1.
</event>
<event>
 5   0  0.1235817E-04  0.2130935E+04  0.7818609E-02  0.8547737E-01
       -2   -1    0    0    0  501  0.00000000000E+00  0.00000000000E+00  0.58371592488E+03  0.58371592489E+03  0.25500000920E-02 0. -1.
        2   -1    0    0  501    0  0.00000000000E+00  0.00000000000E+00 -0.19448184509E+04  0.19448184509E+04  0.25500000920E-02 0.  1.
    10030    2    1    2    0    0  0.00000000000E+00  0.00000000000E+00 -0.13611025260E+04  0.25285343758E+04  0.21309354761E+04 0.  0.
        1    1    3    3  502    0  0.50552204169E+03 -0.51675457576E+03  0.24819909705E+03  0.76432363434E+03  0.50400001928E-02 0. -1.
       -1    1    3    3    0  502 -0.50552204169E+03  0.51675457576E+03 -0.16093016231E+04  0.17642107415E+04  0.50400001928E-02 0.  1.
</event>
<event>
 5   0  0.1281470E-04  0.2100066E+04  0.7818609E-02  0.8561214E-01
       -2   -1    0    0    0  501  0.00000000000E+00  0.00000000000E+00  0.65706830805E+03  0.65706830805E+03  0.25500000920E-02 0.  1.
        2   -1    0    0  501    0  0.00000000000E+00  0.00000000000E+00 -0.16780130793E+04  0.16780130793E+04  0.25500000920E-02 0. -1.
    10030    2    1    2    0    0  0.00000000000E+00  0.00000000000E+00 -0.10209447713E+04  0.23350813874E+04  0.21000659179E+04 0.  0.
        3    1    3    3  502    0  0.65887893524E+03  0.17675073794E+03 -0.13980561316E+04  0.15556102442E+04  0.10100000352E+00 0. -1.
       -3    1    3    3    0  502 -0.65887893524E+03 -0.17675073794E+03  0.37711136035E+03  0.77947114313E+03  0.10100000352E+00 0.  1.
</event>
<event>
 5   0  0.6263616E-05  0.2128966E+04  0.7818609E-02  0.8548590E-01
       -1   -1    0    0    0  501  0.00000000000E+00  0.00000000000E+00  0.54534679514E+03  0.54534679516E+03  0.50400001928E-02 0.  1.
        1   -1    0    0  501    0  0.00000000000E+00  0.00000000000E+00 -0.20778043943E+04  0.20778043943E+04  0.50400001928E-02 0. -1.
    10030    2    1    2    0    0  0.00000000000E+00  0.00000000000E+00 -0.15324575991E+04  0.26231511894E+04  0.21289659155E+04 0.  0.
        4    1    3    3  502    0  0.10188319400E+04  0.16996132927E+02 -0.38683253023E+03  0.10899304610E+04  0.12699999809E+01 0.  1.
       -4    1    3    3    0  502 -0.10188319400E+04 -0.16996132927E+02 -0.11456250689E+04  0.15332207284E+04  0.12699999809E+01 0. -1.
</event>
<event>
 5   0  0.6263616E-05  0.2099245E+04  0.7818609E-02  0.8561576E-01
        1   -1    0    0  501    0  0.00000000000E+00  0.00000000000E+00  0.65177905200E+03  0.65177905202E+03  0.50400001928E-02 0.  1.
       -1   -1    0    0    0  501  0.00000000000E+00  0.00000000000E+00 -0.16903083574E+04  0.16903083574E+04  0.50400001928E-02 0. -1.
    10030    2    1    2    0    0  0.00000000000E+00  0.00000000000E+00 -0.10385293054E+04  0.23420874094E+04  0.20992451775E+04 0.  0.
        4    1    3    3  502    0 -0.52211185354E+03 -0.30148140980E+03 -0.14778507244E+04  0.15961003115E+04  0.12699999809E+01 0. -1.
       -4    1    3    3    0  502  0.52211185354E+03  0.30148140980E+03  0.43932141900E+03  0.74598709785E+03  0.12699999809E+01 0.  1.
</event>
<event>
 5   0  0.6052292E-05  0.1935245E+04  0.7818609E-02  0.8637509E-01
       -1   -1    0    0    0  501  0.00000000000E+00  0.00000000000E+00  0.94592501816E+03  0.94592501817E+03  0.50400001928E-02 0.  1.
        1   -1    0    0  501    0  0.00000000000E+00  0.00000000000E+00 -0.98981779031E+03  0.98981779032E+03  0.50400001928E-02 0. -1.
    10030    2    1    2    0    0  0.00000000000E+00  0.00000000000E+00 -0.43892772150E+02  0.19357428085E+04  0.19352451124E+04 0.  0.
        1    1    3    3  502    0 -0.34056941120E+03 -0.50646449788E+03 -0.77300538980E+03  0.98490159110E+03  0.50400001928E-02 0. -1.
       -1    1    3    3    0  502  0.34056941120E+03  0.50646449788E+03  0.72911261765E+03  0.95084121740E+03  0.50400001928E-02 0.  1.
</event>
<event>
 5   0  0.1325673E-04  0.2111445E+04  0.7818609E-02  0.8556218E-01
        2   -1    0    0  501    0  0.00000000000E+00  0.00000000000E+00  0.12770953110E+04  0.12770953110E+04  0.25500000920E-02 0. -1.
       -2   -1    0    0    0  501  0.00000000000E+00  0.00000000000E+00 -0.87272305307E+03  0.87272305308E+03  0.25500000920E-02 0.  1.
    10030    2    1    2    0    0  0.00000000000E+00  0.00000000000E+00  0.40437225793E+03  0.21498183641E+04  0.21114454943E+04 0.  0.
        5    1    3    3  502    0  0.32996659710E+03  0.98561883989E+03  0.13876343881E+02  0.10394888627E+04  0.46999998093E+01 0. -1.
       -5    1    3    3    0  502 -0.32996659710E+03 -0.98561883989E+03  0.39049591405E+03  0.11103295014E+04  0.46999998093E+01 0.  1.
</event>
<event>
 5   0  0.6052292E-05  0.2141567E+04  0.7818609E-02  0.8543151E-01
       -1   -1    0    0    0  501  0.00000000000E+00  0.00000000000E+00  0.10150676933E+04  0.10150676933E+04  0.50400001928E-02 0.  1.
        1   -1    0    0  501    0  0.00000000000E+00  0.00000000000E+00 -0.11295577284E+04  0.11295577284E+04  0.50400001928E-02 0. -1.
    10030    2    1    2    0    0  0.00000000000E+00  0.00000000000E+00 -0.11449003509E+03  0.21446254218E+04  0.21415672372E+04 0.  0.
        1    1    3    3  502    0  0.97851623640E+03  0.25573495981E+03  0.29494336625E+03  0.10535112642E+04  0.50400001928E-02 0.  1.
       -1    1    3    3    0  502 -0.97851623640E+03 -0.25573495981E+03 -0.40943340134E+03  0.10911141575E+04  0.50400001928E-02 0. -1.
</event>
<event>
 5   0  0.4615125E-05  0.2136602E+04  0.7818609E-02  0.8545289E-01
       -3   -1    0    0    0  501  0.00000000000E+00  0.00000000000E+00  0.14118797860E+04  0.14118797897E+04  0.10100000352E+00 0. -1.
        3   -1    0    0  501    0  0.00000000000E+00  0.00000000000E+00 -0.80833186931E+03  0.80833187562E+03  0.10100000352E+00 0.  1.
    10030    2    1    2    0    0  0.00000000000E+00  0.00000000000E+00  0.60354791674E+03  0.22202116653E+04  0.21366023848E+04 0.  0.
        5    1    3    3  502    0 -0.19553423753E+03  0.93300870914E+03  0.80283216741E+03  0.12463147549E+04  0.46999998093E+01 0. -1.
       -5    1    3    3    0  502  0.19553423753E+03 -0.93300870914E+03 -0.19928425067E+03  0.97389691032E+03  0.46999998093E+01 0.  1.
</event>
<event>
 5   0  0.1325673E-04  0.1942545E+04  0.7818609E-02  0.8633964E-01
        2   -1    0    0  501    0  0.00000000000E+00  0.00000000000E+00  0.10539465146E+04  0.10539465146E+04  0.25500000920E-02 0. -1.
       -2   -1    0    0    0  501  0.00000000000E+00  0.00000000000E+00 -0.89508362549E+03  0.89508362549E+03  0.25500000920E-02 0.  1.
    10030    2    1    2    0    0  0.00000000000E+00  0.00000000000E+00  0.15886288908E+03  0.19490301401E+04  0.19425449980E+04 0.  0.
        5    1    3    3  502    0 -0.61552200087E+02 -0.38904812822E+03 -0.81133935941E+03  0.90190951073E+03  0.46999998093E+01 0.  1.
       -5    1    3    3    0  502  0.61552200087E+02  0.38904812822E+03  0.97020224849E+03  0.10471206293E+04  0.46999998093E+01 0. -1.
</event>
<event>
 5   0  0.1235817E-04  0.2052659E+04  0.7818609E-02  0.8582389E-01
       -2   -1    0    0    0  501  0.00000000000E+00  0.00000000000E+00  0.16012714680E+04  0.16012714680E+04  0.25500000920E-02 0.  1.
        2   -1    0    0  501    0  0.00000000000E+00  0.00000000000E+00 -0.65782239783E+03  0.65782239783E+03  0.25500000920E-02 0. -1.
    10030    2    1    2    0    0  0.00000000000E+00  0.00000000000E+00  0.94344907016E+03  0.22590938658E+04  0.20526589942E+04 0.  0.
        1    1    3    3  502    0 -0.21387732538E+03  0.32970964789E+03  0.15151783382E+04  0.15653170154E+04  0.50400001928E-02 0.  1.
       -1    1    3    3    0  502  0.21387732538E+03 -0.32970964789E+03 -0.57172926802E+03  0.69377685041E+03  0.50400001928E-02 0. -1.
</event>
<event>
 5   0  0.1252477E-04  0.2134300E+04  0.7818609E-02  0.8546283E-01
       -2   -1    0    0    0  501  0.00000000000E+00  0.00000000000E+00  0.72047108738E+03  0.72047108738E+03  0.25500000920E-02 0. -1.
        2   -1    0    0  501    0  0.00000000000E+00  0.00000000000E+00 -0.15806455535E+04  0.15806455535E+04  0.25500000920E-02 0.  1.
    10030    2    1    2    0    0  0.00000000000E+00  0.00000000000E+00 -0.86017446608E+03  0.23011166408E+04  0.21343002794E+04 0.  0.
        4    1    3    3  502    0 -0.10379146599E+04  0.21897295572E+03 -0.30439113970E+03  0.11035721885E+04  0.12699999809E+01 0. -1.
       -4    1    3    3    0  502  0.10379146599E+04 -0.21897295572E+03 -0.55578332638E+03  0.11975444523E+04  0.12699999809E+01 0.  1.
</event>
<event>
 5   0  0.1325673E-04  0.2098795E+04  0.7818609E-02  0.8561774E-01
        2   -1    0    0  501    0  0.00000000000E+00  0.00000000000E+00  0.17274973296E+04  0.17274973296E+04  0.25500000920E-02 0. -1.
       -2   -1    0    0    0  501  0.00000000000E+00  0.00000000000E+00 -0.63747424913E+03  0.63747424914E+03  0.25500000920E-02 0.  1.
    10030    2    1    2    0    0  0.00000000000E+00  0.00000000000E+00  0.10900230804E+04  0.23649715787E+04  0.20987949524E+04 0.  0.
        5    1    3    3  502    0  0.88917438340E+03  0.30111536262E+03  0.10734322299E+04  0.14260366012E+04  0.46999998093E+01 0. -1.
       -5    1    3    3    0  502 -0.88917438340E+03 -0.30111536262E+03  0.16590850519E+02  0.93893497752E+03  0.46999998093E+01 0.  1.
</event>
<event>
 5   0  0.6263616E-05  0.2084539E+04  0.7818609E-02  0.8568085E-01
        1   -1    0    0  501    0  0.00000000000E+00  0.00000000000E+00  0.26561350642E+04  0.26561350642E+04  0.50400001928E-02 0. -1.
       -1   -1    0    0    0  501  0.00000000000E+00  0.00000000000E+00 -0.40898721873E+03  0.40898721876E+03  0.50400001928E-02 0.  1.
    10030    2    1    2    0    0  0.00000000000E+00  0.00000000000E+00  0.22471478455E+04  0.30651222830E+04  0.20845385989E+04 0.  0.
        4    1    3    3  502    0 -0.79868657072E+03 -0.17799773260E+03  0.20728020254E+04  0.22284733071E+04  0.12699999809E+01 0. -1.
       -4    1    3    3    0  502  0.79868657072E+03  0.17799773260E+03  0.17434582016E+03  0.83664897595E+03  0.12699999809E+01 0.  1.
</event>
<event>
 5   0  0.1235817E-04  0.2110708E+04  0.7818609E-02  0.8556541E-01
        2   -1    0    0  501    0  0.00000000000E+00  0.00000000000E+00  0.11700964453E+04  0.11700964453E+04  0.25500000920E-02 0. -1.
       -2   -1    0    0    0  501  0.00000000000E+00  0.00000000000E+00 -0.95186312099E+03  0.95186312099E+03  0.25500000920E-02 0.  1.
    10030    2    1    2    0    0  0.00000000000E+00  0.00000000000E+00  0.21823332428E+03  0.21219595663E+04  0.21107076105E+04 0.  0.
        1    1    3    3  502    0  0.30062509894E+03 -0.44201456375E+03  0.10239232127E+04  0.11550632321E+04  0.50400001928E-02 0. -1.
       -1    1    3    3    0  502 -0.30062509894E+03  0.44201456375E+03 -0.80568988840E+03  0.96689633415E+03  0.50400001928E-02 0.  1.
</event>
<event>
 5   0  0.6263616E-05  0.1864943E+04  0.7818609E-02  0.8672506E-01
       -1   -1    0    0    0  501  0.00000000000E+00  0.00000000000E+00  0.89714274014E+03  0.89714274016E+03  0.50400001928E-02 0. -1.
        1   -1    0    0  501    0  0.00000000000E+00  0.00000000000E+00 -0.96919142077E+03  0.96919142079E+03  0.50400001928E-02 0.  1.
    10030    2    1    2    0    0  0.00000000000E+00  0.00000000000E+00 -0.72048680633E+02  0.18663341609E+04  0.18649429450E+04 0.  0.
        4    1    3    3  502    0 -0.16479311609E+03 -0.75685617592E+03 -0.55555840735E+03  0.95322337310E+03  0.12699999809E+01 0.  1.
       -4    1    3    3    0  502  0.16479311609E+03  0.75685617592E+03  0.48350972672E+03  0.91311078784E+03  0.12699999809E+01 0. -1.
</event>
<event>
 5   0  0.5933905E-05  0.2101896E+04  0.7818609E-02  0.8560409E-01
        1   -1    0    0  501    0  0.00000000000E+00  0.00000000000E+00  0.15089291457E+04  0.15089291457E+04  0.50400001928E-02 0. -1.
       -1   -1    0    0    0  501  0.00000000000E+00  0.00000000000E+00 -0.73197034230E+03  0.73197034232E+03  0.50400001928E-02 0.  1.
    10030    2    1    2    0    0  0.00000000000E+00  0.00000000000E+00  0.77695880341E+03  0.22408994880E+04  0.21018956999E+04 0.  0.
        2    1    3    3  502    0 -0.16394642261E+03 -0.70731553702E+03  0.11985421226E+04  0.14013125697E+04  0.25500000920E-02 0. -1.
       -2    1    3    3    0  502  0.16394642261E+03  0.70731553702E+03 -0.42158331918E+03  0.83958691832E+03  0.25500000920E-02 0.  1.
</event>
<event>
 5   0  0.5933905E-05  0.2101263E+04  0.7818609E-02  0.8560687E-01
        1   -1    0    0  501    0  0.00000000000E+00  0.00000000000E+00  0.55733774722E+03  0.55733774724E+03  0.50400001928E-02 0. -1.
       -1   -1    0    0    0  501  0.00000000000E+00  0.00000000000E+00 -0.19805337819E+04  0.19805337819E+04  0.50400001928E-02 0.  1.
    10030    2    1    2    0    0  0.00000000000E+00  0.00000000000E+00 -0.14231960346E+04  0.25378715291E+04  0.21012627026E+04 0.  0.
        2    1    3    3  502    0 -0.99672982066E+02 -0.10366883940E+04 -0.54437899225E+03  0.11751621237E+04  0.25500000920E-02 0.  1.
       -2    1    3    3    0  502  0.99672982066E+02  0.10366883940E+04 -0.87881704239E+03  0.13627094054E+04  0.25500000920E-02 0. -1.
</event>
<event>
 5   0  0.6052292E-05  0.2081268E+04  0.7818609E-02  0.8569540E-01
        1   -1    0    0  501    0  0.00000000000E+00  0.00000000000E+00  0.16347261497E+04  0.16347261497E+04  0.50400001928E-02 0.  1.
       -1   -1    0    0    0  501  0.00000000000E+00  0.00000000000E+00 -0.66244667337E+03  0.66244667339E+03  0.50400001928E-02 0. -1.
    10030    2    1    2    0    0  0.00000000000E+00  0.00000000000E+00  0.97227947629E+03  0.22971728231E+04  0.20812677865E+04 0.  0.
        1    1    3    3  502    0  0.81515418353E+02  0.18798679390E+03 -0.63996175469E+03  0.67196342579E+03  0.50400001928E-02 0. -1.
       -1    1    3    3    0  502 -0.81515418353E+02 -0.18798679390E+03  0.16122412310E+04  0.16252093973E+04  0.50400001928E-02 0.  1.
</event>
<event>
 5   0  0.6263616E-05  0.2069149E+04  0.7818609E-02  0.8574957E-01
       -1   -1    0    0    0  501  0.00000000000E+00  0.00000000000E+00  0.11000594431E+04  0.11000594431E+04  0.50400001928E-02 0.  1.
        1   -1    0    0  501    0  0.00000000000E+00  0.00000000000E+00 -0.97298753945E+03  0.97298753946E+03  0.50400001928E-02 0. -1.
    10030    2    1    2    0    0  0.00000000000E+00  0.00000000000E+00  0.12707190366E+03  0.20730469826E+04  0.20691487436E+04 0.  0.
        4    1    3    3  502    0 -0.10845906304E+03  0.52121599437E+03  0.95228838631E+03  0.10910014962E+04  0.12699999809E+01 0.  1.
       -4    1    3    3    0  502  0.10845906304E+03 -0.52121599437E+03 -0.82521648265E+03  0.98204548636E+03  0.12699999809E+01 0. -1.
</event>
<event>
 5   0  0.1252477E-04  0.2134079E+04  0.7818609E-02  0.8546378E-01
        2   -1    0    0  501    0  0.00000000000E+00  0.00000000000E+00  0.90436172414E+03  0.90436172415E+03  0.25500000920E-02 0. -1.
       -2   -1    0    0    0  501  0.00000000000E+00  0.00000000000E+00 -0.12589801013E+04  0.12589801013E+04  0.25500000920E-02 0.  1.
    10030    2    1    2    0    0  0.00000000000E+00  0.00000000000E+00 -0.35461837716E+03  0.21633418255E+04  0.21340791130E+04 0.  0.
        4    1    3    3  502    0  0.78598966466E+03 -0.65164986642E+03  0.13701431463E+03  0.10301465122E+04  0.12699999809E+01 0. -1.
       -4    1    3    3    0  502 -0.78598966466E+03  0.65164986642E+03 -0.49163269179E+03  0.11331953132E+04  0.12699999809E+01 0.  1.
</event>
<event>
 5   0  0.1252477E-04  0.2117834E+04  0.7818609E-02  0.8553428E-01
       -2   -1    0    0    0  501  0.00000000000E+00  0.00000000000E+00  0.98833092299E+03  0.98833092299E+03  0.25500000920E-02 0. -1.
        2   -1    0    0  501    0  0.00000000000E+00  0.00000000000E+00 -0.11345440564E+04  0.11345440564E+04  0.25500000920E-02 0.  1.
    10030    2    1    2    0    0  0.00000000000E+00  0.00000000000E+00 -0.14621313344E+03  0.21228749794E+04  0.21178337748E+04 0.  0.
        4    1    3    3  502    0  0.28996307610E+03  0.77464779751E+03  0.58963710131E+03  0.10157909824E+04  0.12699999809E+01 0. -1.
       -4    1    3    3    0  502 -0.28996307610E+03 -0.77464779751E+03 -0.73585023476E+03  0.11070839971E+04  0.12699999809E+01 0.  1.
</event>
<event>
 5   0  0.5846187E-05  0.2107990E+04  0.7818609E-02  0.8557732E-01
       -1   -1    0    0    0  501  0.00000000000E+00  0.00000000000E+00  0.51429260044E+03  0.51429260047E+03  0.50400001928E-02 0.  1.
        1   -1    0    0  501    0  0.00000000000E+00  0.00000000000E+00 -0.21600655973E+04  0.21600655973E+04  0.50400001928E-02 0. -1.
    10030    2    1    2    0    0  0.00000000000E+00  0.00000000000E+00 -0.16457729969E+04  0.26743581978E+04  0.21079902782E+04 0.  0.
        5    1    3    3  502    0  0.60886597061E+02 -0.98457403201E+03 -0.35195195415E+03  0.10473707415E+04  0.46999998093E+01 0.  1.
       -5    1    3    3    0  502 -0.60886597061E+02  0.98457403201E+03 -0.12938210427E+04  0.16269874562E+04  0.46999998093E+01 0. -1.
</event>
<event>
 5   0  0.1349252E-04  0.2305164E+04  0.7818609E-02  0.8475888E-01
       -2   -1    0    0    0  501  0.00000000000E+00  0.00000000000E+00  0.68288035926E+03  0.68288035927E+03  0.25500000920E-02 0.  1.
        2   -1    0    0  501    0  0.00000000000E+00  0.00000000000E+00 -0.19453557416E+04  0.19453557416E+04  0.25500000920E-02 0. -1.
    10030    2    1    2    0    0  0.00000000000E+00  0.00000000000E+00 -0.12624753823E+04  0.26282361009E+04  0.23051639662E+04 0.  0.
        2    1    3    3  502    0 -0.35331435085E+03  0.31484265204E+03 -0.18294757630E+04  0.18896926982E+04  0.25500000920E-02 0. -1.
       -2    1    3    3    0  502  0.35331435085E+03 -0.31484265204E+03  0.56700038064E+03  0.73854340273E+03  0.25500000920E-02 0.  1.
</event>
<event>
 5   0  0.5846187E-05  0.2152735E+04  0.7818609E-02  0.8538363E-01
        1   -1    0    0  501    0  0.00000000000E+00  0.00000000000E+00  0.16536752355E+04  0.16536752355E+04  0.50400001928E-02 0. -1.
       -1   -1    0    0    0  501  0.00000000000E+00  0.00000000000E+00 -0.70060098818E+03  0.70060098820E+03  0.50400001928E-02 0.  1.
    10030    2    1    2    0    0  0.00000000000E+00  0.00000000000E+00  0.95307424731E+03  0.23542762237E+04  0.21527345439E+04 0.  0.
        5    1    3    3  502    0  0.41395111205E+03 -0.72651914935E+03  0.12177500166E+04  0.14772009987E+04  0.46999998093E+01 0. -1.
       -5    1    3    3    0  502 -0.41395111205E+03  0.72651914935E+03 -0.26467576928E+03  0.87707522504E+03  0.46999998093E+01 0.  1.
</event>
<event>
 5   0  0.1235817E-04  0.2081982E+04  0.7818609E-02  0.8569222E-01
        2   -1    0    0  501    0  0.00000000000E+00  0.00000000000E+00  0.16012097508E+04  0.16012097508E+04  0.25500000920E-02 0.  1.
       -2   -1    0    0    0  501  0.00000000000E+00  0.00000000000E+00 -0.67677730666E+03  0.67677730667E+03  0.25500000920E-02 0. -1.
    10030    2    1    2    0    0  0.00000000000E+00  0.00000000000E+00  0.92443244416E+03  0.22779870575E+04  0.20819821542E+04 0.  0.
        1    1    3    3  502    0 -0.22877654743E+02 -0.21258017195E+03  0.15769269880E+04  0.15913555360E+04  0.50400001928E-02 0.  1.
       -1    1    3    3    0  502  0.22877654743E+02  0.21258017195E+03 -0.65249454379E+03  0.68663152149E+03  0.50400001928E-02 0. -1.
</event>
<event>
 5   0  0.1252477E-04  0.2035587E+04  0.7818609E-02  0.8590161E-01
        2   -1    0    0  501    0  0.00000000000E+00  0.00000000000E+00  0.21647564184E+04  0.21647564184E+04  0.25500000920E-02 0. -1.
       -2   -1    0    0    0  501  0.00000000000E+00  0.00000000000E+00 -0.47853140883E+03  0.47853140884E+03  0.25500000920E-02 0.  1.
    10030    2    1    2    0    0  0.00000000000E+00  0.00000000000E+00  0.16862250095E+04  0.26432878272E+04  0.20355873243E+04 0.  0.
        4    1    3    3  502    0  0.97543993615E+03  0.20492309175E+03  0.57564584606E+03  0.11510196764E+04  0.12699999809E+01 0.  1.
       -4    1    3    3    0  502 -0.97543993615E+03 -0.20492309175E+03  0.11105791635E+04  0.14922681508E+04  0.12699999809E+01 0. -1.
</event>
<event>
 5   0  0.6221148E-05  0.2041754E+04  0.7818609E-02  0.8587344E-01
       -1   -1    0    0    0  501  0.00000000000E+00  0.00000000000E+00  0.85476240551E+03  0.85476240553E+03  0.50400001928E-02 0.  1.
        1   -1    0    0  501    0  0.00000000000E+00  0.00000000000E+00 -0.12192742747E+04  0.12192742748E+04  0.50400001928E-02 0. -1.
    10030    2    1    2    0    0  0.00000000000E+00  0.00000000000E+00 -0.36451186923E+03  0.20740366803E+04  0.20417539637E+04 0.  0.
        3    1    3    3  502    0 -0.95166146283E+03 -0.33099908483E+03 -0.15434275922E+02  0.10076994398E+04  0.10100000352E+00 0. -1.
       -3    1    3    3    0  502  0.95166146283E+03  0.33099908483E+03 -0.34907759331E+03  0.10663372404E+04  0.10100000352E+00 0.  1.
</event>
<event>
 5   0  0.1252477E-04  0.2096251E+04  0.7818609E-02  0.8562897E-01
       -2   -1    0    0    0  501  0.00000000000E+00  0.00000000000E+00  0.86888615592E+03  0.86888615593E+03  0.25500000920E-02 0.  1.
        2   -1    0    0  501    0  0.00000000000E+00  0.00000000000E+00 -0.12643391664E+04  0.12643391664E+04  0.25500000920E-02 0. -1.
    10030    2    1    2    0    0  0.00000000000E+00  0.00000000000E+00 -0.39545301045E+03  0.21332253223E+04  0.20962507465E+04 0.  0.
        4    1    3    3  502    0 -0.43905765949E+03  0.95152041491E+03 -0.17731132836E+03  0.10628281368E+04  0.12699999809E+01 0. -1.
       -4    1    3    3    0  502  0.43905765949E+03 -0.95152041491E+03 -0.21814168209E+03  0.10703971855E+04  0.12699999809E+01 0.  1.
</event>
<event>
 5   0  0.1325673E-04  0.1640530E+04  0.7818609E-02  0.8796028E-01
        2   -1    0    0  501    0  0.00000000000E+00  0.00000000000E+00  0.84063243609E+03  0.84063243609E+03  0.25500000920E-02 0.  1.
       -2   -1    0    0    0  501  0.00000000000E+00  0.00000000000E+00 -0.80039126790E+03  0.80039126791E+03  0.25500000920E-02 0. -1.
    10030    2    1    2    0    0  0.00000000000E+00  0.00000000000E+00  0.40241168186E+02  0.16410237040E+04  0.16405302330E+04 0.  0.
        5    1    3    3  502    0 -0.33351585279E+03  0.72141430808E+03  0.22301488596E+03  0.82548722420E+03  0.46999998093E+01 0. -1.
       -5    1    3    3    0  502  0.33351585279E+03 -0.72141430808E+03 -0.18277371777E+03  0.81553647979E+03  0.46999998093E+01 0.  1.
</event>
<event>
 5   0  0.1235817E-04  0.2093375E+04  0.7818609E-02  0.8564167E-01
        2   -1    0    0  501    0  0.00000000000E+00  0.00000000000E+00  0.10964368462E+04  0.10964368462E+04  0.25500000920E-02 0. -1.
       -2   -1    0    0    0  501  0.00000000000E+00  0.00000000000E+00 -0.99919580088E+03  0.99919580089E+03  0.25500000920E-02 0.  1.
    10030    2    1    2    0    0  0.00000000000E+00  0.00000000000E+00  0.97241045274E+02  0.20956326470E+04  0.20933753535E+04 0.  0.
        1    1    3    3  502    0 -0.42077213664E+03 -0.89305263443E+03 -0.29955171030E+03  0.10316605188E+04  0.50400001928E-02 0.  1.
       -1    1    3    3    0  502  0.42077213664E+03  0.89305263443E+03  0.39679275558E+03  0.10639721283E+04  0.50400001928E-02 0. -1.
</event>
<event>
 5   0  0.6263616E-05  0.2021482E+04  0.7818609E-02  0.8596643E-01
       -1   -1    0    0    0  501  0.00000000000E+00  0.00000000000E+00  0.60384188230E+03  0.60384188232E+03  0.50400001928E-02 0.  1.
        1   -1    0    0  501    0  0.00000000000E+00  0.00000000000E+00 -0.16918292082E+04  0.16918292082E+04  0.50400001928E-02 0. -1.
    10030    2    1    2    0    0  0.00000000000E+00  0.00000000000E+00 -0.10879873259E+04  0.22956710905E+04  0.20214819649E+04 0.  0.
        4    1    3    3  502    0 -0.89079021927E+03  0.35699246848E+03 -0.90426992214E+03  0.13185812612E+04  0.12699999809E+01 0. -1.
       -4    1    3    3    0  502  0.89079021927E+03 -0.35699246848E+03 -0.18371740376E+03  0.97708982936E+03  0.12699999809E+01 0.  1.
</event>
<event>
 5   0  0.1235817E-04  0.1885846E+04  0.7818609E-02  0.8661934E-01
       -2   -1    0    0    0  501  0.00000000000E+00  0.00000000000E+00  0.57348611616E+03  0.57348611617E+03  0.25500000920E-02 0.  1.
        2   -1    0    0  501    0  0.00000000000E+00  0.00000000000E+00 -0.15503489381E+04  0.15503489381E+04  0.25500000920E-02 0. -1.
    10030    2    1    2    0    0  0.00000000000E+00  0.00000000000E+00 -0.97686282189E+03  0.21238350542E+04  0.18858457956E+04 0.  0.
        1    1    3    3  502    0 -0.39866569478E+03  0.13046213154E+03  0.46262157009E+03  0.62447851933E+03  0.50400001928E-02 0.  1.
       -1    1    3    3    0  502  0.39866569478E+03 -0.13046213154E+03 -0.14394843920E+04  0.14993565349E+04  0.50400001928E-02 0. -1.
</event>
<event>
 5   0  0.5933905E-05  0.2108408E+04  0.7818609E-02  0.8557549E-01
       -1   -1    0    0    0  501  0.00000000000E+00  0.00000000000E+00  0.17810023655E+04  0.17810023656E+04  0.50400001928E-02 0. -1.
        1   -1    0    0  501    0  0.00000000000E+00  0.00000000000E+00 -0.62400023098E+03  0.62400023100E+03  0.50400001928E-02 0.  1.
    10030    2    1    2    0    0  0.00000000000E+00  0.00000000000E+00  0.11570021346E+04  0.24050025966E+04  0.21084078235E+04 0.  0.
        2    1    3    3  502    0  0.27964781167E+03  0.97353529891E+03  0.24521382822E+03  0.10421629903E+04  0.25500000920E-02 0.  1.
       -2    1    3    3    0  502 -0.27964781167E+03 -0.97353529891E+03  0.91178830634E+03  0.13628396063E+04  0.25500000920E-02 0. -1.
</event>
<event>
 5   0  0.1281470E-04  0.2117242E+04  0.7818609E-02  0.8553686E-01
        2   -1    0    0  501    0  0.00000000000E+00  0.00000000000E+00  0.16577635575E+04  0.16577635575E+04  0.25500000920E-02 0. -1.
       -2   -1    0    0    0  501  0.00000000000E+00  0.00000000000E+00 -0.67601823191E+03  0.67601823191E+03  0.25500000920E-02 0.  1.
    10030    2    1    2    0    0  0.00000000000E+00  0.00000000000E+00  0.98174532561E+03  0.23337817894E+04  0.21172419692E+04 0.  0.
        3    1    3    3  502    0 -0.27014374922E+03 -0.95486026054E+03  0.89728563789E+03  0.13378554812E+04  0.10100000352E+00 0. -1.
       -3    1    3    3    0  502  0.27014374922E+03  0.95486026054E+03  0.84459687727E+02  0.99592630824E+03  0.10100000352E+00 0.  1.
</event>
<event>
 5   0  0.6263616E-05  0.2244006E+04  0.7818609E-02  0.8500332E-01
        1   -1    0    0  501    0  0.00000000000E+00  0.00000000000E+00  0.15549581423E+04  0.15549581423E+04  0.50400001928E-02 0.  1.
       -1   -1    0    0    0  501  0.00000000000E+00  0.00000000000E+00 -0.80959775595E+03  0.80959775597E+03  0.50400001928E-02 0. -1.
    10030    2    1    2    0    0  0.00000000000E+00  0.00000000000E+00  0.74536038630E+03  0.23645558982E+04  0.22440059025E+04 0.  0.
        4    1    3    3  502    0  0.82748064581E+03 -0.33158381317E+03  0.10906167938E+04  0.14085874656E+04  0.12699999809E+01 0.  1.
       -4    1    3    3    0  502 -0.82748064581E+03  0.33158381317E+03 -0.34525640754E+03  0.95596843263E+03  0.12699999809E+01 0. -1.
</event>
<event>
 5   0  0.6263616E-05  0.2118182E+04  0.7818609E-02  0.8553276E-01
       -1   -1    0    0    0  501  0.00000000000E+00  0.00000000000E+00  0.54425836808E+03  0.54425836811E+03  0.50400001928E-02 0. -1.
        1   -1    0    0  501    0  0.00000000000E+00  0.00000000000E+00 -0.20609222098E+04  0.20609222098E+04  0.50400001928E-02 0.  1.
    10030    2    1    2    0    0  0.00000000000E+00  0.00000000000E+00 -0.15166638417E+04  0.26051805779E+04  0.21181823894E+04 0.  0.
        4    1    3    3  502    0  0.68763340083E+03 -0.74078542991E+03 -0.36926349146E+03  0.10760854456E+04  0.12699999809E+01 0. -1.
       -4    1    3    3    0  502 -0.68763340083E+03  0.74078542991E+03 -0.11474003502E+04  0.15290951323E+04  0.12699999809E+01 0.  1.
</event>
<event>
 5   0  0.1235817E-04  0.2099352E+04  0.7818609E-02  0.8561529E-01
        2   -1    0    0  501    0  0.00000000000E+00  0.00000000000E+00  0.17388081369E+04  0.17388081369E+04  0.25500000920E-02 0. -1.
       -2   -1    0    0    0  501  0.00000000000E+00  0.00000000000E+00 -0.63366347197E+03  0.63366347197E+03  0.25500000920E-02 0.  1.
    10030    2    1    2    0    0  0.00000000000E+00  0.00000000000E+00  0.11051446649E+04  0.23724716089E+04  0.20993515200E+04 0.  0.
        1    1    3    3  502    0 -0.65040238687E+03  0.87548002772E+02 -0.37323283737E+03  0.75497726360E+03  0.50400001928E-02 0.  1.
       -1    1    3    3    0  502  0.65040238687E+03 -0.87548002772E+02  0.14783775023E+04  0.16174943453E+04  0.50400001928E-02 0. -1.
</event>
<event>
 5   0  0.1252477E-04  0.2105807E+04  0.7818609E-02  0.8558690E-01
       -2   -1    0    0    0  501  0.00000000000E+00  0.00000000000E+00  0.10298408252E+04  0.10298408252E+04  0.25500000920E-02 0.  1.
        2   -1    0    0  501    0  0.00000000000E+00  0.00000000000E+00 -0.10764827084E+04  0.10764827085E+04  0.25500000920E-02 0. -1.
    10030    2    1    2    0    0  0.00000000000E+00  0.00000000000E+00 -0.46641883206E+02  0.21063235337E+04  0.21058070575E+04 0.  0.
        4    1    3    3  502    0 -0.56441089543E+03  0.88874428046E+03 -0.99695217132E+01  0.10528661165E+04  0.12699999809E+01 0. -1.
       -4    1    3    3    0  502  0.56441089543E+03 -0.88874428046E+03 -0.36672361493E+02  0.10534574172E+04  0.12699999809E+01 0.  1.
</event>
<event>
 5   0  0.5846187E-05  0.2091197E+04  0.7818609E-02  0.8565131E-01
        1   -1    0    0  501    0  0.00000000000E+00  0.00000000000E+00  0.14945154596E+04  0.14945154596E+04  0.50400001928E-02 0.  1.
       -1   -1    0    0    0  501  0.00000000000E+00  0.00000000000E+00 -0.73152559697E+03  0.73152559699E+03  0.50400001928E-02 0. -1.
    10030    2    1    2    0    0  0.00000000000E+00  0.00000000000E+00  0.76298986265E+03  0.22260410566E+04  0.20911970867E+04 0.  0.
        5    1    3    3  502    0 -0.88439786652E+03  0.50992308442E+03  0.62206093450E+03  0.11954760703E+04  0.46999998093E+01 0.  1.
       -5    1    3    3    0  502  0.88439786652E+03 -0.50992308442E+03  0.14092892814E+03  0.10305649864E+04  0.46999998093E+01 0. -1.
</event>
<event>
 5   0  0.1235817E-04  0.2094270E+04  0.7818609E-02  0.8563772E-01
       -2   -1    0    0    0  501  0.00000000000E+00  0.00000000000E+00  0.69796530701E+03  0.69796530702E+03  0.25500000920E-02 0. -1.
        2   -1    0    0  501    0  0.00000000000E+00  0.00000000000E+00 -0.15709824738E+04  0.15709824738E+04  0.25500000920E-02 0.  1.
    10030    2    1    2    0    0  0.00000000000E+00  0.00000000000E+00 -0.87301716682E+03  0.22689477809E+04  0.20942695764E+04 0.  0.
        1    1    3    3  502    0  0.54015385173E+03  0.76412723380E+03 -0.94563487795E+03  0.13303690974E+04  0.50400001928E-02 0.  1.
       -1    1    3    3    0  502 -0.54015385173E+03 -0.76412723380E+03  0.72617711127E+02  0.93857868342E+03  0.50400001928E-02 0. -1.
</event>
<event>
 5   0  0.1281470E-04  0.2129700E+04  0.7818609E-02  0.8548272E-01
        2   -1    0    0  501    0  0.00000000000E+00  0.00000000000E+00  0.11952263597E+04  0.11952263597E+04  0.25500000920E-02 0. -1.
       -2   -1    0    0    0  501  0.00000000000E+00  0.00000000000E+00 -0.94869519670E+03  0.94869519670E+03  0.25500000920E-02 0.  1.
    10030    2    1    2    0    0  0.00000000000E+00  0.00000000000E+00  0.24653116300E+03  0.21439215564E+04  0.21296999849E+04 0.  0.
        3    1    3    3  502    0  0.69988837548E+03  0.72718071898E+03 -0.21851590511E+03  0.10326590663E+04  0.10100000352E+00 0. -1.
       -3    1    3    3    0  502 -0.69988837548E+03 -0.72718071898E+03  0.46504706811E+03  0.11112624901E+04  0.10100000352E+00 0.  1.
</event>
<event>
 5   0  0.6052292E-05  0.2088706E+04  0.7818609E-02  0.8566235E-01
       -1   -1    0    0    0  501  0.00000000000E+00  0.00000000000E+00  0.16929615177E+04  0.16929615177E+04  0.50400001928E-02 0. -1.
        1   -1    0    0  501    0  0.00000000000E+00  0.00000000000E+00 -0.64423972610E+03  0.64423972612E+03  0.50400001928E-02 0.  1.
    10030    2    1    2    0    0  0.00000000000E+00  0.00000000000E+00  0.10487217916E+04  0.23372012439E+04  0.20887058812E+04 0.  0.
        1    1    3    3  502    0 -0.27650999213E+03  0.49594119547E+03 -0.45642058589E+03  0.72851574888E+03  0.50400001928E-02 0.  1.
       -1    1    3    3    0  502  0.27650999213E+03 -0.49594119547E+03  0.15051423775E+04  0.16086854950E+04  0.50400001928E-02 0. -1.
</event>
<event>
 5   0  0.6263616E-05  0.2196109E+04  0.7818609E-02  0.8520050E-01
        1   -1    0    0  501    0  0.00000000000E+00  0.00000000000E+00  0.14047824419E+04  0.14047824419E+04  0.50400001928E-02 0. -1.
       -1   -1    0    0    0  501  0.00000000000E+00  0.00000000000E+00 -0.85829898212E+03  0.85829898214E+03  0.50400001928E-02 0.  1.
    10030    2    1    2    0    0  0.00000000000E+00  0.00000000000E+00  0.54648345980E+03  0.22630814241E+04  0.21961086859E+04 0.  0.
        4    1    3    3  502    0  0.12856932132E+03  0.73884418576E+03 -0.55327840605E+03  0.93195461730E+03  0.12699999809E+01 0. -1.
       -4    1    3    3    0  502 -0.12856932132E+03 -0.73884418576E+03  0.10997618658E+04  0.13311268068E+04  0.12699999809E+01 0.  1.
</event>
<event>
 5   0  0.6221148E-05  0.2134938E+04  0.7818609E-02  0.8546007E-01
        1   -1    0    0  501    0  0.00000000000E+00  0.00000000000E+00  0.81253865883E+03  0.81253865884E+03  0.50400001928E-02 0.  1.
       -1   -1    0    0    0  501  0.00000000000E+00  0.00000000000E+00 -0.14023823991E+04  0.14023823991E+04  0.50400001928E-02 0. -1.
    10030    2    1    2    0    0  0.00000000000E+00  0.00000000000E+00 -0.58984374023E+03  0.22149210579E+04  0.21349378574E+04 0.  0.
        3    1    3    3  502    0  0.55290244787E+03  0.12488067666E+03 -0.12333500782E+04  0.13573683088E+04  0.10100000352E+00 0. -1.
       -3    1    3    3    0  502 -0.55290244787E+03 -0.12488067666E+03  0.64350633795E+03  0.85755274908E+03  0.10100000352E+00 0.  1.
</event>
<event>
 5   0  0.5846187E-05  0.2012919E+04  0.7818609E-02  0.8600604E-01
        1   -1    0    0  501    0  0.00000000000E+00  0.00000000000E+00  0.14293032567E+04  0.14293032567E+04  0.50400001928E-02 0.  1.
       -1   -1    0    0    0  501  0.00000000000E+00  0.00000000000E+00 -0.70870938059E+03  0.70870938061E+03  0.50400001928E-02 0. -1.
    10030    2    1    2    0    0  0.00000000000E+00  0.00000000000E+00  0.72059387609E+03  0.21380126373E+04  0.20129189012E+04 0.  0.
        5    1    3    3  502    0 -0.14166368318E+02 -0.21968180803E+03  0.14034069101E+04  0.14205751751E+04  0.46999998093E+01 0.  1.
       -5    1    3    3    0  502  0.14166368318E+02  0.21968180803E+03 -0.68281303401E+03  0.71743746221E+03  0.46999998093E+01 0. -1.
</event>
<event>
 5   0  0.6221148E-05  0.1838811E+04  0.7818609E-02  0.8685928E-01
       -1   -1    0    0    0  501  0.00000000000E+00  0.00000000000E+00  0.10209823617E+04  0.10209823617E+04  0.50400001928E-02 0. -1.
        1   -1    0    0  501    0  0.00000000000E+00  0.00000000000E+00 -0.82793405340E+03  0.82793405341E+03  0.50400001928E-02 0.  1.
    10030    2    1    2    0    0  0.00000000000E+00  0.00000000000E+00  0.19304830830E+03  0.18489164151E+04  0.18388105560E+04 0.  0.
        3    1    3    3  502    0  0.19746527059E+03 -0.89669823864E+03  0.14417437665E+03  0.92943344320E+03  0.10100000352E+00 0. -1.
       -3    1    3    3    0  502 -0.19746527059E+03  0.89669823864E+03  0.48873931651E+02  0.91948297192E+03  0.10100000352E+00 0.  1.
</event>
<event>
 5   0  0.1252477E-04  0.2067387E+04  0.7818609E-02  0.8575747E-01
        2   -1    0    0  501    0  0.00000000000E+00  0.00000000000E+00  0.17164248142E+04  0.17164248142E+04  0.25500000920E-02 0. -1.
       -2   -1    0    0    0  501  0.00000000000E+00  0.00000000000E+00 -0.62252802553E+03  0.62252802553E+03  0.25500000920E-02 0.  1.
    10030    2    1    2    0    0  0.00000000000E+00  0.00000000000E+00  0.10938967887E+04  0.23389528397E+04  0.20673872889E+04 0.  0.
        4    1    3    3  502    0  0.60988064936E+03  0.72764377941E+02  0.14875897478E+04  0.16094017311E+04  0.12699999809E+01 0. -1.
       -4    1    3    3    0  502 -0.60988064936E+03 -0.72764377941E+02 -0.39369295917E+03  0.72955110867E+03  0.12699999809E+01 0.  1.
</event>
<event>
 5   0  0.1235817E-04  0.2038340E+04  0.7818609E-02  0.8588902E-01
       -2   -1    0    0    0  501  0.00000000000E+00  0.00000000000E+00  0.61976469847E+03  0.61976469847E+03  0.25500000920E-02 0.  1.
        2   -1    0    0  501    0  0.00000000000E+00  0.00000000000E+00 -0.16759704659E+04  0.16759704659E+04  0.25500000920E-02 0. -1.
    10030    2    1    2    0    0  0.00000000000E+00  0.00000000000E+00 -0.10562057674E+04  0.22957351644E+04  0.20383398445E+04 0.  0.
        1    1    3    3  502    0  0.82915500495E+03  0.45977384637E+03 -0.10696367509E+03  0.95411280248E+03  0.50400001928E-02 0.  1.
       -1    1    3    3    0  502 -0.82915500495E+03 -0.45977384637E+03 -0.94924209235E+03  0.13416223619E+04  0.50400001928E-02 0. -1.
</event>
<event>
 5   0  0.5933905E-05  0.2091031E+04  0.7818609E-02  0.8565205E-01
       -1   -1    0    0    0  501  0.00000000000E+00  0.00000000000E+00  0.82668256940E+03  0.82668256942E+03  0.50400001928E-02 0.  1.
        1   -1    0    0  501    0  0.00000000000E+00  0.00000000000E+00 -0.13222762119E+04  0.13222762119E+04  0.50400001928E-02 0. -1.
    10030    2    1    2    0    0  0.00000000000E+00  0.00000000000E+00 -0.49559364249E+03  0.21489587813E+04  0.20910310341E+04 0.  0.
        2    1    3    3  502    0  0.30845006548E+03 -0.41879873028E+03  0.68428436870E+03  0.85952249338E+03  0.25500000920E-02 0.  1.
       -2    1    3    3    0  502 -0.30845006548E+03  0.41879873028E+03 -0.11798780112E+04  0.12894362879E+04  0.25500000920E-02 0. -1.
</event>
<event>
 5   0  0.1325673E-04  0.2112490E+04  0.7818609E-02  0.8555761E-01
        2   -1    0    0  501    0  0.00000000000E+00  0.00000000000E+00  0.13621183145E+04  0.13621183145E+04  0.25500000920E-02 0.  1.
       -2   -1    0    0    0  501  0.00000000000E+00  0.00000000000E+00 -0.81905755685E+03  0.81905755686E+03  0.25500000920E-02 0. -1.
    10030    2    1    2    0    0  0.00000000000E+00  0.00000000000E+00  0.54306075760E+03  0.21811758713E+04  0.21124898095E+04 0.  0.
        5    1    3    3  502    0 -0.64130202565E+03 -0.23896254884E+03 -0.55915274332E+03  0.88376765511E+03  0.46999998093E+01 0. -1.
       -5    1    3    3    0  502  0.64130202565E+03  0.23896254884E+03  0.11022135009E+04  0.12974082162E+04  0.46999998093E+01 0.  1.
</event>
<event>
 5   0  0.5933905E-05  0.1800092E+04  0.7818609E-02  0.8706250E-01
        1   -1    0    0  501    0  0.00000000000E+00  0.00000000000E+00  0.10198466109E+04  0.10198466110E+04  0.50400001928E-02 0.  1.
       -1   -1    0    0    0  501  0.00000000000E+00  0.00000000000E+00 -0.79431871195E+03  0.79431871197E+03  0.50400001928E-02 0. -1.
    10030    2    1    2    0    0  0.00000000000E+00  0.00000000000E+00  0.22552789899E+03  0.18141653229E+04  0.18000924936E+04 0.  0.
        2    1    3    3  502    0 -0.27811027345E+03 -0.17254051026E+02 -0.74975398179E+03  0.79985877485E+03  0.25500000920E-02 0. -1.
       -2    1    3    3    0  502  0.27811027345E+03  0.17254051026E+02  0.97528188078E+03  0.10143065481E+04  0.25500000920E-02 0.  1.
</event>
<event>
 5   0  0.1349252E-04  0.2089667E+04  0.7818609E-02  0.8565809E-01
        2   -1    0    0  501    0  0.00000000000E+00  0.00000000000E+00  0.11207753993E+04  0.11207753993E+04  0.25500000920E-02 0.  1.
       -2   -1    0    0    0  501  0.00000000000E+00  0.00000000000E+00 -0.97403687741E+03  0.97403687741E+03  0.25500000920E-02 0. -1.
    10030    2    1    2    0    0  0.00000000000E+00  0.00000000000E+00  0.14673852192E+03  0.20948122767E+04  0.20896665478E+04 0.  0.
        2    1    3    3  502    0 -0.25964194593E+03 -0.69944134906E+03 -0.65989926365E+03  0.99604175567E+03  0.25500000920E-02 0. -1.
       -2    1    3    3    0  502  0.25964194593E+03  0.69944134906E+03  0.80663778557E+03  0.10987705211E+04  0.25500000920E-02 0.  1.
</event>
<event>
 5   0  0.1281470E-04  0.2094545E+04  0.7818609E-02  0.8563650E-01
       -2   -1    0    0    0  501  0.00000000000E+00  0.00000000000E+00  0.10170149632E+04  0.10170149632E+04  0.25500000920E-02 0. -1.
        2   -1    0    0  501    0  0.00000000000E+00  0.00000000000E+00 -0.10784307026E+04  0.10784307026E+04  0.25500000920E-02 0.  1.
    10030    2    1    2    0    0  0.00000000000E+00  0.00000000000E+00 -0.61415739346E+02  0.20954456658E+04  0.20945454507E+04 0.  0.
        3    1    3    3  502    0  0.38342687272E+02 -0.21054256627E+03  0.99490678246E+03  0.10176629353E+04  0.10100000352E+00 0. -1.
       -3    1    3    3    0  502 -0.38342687272E+02  0.21054256627E+03 -0.10563225218E+04  0.10777827305E+04  0.10100000352E+00 0.  1.
</event>
<event>
 5   0  0.4615125E-05  0.2088812E+04  0.7818609E-02  0.8566188E-01
       -3   -1    0    0    0  501  0.00000000000E+00  0.00000000000E+00  0.13653292814E+04  0.13653292851E+04  0.10100000352E+00 0. -1.
        3   -1    0    0  501    0  0.00000000000E+00  0.00000000000E+00 -0.79891631599E+03  0.79891632238E+03  0.10100000352E+00 0.  1.
    10030    2    1    2    0    0  0.00000000000E+00  0.00000000000E+00  0.56641296538E+03  0.21642456075E+04  0.20888119595E+04 0.  0.
        3    1    3    3  502    0 -0.26614672585E+03  0.37035900276E+03  0.12567030367E+04  0.13369002967E+04  0.10100000352E+00 0. -1.
       -3    1    3    3    0  502  0.26614672585E+03 -0.37035900276E+03 -0.69029007130E+03  0.82734531083E+03  0.10100000352E+00 0.  1.
</event>
<event>
 5   0  0.1235817E-04  0.2094469E+04  0.7818609E-02  0.8563684E-01
       -2   -1    0    0    0  501  0.00000000000E+00  0.00000000000E+00  0.15636303929E+04  0.15636303930E+04  0.25500000920E-02 0.  1.
        2   -1    0    0  501    0  0.00000000000E+00  0.00000000000E+00 -0.70138070473E+03  0.70138070474E+03  0.25500000920E-02 0. -1.
    10030    2    1    2    0    0  0.00000000000E+00  0.00000000000E+00  0.86224968822E+03  0.22650110977E+04  0.20944690849E+04 0.  0.
        1    1    3    3  502    0  0.23733461871E+03 -0.98467113462E+03  0.14338609264E+03  0.10229684923E+04  0.50400001928E-02 0.  1.
       -1    1    3    3    0  502 -0.23733461871E+03  0.98467113462E+03  0.71886359558E+03  0.12420426054E+04  0.50400001928E-02 0. -1.
</event>
<event>
 5   0  0.1252477E-04  0.2108400E+04  0.7818609E-02  0.8557552E-01
       -2   -1    0    0    0  501  0.00000000000E+00  0.00000000000E+00  0.10228671143E+04  0.10228671143E+04  0.25500000920E-02 0.  1.
        2   -1    0    0  501    0  0.00000000000E+00  0.00000000000E+00 -0.10864929489E+04  0.10864929489E+04  0.25500000920E-02 0. -1.
    10030    2    1    2    0    0  0.00000000000E+00  0.00000000000E+00 -0.63625834530E+02  0.21093600632E+04  0.21084002536E+04 0.  0.
        4    1    3    3  502    0 -0.74566870932E+02  0.68828137416E+03 -0.82718730097E+03  0.10786713642E+04  0.12699999809E+01 0. -1.
       -4    1    3    3    0  502  0.74566870932E+02 -0.68828137416E+03  0.76356146644E+03  0.10306886990E+04  0.12699999809E+01 0.  1.
</event>
<event>
 5   0  0.5846187E-05  0.2128845E+04  0.7818609E-02  0.8548642E-01
       -1   -1    0    0    0  501  0.00000000000E+00  0.00000000000E+00  0.86141382571E+03  0.86141382572E+03  0.50400001928E-02 0. -1.
        1   -1    0    0  501    0  0.00000000000E+00  0.00000000000E+00 -0.13152743953E+04  0.13152743953E+04  0.50400001928E-02 0.  1.
    10030    2    1    2    0    0  0.00000000000E+00  0.00000000000E+00 -0.45386056957E+03  0.21766882210E+04  0.21288452726E+04 0.  0.
        5    1    3    3  502    0 -0.32868460122E+03 -0.97244022764E+03  0.61000722521E+02  0.10283077076E+04  0.46999998093E+01 0.  1.
       -5    1    3    3    0  502  0.32868460122E+03  0.97244022764E+03 -0.51486129209E+03  0.11483805134E+04  0.46999998093E+01 0. -1.
</event>
<event>
 5   0  0.6263616E-05  0.2122991E+04  0.7818609E-02  0.8551183E-01
       -1   -1    0    0    0  501  0.00000000000E+00  0.00000000000E+00  0.72869301866E+03  0.72869301868E+03  0.50400001928E-02 0.  1.
        1   -1    0    0  501    0  0.00000000000E+00  0.00000000000E+00 -0.15462925368E+04  0.15462925368E+04  0.50400001928E-02 0. -1.
    10030    2    1    2    0    0  0.00000000000E+00  0.00000000000E+00 -0.81759951811E+03  0.22749855555E+04  0.21229908868E+04 0.  0.
        4    1    3    3  502    0 -0.83737589760E+03  0.10737278505E+03 -0.10983304166E+04  0.13853009152E+04  0.12699999809E+01 0. -1.
       -4    1    3    3    0  502  0.83737589760E+03 -0.10737278505E+03  0.28073089845E+03  0.88968464025E+03  0.12699999809E+01 0.  1.
</event>
<event>
 5   0  0.5846187E-05  0.2044605E+04  0.7818609E-02  0.8586046E-01
        1   -1    0    0  501    0  0.00000000000E+00  0.00000000000E+00  0.99941796578E+03  0.99941796579E+03  0.50400001928E-02 0.  1.
       -1   -1    0    0    0  501  0.00000000000E+00  0.00000000000E+00 -0.10457109068E+04  0.10457109068E+04  0.50400001928E-02 0. -1.
    10030    2    1    2    0    0  0.00000000000E+00  0.00000000000E+00 -0.46292941052E+02  0.20451288726E+04  0.20446048687E+04 0.  0.
        5    1    3    3  502    0 -0.32689677570E+03  0.94843758087E+03 -0.21988147473E+03  0.10270176725E+04  0.46999998093E+01 0. -1.
       -5    1    3    3    0  502  0.32689677570E+03 -0.94843758087E+03  0.17358853368E+03  0.10181112001E+04  0.46999998093E+01 0.  1.
</event>
<event>
 5   0  0.1281470E-04  0.2139082E+04  0.7818609E-02  0.8544220E-01
        2   -1    0    0  501    0  0.00000000000E+00  0.00000000000E+00  0.18195785535E+04  0.18195785535E+04  0.25500000920E-02 0.  1.
       -2   -1    0    0    0  501  0.00000000000E+00  0.00000000000E+00 -0.62867174503E+03  0.62867174503E+03  0.25500000920E-02 0. -1.
    10030    2    1    2    0    0  0.00000000000E+00  0.00000000000E+00  0.11909068084E+04  0.24482502985E+04  0.21390816950E+04 0.  0.
        3    1    3    3  502    0  0.30131437263E+03 -0.16662194526E+03  0.17544110376E+04  0.17878790012E+04  0.10100000352E+00 0.  1.
       -3    1    3    3    0  502 -0.30131437263E+03  0.16662194526E+03 -0.56350422918E+03  0.66037129730E+03  0.10100000352E+00 0. -1.
</event>
<event>
 5   0  0.1349252E-04  0.2081171E+04  0.7818609E-02  0.8569583E-01
        2   -1    0    0  501    0  0.00000000000E+00  0.00000000000E+00  0.18983438247E+04  0.18983438247E+04  0.25500000920E-02 0.  1.
       -2   -1    0    0    0  501  0.00000000000E+00  0.00000000000E+00 -0.57040155039E+03  0.57040155039E+03  0.25500000920E-02 0. -1.
    10030    2    1    2    0    0  0.00000000000E+00  0.00000000000E+00  0.13279422743E+04  0.24687453751E+04  0.20811710749E+04 0.  0.
        2    1    3    3  502    0 -0.64716759128E+03  0.81252607604E+03  0.59090727833E+03  0.11950715154E+04  0.25500000920E-02 0. -1.
       -2    1    3    3    0  502  0.64716759128E+03 -0.81252607604E+03  0.73703499599E+03  0.12736738596E+04  0.25500000920E-02 0.  1.
</event>
<event>
 5   0  0.1325673E-04  0.2111849E+04  0.7818609E-02  0.8556042E-01
        2   -1    0    0  501    0  0.00000000000E+00  0.00000000000E+00  0.12169657098E+04  0.12169657098E+04  0.25500000920E-02 0. -1.
       -2   -1    0    0    0  501  0.00000000000E+00  0.00000000000E+00 -0.91619415695E+03  0.91619415695E+03  0.25500000920E-02 0.  1.
    10030    2    1    2    0    0  0.00000000000E+00  0.00000000000E+00  0.30077155283E+03  0.21331598667E+04  0.21118493057E+04 0.  0.
        5    1    3    3  502    0 -0.18077949368E+03 -0.10247039278E+04 -0.31024470163E+02  0.10410014278E+04  0.46999998093E+01 0. -1.
       -5    1    3    3    0  502  0.18077949368E+03  0.10247039278E+04  0.33179602299E+03  0.10921584389E+04  0.46999998093E+01 0.  1.
</event>
<event>
 5   0  0.6263616E-05  0.2102777E+04  0.7818609E-02  0.8560021E-01
       -1   -1    0    0    0  501  0.00000000000E+00  0.00000000000E+00  0.75620566945E+03  0.75620566947E+03  0.50400001928E-02 0.  1.
        1   -1    0    0  501    0  0.00000000000E+00  0.00000000000E+00 -0.14617953175E+04  0.14617953175E+04  0.50400001928E-02 0. -1.
    10030    2    1    2    0    0  0.00000000000E+00  0.00000000000E+00 -0.70558964803E+03  0.22180009870E+04  0.21027771225E+04 0.  0.
        4    1    3    3  502    0 -0.47046340809E+03 -0.88902220018E+03 -0.67570716171E+03  0.12117252461E+04  0.12699999809E+01 0. -1.
       -4    1    3    3    0  502  0.47046340809E+03  0.88902220018E+03 -0.29882486326E+02  0.10062757409E+04  0.12699999809E+01 0.  1.
</event>
<event>
 5   0  0.6052292E-05  0.2121899E+04  0.7818609E-02  0.8551658E-01
       -1   -1    0    0    0  501  0.00000000000E+00  0.00000000000E+00  0.11092608128E+04  0.11092608128E+04  0.50400001928E-02 0.  1.
        1   -1    0    0  501    0  0.00000000000E+00  0.00000000000E+00 -0.10147423092E+04  0.10147423092E+04  0.50400001928E-02 0. -1.
    10030    2    1    2    0    0  0.00000000000E+00  0.00000000000E+00  0.94518503603E+02  0.21240031220E+04  0.21218990350E+04 0.  0.
        1    1    3    3  502    0  0.74158610741E+03 -0.57818329193E+03  0.53903859868E+03  0.10838858264E+04  0.50400001928E-02 0.  1.
       -1    1    3    3    0  502 -0.74158610741E+03  0.57818329193E+03 -0.44452009508E+03  0.10401172957E+04  0.50400001928E-02 0. -1.
</event>
<event>
 5   0  0.1349252E-04  0.2087363E+04  0.7818609E-02  0.8566830E-01
        2   -1    0    0  501    0  0.00000000000E+00  0.00000000000E+00  0.99349398654E+03  0.99349398654E+03  0.25500000920E-02 0.  1.
       -2   -1    0    0    0  501  0.00000000000E+00  0.00000000000E+00 -0.10964045596E+04  0.10964045596E+04  0.25500000920E-02 0. -1.
    10030    2    1    2    0    0  0.00000000000E+00  0.00000000000E+00 -0.10291057305E+03  0.20898985461E+04  0.20873632523E+04 0.  0.
        2    1    3    3  502    0  0.15062220241E+03 -0.18899391103E+02  0.98238161346E+03  0.99404118090E+03  0.25500000920E-02 0.  1.
       -2    1    3    3    0  502 -0.15062220241E+03  0.18899391103E+02 -0.10852921865E+04  0.10958573652E+04  0.25500000920E-02 0. -1.
</event>
<event>
 5   0  0.4615125E-05  0.2104801E+04  0.7818609E-02  0.8559131E-01
       -3   -1    0    0    0  501  0.00000000000E+00  0.00000000000E+00  0.10708822879E+04  0.10708822926E+04  0.10100000352E+00 0.  1.
        3   -1    0    0  501    0  0.00000000000E+00  0.00000000000E+00 -0.10342375859E+04  0.10342375909E+04  0.10100000352E+00 0. -1.
    10030    2    1    2    0    0  0.00000000000E+00  0.00000000000E+00  0.36644701939E+02  0.21051198835E+04  0.21048009145E+04 0.  0.
        1    1    3    3  502    0  0.53364938967E+03  0.56307485190E+03 -0.69291955500E+03  0.10401790565E+04  0.50400001928E-02 0. -1.
       -1    1    3    3    0  502 -0.53364938967E+03 -0.56307485190E+03  0.72956425694E+03  0.10649408270E+04  0.50400001928E-02 0.  1.
</event>
<event>
 5   0  0.6263616E-05  0.2081749E+04  0.7818609E-02  0.8569326E-01
       -1   -1    0    0    0  501  0.00000000000E+00  0.00000000000E+00  0.62950546398E+03  0.62950546400E+03  0.50400001928E-02 0. -1.
        1   -1    0    0  501    0  0.00000000000E+00  0.00000000000E+00 -0.17210640778E+04  0.17210640778E+04  0.50400001928E-02 0.  1.
    10030    2    1    2    0    0  0.00000000000E+00  0.00000000000E+00 -0.10915586139E+04  0.23505695418E+04  0.20817485351E+04 0.  0.
        4    1    3    3  502    0 -0.64998934982E+03 -0.23094186015E+03  0.33436273217E+03  0.76656398768E+03  0.12699999809E+01 0. -1.
       -4    1    3    3    0  502  0.64998934982E+03  0.23094186015E+03 -0.14259213460E+04  0.15840055542E+04  0.12699999809E+01 0.  1.
</event>
<event>
 5   0  0.1252477E-04  0.2033156E+04  0.7818609E-02  0.8591274E-01
        2   -1    0    0  501    0  0.00000000000E+00  0.00000000000E+00  0.87531499811E+03  0.87531499812E+03  0.25500000920E-02 0.  1.
       -2   -1    0    0    0  501  0.00000000000E+00  0.00000000000E+00 -0.11806391748E+04  0.11806391748E+04  0.25500000920E-02 0. -1.
    10030    2    1    2    0    0  0.00000000000E+00  0.00000000000E+00 -0.30532417667E+03  0.20559541729E+04  0.20331563413E+04 0.  0.
        4    1    3    3  502    0 -0.10108241084E+04 -0.10770999707E+03 -0.14465225577E+03  0.10267875679E+04  0.12699999809E+01 0. -1.
       -4    1    3    3    0  502  0.10108241084E+04  0.10770999707E+03 -0.16067192090E+03  0.10291666050E+04  0.12699999809E+01 0.  1.
</event>
<event>
 5   0  0.5846187E-05  0.2097800E+04  0.7818609E-02  0.8562213E-01
        1   -1    0    0  501    0  0.00000000000E+00  0.00000000000E+00  0.12406893391E+04  0.12406893392E+04  0.50400001928E-02 0.  1.
       -1   -1    0    0    0  501  0.00000000000E+00  0.00000000000E+00 -0.88675780276E+03  0.88675780278E+03  0.50400001928E-02 0. -1.
    10030    2    1    2    0    0  0.00000000000E+00  0.00000000000E+00  0.35393153639E+03  0.21274471419E+04  0.20977997543E+04 0.  0.
        5    1    3    3  502    0 -0.16688915834E+03  0.40197867966E+03 -0.79084304491E+03  0.90271460703E+03  0.46999998093E+01 0. -1.
       -5    1    3    3    0  502  0.16688915834E+03 -0.40197867966E+03  0.11447745813E+04  0.12247325349E+04  0.46999998093E+01 0.  1.
</event>
<event>
 5   0  0.1281470E-04  0.2030331E+04  0.7818609E-02  0.8592570E-01
       -2   -1    0    0    0  501  0.00000000000E+00  0.00000000000E+00  0.51437098846E+03  0.51437098846E+03  0.25500000920E-02 0. -1.
        2   -1    0    0  501    0  0.00000000000E+00  0.00000000000E+00 -0.20035356643E+04  0.20035356643E+04  0.25500000920E-02 0.  1.
    10030    2    1    2    0    0  0.00000000000E+00  0.00000000000E+00 -0.14891646758E+04  0.25179066527E+04  0.20303306332E+04 0.  0.
        3    1    3    3  502    0  0.51653638474E+03 -0.79952500000E+03 -0.30698373233E+03  0.10001445318E+04  0.10100000352E+00 0. -1.
       -3    1    3    3    0  502 -0.51653638474E+03  0.79952500000E+03 -0.11821809435E+04  0.15177621209E+04  0.10100000352E+00 0.  1.
</event>
<event>
 5   0  0.1235817E-04  0.2111602E+04  0.7818609E-02  0.8556150E-01
       -2   -1    0    0    0  501  0.00000000000E+00  0.00000000000E+00  0.85349807322E+03  0.85349807323E+03  0.25500000920E-02 0. -1.
        2   -1    0    0  501    0  0.00000000000E+00  0.00000000000E+00 -0.13060548774E+04  0.13060548774E+04  0.25500000920E-02 0.  1.
    10030    2    1    2    0    0  0.00000000000E+00  0.00000000000E+00 -0.45255680417E+03  0.21595529506E+04  0.21116015925E+04 0.  0.
        1    1    3    3  502    0 -0.88273234530E+03 -0.77457764589E+02  0.36077697918E+03  0.95675290826E+03  0.50400001928E-02 0. -1.
       -1    1    3    3    0  502  0.88273234530E+03  0.77457764589E+02 -0.81333378335E+03  0.12028000424E+04  0.50400001928E-02 0.  1.
</event>
<event>
 5   0  0.6221148E-05  0.2206310E+04  0.7818609E-02  0.8515806E-01
        1   -1    0    0  501    0  0.00000000000E+00  0.00000000000E+00  0.14513770311E+04  0.14513770311E+04  0.50400001928E-02 0. -1.
       -1   -1    0    0    0  501  0.00000000000E+00  0.00000000000E+00 -0.83847994889E+03  0.83847994891E+03  0.50400001928E-02 0.  1.
    10030    2    1    2    0    0  0.00000000000E+00  0.00000000000E+00  0.61289708219E+03  0.22898569800E+04  0.22063096237E+04 0.  0.
        3    1    3    3  502    0 -0.98753494660E+03 -0.18862811864E+03 -0.16477608195E+03  0.10188017497E+04  0.10100000352E+00 0.  1.
       -3    1    3    3    0  502  0.98753494660E+03  0.18862811864E+03  0.77767316414E+03  0.12710552302E+04  0.10100000352E+00 0. -1.
</event>
<event>
 5   0  0.5933905E-05  0.2123818E+04  0.7818609E-02  0.8550824E-01
        1   -1    0    0  501    0  0.00000000000E+00  0.00000000000E+00  0.11388899225E+04  0.11388899226E+04  0.50400001928E-02 0. -1.
       -1   -1    0    0    0  501  0.00000000000E+00  0.00000000000E+00 -0.99013102572E+03  0.99013102573E+03  0.50400001928E-02 0.  1.
    10030    2    1    2    0    0  0.00000000000E+00  0.00000000000E+00  0.14875889682E+03  0.21290209483E+04  0.21238175507E+04 0.  0.
        2    1    3    3  502    0 -0.89718324245E+03  0.40336016479E+03 -0.32661691730E+03  0.10364920664E+04  0.25500000920E-02 0.  1.
       -2    1    3    3    0  502  0.89718324245E+03 -0.40336016479E+03  0.47537581412E+03  0.10925288819E+04  0.25500000920E-02 0. -1.
</event>
<event>
 5   0  0.6263616E-05  0.2093875E+04  0.7818609E-02  0.8563946E-01
       -1   -1    0    0    0  501  0.00000000000E+00  0.00000000000E+00  0.14756824122E+04  0.14756824122E+04  0.50400001928E-02 0.  1.
        1   -1    0    0  501    0  0.00000000000E+00  0.00000000000E+00 -0.74275994504E+03  0.74275994506E+03  0.50400001928E-02 0. -1.
    10030    2    1    2    0    0  0.00000000000E+00  0.00000000000E+00  0.73292246716E+03  0.22184423573E+04  0.20938746738E+04 0.  0.
        4    1    3    3  502    0 -0.75991531557E+03 -0.55199816101E+03  0.85647222214E+03  0.12711095692E+04  0.12699999809E+01 0.  1.
       -4    1    3    3    0  502  0.75991531557E+03  0.55199816101E+03 -0.12354975498E+03  0.94733278812E+03  0.12699999809E+01 0. -1.
</event>
<event>
 5   0  0.6263616E-05  0.2095464E+04  0.7818609E-02  0.8563244E-01
       -1   -1    0    0    0  501  0.00000000000E+00  0.00000000000E+00  0.62952983370E+03  0.62952983372E+03  0.50400001928E-02 0. -1.
        1   -1    0    0  501    0  0.00000000000E+00  0.00000000000E+00 -0.17437503078E+04  0.17437503078E+04  0.50400001928E-02 0.  1.
    10030    2    1    2    0    0  0.00000000000E+00  0.00000000000E+00 -0.11142204741E+04  0.23732801415E+04  0.20954644748E+04 0.  0.
        4    1    3    3  502    0  0.63460886031E+03  0.82203253462E+03 -0.39986783541E+03  0.11128170525E+04  0.12699999809E+01 0. -1.
       -4    1    3    3    0  502 -0.63460886031E+03 -0.82203253462E+03 -0.71435263868E+03  0.12604630890E+04  0.12699999809E+01 0.  1.
</event>
<event>
 5   0  0.6052292E-05  0.2159771E+04  0.7818609E-02  0.8535361E-01
        1   -1    0    0  501    0  0.00000000000E+00  0.00000000000E+00  0.22850026190E+04  0.22850026190E+04  0.50400001928E-02 0.  1.
       -1   -1    0    0    0  501  0.00000000000E+00  0.00000000000E+00 -0.51035062951E+03  0.51035062953E+03  0.50400001928E-02 0. -1.
    10030    2    1    2    0    0  0.00000000000E+00  0.00000000000E+00  0.17746519894E+04  0.27953532485E+04  0.21597708444E+04 0.  0.
        1    1    3    3  502    0 -0.88162063558E+03  0.92248593305E+02  0.16855821939E+04  0.19044558489E+04  0.50400001928E-02 0.  1.
       -1    1    3    3    0  502  0.88162063558E+03 -0.92248593305E+02  0.89069795521E+02  0.89089739956E+03  0.50400001928E-02 0. -1.
</event>
<event>
 5   0  0.1325673E-04  0.2097859E+04  0.7818609E-02  0.8562187E-01
       -2   -1    0    0    0  501  0.00000000000E+00  0.00000000000E+00  0.63836460496E+03  0.63836460496E+03  0.25500000920E-02 0.  1.
        2   -1    0    0  501    0  0.00000000000E+00  0.00000000000E+00 -0.17235491431E+04  0.17235491431E+04  0.25500000920E-02 0. -1.
    10030    2    1    2    0    0  0.00000000000E+00  0.00000000000E+00 -0.10851845381E+04  0.23619137481E+04  0.20978586872E+04 0.  0.
        5    1    3    3  502    0 -0.17333789572E+03 -0.55111979470E+03 -0.15282591809E+04  0.16338228999E+04  0.46999998093E+01 0. -1.
       -5    1    3    3    0  502  0.17333789572E+03  0.55111979470E+03  0.44307464273E+03  0.72809084820E+03  0.46999998093E+01 0.  1.
</event>
<event>
 5   0  0.1349252E-04  0.2042500E+04  0.7818609E-02  0.8587004E-01
        2   -1    0    0  501    0  0.00000000000E+00  0.00000000000E+00  0.13861650237E+04  0.13861650237E+04  0.25500000920E-02 0. -1.
       -2   -1    0    0    0  501  0.00000000000E+00  0.00000000000E+00 -0.75240059146E+03  0.75240059146E+03  0.25500000920E-02 0.  1.
    10030    2    1    2    0    0  0.00000000000E+00  0.00000000000E+00  0.63376443221E+03  0.21385656151E+04  0.20424998249E+04 0.  0.
        2    1    3    3  502    0  0.87878869035E+03  0.22484489802E+03 -0.17436127367E+03  0.92370268172E+03  0.25500000920E-02 0.  1.
       -2    1    3    3    0  502 -0.87878869035E+03 -0.22484489802E+03  0.80812570588E+03  0.12148629334E+04  0.25500000920E-02 0. -1.
</event>
<event>
 5   0  0.5933905E-05  0.2021537E+04  0.7818609E-02  0.8596617E-01
        1   -1    0    0  501    0  0.00000000000E+00  0.00000000000E+00  0.21078382105E+04  0.21078382105E+04  0.50400001928E-02 0. -1.
       -1   -1    0    0    0  501  0.00000000000E+00  0.00000000000E+00 -0.48469214170E+03  0.48469214173E+03  0.50400001928E-02 0.  1.
    10030    2    1    2    0    0  0.00000000000E+00  0.00000000000E+00  0.16231460688E+04  0.25925303522E+04  0.20215366597E+04 0.  0.
        2    1    3    3  502    0 -0.80103371533E+03  0.60526730091E+03  0.96140145586E+03  0.13900706018E+04  0.25500000920E-02 0. -1.
       -2    1    3    3    0  502  0.80103371533E+03 -0.60526730091E+03  0.66174461293E+03  0.12024597504E+04  0.25500000920E-02 0.  1.
</event>
<event>
 5   0  0.6052292E-05  0.2054827E+04  0.7818609E-02  0.8581408E-01
       -1   -1    0    0    0  501  0.00000000000E+00  0.00000000000E+00  0.57563589313E+03  0.57563589315E+03  0.50400001928E-02 0.  1.
        1   -1    0    0  501    0  0.00000000000E+00  0.00000000000E+00 -0.18337605706E+04  0.18337605706E+04  0.50400001928E-02 0. -1.
    10030    2    1    2    0    0  0.00000000000E+00  0.00000000000E+00 -0.12581246774E+04  0.24093964637E+04  0.20548269064E+04 0.  0.
        1    1    3    3  502    0  0.55918777463E+02 -0.92356266521E+03 -0.11527670873E+04  0.14781633414E+04  0.50400001928E-02 0. -1.
       -1    1    3    3    0  502 -0.55918777463E+02  0.92356266521E+03 -0.10535759008E+03  0.93123312229E+03  0.50400001928E-02 0.  1.
</event>
<event>
 5   0  0.6221148E-05  0.2106723E+04  0.7818609E-02  0.8558288E-01
        1   -1    0    0  501    0  0.00000000000E+00  0.00000000000E+00  0.75121371612E+03  0.75121371614E+03  0.50400001928E-02 0.  1.
       -1   -1    0    0    0  501  0.00000000000E+00  0.00000000000E+00 -0.14770370817E+04  0.14770370817E+04  0.50400001928E-02 0. -1.
    10030    2    1    2    0    0  0.00000000000E+00  0.00000000000E+00 -0.72582336554E+03  0.22282507978E+04  0.21067230620E+04 0.  0.
        3    1    3    3  502    0  0.58177764382E+03 -0.68889085025E+02  0.56300714314E+03  0.81251952981E+03  0.10100000352E+00 0.  1.
       -3    1    3    3    0  502 -0.58177764382E+03  0.68889085025E+02 -0.12888305087E+04  0.14157312680E+04  0.10100000352E+00 0. -1.
</event>
<event>
 5   0  0.6052292E-05  0.2105582E+04  0.7818609E-02  0.8558789E-01
       -1   -1    0    0    0  501  0.00000000000E+00  0.00000000000E+00  0.10119089913E+04  0.10119089913E+04  0.50400001928E-02 0. -1.
        1   -1    0    0  501    0  0.00000000000E+00  0.00000000000E+00 -0.10953241703E+04  0.10953241703E+04  0.50400001928E-02 0.  1.
    10030    2    1    2    0    0  0.00000000000E+00  0.00000000000E+00 -0.83415178928E+02  0.21072331616E+04  0.21055815124E+04 0.  0.
        1    1    3    3  502    0 -0.85640957269E+03 -0.78998581626E+02  0.56596739210E+03  0.10295616645E+04  0.50400001928E-02 0. -1.
       -1    1    3    3    0  502  0.85640957269E+03  0.78998581626E+02 -0.64938257103E+03  0.10776714971E+04  0.50400001928E-02 0.  1.
</event>
<event>
 5   0  0.6263616E-05  0.2111673E+04  0.7818609E-02  0.8556119E-01
        1   -1    0    0  501    0  0.00000000000E+00  0.00000000000E+00  0.11497133301E+04  0.11497133301E+04  0.50400001928E-02 0.  1.
       -1   -1    0    0    0  501  0.00000000000E+00  0.00000000000E+00 -0.96962515779E+03  0.96962515780E+03  0.50400001928E-02 0. -1.
    10030    2    1    2    0    0  0.00000000000E+00  0.00000000000E+00  0.18008817234E+03  0.21193384879E+04  0.21116732410E+04 0.  0.
        4    1    3    3  502    0  0.84884352448E+03  0.66469147075E+02 -0.53659071815E+03  0.10064217249E+04  0.12699999809E+01 0. -1.
       -4    1    3    3    0  502 -0.84884352448E+03 -0.66469147075E+02  0.71667889049E+03  0.11129167631E+04  0.12699999809E+01 0.  1.
</event>
<event>
 5   0  0.6263616E-05  0.2087732E+04  0.7818609E-02  0.8566667E-01
       -1   -1    0    0    0  501  0.00000000000E+00  0.00000000000E+00  0.71356907494E+03  0.71356907495E+03  0.50400001928E-02 0.  1.
        1   -1    0    0  501    0  0.00000000000E+00  0.00000000000E+00 -0.15270510950E+04  0.15270510950E+04  0.50400001928E-02 0. -1.
    10030    2    1    2    0    0  0.00000000000E+00  0.00000000000E+00 -0.81348202004E+03  0.22406201699E+04  0.20877322024E+04 0.  0.
        4    1    3    3  502    0 -0.85721681579E+03  0.53800713643E+03 -0.68116630098E+03  0.12199432325E+04  0.12699999809E+01 0. -1.
       -4    1    3    3    0  502  0.85721681579E+03 -0.53800713643E+03 -0.13231571905E+03  0.10206769374E+04  0.12699999809E+01 0.  1.
</event>
<event>
 5   0  0.6221148E-05  0.2112945E+04  0.7818609E-02  0.8555562E-01
        1   -1    0    0  501    0  0.00000000000E+00  0.00000000000E+00  0.17587139327E+04  0.17587139327E+04  0.50400001928E-02 0. -1.
       -1   -1    0    0    0  501  0.00000000000E+00  0.00000000000E+00 -0.63463074293E+03  0.63463074295E+03  0.50400001928E-02 0.  1.
    10030    2    1    2    0    0  0.00000000000E+00  0.00000000000E+00  0.11240831898E+04  0.23933446757E+04  0.21129447979E+04 0.  0.
        3    1    3    3  502    0 -0.52673751917E+03  0.18264090574E+03  0.15785298504E+04  0.16740867998E+04  0.10100000352E+00 0. -1.
       -3    1    3    3    0  502  0.52673751917E+03 -0.18264090574E+03 -0.45444666055E+03  0.71925787590E+03  0.10100000352E+00 0.  1.
</event>
<event>
 5   0  0.1349252E-04  0.1866651E+04  0.7818609E-02  0.8671637E-01
       -2   -1    0    0    0  501  0.00000000000E+00  0.00000000000E+00  0.63748052796E+03  0.63748052797E+03  0.25500000920E-02 0. -1.
        2   -1    0    0  501    0  0.00000000000E+00  0.00000000000E+00 -0.13664677651E+04  0.13664677651E+04  0.25500000920E-02 0.  1.
    10030    2    1    2    0    0  0.00000000000E+00  0.00000000000E+00 -0.72898723715E+03  0.20039482931E+04  0.18666511108E+04 0.  0.
        2    1    3    3  502    0  0.19621367570E+03  0.68481698568E+03  0.28287064558E+03  0.76647890548E+03  0.25500000920E-02 0. -1.
       -2    1    3    3    0  502 -0.19621367570E+03 -0.68481698568E+03 -0.10118578827E+04  0.12374693876E+04  0.25500000920E-02 0.  1.
</event>
<event>
 5   0  0.5846187E-05  0.2086530E+04  0.7818609E-02  0.8567200E-01
       -1   -1    0    0    0  501  0.00000000000E+00  0.00000000000E+00  0.55456009839E+03  0.55456009841E+03  0.50400001928E-02 0. -1.
        1   -1    0    0  501    0  0.00000000000E+00  0.00000000000E+00 -0.19626399176E+04  0.19626399176E+04  0.50400001928E-02 0.  1.
    10030    2    1    2    0    0  0.00000000000E+00  0.00000000000E+00 -0.14080798192E+04  0.25172000160E+04  0.20865299287E+04 0.  0.
        5    1    3    3  502    0  0.17918189046E+03 -0.40915654821E+03 -0.18414337696E+04  0.18948392145E+04  0.46999998093E+01 0.  1.
       -5    1    3    3    0  502 -0.17918189046E+03  0.40915654821E+03  0.43335395048E+03  0.62236080147E+03  0.46999998093E+01 0. -1.
</event>
<event>
 5   0  0.1235817E-04  0.2153058E+04  0.7818609E-02  0.8538224E-01
        2   -1    0    0  501    0  0.00000000000E+00  0.00000000000E+00  0.92528508575E+03  0.92528508575E+03  0.25500000920E-02 0. -1.
       -2   -1    0    0    0  501  0.00000000000E+00  0.00000000000E+00 -0.12524949029E+04  0.12524949029E+04  0.25500000920E-02 0.  1.
    10030    2    1    2    0    0  0.00000000000E+00  0.00000000000E+00 -0.32720981717E+03  0.21777799887E+04  0.21530581540E+04 0.  0.
        1    1    3    3  502    0 -0.53278597105E+03  0.52789419098E+03 -0.94472964604E+03  0.12062534029E+04  0.50400001928E-02 0.  1.
       -1    1    3    3    0  502  0.53278597105E+03 -0.52789419098E+03  0.61751982887E+03  0.97152658579E+03  0.50400001928E-02 0. -1.
</event>
<event>
 5   0  0.6221148E-05  0.2117456E+04  0.7818609E-02  0.8553593E-01
        1   -1    0    0  501    0  0.00000000000E+00  0.00000000000E+00  0.92270611893E+03  0.92270611895E+03  0.50400001928E-02 0.  1.
       -1   -1    0    0    0  501  0.00000000000E+00  0.00000000000E+00 -0.12148013674E+04  0.12148013674E+04  0.50400001928E-02 0. -1.
    10030    2    1    2    0    0  0.00000000000E+00  0.00000000000E+00 -0.29209524847E+03  0.21375074864E+04  0.21174556949E+04 0.  0.
        3    1    3    3  502    0  0.81744027666E+03  0.10600434968E+03 -0.81676345565E+03  0.11604085835E+04  0.10100000352E+00 0. -1.
       -3    1    3    3    0  502 -0.81744027666E+03 -0.10600434968E+03  0.52466820718E+03  0.97709890282E+03  0.10100000352E+00 0.  1.
</event>
<event>
 5   0  0.1235817E-04  0.1915925E+04  0.7818609E-02  0.8646970E-01
       -2   -1    0    0    0  501  0.00000000000E+00  0.00000000000E+00  0.84655918319E+03  0.84655918319E+03  0.25500000920E-02 0.  1.
        2   -1    0    0  501    0  0.00000000000E+00  0.00000000000E+00 -0.10840255417E+04  0.10840255417E+04  0.25500000920E-02 0. -1.
    10030    2    1    2    0    0  0.00000000000E+00  0.00000000000E+00 -0.23746635851E+03  0.19305847249E+04  0.19159246093E+04 0.  0.
        1    1    3    3  502    0  0.60894150350E+03  0.48957955264E+03 -0.67722489100E+03  0.10339881267E+04  0.50400001928E-02 0. -1.
       -1    1    3    3    0  502 -0.60894150350E+03 -0.48957955264E+03  0.43975853249E+03  0.89659659823E+03  0.50400001928E-02 0.  1.
</event>
<event>
 5   0  0.6052292E-05  0.2203174E+04  0.7818609E-02  0.8517108E-01
       -1   -1    0    0    0  501  0.00000000000E+00  0.00000000000E+00  0.88680124064E+03  0.88680124065E+03  0.50400001928E-02 0. -1.
        1   -1    0    0  501    0  0.00000000000E+00  0.00000000000E+00 -0.13683939111E+04  0.13683939111E+04  0.50400001928E-02 0.  1.
    10030    2    1    2    0    0  0.00000000000E+00  0.00000000000E+00 -0.48159267050E+03  0.22551951518E+04  0.22031735457E+04 0.  0.
        1    1    3    3  502    0 -0.53582558718E+03 -0.51199988294E+03 -0.10750499359E+04  0.13057508586E+04  0.50400001928E-02 0.  1.
       -1    1    3    3    0  502  0.53582558718E+03  0.51199988294E+03  0.59345726540E+03  0.94944429320E+03  0.50400001928E-02 0. -1.
</event>
<event>
 5   0  0.1325673E-04  0.2095729E+04  0.7818609E-02  0.8563127E-01
        2   -1    0    0  501    0  0.00000000000E+00  0.00000000000E+00  0.74097283637E+03  0.74097283637E+03  0.25500000920E-02 0. -1.
       -2   -1    0    0    0  501  0.00000000000E+00  0.00000000000E+00 -0.14818627844E+04  0.14818627844E+04  0.25500000920E-02 0.  1.
    10030    2    1    2    0    0  0.00000000000E+00  0.00000000000E+00 -0.74088994804E+03  0.22228356208E+04  0.20957290574E+04 0.  0.
        5    1    3    3  502    0 -0.80263579882E+02  0.37504022421E+03 -0.14047288785E+04  0.14561534000E+04  0.46999998093E+01 0.  1.
       -5    1    3    3    0  502  0.80263579882E+02 -0.37504022421E+03  0.66383893051E+03  0.76668222080E+03  0.46999998093E+01 0. -1.
</event>
<event>
 5   0  0.5933905E-05  0.2394645E+04  0.7818609E-02  0.8441511E-01
       -1   -1    0    0    0  501  0.00000000000E+00  0.00000000000E+00  0.10575885500E+04  0.10575885500E+04  0.50400001928E-02 0. -1.
        1   -1    0    0  501    0  0.00000000000E+00  0.00000000000E+00 -0.13555182682E+04  0.13555182682E+04  0.50400001928E-02 0.  1.
    10030    2    1    2    0    0  0.00000000000E+00  0.00000000000E+00 -0.29792971819E+03  0.24131068183E+04  0.23946445246E+04 0.  0.
        2    1    3    3  502    0 -0.10460463915E+04 -0.13698920102E+03 -0.71954712874E+03  0.12769992814E+04  0.25500000920E-02 0.  1.
       -2    1    3    3    0  502  0.10460463915E+04  0.13698920102E+03  0.42161741055E+03  0.11361075368E+04  0.25500000920E-02 0. -1.
</event>
<event>
 5   0  0.1281470E-04  0.2090361E+04  0.7818609E-02  0.8565501E-01
       -2   -1    0    0    0  501  0.00000000000E+00  0.00000000000E+00  0.89927226501E+03  0.89927226502E+03  0.25500000920E-02 0. -1.
        2   -1    0    0  501    0  0.00000000000E+00  0.00000000000E+00 -0.12147626128E+04  0.12147626128E+04  0.25500000920E-02 0.  1.
    10030    2    1    2    0    0  0.00000000000E+00  0.00000000000E+00 -0.31549034777E+03  0.21140348778E+04  0.20903610466E+04 0.  0.
        3    1    3    3  502    0 -0.51517955365E+03  0.86050633410E+03 -0.45522128317E+03  0.11014116171E+04  0.10100000352E+00 0.  1.
       -3    1    3    3    0  502  0.51517955365E+03 -0.86050633410E+03  0.13973093540E+03  0.10126232607E+04  0.10100000352E+00 0. -1.
</event>
<event>
 5   0  0.1349252E-04  0.2039950E+04  0.7818609E-02  0.8588167E-01
        2   -1    0    0  501    0  0.00000000000E+00  0.00000000000E+00  0.88173988000E+03  0.88173988000E+03  0.25500000920E-02 0. -1.
       -2   -1    0    0    0  501  0.00000000000E+00  0.00000000000E+00 -0.11798819092E+04  0.11798819092E+04  0.25500000920E-02 0.  1.
    10030    2    1    2    0    0  0.00000000000E+00  0.00000000000E+00 -0.29814202924E+03  0.20616217892E+04  0.20399499338E+04 0.  0.
        2    1    3    3  502    0 -0.78266781668E+03  0.63162913706E+03 -0.32065294360E+03  0.10556242647E+04  0.25500000920E-02 0.  1.
       -2    1    3    3    0  502  0.78266781668E+03 -0.63162913706E+03  0.22510914360E+02  0.10059975245E+04  0.25500000920E-02 0. -1.
</event>
<event>
 5   0  0.5933905E-05  0.2125762E+04  0.7818609E-02  0.8549979E-01
        1   -1    0    0  501    0  0.00000000000E+00  0.00000000000E+00  0.15053807833E+04  0.15053807833E+04  0.50400001928E-02 0.  1.
       -1   -1    0    0    0  501  0.00000000000E+00  0.00000000000E+00 -0.75045229932E+03  0.75045229933E+03  0.50400001928E-02 0. -1.
    10030    2    1    2    0    0  0.00000000000E+00  0.00000000000E+00  0.75492848399E+03  0.22558330826E+04  0.21257624234E+04 0.  0.
        2    1    3    3  502    0 -0.47007283862E+03 -0.92577371249E+03  0.13619618429E+03  0.10471746946E+04  0.25500000920E-02 0. -1.
       -2    1    3    3    0  502  0.47007283862E+03  0.92577371249E+03  0.61873229970E+03  0.12086583881E+04  0.25500000920E-02 0.  1.
</event>
<event>
 5   0  0.1325673E-04  0.2111670E+04  0.7818609E-02  0.8556120E-01
        2   -1    0    0  501    0  0.00000000000E+00  0.00000000000E+00  0.96812758486E+03  0.96812758486E+03  0.25500000920E-02 0.  1.
       -2   -1    0    0    0  501  0.00000000000E+00  0.00000000000E+00 -0.11514878425E+04  0.11514878425E+04  0.25500000920E-02 0. -1.
    10030    2    1    2    0    0  0.00000000000E+00  0.00000000000E+00 -0.18336025760E+03  0.21196154273E+04  0.21116696180E+04 0.  0.
        5    1    3    3  502    0 -0.33153378803E+03  0.95472781924E+03  0.21499395616E+03  0.10332784487E+04  0.46999998093E+01 0.  1.
       -5    1    3    3    0  502  0.33153378803E+03 -0.95472781924E+03 -0.39835421376E+03  0.10863369786E+04  0.46999998093E+01 0. -1.
</event>
<event>
 5   0  0.1325673E-04  0.2096846E+04  0.7818609E-02  0.8562634E-01
       -2   -1    0    0    0  501  0.00000000000E+00  0.00000000000E+00  0.10713910238E+04  0.10713910238E+04  0.25500000920E-02 0.  1.
        2   -1    0    0  501    0  0.00000000000E+00  0.00000000000E+00 -0.10259473818E+04  0.10259473818E+04  0.25500000920E-02 0. -1.
    10030    2    1    2    0    0  0.00000000000E+00  0.00000000000E+00  0.45443642057E+02  0.20973384056E+04  0.20968460275E+04 0.  0.
        5    1    3    3  502    0 -0.12830215157E+03  0.10080476080E+04 -0.23530639532E+03  0.10430784303E+04  0.46999998093E+01 0. -1.
       -5    1    3    3    0  502  0.12830215157E+03 -0.10080476080E+04  0.28075003737E+03  0.10542599753E+04  0.46999998093E+01 0.  1.
</event>
<event>
 5   0  0.1281470E-04  0.2099834E+04  0.7818609E-02  0.8561317E-01
        2   -1    0    0  501    0  0.00000000000E+00  0.00000000000E+00  0.24035640772E+04  0.24035640772E+04  0.25500000920E-02 0.  1.
       -2   -1    0    0    0  501  0.00000000000E+00  0.00000000000E+00 -0.45862117614E+03  0.45862117614E+03  0.25500000920E-02 0. -1.
    10030    2    1    2    0    0  0.00000000000E+00  0.00000000000E+00  0.19449429010E+04  0.28621852533E+04  0.20998336925E+04 0.  0.
        3    1    3    3  502    0  0.23886137645E+03 -0.15328156807E+03  0.23502853336E+04  0.23673595324E+04  0.10100000352E+00 0.  1.
       -3    1    3    3    0  502 -0.23886137645E+03  0.15328156807E+03 -0.40534243253E+03  0.49482572092E+03  0.10100000352E+00 0. -1.
</event>
<event>
 5   0  0.1235817E-04  0.2087408E+04  0.7818609E-02  0.8566811E-01
        2   -1    0    0  501    0  0.00000000000E+00  0.00000000000E+00  0.17186792451E+04  0.17186792451E+04  0.25500000920E-02 0. -1.
       -2   -1    0    0    0  501  0.00000000000E+00  0.00000000000E+00 -0.63381121581E+03  0.63381121581E+03  0.25500000920E-02 0.  1.
    10030    2    1    2    0    0  0.00000000000E+00  0.00000000000E+00  0.10848680292E+04  0.23524904609E+04  0.20874081363E+04 0.  0.
        1    1    3    3  502    0 -0.10310260777E+04  0.86877786298E+02  0.38809111158E+03  0.11050688819E+04  0.50400001928E-02 0. -1.
       -1    1    3    3    0  502  0.10310260777E+04 -0.86877786298E+02  0.69677691766E+03  0.12474215790E+04  0.50400001928E-02 0.  1.
</event>
<event>
 5   0  0.5846187E-05  0.2083982E+04  0.7818609E-02  0.8568332E-01
       -1   -1    0    0    0  501  0.00000000000E+00  0.00000000000E+00  0.82569070374E+03  0.82569070376E+03  0.50400001928E-02 0. -1.
        1   -1    0    0  501    0  0.00000000000E+00  0.00000000000E+00 -0.13149542253E+04  0.13149542253E+04  0.50400001928E-02 0.  1.
    10030    2    1    2    0    0  0.00000000000E+00  0.00000000000E+00 -0.48926352154E+03  0.21406449290E+04  0.20839822261E+04 0.  0.
        5    1    3    3  502    0  0.46376773475E+03 -0.44740556721E+02  0.71271842971E+03  0.85151152620E+03  0.46999998093E+01 0. -1.
       -5    1    3    3    0  502 -0.46376773475E+03  0.44740556721E+02 -0.12019819512E+04  0.12891334028E+04  0.46999998093E+01 0.  1.
</event>
<event>
 5   0  0.6052292E-05  0.2076189E+04  0.7818609E-02  0.8571805E-01
        1   -1    0    0  501    0  0.00000000000E+00  0.00000000000E+00  0.15970658157E+04  0.15970658157E+04  0.50400001928E-02 0. -1.
       -1   -1    0    0    0  501  0.00000000000E+00  0.00000000000E+00 -0.67476249176E+03  0.67476249178E+03  0.50400001928E-02 0.  1.
    10030    2    1    2    0    0  0.00000000000E+00  0.00000000000E+00  0.92230332397E+03  0.22718283075E+04  0.20761889214E+04 0.  0.
        1    1    3    3  502    0  0.46857001474E+03  0.87961732886E+03  0.14334308731E+03  0.10068921217E+04  0.50400001928E-02 0.  1.
       -1    1    3    3    0  502 -0.46857001474E+03 -0.87961732886E+03  0.77896023666E+03  0.12649361858E+04  0.50400001928E-02 0. -1.
</event>
<event>
 5   0  0.1349252E-04  0.2091296E+04  0.7818609E-02  0.8565087E-01
       -2   -1    0    0    0  501  0.00000000000E+00  0.00000000000E+00  0.64306168714E+03  0.64306168715E+03  0.25500000920E-02 0. -1.
        2   -1    0    0  501    0  0.00000000000E+00  0.00000000000E+00 -0.17002716062E+04  0.17002716062E+04  0.25500000920E-02 0.  1.
    10030    2    1    2    0    0  0.00000000000E+00  0.00000000000E+00 -0.10572099191E+04  0.23433332934E+04  0.20912957971E+04 0.  0.
        2    1    3    3  502    0 -0.57011893309E+03  0.34822944117E+01  0.45357937581E+03  0.72854785320E+03  0.25500000920E-02 0. -1.
       -2    1    3    3    0  502  0.57011893309E+03 -0.34822944117E+01 -0.15107892949E+04  0.16147854402E+04  0.25500000920E-02 0.  1.
</event>
<event>
 5   0  0.5933905E-05  0.2163922E+04  0.7818609E-02  0.8533596E-01
        1   -1    0    0  501    0  0.00000000000E+00  0.00000000000E+00  0.87672544257E+03  0.87672544258E+03  0.50400001928E-02 0. -1.
       -1   -1    0    0    0  501  0.00000000000E+00  0.00000000000E+00 -0.13352408561E+04  0.13352408561E+04  0.50400001928E-02 0.  1.
    10030    2    1    2    0    0  0.00000000000E+00  0.00000000000E+00 -0.45851541356E+03  0.22119662987E+04  0.21639220231E+04 0.  0.
        2    1    3    3  502    0 -0.17619376344E+03 -0.10598349829E+04 -0.35994458477E+03  0.11330730503E+04  0.25500000920E-02 0.  1.
       -2    1    3    3    0  502  0.17619376344E+03  0.10598349829E+04 -0.98570828788E+02  0.10788932484E+04  0.25500000920E-02 0. -1.
</event>
<event>
 5   0  0.1235817E-04  0.2094721E+04  0.7818609E-02  0.8563572E-01
       -2   -1    0    0    0  501  0.00000000000E+00  0.00000000000E+00  0.44340158169E+03  0.44340158170E+03  0.25500000920E-02 0. -1.
        2   -1    0    0  501    0  0.00000000000E+00  0.00000000000E+00 -0.24739750512E+04  0.24739750512E+04  0.25500000920E-02 0.  1.
    10030    2    1    2    0    0  0.00000000000E+00  0.00000000000E+00 -0.20305734695E+04  0.29173766329E+04  0.20947214142E+04 0.  0.
        1    1    3    3  502    0  0.60746564944E+03 -0.41441911559E+03 -0.20539729026E+04  0.21816421345E+04  0.50400001928E-02 0.  1.
       -1    1    3    3    0  502 -0.60746564944E+03  0.41441911559E+03  0.23399433057E+02  0.73573449838E+03  0.50400001928E-02 0. -1.
</event>
<event>
 5   0  0.1325673E-04  0.2069806E+04  0.7818609E-02  0.8574662E-01
       -2   -1    0    0    0  501  0.00000000000E+00  0.00000000000E+00  0.14399843737E+04  0.14399843737E+04  0.25500000920E-02 0. -1.
        2   -1    0    0  501    0  0.00000000000E+00  0.00000000000E+00 -0.74377479838E+03  0.74377479839E+03  0.25500000920E-02 0.  1.
    10030    2    1    2    0    0  0.00000000000E+00  0.00000000000E+00  0.69620957532E+03  0.21837591721E+04  0.20698058723E+04 0.  0.
        5    1    3    3  502    0 -0.23433203823E+03  0.52722610533E+03 -0.55833619678E+03  0.80289493018E+03  0.46999998093E+01 0.  1.
       -5    1    3    3    0  502  0.23433203823E+03 -0.52722610533E+03  0.12545457721E+04  0.13808642419E+04  0.46999998093E+01 0. -1.
</event>
<event>
 5   0  0.6221148E-05  0.2087757E+04  0.7818609E-02  0.8566656E-01
        1   -1    0    0  501    0  0.00000000000E+00  0.00000000000E+00  0.13194632093E+04  0.13194632093E+04  0.50400001928E-02 0. -1.
       -1   -1    0    0    0  501  0.00000000000E+00  0.00000000000E+00 -0.82585273559E+03  0.82585273561E+03  0.50400001928E-02 0.  1.
    10030    2    1    2    0    0  0.00000000000E+00  0.00000000000E+00  0.49361047369E+03  0.21453159449E+04  0.20877569791E+04 0.  0.
        3    1    3    3  502    0 -0.27589980320E+03  0.74839263594E+03 -0.44516214295E+03  0.91344489853E+03  0.10100000352E+00 0.  1.
       -3    1    3    3    0  502  0.27589980320E+03 -0.74839263594E+03  0.93877261664E+03  0.12318710464E+04  0.10100000352E+00 0. -1.
</event>
<event>
 5   0  0.5846187E-05  0.1777775E+04  0.7818609E-02  0.8718209E-01
       -1   -1    0    0    0  501  0.00000000000E+00  0.00000000000E+00  0.67650880020E+03  0.67650880022E+03  0.50400001928E-02 0.  1.
        1   -1    0    0  501    0  0.00000000000E+00  0.00000000000E+00 -0.11679383906E+04  0.11679383906E+04  0.50400001928E-02 0. -1.
    10030    2    1    2    0    0  0.00000000000E+00  0.00000000000E+00 -0.49142959041E+03  0.18444471908E+04  0.17777745632E+04 0.  0.
        5    1    3    3  502    0 -0.68999258724E+03  0.13614102683E+03 -0.80967626988E+03  0.10724839867E+04  0.46999998093E+01 0. -1.
       -5    1    3    3    0  502  0.68999258724E+03 -0.13614102683E+03  0.31824667947E+03  0.77196320419E+03  0.46999998093E+01 0.  1.
</event>
<event>
 5   0  0.1235817E-04  0.2122268E+04  0.7818609E-02  0.8551497E-01
       -2   -1    0    0    0  501  0.00000000000E+00  0.00000000000E+00  0.69635847689E+03  0.69635847690E+03  0.25500000920E-02 0.  1.
        2   -1    0    0  501    0  0.00000000000E+00  0.00000000000E+00 -0.16169908026E+04  0.16169908026E+04  0.25500000920E-02 0. -1.
    10030    2    1    2    0    0  0.00000000000E+00  0.00000000000E+00 -0.92063232575E+03  0.23133492795E+04  0.21222678931E+04 0.  0.
        1    1    3    3  502    0 -0.41643423892E+03  0.36233105117E+03  0.52753831077E+03  0.76354301472E+03  0.50400001928E-02 0.  1.
       -1    1    3    3    0  502  0.41643423892E+03 -0.36233105117E+03 -0.14481706365E+04  0.15498062648E+04  0.50400001928E-02 0. -1.
</event>
<event>
 5   0  0.1252477E-04  0.2102825E+04  0.7818609E-02  0.8560000E-01
       -2   -1    0    0    0  501  0.00000000000E+00  0.00000000000E+00  0.51896870066E+03  0.51896870067E+03  0.25500000920E-02 0.  1.
        2   -1    0    0  501    0  0.00000000000E+00  0.00000000000E+00 -0.21301255299E+04  0.21301255299E+04  0.25500000920E-02 0. -1.
    10030    2    1    2    0    0  0.00000000000E+00  0.00000000000E+00 -0.16111568292E+04  0.26490942305E+04  0.21028252219E+04 0.  0.
        4    1    3    3  502    0 -0.17241979789E+02  0.66198887879E+03  0.22323758833E+03  0.69882987576E+03  0.12699999809E+01 0.  1.
       -4    1    3    3    0  502  0.17241979789E+02 -0.66198887879E+03 -0.18343944175E+04  0.19502643548E+04  0.12699999809E+01 0. -1.
</event>
<event>
 5   0  0.4615125E-05  0.2151904E+04  0.7818609E-02  0.8538718E-01
       -4   -1    0    0    0  501  0.00000000000E+00  0.00000000000E+00  0.12312953733E+04  0.12312960282E+04  0.12699999809E+01 0.  1.
        4   -1    0    0  501    0  0.00000000000E+00  0.00000000000E+00 -0.94020566422E+03  0.94020652195E+03  0.12699999809E+01 0. -1.
    10030    2    1    2    0    0  0.00000000000E+00  0.00000000000E+00  0.29108970905E+03  0.21715025502E+04  0.21519038331E+04 0.  0.
        3    1    3    3  502    0 -0.64273408733E+03  0.42896922369E+03  0.90106313784E+03  0.11870284287E+04  0.10100000352E+00 0.  1.
       -3    1    3    3    0  502  0.64273408733E+03 -0.42896922369E+03 -0.60997342879E+03  0.98447412151E+03  0.10100000352E+00 0. -1.
</event>
<event>
 5   0  0.6263616E-05  0.2122878E+04  0.7818609E-02  0.8551232E-01
       -1   -1    0    0    0  501  0.00000000000E+00  0.00000000000E+00  0.59307325295E+03  0.59307325297E+03  0.50400001928E-02 0. -1.
        1   -1    0    0  501    0  0.00000000000E+00  0.00000000000E+00 -0.18996854868E+04  0.18996854868E+04  0.50400001928E-02 0.  1.
    10030    2    1    2    0    0  0.00000000000E+00  0.00000000000E+00 -0.13066122338E+04  0.24927587398E+04  0.21228779063E+04 0.  0.
        4    1    3    3  502    0  0.42648931125E+03  0.76318687324E+03 -0.13600981026E+04  0.16168536723E+04  0.12699999809E+01 0.  1.
       -4    1    3    3    0  502 -0.42648931125E+03 -0.76318687324E+03  0.53485868780E+02  0.87590506743E+03  0.12699999809E+01 0. -1.
</event>
<event>
 5   0  0.1281470E-04  0.2134236E+04  0.7818609E-02  0.8546310E-01
       -2   -1    0    0    0  501  0.00000000000E+00  0.00000000000E+00  0.98470128952E+03  0.98470128952E+03  0.25500000920E-02 0.  1.
        2   -1    0    0  501    0  0.00000000000E+00  0.00000000000E+00 -0.11564325119E+04  0.11564325119E+04  0.25500000920E-02 0. -1.
    10030    2    1    2    0    0  0.00000000000E+00  0.00000000000E+00 -0.17173122242E+03  0.21411338015E+04  0.21342357749E+04 0.  0.
        3    1    3    3  502    0  0.86473928262E+03  0.17170491928E+03  0.51731300056E+03  0.10221885134E+04  0.10100000352E+00 0.  1.
       -3    1    3    3    0  502 -0.86473928262E+03 -0.17170491928E+03 -0.68904422298E+03  0.11189452880E+04  0.10100000352E+00 0. -1.
</event>
<event>
 5   0  0.6052292E-05  0.2103509E+04  0.7818609E-02  0.8559699E-01
        1   -1    0    0  501    0  0.00000000000E+00  0.00000000000E+00  0.10793749082E+04  0.10793749082E+04  0.50400001928E-02 0.  1.
       -1   -1    0    0    0  501  0.00000000000E+00  0.00000000000E+00 -0.10248410596E+04  0.10248410596E+04  0.50400001928E-02 0. -1.
    10030    2    1    2    0    0  0.00000000000E+00  0.00000000000E+00  0.54533848588E+02  0.21042159678E+04  0.21035091867E+04 0.  0.
        1    1    3    3  502    0 -0.22266579218E+03 -0.53268682584E+03  0.90668256024E+03  0.10748993323E+04  0.50400001928E-02 0.  1.
       -1    1    3    3    0  502  0.22266579218E+03  0.53268682584E+03 -0.85214871165E+03  0.10293166355E+04  0.50400001928E-02 0. -1.
</event>
<event>
 5   0  0.1281470E-04  0.2154418E+04  0.7818609E-02  0.8537644E-01
        2   -1    0    0  501    0  0.00000000000E+00  0.00000000000E+00  0.73498827461E+03  0.73498827461E+03  0.25500000920E-02 0.  1.
       -2   -1    0    0    0  501  0.00000000000E+00  0.00000000000E+00 -0.15787722674E+04  0.15787722674E+04  0.25500000920E-02 0. -1.
    10030    2    1    2    0    0  0.00000000000E+00  0.00000000000E+00 -0.84378399284E+03  0.23137605421E+04  0.21544178841E+04 0.  0.
        3    1    3    3  502    0  0.33721897410E+03  0.86327394548E+03 -0.10115156483E+04  0.13719046827E+04  0.10100000352E+00 0. -1.
       -3    1    3    3    0  502 -0.33721897410E+03 -0.86327394548E+03  0.16773165543E+03  0.94185585939E+03  0.10100000352E+00 0.  1.
</event>
<event>
 5   0  0.5933905E-05  0.2114973E+04  0.7818609E-02  0.8554676E-01
        1   -1    0    0  501    0  0.00000000000E+00  0.00000000000E+00  0.10357089685E+04  0.10357089685E+04  0.50400001928E-02 0.  1.
       -1   -1    0    0    0  501  0.00000000000E+00  0.00000000000E+00 -0.10797218020E+04  0.10797218020E+04  0.50400001928E-02 0. -1.
    10030    2    1    2    0    0  0.00000000000E+00  0.00000000000E+00 -0.44012833453E+02  0.21154307705E+04  0.21149728640E+04 0.  0.
        2    1    3    3  502    0  0.53394713331E+03  0.83465875515E+01 -0.93495172390E+03  0.10767097718E+04  0.25500000920E-02 0. -1.
       -2    1    3    3    0  502 -0.53394713331E+03 -0.83465875515E+01  0.89093889045E+03  0.10387209987E+04  0.25500000920E-02 0.  1.
</event>
<event>
 5   0  0.1235817E-04  0.2095278E+04  0.7818609E-02  0.8563326E-01
        2   -1    0    0  501    0  0.00000000000E+00  0.00000000000E+00  0.94926062104E+03  0.94926062104E+03  0.25500000920E-02 0.  1.
       -2   -1    0    0    0  501  0.00000000000E+00  0.00000000000E+00 -0.11562132574E+04  0.11562132574E+04  0.25500000920E-02 0. -1.
    10030    2    1    2    0    0  0.00000000000E+00  0.00000000000E+00 -0.20695263640E+03  0.21054738785E+04  0.20952782296E+04 0.  0.
        1    1    3    3  502    0 -0.64079362656E+03 -0.74138877172E+03 -0.47578416889E+03  0.10893320697E+04  0.50400001928E-02 0. -1.
       -1    1    3    3    0  502  0.64079362656E+03  0.74138877172E+03  0.26883153249E+03  0.10161418088E+04  0.50400001928E-02 0.  1.
</event>
<event>
 5   0  0.1349252E-04  0.2079895E+04  0.7818609E-02  0.8570152E-01
       -2   -1    0    0    0  501  0.00000000000E+00  0.00000000000E+00  0.10980847321E+04  0.10980847321E+04  0.25500000920E-02 0.  1.
        2   -1    0    0  501    0  0.00000000000E+00  0.00000000000E+00 -0.98488796348E+03  0.98488796349E+03  0.25500000920E-02 0. -1.
    10030    2    1    2    0    0  0.00000000000E+00  0.00000000000E+00  0.11319676864E+03  0.20829726956E+04  0.20798946469E+04 0.  0.
        2    1    3    3  502    0 -0.25024511036E+03  0.76541361460E+02 -0.95137471846E+03  0.98670920245E+03  0.25500000920E-02 0. -1.
       -2    1    3    3    0  502  0.25024511036E+03 -0.76541361460E+02  0.10645714871E+04  0.10962634932E+04  0.25500000920E-02 0.  1.
</event>
<event>
 5   0  0.4615125E-05  0.2075105E+04  0.7818609E-02  0.8572290E-01
        3   -1    0    0  501    0  0.00000000000E+00  0.00000000000E+00  0.13451252847E+04  0.13451252885E+04  0.10100000352E+00 0.  1.
       -3   -1    0    0    0  501  0.00000000000E+00  0.00000000000E+00 -0.80030876668E+03  0.80030877306E+03  0.10100000352E+00 0. -1.
    10030    2    1    2    0    0  0.00000000000E+00  0.00000000000E+00  0.54481651806E+03  0.21454340616E+04  0.20751053646E+04 0.  0.
        4    1    3    3  502    0  0.50007077456E+02 -0.70717752918E+03  0.10556541429E+04  0.12716163132E+04  0.12699999809E+01 0.  1.
       -4    1    3    3    0  502 -0.50007077456E+02  0.70717752918E+03 -0.51083762486E+03  0.87381774841E+03  0.12699999809E+01 0. -1.
</event>
<event>
 5   0  0.6263616E-05  0.2089887E+04  0.7818609E-02  0.8565711E-01
       -1   -1    0    0    0  501  0.00000000000E+00  0.00000000000E+00  0.14259551963E+04  0.14259551963E+04  0.50400001928E-02 0.  1.
        1   -1    0    0  501    0  0.00000000000E+00  0.00000000000E+00 -0.76573723940E+03  0.76573723941E+03  0.50400001928E-02 0. -1.
    10030    2    1    2    0    0  0.00000000000E+00  0.00000000000E+00  0.66021795691E+03  0.21916924357E+04  0.20898870740E+04 0.  0.
        4    1    3    3  502    0  0.41366222576E+01 -0.75265720102E+03 -0.43004211670E+03  0.86686089364E+03  0.12699999809E+01 0. -1.
       -4    1    3    3    0  502 -0.41366222576E+01  0.75265720102E+03  0.10902600736E+04  0.13248315421E+04  0.12699999809E+01 0.  1.
</event>
<event>
 5   0  0.4615125E-05  0.2100897E+04  0.7818609E-02  0.8560848E-01
        3   -1    0    0  501    0  0.00000000000E+00  0.00000000000E+00  0.14345031224E+04  0.14345031259E+04  0.10100000352E+00 0.  1.
       -3   -1    0    0    0  501  0.00000000000E+00  0.00000000000E+00 -0.76921532920E+03  0.76921533583E+03  0.10100000352E+00 0. -1.
    10030    2    1    2    0    0  0.00000000000E+00  0.00000000000E+00  0.66528779317E+03  0.22037184618E+04  0.21008967635E+04 0.  0.
        5    1    3    3  502    0 -0.49910788020E+03 -0.12818311850E+03  0.12928010952E+04  0.13917242363E+04  0.46999998093E+01 0.  1.
       -5    1    3    3    0  502  0.49910788020E+03  0.12818311850E+03 -0.62751330208E+03  0.81199422549E+03  0.46999998093E+01 0. -1.
</event>
<event>
 5   0  0.1252477E-04  0.2081033E+04  0.7818609E-02  0.8569645E-01
       -2   -1    0    0    0  501  0.00000000000E+00  0.00000000000E+00  0.12796910643E+04  0.12796910643E+04  0.25500000920E-02 0.  1.
        2   -1    0    0  501    0  0.00000000000E+00  0.00000000000E+00 -0.84604374403E+03  0.84604374404E+03  0.25500000920E-02 0. -1.
    10030    2    1    2    0    0  0.00000000000E+00  0.00000000000E+00  0.43364732031E+03  0.21257348084E+04  0.20810330312E+04 0.  0.
        4    1    3    3  502    0 -0.14837533240E+03 -0.39894205715E+03  0.11866940469E+04  0.12607197857E+04  0.12699999809E+01 0.  1.
       -4    1    3    3    0  502  0.14837533240E+03  0.39894205715E+03 -0.75304672655E+03  0.86501502270E+03  0.12699999809E+01 0. -1.
</event>
<event>
 5   0  0.1325673E-04  0.2096691E+04  0.7818609E-02  0.8562703E-01
        2   -1    0    0  501    0  0.00000000000E+00  0.00000000000E+00  0.12433408085E+04  0.12433408085E+04  0.25500000920E-02 0. -1.
       -2   -1    0    0    0  501  0.00000000000E+00  0.00000000000E+00 -0.88393143428E+03  0.88393143429E+03  0.25500000920E-02 0.  1.
    10030    2    1    2    0    0  0.00000000000E+00  0.00000000000E+00  0.35940937419E+03  0.21272722428E+04  0.20966907489E+04 0.  0.
        5    1    3    3  502    0  0.94199124939E+03 -0.10501547652E+03  0.63415542698E+03  0.11404170114E+04  0.46999998093E+01 0. -1.
       -5    1    3    3    0  502 -0.94199124939E+03  0.10501547652E+03 -0.27474605279E+03  0.98685523140E+03  0.46999998093E+01 0.  1.
</event>
<event>
 5   0  0.6052292E-05  0.2053488E+04  0.7818609E-02  0.8582014E-01
        1   -1    0    0  501    0  0.00000000000E+00  0.00000000000E+00  0.11346693512E+04  0.11346693512E+04  0.50400001928E-02 0.  1.
       -1   -1    0    0    0  501  0.00000000000E+00  0.00000000000E+00 -0.92908432939E+03  0.92908432940E+03  0.50400001928E-02 0. -1.
    10030    2    1    2    0    0  0.00000000000E+00  0.00000000000E+00  0.20558502176E+03  0.20637536806E+04  0.20534882646E+04 0.  0.
        1    1    3    3  502    0 -0.62983440145E+03  0.37898047514E+03  0.82323447744E+03  0.11036451326E+04  0.50400001928E-02 0.  1.
       -1    1    3    3    0  502  0.62983440145E+03 -0.37898047514E+03 -0.61764945568E+03  0.96010854799E+03  0.50400001928E-02 0. -1.
</event>
<event>
 5   0  0.1252477E-04  0.2101722E+04  0.7818609E-02  0.8560485E-01
        2   -1    0    0  501    0  0.00000000000E+00  0.00000000000E+00  0.15280369992E+04  0.15280369992E+04  0.25500000920E-02 0.  1.
       -2   -1    0    0    0  501  0.00000000000E+00  0.00000000000E+00 -0.72269798447E+03  0.72269798448E+03  0.25500000920E-02 0. -1.
    10030    2    1    2    0    0  0.00000000000E+00  0.00000000000E+00  0.80533901473E+03  0.22507349837E+04  0.21017223980E+04 0.  0.
        4    1    3    3  502    0 -0.45684907628E+02 -0.81985667906E+03  0.11049511125E+04  0.13766519745E+04  0.12699999809E+01 0.  1.
       -4    1    3    3    0  502  0.45684907628E+02  0.81985667906E+03 -0.29961209774E+03  0.87408300921E+03  0.12699999809E+01 0. -1.
</event>
<event>
 5   0  0.4615125E-05  0.2122776E+04  0.7818609E-02  0.8551276E-01
       -3   -1    0    0    0  501  0.00000000000E+00  0.00000000000E+00  0.81369012168E+03  0.81369012795E+03  0.10100000352E+00 0. -1.
        3   -1    0    0  501    0  0.00000000000E+00  0.00000000000E+00 -0.13844879647E+04  0.13844879684E+04  0.10100000352E+00 0.  1.
    10030    2    1    2    0    0  0.00000000000E+00  0.00000000000E+00 -0.57079784304E+03  0.21981780963E+04  0.21227757219E+04 0.  0.
        3    1    3    3  502    0 -0.88487381790E+03 -0.97913238460E+02 -0.88381474358E+03  0.12544788508E+04  0.10100000352E+00 0. -1.
       -3    1    3    3    0  502  0.88487381790E+03  0.97913238460E+02  0.31301690054E+03  0.94369924557E+03  0.10100000352E+00 0.  1.
</event>
<event>
 5   0  0.6221148E-05  0.2097046E+04  0.7818609E-02  0.8562546E-01
       -1   -1    0    0    0  501  0.00000000000E+00  0.00000000000E+00  0.10610850215E+04  0.10610850215E+04  0.50400001928E-02 0. -1.
        1   -1    0    0  501    0  0.00000000000E+00  0.00000000000E+00 -0.10361099739E+04  0.10361099739E+04  0.50400001928E-02 0.  1.
    10030    2    1    2    0    0  0.00000000000E+00  0.00000000000E+00  0.24975047557E+02  0.20971949954E+04  0.20970462789E+04 0.  0.
        3    1    3    3  502    0  0.25718775024E+03  0.99146747359E+03  0.23666290326E+03  0.10512671545E+04  0.10100000352E+00 0. -1.
       -3    1    3    3    0  502 -0.25718775024E+03 -0.99146747359E+03 -0.21168785570E+03  0.10459278410E+04  0.10100000352E+00 0.  1.
</event>
<event>
 5   0  0.5933905E-05  0.2108954E+04  0.7818609E-02  0.8557309E-01
       -1   -1    0    0    0  501  0.00000000000E+00  0.00000000000E+00  0.56604747312E+03  0.56604747314E+03  0.50400001928E-02 0. -1.
        1   -1    0    0  501    0  0.00000000000E+00  0.00000000000E+00 -0.19643609829E+04  0.19643609829E+04  0.50400001928E-02 0.  1.
    10030    2    1    2    0    0  0.00000000000E+00  0.00000000000E+00 -0.13983135097E+04  0.25304084560E+04  0.21089538361E+04 0.  0.
        2    1    3    3  502    0 -0.10499239062E+04 -0.61859907107E+02 -0.79017645908E+03  0.13155020690E+04  0.25500000920E-02 0.  1.
       -2    1    3    3    0  502  0.10499239062E+04  0.61859907107E+02 -0.60813705066E+03  0.12149063871E+04  0.25500000920E-02 0. -1.
</event>
<event>
 5   0  0.5933905E-05  0.2076604E+04  0.7818609E-02  0.8571620E-01
       -1   -1    0    0    0  501  0.00000000000E+00  0.00000000000E+00  0.81487500968E+03  0.81487500970E+03  0.50400001928E-02 0. -1.
        1   -1    0    0  501    0  0.00000000000E+00  0.00000000000E+00 -0.13229898455E+04  0.13229898455E+04  0.50400001928E-02 0.  1.
    10030    2    1    2    0    0  0.00000000000E+00  0.00000000000E+00 -0.50811483581E+03  0.21378648552E+04  0.20766043082E+04 0.  0.
        2    1    3    3  502    0 -0.10066340928E+04  0.80900108676E+02 -0.50245163550E+03  0.11279692684E+04  0.25500000920E-02 0.  1.
       -2    1    3    3    0  502  0.10066340928E+04 -0.80900108676E+02 -0.56632003095E+01  0.10098955868E+04  0.25500000920E-02 0. -1.
</event>
<event>
 5   0  0.6052292E-05  0.1908981E+04  0.7818609E-02  0.8650399E-01
       -1   -1    0    0    0  501  0.00000000000E+00  0.00000000000E+00  0.70278339671E+03  0.70278339673E+03  0.50400001928E-02 0.  1.
        1   -1    0    0  501    0  0.00000000000E+00  0.00000000000E+00 -0.12963478392E+04  0.12963478392E+04  0.50400001928E-02 0. -1.
    10030    2    1    2    0    0  0.00000000000E+00  0.00000000000E+00 -0.59356444248E+03  0.19991312359E+04  0.19089806052E+04 0.  0.
        1    1    3    3  502    0 -0.50760622162E+03  0.22207645255E+03  0.51714077459E+03  0.75790276934E+03  0.50400001928E-02 0.  1.
       -1    1    3    3    0  502  0.50760622162E+03 -0.22207645255E+03 -0.11107052171E+04  0.12412284666E+04  0.50400001928E-02 0. -1.
</event>
<event>
 5   0  0.5846187E-05  0.2073291E+04  0.7818609E-02  0.8573101E-01
        1   -1    0    0  501    0  0.00000000000E+00  0.00000000000E+00  0.15882005516E+04  0.15882005516E+04  0.50400001928E-02 0. -1.
       -1   -1    0    0    0  501  0.00000000000E+00  0.00000000000E+00 -0.67663589483E+03  0.67663589485E+03  0.50400001928E-02 0.  1.
    10030    2    1    2    0    0  0.00000000000E+00  0.00000000000E+00  0.91156465672E+03  0.22648364464E+04  0.20732906226E+04 0.  0.
        5    1    3    3  502    0  0.65122818419E+03 -0.34946317560E+03 -0.33827789948E+03  0.81282020537E+03  0.46999998093E+01 0.  1.
       -5    1    3    3    0  502 -0.65122818419E+03  0.34946317560E+03  0.12498425562E+04  0.14520162411E+04  0.46999998093E+01 0. -1.
</event>
<event>
 5   0  0.5933905E-05  0.2001721E+04  0.7818609E-02  0.8605817E-01
        1   -1    0    0  501    0  0.00000000000E+00  0.00000000000E+00  0.11649718867E+04  0.11649718868E+04  0.50400001928E-02 0.  1.
       -1   -1    0    0    0  501  0.00000000000E+00  0.00000000000E+00 -0.85986765330E+03  0.85986765331E+03  0.50400001928E-02 0. -1.
    10030    2    1    2    0    0  0.00000000000E+00  0.00000000000E+00  0.30510423345E+03  0.20248395401E+04  0.20017209021E+04 0.  0.
        2    1    3    3  502    0 -0.48733976553E+02  0.77763955724E+03  0.78799787400E+03  0.11081691797E+04  0.25500000920E-02 0. -1.
       -2    1    3    3    0  502  0.48733976553E+02 -0.77763955724E+03 -0.48289364055E+03  0.91667036035E+03  0.25500000920E-02 0.  1.
</event>
<event>
 5   0  0.1252477E-04  0.2148240E+04  0.7818609E-02  0.8540286E-01
        2   -1    0    0  501    0  0.00000000000E+00  0.00000000000E+00  0.20731832745E+04  0.20731832745E+04  0.25500000920E-02 0. -1.
       -2   -1    0    0    0  501  0.00000000000E+00  0.00000000000E+00 -0.55650374257E+03  0.55650374258E+03  0.25500000920E-02 0.  1.
    10030    2    1    2    0    0  0.00000000000E+00  0.00000000000E+00  0.15166795319E+04  0.26296870170E+04  0.21482404440E+04 0.  0.
        4    1    3    3  502    0 -0.96882149808E+03 -0.45030681142E+03  0.89432819596E+03  0.13932752257E+04  0.12699999809E+01 0. -1.
       -4    1    3    3    0  502  0.96882149808E+03  0.45030681142E+03  0.62235133593E+03  0.12364117913E+04  0.12699999809E+01 0.  1.
</event>
<event>
 5   0  0.1252477E-04  0.2107310E+04  0.7818609E-02  0.8558030E-01
        2   -1    0    0  501    0  0.00000000000E+00  0.00000000000E+00  0.11737202502E+04  0.11737202502E+04  0.25500000920E-02 0.  1.
       -2   -1    0    0    0  501  0.00000000000E+00  0.00000000000E+00 -0.94587162762E+03  0.94587162763E+03  0.25500000920E-02 0. -1.
    10030    2    1    2    0    0  0.00000000000E+00  0.00000000000E+00  0.22784862253E+03  0.21195918778E+04  0.21073098333E+04 0.  0.
        4    1    3    3  502    0 -0.50459149036E+03 -0.40142066615E+03  0.95210943733E+03  0.11498978724E+04  0.12699999809E+01 0.  1.
       -4    1    3    3    0  502  0.50459149036E+03  0.40142066615E+03 -0.72426081480E+03  0.96969400540E+03  0.12699999809E+01 0. -1.
</event>
<event>
 5   0  0.1235817E-04  0.2070389E+04  0.7818609E-02  0.8574401E-01
        2   -1    0    0  501    0  0.00000000000E+00  0.00000000000E+00  0.11312749621E+04  0.11312749622E+04  0.25500000920E-02 0. -1.
       -2   -1    0    0    0  501  0.00000000000E+00  0.00000000000E+00 -0.94727429110E+03  0.94727429110E+03  0.25500000920E-02 0.  1.
    10030    2    1    2    0    0  0.00000000000E+00  0.00000000000E+00  0.18400067105E+03  0.20785492532E+04  0.20703890338E+04 0.  0.
        1    1    3    3  502    0 -0.12653931665E+03  0.31160380804E+03 -0.89089805455E+03  0.95226491874E+03  0.50400001928E-02 0.  1.
       -1    1    3    3    0  502  0.12653931665E+03 -0.31160380804E+03  0.10748987256E+04  0.11262843345E+04  0.50400001928E-02 0. -1.
</event>
<event>
 5   0  0.6263616E-05  0.2212240E+04  0.7818609E-02  0.8513351E-01
       -1   -1    0    0    0  501  0.00000000000E+00  0.00000000000E+00  0.13406740237E+04  0.13406740237E+04  0.50400001928E-02 0. -1.
        1   -1    0    0  501    0  0.00000000000E+00  0.00000000000E+00 -0.91260142371E+03  0.91260142372E+03  0.50400001928E-02 0.  1.
    10030    2    1    2    0    0  0.00000000000E+00  0.00000000000E+00  0.42807260003E+03  0.22532754475E+04  0.22122396098E+04 0.  0.
        4    1    3    3  502    0  0.86993825621E+03 -0.59587537688E+02 -0.47914341533E+03  0.99494887790E+03  0.12699999809E+01 0.  1.
       -4    1    3    3    0  502 -0.86993825621E+03  0.59587537688E+02  0.90721601537E+03  0.12583265696E+04  0.12699999809E+01 0. -1.
</event>
<event>
 5   0  0.6263616E-05  0.2032716E+04  0.7818609E-02  0.8591476E-01
       -1   -1    0    0    0  501  0.00000000000E+00  0.00000000000E+00  0.53203689305E+03  0.53203689308E+03  0.50400001928E-02 0.  1.
        1   -1    0    0  501    0  0.00000000000E+00  0.00000000000E+00 -0.19415645506E+04  0.19415645506E+04  0.50400001928E-02 0. -1.
    10030    2    1    2    0    0  0.00000000000E+00  0.00000000000E+00 -0.14095276575E+04  0.24736014437E+04  0.20327163808E+04 0.  0.
        4    1    3    3  502    0  0.48071050346E+03  0.34586421617E+03 -0.17099199727E+04  0.18095669565E+04  0.12699999809E+01 0. -1.
       -4    1    3    3    0  502 -0.48071050346E+03 -0.34586421617E+03  0.30039231519E+03  0.66403448713E+03  0.12699999809E+01 0.  1.
</event>
<event>
 5   0  0.1325673E-04  0.2399114E+04  0.7818609E-02  0.8439835E-01
       -2   -1    0    0    0  501  0.00000000000E+00  0.00000000000E+00  0.43164108589E+03  0.43164108589E+03  0.25500000920E-02 0.  1.
        2   -1    0    0  501    0  0.00000000000E+00  0.00000000000E+00 -0.33336426118E+04  0.33336426118E+04  0.25500000920E-02 0. -1.
    10030    2    1    2    0    0  0.00000000000E+00  0.00000000000E+00 -0.29020015259E+04  0.37652836977E+04  0.23991141006E+04 0.  0.
        5    1    3    3  502    0 -0.67003438501E+03 -0.87276018859E+03 -0.70117496526E+03  0.13047317141E+04  0.46999998093E+01 0. -1.
       -5    1    3    3    0  502  0.67003438501E+03  0.87276018859E+03 -0.22008265607E+04  0.24605519836E+04  0.46999998093E+01 0.  1.
</event>
<event>
 5   0  0.5846187E-05  0.2071644E+04  0.7818609E-02  0.8573838E-01
        1   -1    0    0  501    0  0.00000000000E+00  0.00000000000E+00  0.14967218059E+04  0.14967218059E+04  0.50400001928E-02 0.  1.
       -1   -1    0    0    0  501  0.00000000000E+00  0.00000000000E+00 -0.71685135479E+03  0.71685135481E+03  0.50400001928E-02 0. -1.
    10030    2    1    2    0    0  0.00000000000E+00  0.00000000000E+00  0.77987045113E+03  0.22135731607E+04  0.20716438443E+04 0.  0.
        5    1    3    3  502    0  0.88154892122E+03 -0.43870309878E+03  0.73338457171E+03  0.12277882266E+04  0.46999998093E+01 0. -1.
       -5    1    3    3    0  502 -0.88154892122E+03  0.43870309878E+03  0.46485879422E+02  0.98578493413E+03  0.46999998093E+01 0.  1.
</event>
<event>
 5   0  0.5846187E-05  0.2155829E+04  0.7818609E-02  0.8537041E-01
        1   -1    0    0  501    0  0.00000000000E+00  0.00000000000E+00  0.12649110197E+04  0.12649110198E+04  0.50400001928E-02 0. -1.
       -1   -1    0    0    0  501  0.00000000000E+00  0.00000000000E+00 -0.91856196920E+03  0.91856196921E+03  0.50400001928E-02 0.  1.
    10030    2    1    2    0    0  0.00000000000E+00  0.00000000000E+00  0.34634905055E+03  0.21834729890E+04  0.21558285249E+04 0.  0.
        5    1    3    3  502    0 -0.70746359045E+03 -0.81229573106E+03  0.13332562164E+03  0.10854155416E+04  0.46999998093E+01 0. -1.
       -5    1    3    3    0  502  0.70746359045E+03  0.81229573106E+03  0.21302342891E+03  0.10980574474E+04  0.46999998093E+01 0.  1.
</event>
<event>
 5   0  0.1349252E-04  0.2225963E+04  0.7818609E-02  0.8507699E-01
       -2   -1    0    0    0  501  0.00000000000E+00  0.00000000000E+00  0.15567906358E+04  0.15567906358E+04  0.25500000920E-02 0.  1.
        2   -1    0    0  501    0  0.00000000000E+00  0.00000000000E+00 -0.79569319017E+03  0.79569319017E+03  0.25500000920E-02 0. -1.
    10030    2    1    2    0    0  0.00000000000E+00  0.00000000000E+00  0.76109744565E+03  0.23524838260E+04  0.22259628995E+04 0.  0.
        2    1    3    3  502    0  0.39563315541E+03  0.34753524892E+03 -0.65570381932E+03  0.84098385334E+03  0.25500000920E-02 0. -1.
       -2    1    3    3    0  502 -0.39563315541E+03 -0.34753524892E+03  0.14168012650E+04  0.15114999727E+04  0.25500000920E-02 0.  1.
</event>
<event>
 5   0  0.6221148E-05  0.1531651E+04  0.7818609E-02  0.8863674E-01
        1   -1    0    0  501    0  0.00000000000E+00  0.00000000000E+00  0.53215984992E+03  0.53215984994E+03  0.50400001928E-02 0. -1.
       -1   -1    0    0    0  501  0.00000000000E+00  0.00000000000E+00 -0.11020916927E+04  0.11020916927E+04  0.50400001928E-02 0.  1.
    10030    2    1    2    0    0  0.00000000000E+00  0.00000000000E+00 -0.56993184280E+03  0.16342515427E+04  0.15316513308E+04 0.  0.
        3    1    3    3  502    0 -0.28249317451E+03  0.25781270288E+03 -0.99290104416E+03  0.10640123482E+04  0.10100000352E+00 0.  1.
       -3    1    3    3    0  502  0.28249317451E+03 -0.25781270288E+03  0.42296920137E+03  0.57023919448E+03  0.10100000352E+00 0. -1.
</event>
<event>
 5   0  0.1281470E-04  0.2107183E+04  0.7818609E-02  0.8558086E-01
       -2   -1    0    0    0  501  0.00000000000E+00  0.00000000000E+00  0.88884670761E+03  0.88884670761E+03  0.25500000920E-02 0.  1.
        2   -1    0    0  501    0  0.00000000000E+00  0.00000000000E+00 -0.12488713502E+04  0.12488713502E+04  0.25500000920E-02 0. -1.
    10030    2    1    2    0    0  0.00000000000E+00  0.00000000000E+00 -0.36002464259E+03  0.21377180578E+04  0.21071831319E+04 0.  0.
        3    1    3    3  502    0 -0.58358316174E+03 -0.58463141718E+03  0.48344607791E+03  0.95712241697E+03  0.10100000352E+00 0.  1.
       -3    1    3    3    0  502  0.58358316174E+03  0.58463141718E+03 -0.84347072051E+03  0.11805956408E+04  0.10100000352E+00 0. -1.
</event>
<event>
 5   0  0.4615125E-05  0.2081563E+04  0.7818609E-02  0.8569409E-01
        3   -1    0    0  501    0  0.00000000000E+00  0.00000000000E+00  0.63841457399E+03  0.63841458198E+03  0.10100000352E+00 0. -1.
       -3   -1    0    0    0  501  0.00000000000E+00  0.00000000000E+00 -0.16967442048E+04  0.16967442078E+04  0.10100000352E+00 0.  1.
    10030    2    1    2    0    0  0.00000000000E+00  0.00000000000E+00 -0.10583296308E+04  0.23351587898E+04  0.20815631064E+04 0.  0.
        5    1    3    3  502    0  0.75165448829E+03  0.71735249714E+03 -0.46162102470E+03  0.11369675173E+04  0.46999998093E+01 0. -1.
       -5    1    3    3    0  502 -0.75165448829E+03 -0.71735249714E+03 -0.59670860612E+03  0.11981912725E+04  0.46999998093E+01 0.  1.
</event>
<event>
 5   0  0.1252477E-04  0.2064350E+04  0.7818609E-02  0.8577112E-01
        2   -1    0    0  501    0  0.00000000000E+00  0.00000000000E+00  0.24243618361E+04  0.24243618361E+04  0.25500000920E-02 0. -1.
       -2   -1    0    0    0  501  0.00000000000E+00  0.00000000000E+00 -0.43944969107E+03  0.43944969108E+03  0.25500000920E-02 0.  1.
    10030    2    1    2    0    0  0.00000000000E+00  0.00000000000E+00  0.19849121451E+04  0.28638115272E+04  0.20643498346E+04 0.  0.
        4    1    3    3  502    0  0.58107167167E+03  0.26357826054E+03  0.21179981512E+04  0.22120206981E+04  0.12699999809E+01 0. -1.
       -4    1    3    3    0  502 -0.58107167167E+03 -0.26357826054E+03 -0.13308600616E+03  0.65179082917E+03  0.12699999809E+01 0.  1.
</event>
<event>
 5   0  0.1252477E-04  0.2103523E+04  0.7818609E-02  0.8559693E-01
        2   -1    0    0  501    0  0.00000000000E+00  0.00000000000E+00  0.24312544330E+04  0.24312544330E+04  0.25500000920E-02 0.  1.
       -2   -1    0    0    0  501  0.00000000000E+00  0.00000000000E+00 -0.45499219448E+03  0.45499219448E+03  0.25500000920E-02 0. -1.
    10030    2    1    2    0    0  0.00000000000E+00  0.00000000000E+00  0.19762622385E+04  0.28862466275E+04  0.21035225597E+04 0.  0.
        4    1    3    3  502    0 -0.15929711065E+03  0.43304334993E+03  0.22849653364E+04  0.23310877963E+04  0.12699999809E+01 0.  1.
       -4    1    3    3    0  502  0.15929711065E+03 -0.43304334993E+03 -0.30870309787E+03  0.55515883124E+03  0.12699999809E+01 0. -1.
</event>
<event>
 5   0  0.5933905E-05  0.1981526E+04  0.7818609E-02  0.8615307E-01
        1   -1    0    0  501    0  0.00000000000E+00  0.00000000000E+00  0.13400904412E+04  0.13400904412E+04  0.50400001928E-02 0. -1.
       -1   -1    0    0    0  501  0.00000000000E+00  0.00000000000E+00 -0.73249598205E+03  0.73249598207E+03  0.50400001928E-02 0.  1.
    10030    2    1    2    0    0  0.00000000000E+00  0.00000000000E+00  0.60759445917E+03  0.20725864233E+04  0.19815255374E+04 0.  0.
        2    1    3    3  502    0 -0.56307144374E+03  0.50513160548E+03  0.97304778001E+03  0.12324890960E+04  0.25500000920E-02 0. -1.
       -2    1    3    3    0  502  0.56307144374E+03 -0.50513160548E+03 -0.36545332083E+03  0.84009732729E+03  0.25500000920E-02 0.  1.
</event>
<event>
 5   0  0.1235817E-04  0.2089980E+04  0.7818609E-02  0.8565670E-01
       -2   -1    0    0    0  501  0.00000000000E+00  0.00000000000E+00  0.55053574845E+03  0.55053574846E+03  0.25500000920E-02 0.  1.
        2   -1    0    0  501    0  0.00000000000E+00  0.00000000000E+00 -0.19835301941E+04  0.19835301941E+04  0.25500000920E-02 0. -1.
    10030    2    1    2    0    0  0.00000000000E+00  0.00000000000E+00 -0.14329944457E+04  0.25340659426E+04  0.20899801722E+04 0.  0.
        1    1    3    3  502    0 -0.47049963585E+03  0.93307050090E+03 -0.72100351884E+03  0.12695812464E+04  0.50400001928E-02 0.  1.
       -1    1    3    3    0  502  0.47049963585E+03 -0.93307050090E+03 -0.71199092683E+03  0.12644846962E+04  0.50400001928E-02 0. -1.
</event>
<event>
 5   0  0.6052292E-05  0.2111886E+04  0.7818609E-02  0.8556025E-01
       -1   -1    0    0    0  501  0.00000000000E+00  0.00000000000E+00  0.10512096126E+04  0.10512096126E+04  0.50400001928E-02 0.  1.
        1   -1    0    0  501    0  0.00000000000E+00  0.00000000000E+00 -0.10606977161E+04  0.10606977162E+04  0.50400001928E-02 0. -1.
    10030    2    1    2    0    0  0.00000000000E+00  0.00000000000E+00 -0.94881035379E+01  0.21119073288E+04  0.21118860152E+04 0.  0.
        1    1    3    3  502    0  0.31593652068E+03  0.86592549957E+03 -0.51989270583E+03  0.10582680575E+04  0.50400001928E-02 0. -1.
       -1    1    3    3    0  502 -0.31593652068E+03 -0.86592549957E+03  0.51040460230E+03  0.10536392713E+04  0.50400001928E-02 0.  1.
</event>
<event>
 5   0  0.5846187E-05  0.2110677E+04  0.7818609E-02  0.8556555E-01
        1   -1    0    0  501    0  0.00000000000E+00  0.00000000000E+00  0.10135930821E+04  0.10135930822E+04  0.50400001928E-02 0.  1.
       -1   -1    0    0    0  501  0.00000000000E+00  0.00000000000E+00 -0.10988033587E+04  0.10988033587E+04  0.50400001928E-02 0. -1.
    10030    2    1    2    0    0  0.00000000000E+00  0.00000000000E+00 -0.85210276514E+02  0.21123964408E+04  0.21106771264E+04 0.  0.
        5    1    3    3  502    0  0.43801137626E+03  0.50195641421E+03  0.77653771184E+03  0.10231554698E+04  0.46999998093E+01 0.  1.
       -5    1    3    3    0  502 -0.43801137626E+03 -0.50195641421E+03 -0.86174798835E+03  0.10892409710E+04  0.46999998093E+01 0. -1.
</event>
<event>
 5   0  0.1235817E-04  0.2134877E+04  0.7818609E-02  0.8546034E-01
        2   -1    0    0  501    0  0.00000000000E+00  0.00000000000E+00  0.15019388682E+04  0.15019388682E+04  0.25500000920E-02 0. -1.
       -2   -1    0    0    0  501  0.00000000000E+00  0.00000000000E+00 -0.75863574134E+03  0.75863574134E+03  0.25500000920E-02 0.  1.
    10030    2    1    2    0    0  0.00000000000E+00  0.00000000000E+00  0.74330312688E+03  0.22605746096E+04  0.21348765835E+04 0.  0.
        1    1    3    3  502    0 -0.62281486567E+03  0.79152730215E+02 -0.54246224152E+03  0.82971609307E+03  0.50400001928E-02 0.  1.
       -1    1    3    3    0  502  0.62281486567E+03 -0.79152730215E+02  0.12857653684E+04  0.14308585165E+04  0.50400001928E-02 0. -1.
</event>
<event>
 5   0  0.5846187E-05  0.2087036E+04  0.7818609E-02  0.8566975E-01
        1   -1    0    0  501    0  0.00000000000E+00  0.00000000000E+00  0.15075332439E+04  0.15075332439E+04  0.50400001928E-02 0.  1.
       -1   -1    0    0    0  501  0.00000000000E+00  0.00000000000E+00 -0.72232590056E+03  0.72232590058E+03  0.50400001928E-02 0. -1.
    10030    2    1    2    0    0  0.00000000000E+00  0.00000000000E+00  0.78520734335E+03  0.22298591445E+04  0.20870364712E+04 0.  0.
        5    1    3    3  502    0  0.43025452346E+03  0.67175830471E+03 -0.32613514532E+03  0.86183780256E+03  0.46999998093E+01 0. -1.
       -5    1    3    3    0  502 -0.43025452346E+03 -0.67175830471E+03  0.11113424887E+04  0.13680213419E+04  0.46999998093E+01 0.  1.
</event>
<event>
 5   0  0.6221148E-05  0.2121740E+04  0.7818609E-02  0.8551727E-01
        1   -1    0    0  501    0  0.00000000000E+00  0.00000000000E+00  0.12361714194E+04  0.12361714194E+04  0.50400001928E-02 0.  1.
       -1   -1    0    0    0  501  0.00000000000E+00  0.00000000000E+00 -0.91042804686E+03  0.91042804687E+03  0.50400001928E-02 0. -1.
    10030    2    1    2    0    0  0.00000000000E+00  0.00000000000E+00  0.32574337257E+03  0.21465994663E+04  0.21217399756E+04 0.  0.
        3    1    3    3  502    0  0.93597163538E+03  0.13053934690E+03  0.65055862935E+03  0.11473055233E+04  0.10100000352E+00 0.  1.
       -3    1    3    3    0  502 -0.93597163538E+03 -0.13053934690E+03 -0.32481525678E+03  0.99929394303E+03  0.10100000352E+00 0. -1.
</event>
<event>
 5   0  0.6263616E-05  0.2135781E+04  0.7818609E-02  0.8545643E-01
        1   -1    0    0  501    0  0.00000000000E+00  0.00000000000E+00  0.92193265166E+03  0.92193265168E+03  0.50400001928E-02 0. -1.
       -1   -1    0    0    0  501  0.00000000000E+00  0.00000000000E+00 -0.12369561328E+04  0.12369561328E+04  0.50400001928E-02 0.  1.
    10030    2    1    2    0    0  0.00000000000E+00  0.00000000000E+00 -0.31502348114E+03  0.21588887845E+04  0.21357811194E+04 0.  0.
        4    1    3    3  502    0  0.52934244403E+03 -0.90038779992E+02  0.77555618748E+03  0.94329179886E+03  0.12699999809E+01 0. -1.
       -4    1    3    3    0  502 -0.52934244403E+03  0.90038779992E+02 -0.10905796686E+04  0.12155969856E+04  0.12699999809E+01 0.  1.
</event>
<event>
 5   0  0.1325673E-04  0.2100738E+04  0.7818609E-02  0.8560918E-01
        2   -1    0    0  501    0  0.00000000000E+00  0.00000000000E+00  0.81258475811E+03  0.81258475811E+03  0.25500000920E-02 0.  1.
       -2   -1    0    0    0  501  0.00000000000E+00  0.00000000000E+00 -0.13577358179E+04  0.13577358179E+04  0.25500000920E-02 0. -1.
    10030    2    1    2    0    0  0.00000000000E+00  0.00000000000E+00 -0.54515105976E+03  0.21703205760E+04  0.21007383760E+04 0.  0.
        5    1    3    3  502    0 -0.74025319944E+02 -0.57335425714E+02  0.80825367721E+03  0.81367265885E+03  0.46999998093E+01 0.  1.
       -5    1    3    3    0  502  0.74025319944E+02  0.57335425714E+02 -0.13534047370E+04  0.13566479171E+04  0.46999998093E+01 0. -1.
</event>
<event>
 5   0  0.1235817E-04  0.1634265E+04  0.7818609E-02  0.8799770E-01
       -2   -1    0    0    0  501  0.00000000000E+00  0.00000000000E+00  0.90664137913E+03  0.90664137913E+03  0.25500000920E-02 0.  1.
        2   -1    0    0  501    0  0.00000000000E+00  0.00000000000E+00 -0.73646046869E+03  0.73646046870E+03  0.25500000920E-02 0. -1.
    10030    2    1    2    0    0  0.00000000000E+00  0.00000000000E+00  0.17018091044E+03  0.16431018478E+04  0.16342650152E+04 0.  0.
        1    1    3    3  502    0 -0.47041894876E+03  0.30919289809E+03 -0.51040546004E+03  0.75987365348E+03  0.50400001928E-02 0. -1.
       -1    1    3    3    0  502  0.47041894876E+03 -0.30919289809E+03  0.68058637048E+03  0.88322819435E+03  0.50400001928E-02 0.  1.
</event>
<event>
 5   0  0.5933905E-05  0.2045734E+04  0.7818609E-02  0.8585532E-01
       -1   -1    0    0    0  501  0.00000000000E+00  0.00000000000E+00  0.10660498455E+04  0.10660498455E+04  0.50400001928E-02 0. -1.
        1   -1    0    0  501    0  0.00000000000E+00  0.00000000000E+00 -0.98143368953E+03  0.98143368954E+03  0.50400001928E-02 0.  1.
    10030    2    1    2    0    0  0.00000000000E+00  0.00000000000E+00  0.84616155994E+02  0.20474835351E+04  0.20457343260E+04 0.  0.
        2    1    3    3  502    0 -0.46936675184E+03  0.71611505984E+03 -0.51775176028E+03  0.10005962282E+04  0.25500000920E-02 0.  1.
       -2    1    3    3    0  502  0.46936675184E+03 -0.71611505984E+03  0.60236791627E+03  0.10468873068E+04  0.25500000920E-02 0. -1.
</event>
<event>
 5   0  0.5846187E-05  0.2139201E+04  0.7818609E-02  0.8544169E-01
       -1   -1    0    0    0  501  0.00000000000E+00  0.00000000000E+00  0.58042578991E+03  0.58042578993E+03  0.50400001928E-02 0.  1.
        1   -1    0    0  501    0  0.00000000000E+00  0.00000000000E+00 -0.19710449204E+04  0.19710449204E+04  0.50400001928E-02 0. -1.
    10030    2    1    2    0    0  0.00000000000E+00  0.00000000000E+00 -0.13906191305E+04  0.25514707104E+04  0.21392010704E+04 0.  0.
        5    1    3    3  502    0  0.89907040399E+02  0.56291463848E+03 -0.17747500621E+04  0.18640590224E+04  0.46999998093E+01 0. -1.
       -5    1    3    3    0  502 -0.89907040399E+02 -0.56291463848E+03  0.38413093158E+03  0.68741168795E+03  0.46999998093E+01 0.  1.
</event>
<event>
 5   0  0.1281470E-04  0.2045907E+04  0.7818609E-02  0.8585453E-01
        2   -1    0    0  501    0  0.00000000000E+00  0.00000000000E+00  0.10977401532E+04  0.10977401532E+04  0.25500000920E-02 0.  1.
       -2   -1    0    0    0  501  0.00000000000E+00  0.00000000000E+00 -0.95326188902E+03  0.95326188903E+03  0.25500000920E-02 0. -1.
    10030    2    1    2    0    0  0.00000000000E+00  0.00000000000E+00  0.14447826420E+03  0.20510020423E+04  0.20459069892E+04 0.  0.
        3    1    3    3  502    0  0.21886273055E+03  0.57249091000E+01  0.10739774327E+04  0.10960662414E+04  0.10100000352E+00 0.  1.
       -3    1    3    3    0  502 -0.21886273055E+03 -0.57249091000E+01 -0.92949916847E+03  0.95493580087E+03  0.10100000352E+00 0. -1.
</event>
<event>
 5   0  0.1235817E-04  0.2117145E+04  0.7818609E-02  0.8553728E-01
        2   -1    0    0  501    0  0.00000000000E+00  0.00000000000E+00  0.12158584908E+04  0.12158584908E+04  0.25500000920E-02 0.  1.
       -2   -1    0    0    0  501  0.00000000000E+00  0.00000000000E+00 -0.92163366079E+03  0.92163366079E+03  0.25500000920E-02 0. -1.
    10030    2    1    2    0    0  0.00000000000E+00  0.00000000000E+00  0.29422483005E+03  0.21374921516E+04  0.21171453535E+04 0.  0.
        1    1    3    3  502    0 -0.55779507950E+03  0.84530208831E+03 -0.16391503634E+03  0.10259332875E+04  0.50400001928E-02 0. -1.
       -1    1    3    3    0  502  0.55779507950E+03 -0.84530208831E+03  0.45813986639E+03  0.11115588641E+04  0.50400001928E-02 0.  1.
</event>
<event>
 5   0  0.5846187E-05  0.2119626E+04  0.7818609E-02  0.8552647E-01
       -1   -1    0    0    0  501  0.00000000000E+00  0.00000000000E+00  0.60213433920E+03  0.60213433923E+03  0.50400001928E-02 0. -1.
        1   -1    0    0  501    0  0.00000000000E+00  0.00000000000E+00 -0.18653706889E+04  0.18653706889E+04  0.50400001928E-02 0.  1.
    10030    2    1    2    0    0  0.00000000000E+00  0.00000000000E+00 -0.12632363497E+04  0.24675050282E+04  0.21196261436E+04 0.  0.
        5    1    3    3  502    0  0.35904289350E+03  0.95285035378E+02 -0.17870888101E+04  0.18252943715E+04  0.46999998093E+01 0.  1.
       -5    1    3    3    0  502 -0.35904289350E+03 -0.95285035378E+02  0.52385246037E+03  0.64221065669E+03  0.46999998093E+01 0. -1.
</event>
<event>
 5   0  0.5933905E-05  0.2150009E+04  0.7818609E-02  0.8539528E-01
        1   -1    0    0  501    0  0.00000000000E+00  0.00000000000E+00  0.28171627155E+04  0.28171627155E+04  0.50400001928E-02 0. -1.
       -1   -1    0    0    0  501  0.00000000000E+00  0.00000000000E+00 -0.41021237594E+03  0.41021237597E+03  0.50400001928E-02 0.  1.
    10030    2    1    2    0    0  0.00000000000E+00  0.00000000000E+00  0.24069503395E+04  0.32273750914E+04  0.21500093125E+04 0.  0.
        2    1    3    3  502    0 -0.31812632243E+03 -0.79201896067E+03  0.21845282487E+04  0.23453490274E+04  0.25500000920E-02 0. -1.
       -2    1    3    3    0  502  0.31812632243E+03  0.79201896067E+03  0.22242209081E+03  0.88202606400E+03  0.25500000920E-02 0.  1.
</event>
<event>
 5   0  0.5846187E-05  0.2070007E+04  0.7818609E-02  0.8574572E-01
       -1   -1    0    0    0  501  0.00000000000E+00  0.00000000000E+00  0.82673480326E+03  0.82673480328E+03  0.50400001928E-02 0.  1.
        1   -1    0    0  501    0  0.00000000000E+00  0.00000000000E+00 -0.12957385512E+04  0.12957385512E+04  0.50400001928E-02 0. -1.
    10030    2    1    2    0    0  0.00000000000E+00  0.00000000000E+00 -0.46900374794E+03  0.21224733545E+04  0.20700069142E+04 0.  0.
        5    1    3    3  502    0 -0.60740758404E+03 -0.63791766377E+03  0.32271227539E+03  0.93810885380E+03  0.46999998093E+01 0.  1.
       -5    1    3    3    0  502  0.60740758404E+03  0.63791766377E+03 -0.79171602333E+03  0.11843645007E+04  0.46999998093E+01 0. -1.
</event>
<event>
 5   0  0.5933905E-05  0.1925612E+04  0.7818609E-02  0.8642212E-01
        1   -1    0    0  501    0  0.00000000000E+00  0.00000000000E+00  0.10414910591E+04  0.10414910591E+04  0.50400001928E-02 0.  1.
       -1   -1    0    0    0  501  0.00000000000E+00  0.00000000000E+00 -0.89006520280E+03  0.89006520281E+03  0.50400001928E-02 0. -1.
    10030    2    1    2    0    0  0.00000000000E+00  0.00000000000E+00  0.15142585630E+03  0.19315562619E+04  0.19256115400E+04 0.  0.
        2    1    3    3  502    0 -0.88470659797E+03  0.33969119142E+03 -0.94809181454E+02  0.95240991748E+03  0.25500000920E-02 0. -1.
       -2    1    3    3    0  502  0.88470659797E+03 -0.33969119142E+03  0.24623503776E+03  0.97914634445E+03  0.25500000920E-02 0.  1.
</event>
<event>
 5   0  0.5846187E-05  0.2109564E+04  0.7818609E-02  0.8557042E-01
       -1   -1    0    0    0  501  0.00000000000E+00  0.00000000000E+00  0.10800454656E+04  0.10800454656E+04  0.50400001928E-02 0. -1.
        1   -1    0    0  501    0  0.00000000000E+00  0.00000000000E+00 -0.10301090301E+04  0.10301090302E+04  0.50400001928E-02 0.  1.
    10030    2    1    2    0    0  0.00000000000E+00  0.00000000000E+00  0.49936435421E+02  0.21101544957E+04  0.21095635445E+04 0.  0.
        5    1    3    3  502    0 -0.27524518285E+03 -0.11064947375E+03  0.10374470414E+04  0.10790373813E+04  0.46999998093E+01 0. -1.
       -5    1    3    3    0  502  0.27524518285E+03  0.11064947375E+03 -0.98751060594E+03  0.10311171144E+04  0.46999998093E+01 0.  1.
</event>
<event>
 5   0  0.5933905E-05  0.2518624E+04  0.7818609E-02  0.8396380E-01
        1   -1    0    0  501    0  0.00000000000E+00  0.00000000000E+00  0.18501509547E+04  0.18501509547E+04  0.50400001928E-02 0.  1.
       -1   -1    0    0    0  501  0.00000000000E+00  0.00000000000E+00 -0.85715548030E+03  0.85715548031E+03  0.50400001928E-02 0. -1.
    10030    2    1    2    0    0  0.00000000000E+00  0.00000000000E+00  0.99299547438E+03  0.27073064350E+04  0.25186242516E+04 0.  0.
        2    1    3    3  502    0 -0.29247191225E+03 -0.12064816090E+04  0.72383481291E+03  0.14370367179E+04  0.25500000920E-02 0.  1.
       -2    1    3    3    0  502  0.29247191225E+03  0.12064816090E+04  0.26916066147E+03  0.12702697170E+04  0.25500000920E-02 0. -1.
</event>
<event>
 5   0  0.1281470E-04  0.2072292E+04  0.7818609E-02  0.8573548E-01
        2   -1    0    0  501    0  0.00000000000E+00  0.00000000000E+00  0.17764461097E+04  0.17764461097E+04  0.25500000920E-02 0.  1.
       -2   -1    0    0    0  501  0.00000000000E+00  0.00000000000E+00 -0.60435185443E+03  0.60435185443E+03  0.25500000920E-02 0. -1.
    10030    2    1    2    0    0  0.00000000000E+00  0.00000000000E+00  0.11720942553E+04  0.23807979642E+04  0.20722919685E+04 0.  0.
        3    1    3    3  502    0  0.49902852199E+03 -0.79263361808E+03  0.77029498321E+02  0.93980374126E+03  0.10100000352E+00 0. -1.
       -3    1    3    3    0  502 -0.49902852199E+03  0.79263361808E+03  0.10950647570E+04  0.14409942229E+04  0.10100000352E+00 0.  1.
</event>
<event>
 5   0  0.1349252E-04  0.2081737E+04  0.7818609E-02  0.8569331E-01
        2   -1    0    0  501    0  0.00000000000E+00  0.00000000000E+00  0.16887701820E+04  0.16887701820E+04  0.25500000920E-02 0. -1.
       -2   -1    0    0    0  501  0.00000000000E+00  0.00000000000E+00 -0.64153607085E+03  0.64153607085E+03  0.25500000920E-02 0.  1.
    10030    2    1    2    0    0  0.00000000000E+00  0.00000000000E+00  0.10472341111E+04  0.23303062528E+04  0.20817367625E+04 0.  0.
        2    1    3    3  502    0  0.46502685904E+03  0.90282368230E+03  0.77904357745E+03  0.12799412004E+04  0.25500000920E-02 0.  1.
       -2    1    3    3    0  502 -0.46502685904E+03 -0.90282368230E+03  0.26819053367E+03  0.10503650524E+04  0.25500000920E-02 0. -1.
</event>
<event>
 5   0  0.1235817E-04  0.1802740E+04  0.7818609E-02  0.8704844E-01
       -2   -1    0    0    0  501  0.00000000000E+00  0.00000000000E+00  0.66046848800E+03  0.66046848800E+03  0.25500000920E-02 0.  1.
        2   -1    0    0  501    0  0.00000000000E+00  0.00000000000E+00 -0.12301389467E+04  0.12301389467E+04  0.25500000920E-02 0. -1.
    10030    2    1    2    0    0  0.00000000000E+00  0.00000000000E+00 -0.56967045867E+03  0.18906074347E+04  0.18027401478E+04 0.  0.
        1    1    3    3  502    0 -0.73405564047E+02  0.86850004314E+03 -0.52578859085E+03  0.10179068445E+04  0.50400001928E-02 0. -1.
       -1    1    3    3    0  502  0.73405564047E+02 -0.86850004314E+03 -0.43881867815E+02  0.87270059018E+03  0.50400001928E-02 0.  1.
</event>
<event>
 5   0  0.5933905E-05  0.2087201E+04  0.7818609E-02  0.8566902E-01
        1   -1    0    0  501    0  0.00000000000E+00  0.00000000000E+00  0.64508549375E+03  0.64508549377E+03  0.50400001928E-02 0.  1.
       -1   -1    0    0    0  501  0.00000000000E+00  0.00000000000E+00 -0.16883072350E+04  0.16883072350E+04  0.50400001928E-02 0. -1.
    10030    2    1    2    0    0  0.00000000000E+00  0.00000000000E+00 -0.10432217412E+04  0.23333927287E+04  0.20872014817E+04 0.  0.
        2    1    3    3  502    0 -0.35985676076E+02 -0.73351506070E+03  0.30730660543E+03  0.79610091251E+03  0.25500000920E-02 0.  1.
       -2    1    3    3    0  502  0.35985676076E+02  0.73351506070E+03 -0.13505283466E+04  0.15372918162E+04  0.25500000920E-02 0. -1.
</event>
<event>
 5   0  0.1252477E-04  0.2084859E+04  0.7818609E-02  0.8567943E-01
       -2   -1    0    0    0  501  0.00000000000E+00  0.00000000000E+00  0.85969117366E+03  0.85969117366E+03  0.25500000920E-02 0. -1.
        2   -1    0    0  501    0  0.00000000000E+00  0.00000000000E+00 -0.12640106340E+04  0.12640106340E+04  0.25500000920E-02 0.  1.
    10030    2    1    2    0    0  0.00000000000E+00  0.00000000000E+00 -0.40431946036E+03  0.21237018077E+04  0.20848585424E+04 0.  0.
        4    1    3    3  502    0  0.96150092761E+03 -0.36042504446E+03 -0.38513640903E+03  0.10966867889E+04  0.12699999809E+01 0.  1.
       -4    1    3    3    0  502 -0.96150092761E+03  0.36042504446E+03 -0.19183051330E+02  0.10270150188E+04  0.12699999809E+01 0. -1.
</event>
<event>
 5   0  0.6052292E-05  0.2090225E+04  0.7818609E-02  0.8565562E-01
       -1   -1    0    0    0  501  0.00000000000E+00  0.00000000000E+00  0.81681154752E+03  0.81681154754E+03  0.50400001928E-02 0.  1.
        1   -1    0    0  501    0  0.00000000000E+00  0.00000000000E+00 -0.13372235538E+04  0.13372235538E+04  0.50400001928E-02 0. -1.
    10030    2    1    2    0    0  0.00000000000E+00  0.00000000000E+00 -0.52041200628E+03  0.21540351013E+04  0.20902245242E+04 0.  0.
        1    1    3    3  502    0  0.40952644401E+03  0.95153354871E+02 -0.12462300049E+04  0.13152396338E+04  0.50400001928E-02 0. -1.
       -1    1    3    3    0  502 -0.40952644401E+03 -0.95153354871E+02  0.72581799858E+03  0.83879546755E+03  0.50400001928E-02 0.  1.
</event>
<event>
 5   0  0.6263616E-05  0.2113128E+04  0.7818609E-02  0.8555482E-01
       -1   -1    0    0    0  501  0.00000000000E+00  0.00000000000E+00  0.53032981247E+03  0.53032981250E+03  0.50400001928E-02 0.  1.
        1   -1    0    0  501    0  0.00000000000E+00  0.00000000000E+00 -0.21049678156E+04  0.21049678156E+04  0.50400001928E-02 0. -1.
    10030    2    1    2    0    0  0.00000000000E+00  0.00000000000E+00 -0.15746380031E+04  0.26352976281E+04  0.21131277169E+04 0.  0.
        4    1    3    3  502    0 -0.26927606399E+03  0.36240185705E+03  0.40396636943E+03  0.60583425552E+03  0.12699999809E+01 0.  1.
       -4    1    3    3    0  502  0.26927606399E+03 -0.36240185705E+03 -0.19786043725E+04  0.20294633726E+04  0.12699999809E+01 0. -1.
</event>
<event>
 5   0  0.1281470E-04  0.2094452E+04  0.7818609E-02  0.8563691E-01
       -2   -1    0    0    0  501  0.00000000000E+00  0.00000000000E+00  0.43554448035E+03  0.43554448035E+03  0.25500000920E-02 0.  1.
        2   -1    0    0  501    0  0.00000000000E+00  0.00000000000E+00 -0.25179563225E+04  0.25179563225E+04  0.25500000920E-02 0. -1.
    10030    2    1    2    0    0  0.00000000000E+00  0.00000000000E+00 -0.20824118422E+04  0.29535008029E+04  0.20944516973E+04 0.  0.
        3    1    3    3  502    0  0.29396461722E+03 -0.25105459526E+03 -0.24136554525E+04  0.24444173661E+04  0.10100000352E+00 0. -1.
       -3    1    3    3    0  502 -0.29396461722E+03  0.25105459526E+03  0.33124361037E+03  0.50908343676E+03  0.10100000352E+00 0.  1.
</event>
<event>
 5   0  0.5846187E-05  0.2140399E+04  0.7818609E-02  0.8543653E-01
        1   -1    0    0  501    0  0.00000000000E+00  0.00000000000E+00  0.15286110910E+04  0.15286110910E+04  0.50400001928E-02 0. -1.
       -1   -1    0    0    0  501  0.00000000000E+00  0.00000000000E+00 -0.74925968182E+03  0.74925968184E+03  0.50400001928E-02 0.  1.
    10030    2    1    2    0    0  0.00000000000E+00  0.00000000000E+00  0.77935140915E+03  0.22778707728E+04  0.21403987102E+04 0.  0.
        5    1    3    3  502    0  0.79789085185E+03 -0.56785003255E+03 -0.69573956014E+02  0.98180756581E+03  0.46999998093E+01 0.  1.
       -5    1    3    3    0  502 -0.79789085185E+03  0.56785003255E+03  0.84892536516E+03  0.12960632070E+04  0.46999998093E+01 0. -1.
</event>
<event>
 5   0  0.1281470E-04  0.1985638E+04  0.7818609E-02  0.8613365E-01
       -2   -1    0    0    0  501  0.00000000000E+00  0.00000000000E+00  0.50352988359E+03  0.50352988360E+03  0.25500000920E-02 0.  1.
        2   -1    0    0  501    0  0.00000000000E+00  0.00000000000E+00 -0.19575600026E+04  0.19575600026E+04  0.25500000920E-02 0. -1.
    10030    2    1    2    0    0  0.00000000000E+00  0.00000000000E+00 -0.14540301190E+04  0.24610898862E+04  0.19856383963E+04 0.  0.
        3    1    3    3  502    0 -0.68870646991E+03 -0.68418068223E+03 -0.46919216739E+03  0.10782212703E+04  0.10100000352E+00 0.  1.
       -3    1    3    3    0  502  0.68870646991E+03  0.68418068223E+03 -0.98483795162E+03  0.13828686159E+04  0.10100000352E+00 0. -1.
</event>
<event>
 5   0  0.6263616E-05  0.2575238E+04  0.7818609E-02  0.8376661E-01
        1   -1    0    0  501    0  0.00000000000E+00  0.00000000000E+00  0.28995082704E+04  0.28995082704E+04  0.50400001928E-02 0. -1.
       -1   -1    0    0    0  501  0.00000000000E+00  0.00000000000E+00 -0.57180809957E+03  0.57180809960E+03  0.50400001928E-02 0.  1.
    10030    2    1    2    0    0  0.00000000000E+00  0.00000000000E+00  0.23277001708E+04  0.34713163700E+04  0.25752377085E+04 0.  0.
        4    1    3    3  502    0  0.37511872487E+03  0.81227853710E+03 -0.84341733601E+02  0.89867993218E+03  0.12699999809E+01 0.  1.
       -4    1    3    3    0  502 -0.37511872487E+03 -0.81227853710E+03  0.24120419044E+04  0.25726364378E+04  0.12699999809E+01 0. -1.
</event>
<event>
 5   0  0.5846187E-05  0.2066005E+04  0.7818609E-02  0.8576368E-01
        1   -1    0    0  501    0  0.00000000000E+00  0.00000000000E+00  0.15539596312E+04  0.15539596312E+04  0.50400001928E-02 0.  1.
       -1   -1    0    0    0  501  0.00000000000E+00  0.00000000000E+00 -0.68669385168E+03  0.68669385169E+03  0.50400001928E-02 0. -1.
    10030    2    1    2    0    0  0.00000000000E+00  0.00000000000E+00  0.86726577953E+03  0.22406534829E+04  0.20660053480E+04 0.  0.
        5    1    3    3  502    0 -0.28604890560E+03  0.80948005915E+02 -0.63928660492E+03  0.70504326767E+03  0.46999998093E+01 0. -1.
       -5    1    3    3    0  502  0.28604890560E+03 -0.80948005915E+02  0.15065523845E+04  0.15356102152E+04  0.46999998093E+01 0.  1.
</event>
<event>
 5   0  0.1325673E-04  0.2110284E+04  0.7818609E-02  0.8556727E-01
        2   -1    0    0  501    0  0.00000000000E+00  0.00000000000E+00  0.23697348805E+04  0.23697348805E+04  0.25500000920E-02 0. -1.
       -2   -1    0    0    0  501  0.00000000000E+00  0.00000000000E+00 -0.46980982970E+03  0.46980982971E+03  0.25500000920E-02 0.  1.
    10030    2    1    2    0    0  0.00000000000E+00  0.00000000000E+00  0.18999250508E+04  0.28395447103E+04  0.21102840953E+04 0.  0.
        5    1    3    3  502    0  0.24718192406E+03 -0.58826836726E+03  0.20806808886E+04  0.21763303117E+04  0.46999998093E+01 0. -1.
       -5    1    3    3    0  502 -0.24718192406E+03  0.58826836726E+03 -0.18075583779E+03  0.66321439851E+03  0.46999998093E+01 0.  1.
</event>
<event>
 5   0  0.6052292E-05  0.2080060E+04  0.7818609E-02  0.8570079E-01
       -1   -1    0    0    0  501  0.00000000000E+00  0.00000000000E+00  0.45673834965E+03  0.45673834967E+03  0.50400001928E-02 0.  1.
        1   -1    0    0  501    0  0.00000000000E+00  0.00000000000E+00 -0.23682309919E+04  0.23682309919E+04  0.50400001928E-02 0. -1.
    10030    2    1    2    0    0  0.00000000000E+00  0.00000000000E+00 -0.19114926422E+04  0.28249693416E+04  0.20800595327E+04 0.  0.
        1    1    3    3  502    0 -0.23135117395E+03 -0.67673628807E+03  0.69761176204E+02  0.71858332224E+03  0.50400001928E-02 0.  1.
       -1    1    3    3    0  502  0.23135117395E+03  0.67673628807E+03 -0.19812538184E+04  0.21063860193E+04  0.50400001928E-02 0. -1.
</event>
<event>
 5   0  0.1325673E-04  0.2097305E+04  0.7818609E-02  0.8562431E-01
       -2   -1    0    0    0  501  0.00000000000E+00  0.00000000000E+00  0.13271479609E+04  0.13271479609E+04  0.25500000920E-02 0. -1.
        2   -1    0    0  501    0  0.00000000000E+00  0.00000000000E+00 -0.82859805577E+03  0.82859805578E+03  0.25500000920E-02 0.  1.
    10030    2    1    2    0    0  0.00000000000E+00  0.00000000000E+00  0.49854990513E+03  0.21557460167E+04  0.20973051472E+04 0.  0.
        5    1    3    3  502    0 -0.10868675297E+03  0.97550313006E+03 -0.13010456776E+03  0.99013557434E+03  0.46999998093E+01 0. -1.
       -5    1    3    3    0  502  0.10868675297E+03 -0.97550313006E+03  0.62865447289E+03  0.11656104423E+04  0.46999998093E+01 0.  1.
</event>
<event>
 5   0  0.5933905E-05  0.2098201E+04  0.7818609E-02  0.8562036E-01
       -1   -1    0    0    0  501  0.00000000000E+00  0.00000000000E+00  0.11319406832E+04  0.11319406833E+04  0.50400001928E-02 0.  1.
        1   -1    0    0  501    0  0.00000000000E+00  0.00000000000E+00 -0.97232333825E+03  0.97232333826E+03  0.50400001928E-02 0. -1.
    10030    2    1    2    0    0  0.00000000000E+00  0.00000000000E+00  0.15961734499E+03  0.21042640215E+04  0.20982014621E+04 0.  0.
        2    1    3    3  502    0  0.87804411582E+02 -0.56837375483E+03 -0.80013977793E+03  0.98538419112E+03  0.25500000920E-02 0. -1.
       -2    1    3    3    0  502 -0.87804411582E+02  0.56837375483E+03  0.95975712292E+03  0.11188798304E+04  0.25500000920E-02 0.  1.
</event>
<event>
 5   0  0.6221148E-05  0.1605869E+04  0.7818609E-02  0.8816950E-01
        1   -1    0    0  501    0  0.00000000000E+00  0.00000000000E+00  0.79920742274E+03  0.79920742275E+03  0.50400001928E-02 0.  1.
       -1   -1    0    0    0  501  0.00000000000E+00  0.00000000000E+00 -0.80667913574E+03  0.80667913575E+03  0.50400001928E-02 0. -1.
    10030    2    1    2    0    0  0.00000000000E+00  0.00000000000E+00 -0.74717130012E+01  0.16058865585E+04  0.16058691766E+04 0.  0.
        3    1    3    3  502    0  0.74595562030E+03  0.29707575053E+03 -0.41281063015E+01  0.80294510427E+03  0.10100000352E+00 0. -1.
       -3    1    3    3    0  502 -0.74595562030E+03 -0.29707575053E+03 -0.33436066998E+01  0.80294145423E+03  0.10100000352E+00 0.  1.
</event>
<event>
 5   0  0.5846187E-05  0.2164395E+04  0.7818609E-02  0.8533395E-01
       -1   -1    0    0    0  501  0.00000000000E+00  0.00000000000E+00  0.58592493654E+03  0.58592493657E+03  0.50400001928E-02 0. -1.
        1   -1    0    0  501    0  0.00000000000E+00  0.00000000000E+00 -0.19988080986E+04  0.19988080986E+04  0.50400001928E-02 0.  1.
    10030    2    1    2    0    0  0.00000000000E+00  0.00000000000E+00 -0.14128831620E+04  0.25847330351E+04  0.21643950733E+04 0.  0.
        5    1    3    3  502    0  0.79709935760E+03  0.63746079204E+02 -0.15772284311E+04  0.17683615474E+04  0.46999998093E+01 0.  1.
       -5    1    3    3    0  502 -0.79709935760E+03 -0.63746079204E+02  0.16434526908E+03  0.81637148772E+03  0.46999998093E+01 0. -1.
</event>
<event>
 5   0  0.1349252E-04  0.2093847E+04  0.7818609E-02  0.8563959E-01
        2   -1    0    0  501    0  0.00000000000E+00  0.00000000000E+00  0.12799715244E+04  0.12799715244E+04  0.25500000920E-02 0.  1.
       -2   -1    0    0    0  501  0.00000000000E+00  0.00000000000E+00 -0.85630688196E+03  0.85630688196E+03  0.25500000920E-02 0. -1.
    10030    2    1    2    0    0  0.00000000000E+00  0.00000000000E+00  0.42366464247E+03  0.21362784064E+04  0.20938466277E+04 0.  0.
        2    1    3    3  502    0 -0.93758035891E+02  0.36055826166E+03 -0.78638922719E+03  0.87017288282E+03  0.25500000920E-02 0. -1.
       -2    1    3    3    0  502  0.93758035891E+02 -0.36055826166E+03  0.12100538697E+04  0.12661055236E+04  0.25500000920E-02 0.  1.
</event>
<event>
 5   0  0.1235817E-04  0.2116226E+04  0.7818609E-02  0.8554129E-01
        2   -1    0    0  501    0  0.00000000000E+00  0.00000000000E+00  0.99437812313E+03  0.99437812313E+03  0.25500000920E-02 0.  1.
       -2   -1    0    0    0  501  0.00000000000E+00  0.00000000000E+00 -0.11259326661E+04  0.11259326661E+04  0.25500000920E-02 0. -1.
    10030    2    1    2    0    0  0.00000000000E+00  0.00000000000E+00 -0.13155454299E+03  0.21203107893E+04  0.21162257075E+04 0.  0.
        1    1    3    3  502    0  0.12739080706E+01  0.91938940284E+03  0.45899356142E+03  0.10275960229E+04  0.50400001928E-02 0.  1.
       -1    1    3    3    0  502 -0.12739080706E+01 -0.91938940284E+03 -0.59054810442E+03  0.10927147663E+04  0.50400001928E-02 0. -1.
</event>
<event>
 5   0  0.6052292E-05  0.2054396E+04  0.7818609E-02  0.8581603E-01
       -1   -1    0    0    0  501  0.00000000000E+00  0.00000000000E+00  0.93125827347E+03  0.93125827348E+03  0.50400001928E-02 0.  1.
        1   -1    0    0  501    0  0.00000000000E+00  0.00000000000E+00 -0.11330214293E+04  0.11330214293E+04  0.50400001928E-02 0. -1.
    10030    2    1    2    0    0  0.00000000000E+00  0.00000000000E+00 -0.20176315582E+03  0.20642797028E+04  0.20543958529E+04 0.  0.
        1    1    3    3  502    0 -0.42174991990E+03  0.58241566833E+03 -0.83793264052E+03  0.11041793857E+04  0.50400001928E-02 0. -1.
       -1    1    3    3    0  502  0.42174991990E+03 -0.58241566833E+03  0.63616948470E+03  0.96010031712E+03  0.50400001928E-02 0.  1.
</event>
<event>
 5   0  0.6221148E-05  0.1643052E+04  0.7818609E-02  0.8794527E-01
       -1   -1    0    0    0  501  0.00000000000E+00  0.00000000000E+00  0.59789296399E+03  0.59789296401E+03  0.50400001928E-02 0. -1.
        1   -1    0    0  501    0  0.00000000000E+00  0.00000000000E+00 -0.11288061499E+04  0.11288061499E+04  0.50400001928E-02 0.  1.
    10030    2    1    2    0    0  0.00000000000E+00  0.00000000000E+00 -0.53091318590E+03  0.17266991139E+04  0.16430523482E+04 0.  0.
        3    1    3    3  502    0 -0.66191551965E+03 -0.36310612066E+03  0.74958623901E+02  0.75868110265E+03  0.10100000352E+00 0. -1.
       -3    1    3    3    0  502  0.66191551965E+03  0.36310612066E+03 -0.60587180980E+03  0.96801801127E+03  0.10100000352E+00 0.  1.
</event>
<event>
 5   0  0.6221148E-05  0.1559539E+04  0.7818609E-02  0.8845798E-01
        1   -1    0    0  501    0  0.00000000000E+00  0.00000000000E+00  0.10993532904E+04  0.10993532904E+04  0.50400001928E-02 0.  1.
       -1   -1    0    0    0  501  0.00000000000E+00  0.00000000000E+00 -0.55308908610E+03  0.55308908612E+03  0.50400001928E-02 0. -1.
    10030    2    1    2    0    0  0.00000000000E+00  0.00000000000E+00  0.54626420426E+03  0.16524423765E+04  0.15595387866E+04 0.  0.
        3    1    3    3  502    0  0.29964653919E+03  0.18934974154E+03 -0.46279247744E+03  0.58293932827E+03  0.10100000352E+00 0. -1.
       -3    1    3    3    0  502 -0.29964653919E+03 -0.18934974154E+03  0.10090566817E+04  0.10695030482E+04  0.10100000352E+00 0.  1.
</event>
<event>
 5   0  0.5933905E-05  0.2092099E+04  0.7818609E-02  0.8564732E-01
        1   -1    0    0  501    0  0.00000000000E+00  0.00000000000E+00  0.48154074747E+03  0.48154074750E+03  0.50400001928E-02 0.  1.
       -1   -1    0    0    0  501  0.00000000000E+00  0.00000000000E+00 -0.22723302710E+04  0.22723302710E+04  0.50400001928E-02 0. -1.
    10030    2    1    2    0    0  0.00000000000E+00  0.00000000000E+00 -0.17907895235E+04  0.27538710185E+04  0.20920990581E+04 0.  0.
        2    1    3    3  502    0 -0.72728283500E+03 -0.51455225068E+03 -0.16169916116E+04  0.18461761055E+04  0.25500000920E-02 0. -1.
       -2    1    3    3    0  502  0.72728283500E+03  0.51455225068E+03 -0.17379791194E+03  0.90769491294E+03  0.25500000920E-02 0.  1.
</event>
<event>
 5   0  0.1235817E-04  0.2119428E+04  0.7818609E-02  0.8552733E-01
       -2   -1    0    0    0  501  0.00000000000E+00  0.00000000000E+00  0.79646893818E+03  0.79646893818E+03  0.25500000920E-02 0. -1.
        2   -1    0    0  501    0  0.00000000000E+00  0.00000000000E+00 -0.14099655081E+04  0.14099655081E+04  0.25500000920E-02 0.  1.
    10030    2    1    2    0    0  0.00000000000E+00  0.00000000000E+00 -0.61349656995E+03  0.22064344463E+04  0.21194279711E+04 0.  0.
        1    1    3    3  502    0 -0.26267141184E+03  0.89691518661E+03  0.21329917831E+03  0.95861862180E+03  0.50400001928E-02 0. -1.
       -1    1    3    3    0  502  0.26267141184E+03 -0.89691518661E+03 -0.82679574826E+03  0.12478158245E+04  0.50400001928E-02 0.  1.
</event>
<event>
 5   0  0.1281470E-04  0.2112740E+04  0.7818609E-02  0.8555652E-01
        2   -1    0    0  501    0  0.00000000000E+00  0.00000000000E+00  0.11898629657E+04  0.11898629657E+04  0.25500000920E-02 0. -1.
       -2   -1    0    0    0  501  0.00000000000E+00  0.00000000000E+00 -0.93785429682E+03  0.93785429682E+03  0.25500000920E-02 0.  1.
    10030    2    1    2    0    0  0.00000000000E+00  0.00000000000E+00  0.25200866892E+03  0.21277172626E+04  0.21127404905E+04 0.  0.
        3    1    3    3  502    0  0.94492999870E+03 -0.36814092210E+03 -0.17189253601E+03  0.10285754688E+04  0.10100000352E+00 0.  1.
       -3    1    3    3    0  502 -0.94492999870E+03  0.36814092210E+03  0.42390120493E+03  0.10991417937E+04  0.10100000352E+00 0. -1.
</event>
<event>
 5   0  0.6221148E-05  0.2108295E+04  0.7818609E-02  0.8557598E-01
        1   -1    0    0  501    0  0.00000000000E+00  0.00000000000E+00  0.76114902835E+03  0.76114902837E+03  0.50400001928E-02 0. -1.
       -1   -1    0    0    0  501  0.00000000000E+00  0.00000000000E+00 -0.14599333803E+04  0.14599333804E+04  0.50400001928E-02 0.  1.
    10030    2    1    2    0    0  0.00000000000E+00  0.00000000000E+00 -0.69878435199E+03  0.22210824087E+04  0.21082949262E+04 0.  0.
        3    1    3    3  502    0 -0.52558057935E+03  0.83206097635E+03  0.48526420578E+02  0.98535031205E+03  0.10100000352E+00 0.  1.
       -3    1    3    3    0  502  0.52558057935E+03 -0.83206097635E+03 -0.74731077257E+03  0.12357320967E+04  0.10100000352E+00 0. -1.
</event>
<event>
 5   0  0.1252477E-04  0.2088485E+04  0.7818609E-02  0.8566333E-01
       -2   -1    0    0    0  501  0.00000000000E+00  0.00000000000E+00  0.57038140728E+03  0.57038140729E+03  0.25500000920E-02 0. -1.
        2   -1    0    0  501    0  0.00000000000E+00  0.00000000000E+00 -0.19117782418E+04  0.19117782418E+04  0.25500000920E-02 0.  1.
    10030    2    1    2    0    0  0.00000000000E+00  0.00000000000E+00 -0.13413968345E+04  0.24821596491E+04  0.20884853497E+04 0.  0.
        4    1    3    3  502    0  0.86777574804E+03  0.58066671167E+03 -0.65257345476E+03  0.12312848191E+04  0.12699999809E+01 0. -1.
       -4    1    3    3    0  502 -0.86777574804E+03 -0.58066671167E+03 -0.68882337973E+03  0.12508748300E+04  0.12699999809E+01 0.  1.
</event>
<event>
 5   0  0.6221148E-05  0.2007597E+04  0.7818609E-02  0.8603077E-01
       -1   -1    0    0    0  501  0.00000000000E+00  0.00000000000E+00  0.10692430304E+04  0.10692430304E+04  0.50400001928E-02 0. -1.
        1   -1    0    0  501    0  0.00000000000E+00  0.00000000000E+00 -0.94235919991E+03  0.94235919993E+03  0.50400001928E-02 0.  1.
    10030    2    1    2    0    0  0.00000000000E+00  0.00000000000E+00  0.12688383048E+03  0.20116022303E+04  0.20075965797E+04 0.  0.
        3    1    3    3  502    0  0.60093097447E+03  0.79881596416E+03 -0.28315991880E+02  0.10000133930E+04  0.10100000352E+00 0. -1.
       -3    1    3    3    0  502 -0.60093097447E+03 -0.79881596416E+03  0.15519982236E+03  0.10115888373E+04  0.10100000352E+00 0.  1.
</event>
<event>
 5   0  0.6221148E-05  0.2094208E+04  0.7818609E-02  0.8563799E-01
       -1   -1    0    0    0  501  0.00000000000E+00  0.00000000000E+00  0.79799053645E+03  0.79799053646E+03  0.50400001928E-02 0.  1.
        1   -1    0    0  501    0  0.00000000000E+00  0.00000000000E+00 -0.13739841480E+04  0.13739841480E+04  0.50400001928E-02 0. -1.
    10030    2    1    2    0    0  0.00000000000E+00  0.00000000000E+00 -0.57599361155E+03  0.21719746845E+04  0.20942075803E+04 0.  0.
        3    1    3    3  502    0 -0.99799645110E+02 -0.73563678713E+03 -0.10538662203E+04  0.12890909480E+04  0.10100000352E+00 0. -1.
       -3    1    3    3    0  502  0.99799645110E+02  0.73563678713E+03  0.47787260874E+03  0.88288373647E+03  0.10100000352E+00 0.  1.
</event>
<event>
 5   0  0.1281470E-04  0.2106285E+04  0.7818609E-02  0.8558480E-01
        2   -1    0    0  501    0  0.00000000000E+00  0.00000000000E+00  0.11667465892E+04  0.11667465892E+04  0.25500000920E-02 0. -1.
       -2   -1    0    0    0  501  0.00000000000E+00  0.00000000000E+00 -0.95060003996E+03  0.95060003997E+03  0.25500000920E-02 0.  1.
    10030    2    1    2    0    0  0.00000000000E+00  0.00000000000E+00  0.21614654921E+03  0.21173466291E+04  0.21062852174E+04 0.  0.
        3    1    3    3  502    0 -0.73416462313E+03  0.44301533733E+03 -0.50656971029E+03  0.99592829288E+03  0.10100000352E+00 0.  1.
       -3    1    3    3    0  502  0.73416462313E+03 -0.44301533733E+03  0.72271625950E+03  0.11214183363E+04  0.10100000352E+00 0. -1.
</event>
<event>
 5   0  0.6263616E-05  0.2102888E+04  0.7818609E-02  0.8559972E-01
        1   -1    0    0  501    0  0.00000000000E+00  0.00000000000E+00  0.12187892658E+04  0.12187892658E+04  0.50400001928E-02 0. -1.
       -1   -1    0    0    0  501  0.00000000000E+00  0.00000000000E+00 -0.90707575687E+03  0.90707575688E+03  0.50400001928E-02 0.  1.
    10030    2    1    2    0    0  0.00000000000E+00  0.00000000000E+00  0.31171350894E+03  0.21258650227E+04  0.21028877248E+04 0.  0.
        4    1    3    3  502    0 -0.34005814271E+03  0.99491726231E+03  0.15007733025E+03  0.10620850800E+04  0.12699999809E+01 0.  1.
       -4    1    3    3    0  502  0.34005814271E+03 -0.99491726231E+03  0.16163617869E+03  0.10637799427E+04  0.12699999809E+01 0. -1.
</event>
<event>
 5   0  0.6221148E-05  0.2098880E+04  0.7818609E-02  0.8561737E-01
       -1   -1    0    0    0  501  0.00000000000E+00  0.00000000000E+00  0.99524044611E+03  0.99524044612E+03  0.50400001928E-02 0.  1.
        1   -1    0    0  501    0  0.00000000000E+00  0.00000000000E+00 -0.11065908916E+04  0.11065908916E+04  0.50400001928E-02 0. -1.
    10030    2    1    2    0    0  0.00000000000E+00  0.00000000000E+00 -0.11135044545E+03  0.21018313377E+04  0.20988797132E+04 0.  0.
        3    1    3    3  502    0 -0.49179343626E+02  0.77897082452E+03 -0.75816715606E+03  0.10881321611E+04  0.10100000352E+00 0. -1.
       -3    1    3    3    0  502  0.49179343626E+02 -0.77897082452E+03  0.64681671061E+03  0.10136991766E+04  0.10100000352E+00 0.  1.
</event>
<event>
 5   0  0.1349252E-04  0.2080663E+04  0.7818609E-02  0.8569810E-01
        2   -1    0    0  501    0  0.00000000000E+00  0.00000000000E+00  0.11095566757E+04  0.11095566757E+04  0.25500000920E-02 0. -1.
       -2   -1    0    0    0  501  0.00000000000E+00  0.00000000000E+00 -0.97542526951E+03  0.97542526951E+03  0.25500000920E-02 0.  1.
    10030    2    1    2    0    0  0.00000000000E+00  0.00000000000E+00  0.13413140617E+03  0.20849819452E+04  0.20806629899E+04 0.  0.
        2    1    3    3  502    0 -0.44712827950E+03  0.21607553598E+03 -0.84898572240E+03  0.98355939954E+03  0.25500000920E-02 0.  1.
       -2    1    3    3    0  502  0.44712827950E+03 -0.21607553598E+03  0.98311712857E+03  0.11014225456E+04  0.25500000920E-02 0. -1.
</event>
<event>
 5   0  0.6263616E-05  0.2005373E+04  0.7818609E-02  0.8604113E-01
        1   -1    0    0  501    0  0.00000000000E+00  0.00000000000E+00  0.14138399123E+04  0.14138399123E+04  0.50400001928E-02 0.  1.
       -1   -1    0    0    0  501  0.00000000000E+00  0.00000000000E+00 -0.71109918047E+03  0.71109918048E+03  0.50400001928E-02 0. -1.
    10030    2    1    2    0    0  0.00000000000E+00  0.00000000000E+00  0.70274073182E+03  0.21249390928E+04  0.20053731852E+04 0.  0.
        4    1    3    3  502    0  0.59180943451E+03 -0.43136880092E+03  0.10770853718E+04  0.13024714815E+04  0.12699999809E+01 0.  1.
       -4    1    3    3    0  502 -0.59180943451E+03  0.43136880092E+03 -0.37434463997E+03  0.82246761125E+03  0.12699999809E+01 0. -1.
</event>
<event>
 5   0  0.1235817E-04  0.1761274E+04  0.7818609E-02  0.8727169E-01
       -2   -1    0    0    0  501  0.00000000000E+00  0.00000000000E+00  0.10263736941E+04  0.10263736941E+04  0.25500000920E-02 0.  1.
        2   -1    0    0  501    0  0.00000000000E+00  0.00000000000E+00 -0.75559411473E+03  0.75559411474E+03  0.25500000920E-02 0. -1.
    10030    2    1    2    0    0  0.00000000000E+00  0.00000000000E+00  0.27077957939E+03  0.17819678089E+04  0.17612744508E+04 0.  0.
        1    1    3    3  502    0 -0.86519383450E+02 -0.86156890559E+03  0.29769698533E+03  0.91564735455E+03  0.50400001928E-02 0.  1.
       -1    1    3    3    0  502  0.86519383450E+02  0.86156890559E+03 -0.26917405935E+02  0.86632045431E+03  0.50400001928E-02 0. -1.
</event>
<event>
 5   0  0.5933905E-05  0.2105204E+04  0.7818609E-02  0.8558954E-01
        1   -1    0    0  501    0  0.00000000000E+00  0.00000000000E+00  0.83083832480E+03  0.83083832481E+03  0.50400001928E-02 0.  1.
       -1   -1    0    0    0  501  0.00000000000E+00  0.00000000000E+00 -0.13335578867E+04  0.13335578867E+04  0.50400001928E-02 0. -1.
    10030    2    1    2    0    0  0.00000000000E+00  0.00000000000E+00 -0.50271956187E+03  0.21643962115E+04  0.21052040287E+04 0.  0.
        2    1    3    3  502    0 -0.91430415570E+03 -0.30516751075E+03  0.18348841281E+03  0.98119686933E+03  0.25500000920E-02 0.  1.
       -2    1    3    3    0  502  0.91430415570E+03  0.30516751075E+03 -0.68620797469E+03  0.11831993422E+04  0.25500000920E-02 0. -1.
</event>
<event>
 5   0  0.6263616E-05  0.2044892E+04  0.7818609E-02  0.8585915E-01
        1   -1    0    0  501    0  0.00000000000E+00  0.00000000000E+00  0.66189016648E+03  0.66189016650E+03  0.50400001928E-02 0. -1.
       -1   -1    0    0    0  501  0.00000000000E+00  0.00000000000E+00 -0.15794091306E+04  0.15794091306E+04  0.50400001928E-02 0.  1.
    10030    2    1    2    0    0  0.00000000000E+00  0.00000000000E+00 -0.91751896414E+03  0.22412992971E+04  0.20448915594E+04 0.  0.
        4    1    3    3  502    0 -0.60522896736E+03  0.46974027710E+03 -0.12008703665E+04  0.14244470088E+04  0.12699999809E+01 0.  1.
       -4    1    3    3    0  502  0.60522896736E+03 -0.46974027710E+03  0.28335140233E+03  0.81685228834E+03  0.12699999809E+01 0. -1.
</event>
<event>
 5   0  0.1281470E-04  0.2093327E+04  0.7818609E-02  0.8564188E-01
        2   -1    0    0  501    0  0.00000000000E+00  0.00000000000E+00  0.15064052813E+04  0.15064052813E+04  0.25500000920E-02 0.  1.
       -2   -1    0    0    0  501  0.00000000000E+00  0.00000000000E+00 -0.72723116180E+03  0.72723116180E+03  0.25500000920E-02 0. -1.
    10030    2    1    2    0    0  0.00000000000E+00  0.00000000000E+00  0.77917411954E+03  0.22336364431E+04  0.20933273637E+04 0.  0.
        3    1    3    3  502    0  0.24781359231E+03  0.44236218484E+02 -0.69444940306E+03  0.73866663873E+03  0.10100000352E+00 0. -1.
       -3    1    3    3    0  502 -0.24781359231E+03 -0.44236218484E+02  0.14736235226E+04  0.14949698044E+04  0.10100000352E+00 0.  1.
</event>
<event>
 5   0  0.6221148E-05  0.1975971E+04  0.7818609E-02  0.8617938E-01
        1   -1    0    0  501    0  0.00000000000E+00  0.00000000000E+00  0.69225922631E+03  0.69225922633E+03  0.50400001928E-02 0. -1.
       -1   -1    0    0    0  501  0.00000000000E+00  0.00000000000E+00 -0.14100432146E+04  0.14100432146E+04  0.50400001928E-02 0.  1.
    10030    2    1    2    0    0  0.00000000000E+00  0.00000000000E+00 -0.71778398827E+03  0.21023024409E+04  0.19759710775E+04 0.  0.
        3    1    3    3  502    0 -0.65170309116E+03 -0.70880189663E+03 -0.12338412996E+03  0.97074234554E+03  0.10100000352E+00 0. -1.
       -3    1    3    3    0  502  0.65170309116E+03  0.70880189663E+03 -0.59439985831E+03  0.11315600954E+04  0.10100000352E+00 0.  1.
</event>
<event>
 5   0  0.1349252E-04  0.2083968E+04  0.7818609E-02  0.8568339E-01
        2   -1    0    0  501    0  0.00000000000E+00  0.00000000000E+00  0.97308939274E+03  0.97308939274E+03  0.25500000920E-02 0.  1.
       -2   -1    0    0    0  501  0.00000000000E+00  0.00000000000E+00 -0.11157558461E+04  0.11157558461E+04  0.25500000920E-02 0. -1.
    10030    2    1    2    0    0  0.00000000000E+00  0.00000000000E+00 -0.14266645338E+03  0.20888452389E+04  0.20839675417E+04 0.  0.
        2    1    3    3  502    0 -0.54539311869E+03 -0.85659146384E+03  0.16272475807E+03  0.10284366469E+04  0.25500000920E-02 0.  1.
       -2    1    3    3    0  502  0.54539311869E+03  0.85659146384E+03 -0.30539121145E+03  0.10604085919E+04  0.25500000920E-02 0. -1.
</event>
<event>
 5   0  0.1281470E-04  0.2120321E+04  0.7818609E-02  0.8552344E-01
       -2   -1    0    0    0  501  0.00000000000E+00  0.00000000000E+00  0.11931046614E+04  0.11931046614E+04  0.25500000920E-02 0.  1.
        2   -1    0    0  501    0  0.00000000000E+00  0.00000000000E+00 -0.94202948427E+03  0.94202948427E+03  0.25500000920E-02 0. -1.
    10030    2    1    2    0    0  0.00000000000E+00  0.00000000000E+00  0.25107517713E+03  0.21351341457E+04  0.21203205124E+04 0.  0.
        3    1    3    3  502    0  0.88666236519E+03 -0.47855321549E+03 -0.20654883440E+03  0.10285162911E+04  0.10100000352E+00 0. -1.
       -3    1    3    3    0  502 -0.88666236519E+03  0.47855321549E+03  0.45762401152E+03  0.11066178546E+04  0.10100000352E+00 0.  1.
</event>
<event>
 5   0  0.1349252E-04  0.1985465E+04  0.7818609E-02  0.8613447E-01
       -2   -1    0    0    0  501  0.00000000000E+00  0.00000000000E+00  0.62049260562E+03  0.62049260562E+03  0.25500000920E-02 0. -1.
        2   -1    0    0  501    0  0.00000000000E+00  0.00000000000E+00 -0.15882821610E+04  0.15882821610E+04  0.25500000920E-02 0.  1.
    10030    2    1    2    0    0  0.00000000000E+00  0.00000000000E+00 -0.96778955537E+03  0.22087747666E+04  0.19854645165E+04 0.  0.
        2    1    3    3  502    0  0.38942062477E+03  0.63654252483E+03 -0.12122734047E+04  0.14235313894E+04  0.25500000920E-02 0.  1.
       -2    1    3    3    0  502 -0.38942062477E+03 -0.63654252483E+03  0.24448384929E+03  0.78524337723E+03  0.25500000920E-02 0. -1.
</event>
<event>
 5   0  0.1252477E-04  0.2130024E+04  0.7818609E-02  0.8548132E-01
       -2   -1    0    0    0  501  0.00000000000E+00  0.00000000000E+00  0.85942638648E+03  0.85942638649E+03  0.25500000920E-02 0. -1.
        2   -1    0    0  501    0  0.00000000000E+00  0.00000000000E+00 -0.13197758093E+04  0.13197758093E+04  0.25500000920E-02 0.  1.
    10030    2    1    2    0    0  0.00000000000E+00  0.00000000000E+00 -0.46034942279E+03  0.21792021958E+04  0.21300236193E+04 0.  0.
        4    1    3    3  502    0 -0.82465241152E+03  0.40174001566E+03 -0.78377977680E+03  0.12065483792E+04  0.12699999809E+01 0.  1.
       -4    1    3    3    0  502  0.82465241152E+03 -0.40174001566E+03  0.32343035401E+03  0.97265381653E+03  0.12699999809E+01 0. -1.
</event>
<event>
 5   0  0.5846187E-05  0.2093267E+04  0.7818609E-02  0.8564215E-01
       -1   -1    0    0    0  501  0.00000000000E+00  0.00000000000E+00  0.12196044317E+04  0.12196044317E+04  0.50400001928E-02 0.  1.
        1   -1    0    0  501    0  0.00000000000E+00  0.00000000000E+00 -0.89819396005E+03  0.89819396006E+03  0.50400001928E-02 0. -1.
    10030    2    1    2    0    0  0.00000000000E+00  0.00000000000E+00  0.32141047167E+03  0.21177983918E+04  0.20932666665E+04 0.  0.
        5    1    3    3  502    0 -0.90883819527E+03 -0.31503290653E+03 -0.25666627096E+03  0.99555625759E+03  0.46999998093E+01 0. -1.
       -5    1    3    3    0  502  0.90883819527E+03  0.31503290653E+03  0.57807674263E+03  0.11222421342E+04  0.46999998093E+01 0.  1.
</event>
<event>
 5   0  0.6263616E-05  0.2103681E+04  0.7818609E-02  0.8559623E-01
        1   -1    0    0  501    0  0.00000000000E+00  0.00000000000E+00  0.12242903931E+04  0.12242903931E+04  0.50400001928E-02 0. -1.
       -1   -1    0    0    0  501  0.00000000000E+00  0.00000000000E+00 -0.90368161397E+03  0.90368161399E+03  0.50400001928E-02 0.  1.
    10030    2    1    2    0    0  0.00000000000E+00  0.00000000000E+00  0.32060877912E+03  0.21279720071E+04  0.21036812671E+04 0.  0.
        4    1    3    3  502    0  0.86428880240E+03  0.44544225831E+03  0.56612652612E+03  0.11251287908E+04  0.12699999809E+01 0. -1.
       -4    1    3    3    0  502 -0.86428880240E+03 -0.44544225831E+03 -0.24551774700E+03  0.10028432163E+04  0.12699999809E+01 0.  1.
</event>
<event>
 5   0  0.1349252E-04  0.2098039E+04  0.7818609E-02  0.8562108E-01
        2   -1    0    0  501    0  0.00000000000E+00  0.00000000000E+00  0.11492356280E+04  0.11492356280E+04  0.25500000920E-02 0.  1.
       -2   -1    0    0    0  501  0.00000000000E+00  0.00000000000E+00 -0.95754252980E+03  0.95754252981E+03  0.25500000920E-02 0. -1.
    10030    2    1    2    0    0  0.00000000000E+00  0.00000000000E+00  0.19169309815E+03  0.21067781578E+04  0.20980390755E+04 0.  0.
        2    1    3    3  502    0 -0.81188698889E+03 -0.90453510420E+02 -0.56499777021E+03  0.99325968439E+03  0.25500000920E-02 0. -1.
       -2    1    3    3    0  502  0.81188698889E+03  0.90453510420E+02  0.75669086836E+03  0.11135184734E+04  0.25500000920E-02 0.  1.
</event>
<event>
 5   0  0.1349252E-04  0.2092114E+04  0.7818609E-02  0.8564725E-01
        2   -1    0    0  501    0  0.00000000000E+00  0.00000000000E+00  0.79121859541E+03  0.79121859542E+03  0.25500000920E-02 0. -1.
       -2   -1    0    0    0  501  0.00000000000E+00  0.00000000000E+00 -0.13829740857E+04  0.13829740857E+04  0.25500000920E-02 0.  1.
    10030    2    1    2    0    0  0.00000000000E+00  0.00000000000E+00 -0.59175549027E+03  0.21741926811E+04  0.20921135854E+04 0.  0.
        2    1    3    3  502    0 -0.43632858133E+03  0.26253756145E+03 -0.12454692430E+04  0.13455490468E+04  0.25500000920E-02 0.  1.
       -2    1    3    3    0  502  0.43632858133E+03 -0.26253756145E+03  0.65371375277E+03  0.82864363427E+03  0.25500000920E-02 0. -1.
</event>
<event>
 5   0  0.4615125E-05  0.2249591E+04  0.7818609E-02  0.8498066E-01
       -3   -1    0    0    0  501  0.00000000000E+00  0.00000000000E+00  0.23874585052E+04  0.23874585073E+04  0.10100000352E+00 0. -1.
        3   -1    0    0  501    0  0.00000000000E+00  0.00000000000E+00 -0.52992102871E+03  0.52992103834E+03  0.10100000352E+00 0.  1.
    10030    2    1    2    0    0  0.00000000000E+00  0.00000000000E+00  0.18575374765E+04  0.29173795457E+04  0.22495906154E+04 0.  0.
        1    1    3    3  502    0  0.44887592167E+03 -0.93426453275E+02  0.22607700026E+04  0.23067941173E+04  0.50400001928E-02 0. -1.
       -1    1    3    3    0  502 -0.44887592167E+03  0.93426453275E+02 -0.40323252606E+03  0.61058542836E+03  0.50400001928E-02 0.  1.
</event>
<event>
 5   0  0.1281470E-04  0.2014780E+04  0.7818609E-02  0.8599742E-01
       -2   -1    0    0    0  501  0.00000000000E+00  0.00000000000E+00  0.12634630398E+04  0.12634630398E+04  0.25500000920E-02 0.  1.
        2   -1    0    0  501    0  0.00000000000E+00  0.00000000000E+00 -0.80321649639E+03  0.80321649639E+03  0.25500000920E-02 0. -1.
    10030    2    1    2    0    0  0.00000000000E+00  0.00000000000E+00  0.46024654344E+03  0.20666795362E+04  0.20147797459E+04 0.  0.
        3    1    3    3  502    0 -0.17450825785E+03 -0.82315937192E+03  0.79827726715E+03  0.11598668411E+04  0.10100000352E+00 0.  1.
       -3    1    3    3    0  502  0.17450825785E+03  0.82315937192E+03 -0.33803072372E+03  0.90681269511E+03  0.10100000352E+00 0. -1.
</event>
<event>
 5   0  0.4615125E-05  0.2270423E+04  0.7818609E-02  0.8489675E-01
        4   -1    0    0  501    0  0.00000000000E+00  0.00000000000E+00  0.10192083532E+04  0.10192091445E+04  0.12699999809E+01 0.  1.
       -4   -1    0    0    0  501  0.00000000000E+00  0.00000000000E+00 -0.12644157546E+04  0.12644163924E+04  0.12699999809E+01 0. -1.
    10030    2    1    2    0    0  0.00000000000E+00  0.00000000000E+00 -0.24520740135E+03  0.22836255368E+04  0.22704226309E+04 0.  0.
        5    1    3    3  502    0  0.24519886921E+03 -0.83297065558E+03  0.61289416210E+03  0.10628376840E+04  0.46999998093E+01 0.  1.
       -5    1    3    3    0  502 -0.24519886921E+03  0.83297065558E+03 -0.85810156345E+03  0.12207878529E+04  0.46999998093E+01 0. -1.
</event>
<event>
 5   0  0.6052292E-05  0.2097345E+04  0.7818609E-02  0.8562414E-01
       -1   -1    0    0    0  501  0.00000000000E+00  0.00000000000E+00  0.73984225561E+03  0.73984225562E+03  0.50400001928E-02 0.  1.
        1   -1    0    0  501    0  0.00000000000E+00  0.00000000000E+00 -0.14864163328E+04  0.14864163328E+04  0.50400001928E-02 0. -1.
    10030    2    1    2    0    0  0.00000000000E+00  0.00000000000E+00 -0.74657407720E+03  0.22262585884E+04  0.20973446188E+04 0.  0.
        1    1    3    3  502    0 -0.78265483866E+03  0.27889837994E+03  0.30586889449E+03  0.88537488300E+03  0.50400001928E-02 0.  1.
       -1    1    3    3    0  502  0.78265483866E+03 -0.27889837994E+03 -0.10524429717E+04  0.13408837054E+04  0.50400001928E-02 0. -1.
</event>
<event>
 5   0  0.1349252E-04  0.1988540E+04  0.7818609E-02  0.8611997E-01
        2   -1    0    0  501    0  0.00000000000E+00  0.00000000000E+00  0.11107725878E+04  0.11107725878E+04  0.25500000920E-02 0. -1.
       -2   -1    0    0    0  501  0.00000000000E+00  0.00000000000E+00 -0.88998694123E+03  0.88998694124E+03  0.25500000920E-02 0.  1.
    10030    2    1    2    0    0  0.00000000000E+00  0.00000000000E+00  0.22078564658E+03  0.20007595291E+04  0.19885402665E+04 0.  0.
        2    1    3    3  502    0  0.25591107877E+03  0.60022902883E+03  0.86520783971E+03  0.10836742929E+04  0.25500000920E-02 0. -1.
       -2    1    3    3    0  502 -0.25591107877E+03 -0.60022902883E+03 -0.64442219313E+03  0.91708523611E+03  0.25500000920E-02 0.  1.
</event>
<event>
 5   0  0.1325673E-04  0.1881761E+04  0.7818609E-02  0.8663989E-01
        2   -1    0    0  501    0  0.00000000000E+00  0.00000000000E+00  0.20670027992E+04  0.20670027992E+04  0.25500000920E-02 0.  1.
       -2   -1    0    0    0  501  0.00000000000E+00  0.00000000000E+00 -0.42828026666E+03  0.42828026667E+03  0.25500000920E-02 0. -1.
    10030    2    1    2    0    0  0.00000000000E+00  0.00000000000E+00  0.16387225325E+04  0.24952830658E+04  0.18817614195E+04 0.  0.
        5    1    3    3  502    0  0.14462721618E+03 -0.58483116805E+03  0.17776824095E+04  0.18769979664E+04  0.46999998093E+01 0.  1.
       -5    1    3    3    0  502 -0.14462721618E+03  0.58483116805E+03 -0.13895987700E+03  0.61828509944E+03  0.46999998093E+01 0. -1.
</event>
<event>
 5   0  0.4615125E-05  0.2117331E+04  0.7818609E-02  0.8553647E-01
       -4   -1    0    0    0  501  0.00000000000E+00  0.00000000000E+00  0.56040888453E+03  0.56041032357E+03  0.12699999809E+01 0.  1.
        4   -1    0    0  501    0  0.00000000000E+00  0.00000000000E+00 -0.19999144185E+04  0.19999148217E+04  0.12699999809E+01 0. -1.
    10030    2    1    2    0    0  0.00000000000E+00  0.00000000000E+00 -0.14395055340E+04  0.25603251453E+04  0.21173305522E+04 0.  0.
        3    1    3    3  502    0  0.54200900110E+03  0.20046277548E+03  0.35285822041E+03  0.67710266248E+03  0.10100000352E+00 0.  1.
       -3    1    3    3    0  502 -0.54200900110E+03 -0.20046277548E+03 -0.17923637544E+04  0.18832224828E+04  0.10100000352E+00 0. -1.
</event>
<event>
 5   0  0.5846187E-05  0.2091643E+04  0.7818609E-02  0.8564934E-01
        1   -1    0    0  501    0  0.00000000000E+00  0.00000000000E+00  0.19703510515E+04  0.19703510515E+04  0.50400001928E-02 0.  1.
       -1   -1    0    0    0  501  0.00000000000E+00  0.00000000000E+00 -0.55510045518E+03  0.55510045521E+03  0.50400001928E-02 0. -1.
    10030    2    1    2    0    0  0.00000000000E+00  0.00000000000E+00  0.14152505963E+04  0.25254515067E+04  0.20916431489E+04 0.  0.
        5    1    3    3  502    0  0.97486963944E+03 -0.15937360656E+03  0.29295755048E+03  0.10303479882E+04  0.46999998093E+01 0.  1.
       -5    1    3    3    0  502 -0.97486963944E+03  0.15937360656E+03  0.11222930458E+04  0.14951035185E+04  0.46999998093E+01 0. -1.
</event>
<event>
 5   0  0.1252477E-04  0.2051710E+04  0.7818609E-02  0.8582819E-01
        2   -1    0    0  501    0  0.00000000000E+00  0.00000000000E+00  0.12716344421E+04  0.12716344421E+04  0.25500000920E-02 0. -1.
       -2   -1    0    0    0  501  0.00000000000E+00  0.00000000000E+00 -0.82757951736E+03  0.82757951737E+03  0.25500000920E-02 0.  1.
    10030    2    1    2    0    0  0.00000000000E+00  0.00000000000E+00  0.44405492470E+03  0.20992139594E+04  0.20517101334E+04 0.  0.
        4    1    3    3  502    0 -0.83348204312E+03  0.24235218385E+03  0.78145012936E+03  0.11679438406E+04  0.12699999809E+01 0. -1.
       -4    1    3    3    0  502  0.83348204312E+03 -0.24235218385E+03 -0.33739520465E+03  0.93127011884E+03  0.12699999809E+01 0.  1.
</event>
<event>
 5   0  0.6221148E-05  0.2105821E+04  0.7818609E-02  0.8558683E-01
       -1   -1    0    0    0  501  0.00000000000E+00  0.00000000000E+00  0.10909905926E+04  0.10909905927E+04  0.50400001928E-02 0.  1.
        1   -1    0    0  501    0  0.00000000000E+00  0.00000000000E+00 -0.10161599797E+04  0.10161599798E+04  0.50400001928E-02 0. -1.
    10030    2    1    2    0    0  0.00000000000E+00  0.00000000000E+00  0.74830612908E+02  0.21071505724E+04  0.21058214345E+04 0.  0.
        3    1    3    3  502    0 -0.44617721886E+03  0.45620801285E+03  0.87545278918E+03  0.10833362626E+04  0.10100000352E+00 0.  1.
       -3    1    3    3    0  502  0.44617721886E+03 -0.45620801285E+03 -0.80062217627E+03  0.10238143098E+04  0.10100000352E+00 0. -1.
</event>
<event>
 5   0  0.5933905E-05  0.2054976E+04  0.7818609E-02  0.8581340E-01
       -1   -1    0    0    0  501  0.00000000000E+00  0.00000000000E+00  0.13281514496E+04  0.13281514496E+04  0.50400001928E-02 0.  1.
        1   -1    0    0  501    0  0.00000000000E+00  0.00000000000E+00 -0.79488814325E+03  0.79488814326E+03  0.50400001928E-02 0. -1.
    10030    2    1    2    0    0  0.00000000000E+00  0.00000000000E+00  0.53326330633E+03  0.21230395928E+04  0.20549762429E+04 0.  0.
        2    1    3    3  502    0 -0.35753663768E+03  0.47096780687E+03 -0.60149067000E+03  0.84346555857E+03  0.25500000920E-02 0. -1.
       -2    1    3    3    0  502  0.35753663768E+03 -0.47096780687E+03  0.11347539763E+04  0.12795740343E+04  0.25500000920E-02 0.  1.
</event>
<event>
 5   0  0.1349252E-04  0.1945816E+04  0.7818609E-02  0.8632381E-01
       -2   -1    0    0    0  501  0.00000000000E+00  0.00000000000E+00  0.78381923617E+03  0.78381923618E+03  0.25500000920E-02 0. -1.
        2   -1    0    0  501    0  0.00000000000E+00  0.00000000000E+00 -0.12076119820E+04  0.12076119820E+04  0.25500000920E-02 0.  1.
    10030    2    1    2    0    0  0.00000000000E+00  0.00000000000E+00 -0.42379274584E+03  0.19914312182E+04  0.19458155116E+04 0.  0.
        2    1    3    3  502    0  0.25905437081E+03 -0.74350691092E+03  0.37302417187E+03  0.87123976403E+03  0.25500000920E-02 0. -1.
       -2    1    3    3    0  502 -0.25905437081E+03  0.74350691092E+03 -0.79681691771E+03  0.11201914542E+04  0.25500000920E-02 0.  1.
</event>
<event>
 5   0  0.1281470E-04  0.2111561E+04  0.7818609E-02  0.8556168E-01
       -2   -1    0    0    0  501  0.00000000000E+00  0.00000000000E+00  0.12120794123E+04  0.12120794123E+04  0.25500000920E-02 0. -1.
        2   -1    0    0  501    0  0.00000000000E+00  0.00000000000E+00 -0.91963619353E+03  0.91963619354E+03  0.25500000920E-02 0.  1.
    10030    2    1    2    0    0  0.00000000000E+00  0.00000000000E+00  0.29244321873E+03  0.21317156058E+04  0.21115606522E+04 0.  0.
        3    1    3    3  502    0  0.90211443786E+03  0.52731670055E+03 -0.62120883525E+01  0.10449459134E+04  0.10100000352E+00 0.  1.
       -3    1    3    3    0  502 -0.90211443786E+03 -0.52731670055E+03  0.29865530709E+03  0.10867696924E+04  0.10100000352E+00 0. -1.
</event>
<event>
 5   0  0.6263616E-05  0.2102459E+04  0.7818609E-02  0.8560161E-01
        1   -1    0    0  501    0  0.00000000000E+00  0.00000000000E+00  0.14683304661E+04  0.14683304661E+04  0.50400001928E-02 0.  1.
       -1   -1    0    0    0  501  0.00000000000E+00  0.00000000000E+00 -0.75261245719E+03  0.75261245721E+03  0.50400001928E-02 0. -1.
    10030    2    1    2    0    0  0.00000000000E+00  0.00000000000E+00  0.71571800886E+03  0.22209429233E+04  0.21024593219E+04 0.  0.
        4    1    3    3  502    0  0.59171340033E+03  0.36758311924E+03  0.11895263057E+04  0.13784834212E+04  0.12699999809E+01 0.  1.
       -4    1    3    3    0  502 -0.59171340033E+03 -0.36758311924E+03 -0.47380829679E+03  0.84245950211E+03  0.12699999809E+01 0. -1.
</event>
<event>
 5   0  0.1281470E-04  0.2008048E+04  0.7818609E-02  0.8602867E-01
        2   -1    0    0  501    0  0.00000000000E+00  0.00000000000E+00  0.17384036940E+04  0.17384036940E+04  0.25500000920E-02 0. -1.
       -2   -1    0    0    0  501  0.00000000000E+00  0.00000000000E+00 -0.57987920825E+03  0.57987920825E+03  0.25500000920E-02 0.  1.
    10030    2    1    2    0    0  0.00000000000E+00  0.00000000000E+00  0.11585244858E+04  0.23182829023E+04  0.20080479653E+04 0.  0.
        3    1    3    3  502    0 -0.24546741947E+03  0.92217342380E+03  0.93957974691E+03  0.13392043117E+04  0.10100000352E+00 0. -1.
       -3    1    3    3    0  502  0.24546741947E+03 -0.92217342380E+03  0.21894473889E+03  0.97907859055E+03  0.10100000352E+00 0.  1.
</event>
<event>
 5   0  0.6221148E-05  0.2148765E+04  0.7818609E-02  0.8540061E-01
       -1   -1    0    0    0  501  0.00000000000E+00  0.00000000000E+00  0.11347779331E+04  0.11347779331E+04  0.50400001928E-02 0. -1.
        1   -1    0    0  501    0  0.00000000000E+00  0.00000000000E+00 -0.10172018753E+04  0.10172018753E+04  0.50400001928E-02 0.  1.
    10030    2    1    2    0    0  0.00000000000E+00  0.00000000000E+00  0.11757605777E+03  0.21519798084E+04  0.21487654517E+04 0.  0.
        3    1    3    3  502    0 -0.61793933957E+02 -0.10723215834E+04  0.34130822363E+02  0.10746427275E+04  0.10100000352E+00 0.  1.
       -3    1    3    3    0  502  0.61793933957E+02  0.10723215834E+04  0.83445235404E+02  0.10773370810E+04  0.10100000352E+00 0. -1.
</event>
<event>
 5   0  0.1349252E-04  0.1796954E+04  0.7818609E-02  0.8707921E-01
       -2   -1    0    0    0  501  0.00000000000E+00  0.00000000000E+00  0.41874884341E+03  0.41874884342E+03  0.25500000920E-02 0. -1.
        2   -1    0    0  501    0  0.00000000000E+00  0.00000000000E+00 -0.19277929171E+04  0.19277929171E+04  0.25500000920E-02 0.  1.
    10030    2    1    2    0    0  0.00000000000E+00  0.00000000000E+00 -0.15090440737E+04  0.23465417605E+04  0.17969541501E+04 0.  0.
        2    1    3    3  502    0 -0.52124052819E+03  0.34955556349E+03 -0.15941099272E+04  0.17132037941E+04  0.25500000920E-02 0.  1.
       -2    1    3    3    0  502  0.52124052819E+03 -0.34955556349E+03  0.85065853535E+02  0.63333796637E+03  0.25500000920E-02 0. -1.
</event>
<event>
 5   0  0.1281470E-04  0.2124131E+04  0.7818609E-02  0.8550688E-01
       -2   -1    0    0    0  501  0.00000000000E+00  0.00000000000E+00  0.33318000771E+04  0.33318000771E+04  0.25500000920E-02 0.  1.
        2   -1    0    0  501    0  0.00000000000E+00  0.00000000000E+00 -0.33855055510E+03  0.33855055511E+03  0.25500000920E-02 0. -1.
    10030    2    1    2    0    0  0.00000000000E+00  0.00000000000E+00  0.29932495220E+04  0.36703506322E+04  0.21241306604E+04 0.  0.
        3    1    3    3  502    0  0.31103485033E+03  0.61327950608E+03  0.28952118522E+04  0.29757530324E+04  0.10100000352E+00 0.  1.
       -3    1    3    3    0  502 -0.31103485033E+03 -0.61327950608E+03  0.98037669783E+02  0.69459759976E+03  0.10100000352E+00 0. -1.
</event>
<event>
 5   0  0.1235817E-04  0.2113605E+04  0.7818609E-02  0.8555274E-01
       -2   -1    0    0    0  501  0.00000000000E+00  0.00000000000E+00  0.55459619092E+03  0.55459619092E+03  0.25500000920E-02 0. -1.
        2   -1    0    0  501    0  0.00000000000E+00  0.00000000000E+00 -0.20137733987E+04  0.20137733987E+04  0.25500000920E-02 0.  1.
    10030    2    1    2    0    0  0.00000000000E+00  0.00000000000E+00 -0.14591772077E+04  0.25683695896E+04  0.21136045574E+04 0.  0.
        1    1    3    3  502    0  0.10074702065E+04 -0.11235782811E+03 -0.10925345161E+04  0.14903865832E+04  0.50400001928E-02 0.  1.
       -1    1    3    3    0  502 -0.10074702065E+04  0.11235782811E+03 -0.36664269163E+03  0.10779830063E+04  0.50400001928E-02 0. -1.
</event>
<event>
 5   0  0.6052292E-05  0.2106413E+04  0.7818609E-02  0.8558424E-01
        1   -1    0    0  501    0  0.00000000000E+00  0.00000000000E+00  0.23122396147E+04  0.23122396147E+04  0.50400001928E-02 0. -1.
       -1   -1    0    0    0  501  0.00000000000E+00  0.00000000000E+00 -0.47972700752E+03  0.47972700754E+03  0.50400001928E-02 0.  1.
    10030    2    1    2    0    0  0.00000000000E+00  0.00000000000E+00  0.18325126072E+04  0.27919666223E+04  0.21064128665E+04 0.  0.
        1    1    3    3  502    0  0.88648185133E+03 -0.40225692151E+03  0.14490568655E+04  0.17456879741E+04  0.50400001928E-02 0. -1.
       -1    1    3    3    0  502 -0.88648185133E+03  0.40225692151E+03  0.38345574172E+03  0.10462786481E+04  0.50400001928E-02 0.  1.
</event>
<event>
 5   0  0.1281470E-04  0.2071317E+04  0.7818609E-02  0.8573985E-01
        2   -1    0    0  501    0  0.00000000000E+00  0.00000000000E+00  0.14611283779E+04  0.14611283779E+04  0.25500000920E-02 0. -1.
       -2   -1    0    0    0  501  0.00000000000E+00  0.00000000000E+00 -0.73408210765E+03  0.73408210766E+03  0.25500000920E-02 0.  1.
    10030    2    1    2    0    0  0.00000000000E+00  0.00000000000E+00  0.72704627020E+03  0.21952104855E+04  0.20713166819E+04 0.  0.
        3    1    3    3  502    0  0.75048498477E+03  0.28520980465E+03  0.10568844200E+04  0.13272441496E+04  0.10100000352E+00 0. -1.
       -3    1    3    3    0  502 -0.75048498477E+03 -0.28520980465E+03 -0.32983814984E+03  0.86796633594E+03  0.10100000352E+00 0.  1.
</event>
<event>
 5   0  0.6263616E-05  0.2106565E+04  0.7818609E-02  0.8558357E-01
        1   -1    0    0  501    0  0.00000000000E+00  0.00000000000E+00  0.19504070365E+04  0.19504070365E+04  0.50400001928E-02 0.  1.
       -1   -1    0    0    0  501  0.00000000000E+00  0.00000000000E+00 -0.56880637376E+03  0.56880637378E+03  0.50400001928E-02 0. -1.
    10030    2    1    2    0    0  0.00000000000E+00  0.00000000000E+00  0.13816006627E+04  0.25192134103E+04  0.21065649326E+04 0.  0.
        4    1    3    3  502    0  0.95108481222E+03 -0.34091830442E+03  0.10467946523E+04  0.14548430387E+04  0.12699999809E+01 0.  1.
       -4    1    3    3    0  502 -0.95108481222E+03  0.34091830442E+03  0.33480601043E+03  0.10643703716E+04  0.12699999809E+01 0. -1.
</event>
<event>
 5   0  0.1325673E-04  0.2112814E+04  0.7818609E-02  0.8555619E-01
       -2   -1    0    0    0  501  0.00000000000E+00  0.00000000000E+00  0.61833124047E+03  0.61833124047E+03  0.25500000920E-02 0. -1.
        2   -1    0    0  501    0  0.00000000000E+00  0.00000000000E+00 -0.18048515654E+04  0.18048515654E+04  0.25500000920E-02 0.  1.
    10030    2    1    2    0    0  0.00000000000E+00  0.00000000000E+00 -0.11865203249E+04  0.24231828058E+04  0.21128143385E+04 0.  0.
        5    1    3    3  502    0 -0.35219600828E+03  0.31351045095E+03 -0.16774539573E+04  0.17424708605E+04  0.46999998093E+01 0.  1.
       -5    1    3    3    0  502  0.35219600828E+03 -0.31351045095E+03  0.49093363236E+03  0.68071194530E+03  0.46999998093E+01 0. -1.
</event>
<event>
 5   0  0.6263616E-05  0.2185506E+04  0.7818609E-02  0.8524485E-01
        1   -1    0    0  501    0  0.00000000000E+00  0.00000000000E+00  0.21239508971E+04  0.21239508971E+04  0.50400001928E-02 0. -1.
       -1   -1    0    0    0  501  0.00000000000E+00  0.00000000000E+00 -0.56221132374E+03  0.56221132376E+03  0.50400001928E-02 0.  1.
    10030    2    1    2    0    0  0.00000000000E+00  0.00000000000E+00  0.15617395734E+04  0.26861622209E+04  0.21855061157E+04 0.  0.
        4    1    3    3  502    0  0.61060182813E+02  0.43504781376E+03 -0.44889398022E+03  0.62809423223E+03  0.12699999809E+01 0.  1.
       -4    1    3    3    0  502 -0.61060182813E+02 -0.43504781376E+03  0.20106335536E+04  0.20580679886E+04  0.12699999809E+01 0. -1.
</event>
<event>
 5   0  0.6221148E-05  0.2130984E+04  0.7818609E-02  0.8547716E-01
        1   -1    0    0  501    0  0.00000000000E+00  0.00000000000E+00  0.10966749973E+04  0.10966749973E+04  0.50400001928E-02 0. -1.
       -1   -1    0    0    0  501  0.00000000000E+00  0.00000000000E+00 -0.10351958576E+04  0.10351958577E+04  0.50400001928E-02 0.  1.
    10030    2    1    2    0    0  0.00000000000E+00  0.00000000000E+00  0.61479139628E+02  0.21318708549E+04  0.21309841993E+04 0.  0.
        3    1    3    3  502    0  0.75611856695E+03  0.60889296707E+03  0.47002074496E+03  0.10786034691E+04  0.10100000352E+00 0. -1.
       -3    1    3    3    0  502 -0.75611856695E+03 -0.60889296707E+03 -0.40854160533E+03  0.10532673859E+04  0.10100000352E+00 0.  1.
</event>
<event>
 5   0  0.1235817E-04  0.2101761E+04  0.7818609E-02  0.8560468E-01
        2   -1    0    0  501    0  0.00000000000E+00  0.00000000000E+00  0.17970003609E+04  0.17970003609E+04  0.25500000920E-02 0.  1.
       -2   -1    0    0    0  501  0.00000000000E+00  0.00000000000E+00 -0.61455164945E+03  0.61455164945E+03  0.25500000920E-02 0. -1.
    10030    2    1    2    0    0  0.00000000000E+00  0.00000000000E+00  0.11824487114E+04  0.24115520103E+04  0.21017607246E+04 0.  0.
        1    1    3    3  502    0  0.11624638583E+03  0.54932128096E+03 -0.42801116646E+03  0.70601745769E+03  0.50400001928E-02 0. -1.
       -1    1    3    3    0  502 -0.11624638583E+03 -0.54932128096E+03  0.16104598779E+04  0.17055345527E+04  0.50400001928E-02 0.  1.
</event>
<event>
 5   0  0.1252477E-04  0.2101730E+04  0.7818609E-02  0.8560482E-01
       -2   -1    0    0    0  501  0.00000000000E+00  0.00000000000E+00  0.55652124385E+03  0.55652124386E+03  0.25500000920E-02 0. -1.
        2   -1    0    0  501    0  0.00000000000E+00  0.00000000000E+00 -0.19843216839E+04  0.19843216839E+04  0.25500000920E-02 0.  1.
    10030    2    1    2    0    0  0.00000000000E+00  0.00000000000E+00 -0.14278004400E+04  0.25408429277E+04  0.21017299272E+04 0.  0.
        4    1    3    3  502    0  0.14587850269E+03 -0.48624560279E+03  0.39844630466E+03  0.64534982326E+03  0.12699999809E+01 0. -1.
       -4    1    3    3    0  502 -0.14587850269E+03  0.48624560279E+03 -0.18262467447E+04  0.18954931045E+04  0.12699999809E+01 0.  1.
</event>
<event>
 5   0  0.1281470E-04  0.2096894E+04  0.7818609E-02  0.8562613E-01
       -2   -1    0    0    0  501  0.00000000000E+00  0.00000000000E+00  0.43269520175E+03  0.43269520176E+03  0.25500000920E-02 0.  1.
        2   -1    0    0  501    0  0.00000000000E+00  0.00000000000E+00 -0.25404512234E+04  0.25404512234E+04  0.25500000920E-02 0. -1.
    10030    2    1    2    0    0  0.00000000000E+00  0.00000000000E+00 -0.21077560216E+04  0.29731464251E+04  0.20968939455E+04 0.  0.
        3    1    3    3  502    0 -0.80013351963E+03 -0.63461258795E+03 -0.13902903245E+04  0.17250663705E+04  0.10100000352E+00 0. -1.
       -3    1    3    3    0  502  0.80013351963E+03  0.63461258795E+03 -0.71746569711E+03  0.12480800546E+04  0.10100000352E+00 0.  1.
</event>
<event>
 5   0  0.5933905E-05  0.2114428E+04  0.7818609E-02  0.8554914E-01
        1   -1    0    0  501    0  0.00000000000E+00  0.00000000000E+00  0.22899959836E+04  0.22899959837E+04  0.50400001928E-02 0. -1.
       -1   -1    0    0    0  501  0.00000000000E+00  0.00000000000E+00 -0.48807994939E+03  0.48807994942E+03  0.50400001928E-02 0.  1.
    10030    2    1    2    0    0  0.00000000000E+00  0.00000000000E+00  0.18019160343E+04  0.27780759331E+04  0.21144276993E+04 0.  0.
        2    1    3    3  502    0 -0.10126522397E+04 -0.30093961775E+03  0.84723530269E+03  0.13541923313E+04  0.25500000920E-02 0.  1.
       -2    1    3    3    0  502  0.10126522397E+04  0.30093961775E+03  0.95468073157E+03  0.14238836017E+04  0.25500000920E-02 0. -1.
</event>
<event>
 5   0  0.5933905E-05  0.2049086E+04  0.7818609E-02  0.8584009E-01
       -1   -1    0    0    0  501  0.00000000000E+00  0.00000000000E+00  0.76283519178E+03  0.76283519179E+03  0.50400001928E-02 0.  1.
        1   -1    0    0  501    0  0.00000000000E+00  0.00000000000E+00 -0.13760355272E+04  0.13760355272E+04  0.50400001928E-02 0. -1.
    10030    2    1    2    0    0  0.00000000000E+00  0.00000000000E+00 -0.61320033540E+03  0.21388707190E+04  0.20490859672E+04 0.  0.
        2    1    3    3  502    0  0.76054332902E+03  0.49340832107E+03 -0.80480866209E+03  0.12122684972E+04  0.25500000920E-02 0. -1.
       -2    1    3    3    0  502 -0.76054332902E+03 -0.49340832107E+03  0.19160832669E+03  0.92660222182E+03  0.25500000920E-02 0.  1.
</event>
<event>
 5   0  0.1325673E-04  0.2108031E+04  0.7818609E-02  0.8557714E-01
       -2   -1    0    0    0  501  0.00000000000E+00  0.00000000000E+00  0.81309720640E+03  0.81309720641E+03  0.25500000920E-02 0.  1.
        2   -1    0    0  501    0  0.00000000000E+00  0.00000000000E+00 -0.13663177852E+04  0.13663177852E+04  0.25500000920E-02 0. -1.
    10030    2    1    2    0    0  0.00000000000E+00  0.00000000000E+00 -0.55322057878E+03  0.21794149916E+04  0.21080314743E+04 0.  0.
        5    1    3    3  502    0 -0.16253375507E+03  0.10190214095E+04 -0.49860260308E+03  0.11460578085E+04  0.46999998093E+01 0.  1.
       -5    1    3    3    0  502  0.16253375507E+03 -0.10190214095E+04 -0.54617975693E+02  0.10333571831E+04  0.46999998093E+01 0. -1.
</event>
<event>
 5   0  0.6052292E-05  0.2010074E+04  0.7818609E-02  0.8601925E-01
        1   -1    0    0  501    0  0.00000000000E+00  0.00000000000E+00  0.16574129447E+04  0.16574129447E+04  0.50400001928E-02 0.  1.
       -1   -1    0    0    0  501  0.00000000000E+00  0.00000000000E+00 -0.60944341420E+03  0.60944341422E+03  0.50400001928E-02 0. -1.
    10030    2    1    2    0    0  0.00000000000E+00  0.00000000000E+00  0.10479695305E+04  0.22668563589E+04  0.20100740323E+04 0.  0.
        1    1    3    3  502    0  0.34451774030E+03  0.11366888378E+03  0.15809956240E+04  0.16220851555E+04  0.50400001928E-02 0.  1.
       -1    1    3    3    0  502 -0.34451774030E+03 -0.11366888378E+03 -0.53302609345E+03  0.64477120348E+03  0.50400001928E-02 0. -1.
</event>
<event>
 5   0  0.1281470E-04  0.2052072E+04  0.7818609E-02  0.8582655E-01
        2   -1    0    0  501    0  0.00000000000E+00  0.00000000000E+00  0.97772736703E+03  0.97772736704E+03  0.25500000920E-02 0.  1.
       -2   -1    0    0    0  501  0.00000000000E+00  0.00000000000E+00 -0.10767318295E+04  0.10767318295E+04  0.25500000920E-02 0. -1.
    10030    2    1    2    0    0  0.00000000000E+00  0.00000000000E+00 -0.99004462483E+02  0.20544591966E+04  0.20520722957E+04 0.  0.
        3    1    3    3  502    0 -0.30327052897E+03  0.19431295637E+03  0.91235437281E+03  0.98087769398E+03  0.10100000352E+00 0.  1.
       -3    1    3    3    0  502  0.30327052897E+03 -0.19431295637E+03 -0.10113588353E+04  0.10735815026E+04  0.10100000352E+00 0. -1.
</event>
<event>
 5   0  0.5933905E-05  0.2097552E+04  0.7818609E-02  0.8562322E-01
        1   -1    0    0  501    0  0.00000000000E+00  0.00000000000E+00  0.15480020757E+04  0.15480020757E+04  0.50400001928E-02 0.  1.
       -1   -1    0    0    0  501  0.00000000000E+00  0.00000000000E+00 -0.71054908585E+03  0.71054908587E+03  0.50400001928E-02 0. -1.
    10030    2    1    2    0    0  0.00000000000E+00  0.00000000000E+00  0.83745298985E+03  0.22585511616E+04  0.20975523448E+04 0.  0.
        2    1    3    3  502    0 -0.81795560161E+03  0.65359631962E+03  0.48415164258E+03  0.11535347105E+04  0.25500000920E-02 0.  1.
       -2    1    3    3    0  502  0.81795560161E+03 -0.65359631962E+03  0.35330134727E+03  0.11050164511E+04  0.25500000920E-02 0. -1.
</event>
<event>
 5   0  0.6263616E-05  0.2093503E+04  0.7818609E-02  0.8564111E-01
       -1   -1    0    0    0  501  0.00000000000E+00  0.00000000000E+00  0.11977086870E+04  0.11977086871E+04  0.50400001928E-02 0. -1.
        1   -1    0    0  501    0  0.00000000000E+00  0.00000000000E+00 -0.91482072197E+03  0.91482072199E+03  0.50400001928E-02 0.  1.
    10030    2    1    2    0    0  0.00000000000E+00  0.00000000000E+00  0.28288796507E+03  0.21125294090E+04  0.20935030220E+04 0.  0.
        4    1    3    3  502    0  0.77321564190E+03  0.70515103573E+03  0.16588602720E+03  0.10595377289E+04  0.12699999809E+01 0. -1.
       -4    1    3    3    0  502 -0.77321564190E+03 -0.70515103573E+03  0.11700193787E+03  0.10529916801E+04  0.12699999809E+01 0.  1.
</event>
<event>
 5   0  0.5846187E-05  0.2074326E+04  0.7818609E-02  0.8572638E-01
        1   -1    0    0  501    0  0.00000000000E+00  0.00000000000E+00  0.14906549127E+04  0.14906549127E+04  0.50400001928E-02 0. -1.
       -1   -1    0    0    0  501  0.00000000000E+00  0.00000000000E+00 -0.72163383019E+03  0.72163383020E+03  0.50400001928E-02 0.  1.
    10030    2    1    2    0    0  0.00000000000E+00  0.00000000000E+00  0.76902108254E+03  0.22122887429E+04  0.20743259283E+04 0.  0.
        5    1    3    3  502    0  0.64554704603E+02  0.99832555981E+03  0.67632071626E+03  0.12075814815E+04  0.46999998093E+01 0. -1.
       -5    1    3    3    0  502 -0.64554704603E+02 -0.99832555981E+03  0.92700366278E+02  0.10047072614E+04  0.46999998093E+01 0.  1.
</event>
<event>
 5   0  0.1252477E-04  0.2156697E+04  0.7818609E-02  0.8536671E-01
        2   -1    0    0  501    0  0.00000000000E+00  0.00000000000E+00  0.16266833557E+04  0.16266833557E+04  0.25500000920E-02 0.  1.
       -2   -1    0    0    0  501  0.00000000000E+00  0.00000000000E+00 -0.71485070779E+03  0.71485070779E+03  0.25500000920E-02 0. -1.
    10030    2    1    2    0    0  0.00000000000E+00  0.00000000000E+00  0.91183264790E+03  0.23415340635E+04  0.21566972418E+04 0.  0.
        4    1    3    3  502    0  0.19401099110E+03 -0.53197371609E+03 -0.54044843372E+03  0.78276587923E+03  0.12699999809E+01 0. -1.
       -4    1    3    3    0  502 -0.19401099110E+03  0.53197371609E+03  0.14522810816E+04  0.15587681842E+04  0.12699999809E+01 0.  1.
</event>
<event>
 5   0  0.5846187E-05  0.2089980E+04  0.7818609E-02  0.8565670E-01
        1   -1    0    0  501    0  0.00000000000E+00  0.00000000000E+00  0.17238448705E+04  0.17238448705E+04  0.50400001928E-02 0.  1.
       -1   -1    0    0    0  501  0.00000000000E+00  0.00000000000E+00 -0.63347032837E+03  0.63347032839E+03  0.50400001928E-02 0. -1.
    10030    2    1    2    0    0  0.00000000000E+00  0.00000000000E+00  0.10903745421E+04  0.23573151989E+04  0.20899804556E+04 0.  0.
        5    1    3    3  502    0 -0.64871063895E+03 -0.51886969460E+03  0.12602618009E+04  0.15094148369E+04  0.46999998093E+01 0.  1.
       -5    1    3    3    0  502  0.64871063895E+03  0.51886969460E+03 -0.16988725883E+03  0.84790036194E+03  0.46999998093E+01 0. -1.
</event>
<event>
 5   0  0.1349252E-04  0.2084455E+04  0.7818609E-02  0.8568122E-01
        2   -1    0    0  501    0  0.00000000000E+00  0.00000000000E+00  0.22660936651E+04  0.22660936651E+04  0.25500000920E-02 0. -1.
       -2   -1    0    0    0  501  0.00000000000E+00  0.00000000000E+00 -0.47934371017E+03  0.47934371018E+03  0.25500000920E-02 0.  1.
    10030    2    1    2    0    0  0.00000000000E+00  0.00000000000E+00  0.17867499550E+04  0.27454373753E+04  0.20844546002E+04 0.  0.
        2    1    3    3  502    0 -0.38228192086E+03 -0.20743122271E+02 -0.38337635582E+03  0.54179993941E+03  0.25500000920E-02 0.  1.
       -2    1    3    3    0  502  0.38228192086E+03  0.20743122271E+02  0.21701263108E+04  0.22036374359E+04  0.25500000920E-02 0. -1.
</event>
<event>
 5   0  0.5933905E-05  0.2077670E+04  0.7818609E-02  0.8571144E-01
        1   -1    0    0  501    0  0.00000000000E+00  0.00000000000E+00  0.12459230062E+04  0.12459230062E+04  0.50400001928E-02 0.  1.
       -1   -1    0    0    0  501  0.00000000000E+00  0.00000000000E+00 -0.86616725844E+03  0.86616725846E+03  0.50400001928E-02 0. -1.
    10030    2    1    2    0    0  0.00000000000E+00  0.00000000000E+00  0.37975574776E+03  0.21120902647E+04  0.20776695739E+04 0.  0.
        2    1    3    3  502    0 -0.12040012453E+03 -0.97807716027E+03  0.52402792629E+03  0.11161256152E+04  0.25500000920E-02 0.  1.
       -2    1    3    3    0  502  0.12040012453E+03  0.97807716027E+03 -0.14427217853E+03  0.99596464944E+03  0.25500000920E-02 0. -1.
</event>
<event>
 5   0  0.6052292E-05  0.2156276E+04  0.7818609E-02  0.8536851E-01
        1   -1    0    0  501    0  0.00000000000E+00  0.00000000000E+00  0.14869897750E+04  0.14869897750E+04  0.50400001928E-02 0. -1.
       -1   -1    0    0    0  501  0.00000000000E+00  0.00000000000E+00 -0.78170091378E+03  0.78170091379E+03  0.50400001928E-02 0.  1.
    10030    2    1    2    0    0  0.00000000000E+00  0.00000000000E+00  0.70528886119E+03  0.22686906888E+04  0.21562757392E+04 0.  0.
        1    1    3    3  502    0 -0.32950248991E+03 -0.24441288362E+03  0.14016549683E+04  0.14604609542E+04  0.50400001928E-02 0. -1.
       -1    1    3    3    0  502  0.32950248991E+03  0.24441288362E+03 -0.69636610716E+03  0.80822973452E+03  0.50400001928E-02 0.  1.
</event>
<event>
 5   0  0.1349252E-04  0.2103241E+04  0.7818609E-02  0.8559817E-01
        2   -1    0    0  501    0  0.00000000000E+00  0.00000000000E+00  0.11377192282E+04  0.11377192282E+04  0.25500000920E-02 0. -1.
       -2   -1    0    0    0  501  0.00000000000E+00  0.00000000000E+00 -0.97203710779E+03  0.97203710780E+03  0.25500000920E-02 0.  1.
    10030    2    1    2    0    0  0.00000000000E+00  0.00000000000E+00  0.16568212039E+03  0.21097563360E+04  0.21032406501E+04 0.  0.
        2    1    3    3  502    0  0.43576023430E+03 -0.88354590470E+03  0.45190062337E+03  0.10838609325E+04  0.25500000920E-02 0. -1.
       -2    1    3    3    0  502 -0.43576023430E+03  0.88354590470E+03 -0.28621850298E+03  0.10258954035E+04  0.25500000920E-02 0.  1.
</event>
<event>
 5   0  0.1235817E-04  0.2093198E+04  0.7818609E-02  0.8564246E-01
        2   -1    0    0  501    0  0.00000000000E+00  0.00000000000E+00  0.97644517103E+03  0.97644517103E+03  0.25500000920E-02 0. -1.
       -2   -1    0    0    0  501  0.00000000000E+00  0.00000000000E+00 -0.11217926346E+04  0.11217926346E+04  0.25500000920E-02 0.  1.
    10030    2    1    2    0    0  0.00000000000E+00  0.00000000000E+00 -0.14534746361E+03  0.20982378057E+04  0.20931975549E+04 0.  0.
        1    1    3    3  502    0  0.46711986438E+03 -0.12767848060E+03 -0.10027366453E+04  0.11135454827E+04  0.50400001928E-02 0.  1.
       -1    1    3    3    0  502 -0.46711986438E+03  0.12767848060E+03  0.85738918168E+03  0.98469232301E+03  0.50400001928E-02 0. -1.
</event>
<event>
 5   0  0.5933905E-05  0.2079617E+04  0.7818609E-02  0.8570276E-01
        1   -1    0    0  501    0  0.00000000000E+00  0.00000000000E+00  0.11745036006E+04  0.11745036006E+04  0.50400001928E-02 0.  1.
       -1   -1    0    0    0  501  0.00000000000E+00  0.00000000000E+00 -0.92056054353E+03  0.92056054354E+03  0.50400001928E-02 0. -1.
    10030    2    1    2    0    0  0.00000000000E+00  0.00000000000E+00  0.25394305710E+03  0.20950641442E+04  0.20796169580E+04 0.  0.
        2    1    3    3  502    0  0.29221616741E+03 -0.65133384806E+03 -0.63467035010E+03  0.95521333922E+03  0.25500000920E-02 0. -1.
       -2    1    3    3    0  502 -0.29221616741E+03  0.65133384806E+03  0.88861340719E+03  0.11398508050E+04  0.25500000920E-02 0.  1.
</event>
<event>
 5   0  0.6052292E-05  0.2096357E+04  0.7818609E-02  0.8562850E-01
       -1   -1    0    0    0  501  0.00000000000E+00  0.00000000000E+00  0.18280785902E+04  0.18280785902E+04  0.50400001928E-02 0. -1.
        1   -1    0    0  501    0  0.00000000000E+00  0.00000000000E+00 -0.60100149570E+03  0.60100149573E+03  0.50400001928E-02 0.  1.
    10030    2    1    2    0    0  0.00000000000E+00  0.00000000000E+00  0.12270770945E+04  0.24290800859E+04  0.20963568084E+04 0.  0.
        1    1    3    3  502    0  0.10029912980E+04 -0.30184099446E+03  0.56750332134E+03  0.11912848314E+04  0.50400001928E-02 0.  1.
       -1    1    3    3    0  502 -0.10029912980E+04  0.30184099446E+03  0.65957377312E+03  0.12377952545E+04  0.50400001928E-02 0. -1.
</event>
<event>
 5   0  0.6263616E-05  0.2090777E+04  0.7818609E-02  0.8565317E-01
       -1   -1    0    0    0  501  0.00000000000E+00  0.00000000000E+00  0.54084027657E+03  0.54084027659E+03  0.50400001928E-02 0. -1.
        1   -1    0    0  501    0  0.00000000000E+00  0.00000000000E+00 -0.20206276429E+04  0.20206276429E+04  0.50400001928E-02 0.  1.
    10030    2    1    2    0    0  0.00000000000E+00  0.00000000000E+00 -0.14797873663E+04  0.25614679195E+04  0.20907767105E+04 0.  0.
        4    1    3    3  502    0 -0.94575089357E+03 -0.22933770213E+03 -0.12076849234E+04  0.15509819539E+04  0.12699999809E+01 0.  1.
       -4    1    3    3    0  502  0.94575089357E+03  0.22933770213E+03 -0.27210244297E+03  0.10104859656E+04  0.12699999809E+01 0. -1.
</event>
<event>
 5   0  0.1252477E-04  0.2079837E+04  0.7818609E-02  0.8570178E-01
        2   -1    0    0  501    0  0.00000000000E+00  0.00000000000E+00  0.19629595101E+04  0.19629595101E+04  0.25500000920E-02 0. -1.
       -2   -1    0    0    0  501  0.00000000000E+00  0.00000000000E+00 -0.55091820629E+03  0.55091820629E+03  0.25500000920E-02 0.  1.
    10030    2    1    2    0    0  0.00000000000E+00  0.00000000000E+00  0.14120413038E+04  0.25138777164E+04  0.20798366593E+04 0.  0.
        4    1    3    3  502    0 -0.55020194339E+03  0.32663789443E+02  0.17718901953E+04  0.18556361655E+04  0.12699999809E+01 0. -1.
       -4    1    3    3    0  502  0.55020194339E+03 -0.32663789443E+02 -0.35984889152E+03  0.65824155085E+03  0.12699999809E+01 0.  1.
</event>
<event>
 5   0  0.6221148E-05  0.2024214E+04  0.7818609E-02  0.8595383E-01
       -1   -1    0    0    0  501  0.00000000000E+00  0.00000000000E+00  0.12458171779E+04  0.12458171779E+04  0.50400001928E-02 0. -1.
        1   -1    0    0  501    0  0.00000000000E+00  0.00000000000E+00 -0.82224016089E+03  0.82224016091E+03  0.50400001928E-02 0.  1.
    10030    2    1    2    0    0  0.00000000000E+00  0.00000000000E+00  0.42357701697E+03  0.20680573388E+04  0.20242143333E+04 0.  0.
        3    1    3    3  502    0 -0.16261190077E+03  0.89102397341E+03 -0.24965162880E+03  0.93951705542E+03  0.10100000352E+00 0.  1.
       -3    1    3    3    0  502  0.16261190077E+03 -0.89102397341E+03  0.67322864576E+03  0.11285402834E+04  0.10100000352E+00 0. -1.
</event>
<event>
 5   0  0.6052292E-05  0.2164999E+04  0.7818609E-02  0.8533139E-01
       -1   -1    0    0    0  501  0.00000000000E+00  0.00000000000E+00  0.11791596685E+04  0.11791596685E+04  0.50400001928E-02 0.  1.
        1   -1    0    0  501    0  0.00000000000E+00  0.00000000000E+00 -0.99376280384E+03  0.99376280385E+03  0.50400001928E-02 0. -1.
    10030    2    1    2    0    0  0.00000000000E+00  0.00000000000E+00  0.18539686464E+03  0.21729224723E+04  0.21649988622E+04 0.  0.
        1    1    3    3  502    0 -0.83950797042E+03  0.61054380600E+03 -0.21545562631E+03  0.10601690895E+04  0.50400001928E-02 0. -1.
       -1    1    3    3    0  502  0.83950797042E+03 -0.61054380600E+03  0.40085249095E+03  0.11127533828E+04  0.50400001928E-02 0.  1.
</event>
<event>
 5   0  0.6052292E-05  0.1539668E+04  0.7818609E-02  0.8858494E-01
       -1   -1    0    0    0  501  0.00000000000E+00  0.00000000000E+00  0.48344456444E+03  0.48344456447E+03  0.50400001928E-02 0.  1.
        1   -1    0    0  501    0  0.00000000000E+00  0.00000000000E+00 -0.12258784532E+04  0.12258784532E+04  0.50400001928E-02 0. -1.
    10030    2    1    2    0    0  0.00000000000E+00  0.00000000000E+00 -0.74243388875E+03  0.17093230177E+04  0.15396678537E+04 0.  0.
        1    1    3    3  502    0  0.54554873995E+02  0.75038224430E+03 -0.55226474037E+03  0.93329850011E+03  0.50400001928E-02 0. -1.
       -1    1    3    3    0  502 -0.54554873995E+02 -0.75038224430E+03 -0.19016914839E+03  0.77602451756E+03  0.50400001928E-02 0.  1.
</event>
<event>
 5   0  0.1252477E-04  0.2124660E+04  0.7818609E-02  0.8550458E-01
        2   -1    0    0  501    0  0.00000000000E+00  0.00000000000E+00  0.11273991381E+04  0.11273991381E+04  0.25500000920E-02 0. -1.
       -2   -1    0    0    0  501  0.00000000000E+00  0.00000000000E+00 -0.10010159613E+04  0.10010159613E+04  0.25500000920E-02 0.  1.
    10030    2    1    2    0    0  0.00000000000E+00  0.00000000000E+00  0.12638317674E+03  0.21284150994E+04  0.21246595322E+04 0.  0.
        4    1    3    3  502    0 -0.19372083228E+03  0.25652890794E+03 -0.95112375446E+03  0.10039785111E+04  0.12699999809E+01 0.  1.
       -4    1    3    3    0  502  0.19372083228E+03 -0.25652890794E+03  0.10775069312E+04  0.11244365883E+04  0.12699999809E+01 0. -1.
</event>
<event>
 5   0  0.1281470E-04  0.2107540E+04  0.7818609E-02  0.8557929E-01
       -2   -1    0    0    0  501  0.00000000000E+00  0.00000000000E+00  0.62317883279E+03  0.62317883280E+03  0.25500000920E-02 0. -1.
        2   -1    0    0  501    0  0.00000000000E+00  0.00000000000E+00 -0.17818821985E+04  0.17818821985E+04  0.25500000920E-02 0.  1.
    10030    2    1    2    0    0  0.00000000000E+00  0.00000000000E+00 -0.11587033657E+04  0.24050610313E+04  0.21075400529E+04 0.  0.
        3    1    3    3  502    0 -0.15165699597E+03 -0.52334807728E+03  0.44994184229E+03  0.70664045034E+03  0.10100000352E+00 0. -1.
       -3    1    3    3    0  502  0.15165699597E+03  0.52334807728E+03 -0.16086452080E+04  0.16984205809E+04  0.10100000352E+00 0.  1.
</event>
<event>
 5   0  0.1325673E-04  0.2088738E+04  0.7818609E-02  0.8566221E-01
        2   -1    0    0  501    0  0.00000000000E+00  0.00000000000E+00  0.15153117154E+04  0.15153117154E+04  0.25500000920E-02 0. -1.
       -2   -1    0    0    0  501  0.00000000000E+00  0.00000000000E+00 -0.71979030955E+03  0.71979030956E+03  0.25500000920E-02 0.  1.
    10030    2    1    2    0    0  0.00000000000E+00  0.00000000000E+00  0.79552140587E+03  0.22351020250E+04  0.20887380771E+04 0.  0.
        5    1    3    3  502    0  0.92332107267E+03 -0.13714813675E+03 -0.10340961246E+03  0.93917360089E+03  0.46999998093E+01 0.  1.
       -5    1    3    3    0  502 -0.92332107267E+03  0.13714813675E+03  0.89893101833E+03  0.12959284241E+04  0.46999998093E+01 0. -1.
</event>
<event>
 5   0  0.1281470E-04  0.2113197E+04  0.7818609E-02  0.8555452E-01
        2   -1    0    0  501    0  0.00000000000E+00  0.00000000000E+00  0.15733245055E+04  0.15733245055E+04  0.25500000920E-02 0. -1.
       -2   -1    0    0    0  501  0.00000000000E+00  0.00000000000E+00 -0.70958065074E+03  0.70958065074E+03  0.25500000920E-02 0.  1.
    10030    2    1    2    0    0  0.00000000000E+00  0.00000000000E+00  0.86374385473E+03  0.22829051562E+04  0.21131972236E+04 0.  0.
        3    1    3    3  502    0 -0.89272700750E+03  0.14145666527E+03 -0.15927420598E+03  0.91779070651E+03  0.10100000352E+00 0.  1.
       -3    1    3    3    0  502  0.89272700750E+03 -0.14145666527E+03  0.10230180607E+04  0.13651144497E+04  0.10100000352E+00 0. -1.
</event>
<event>
 5   0  0.5846187E-05  0.2116677E+04  0.7818609E-02  0.8553932E-01
       -1   -1    0    0    0  501  0.00000000000E+00  0.00000000000E+00  0.58308524932E+03  0.58308524935E+03  0.50400001928E-02 0.  1.
        1   -1    0    0  501    0  0.00000000000E+00  0.00000000000E+00 -0.19209547203E+04  0.19209547203E+04  0.50400001928E-02 0. -1.
    10030    2    1    2    0    0  0.00000000000E+00  0.00000000000E+00 -0.13378694710E+04  0.25040399697E+04  0.21166769825E+04 0.  0.
        5    1    3    3  502    0 -0.80385509261E+03  0.63815657307E+03 -0.36356478188E+03  0.10888655850E+04  0.46999998093E+01 0. -1.
       -5    1    3    3    0  502  0.80385509261E+03 -0.63815657307E+03 -0.97430468913E+03  0.14151743846E+04  0.46999998093E+01 0.  1.
</event>
<event>
 5   0  0.1325673E-04  0.2069534E+04  0.7818609E-02  0.8574784E-01
        2   -1    0    0  501    0  0.00000000000E+00  0.00000000000E+00  0.10213680012E+04  0.10213680012E+04  0.25500000920E-02 0. -1.
       -2   -1    0    0    0  501  0.00000000000E+00  0.00000000000E+00 -0.10483415791E+04  0.10483415791E+04  0.25500000920E-02 0.  1.
    10030    2    1    2    0    0  0.00000000000E+00  0.00000000000E+00 -0.26973577873E+02  0.20697095804E+04  0.20695338058E+04 0.  0.
        5    1    3    3  502    0  0.31253740283E+03  0.87926389379E+03 -0.46066661240E+03  0.10406826802E+04  0.46999998093E+01 0.  1.
       -5    1    3    3    0  502 -0.31253740283E+03 -0.87926389379E+03  0.43369303453E+03  0.10290269002E+04  0.46999998093E+01 0. -1.
</event>
<event>
 5   0  0.1349252E-04  0.2103473E+04  0.7818609E-02  0.8559715E-01
        2   -1    0    0  501    0  0.00000000000E+00  0.00000000000E+00  0.12025408070E+04  0.12025408070E+04  0.25500000920E-02 0. -1.
       -2   -1    0    0    0  501  0.00000000000E+00  0.00000000000E+00 -0.91984352064E+03  0.91984352064E+03  0.25500000920E-02 0.  1.
    10030    2    1    2    0    0  0.00000000000E+00  0.00000000000E+00  0.28269728632E+03  0.21223843276E+04  0.21034727187E+04 0.  0.
        2    1    3    3  502    0 -0.79207504859E+03  0.38448632111E+03 -0.43909445148E+03  0.98387832126E+03  0.25500000920E-02 0. -1.
       -2    1    3    3    0  502  0.79207504859E+03 -0.38448632111E+03  0.72179173779E+03  0.11385060063E+04  0.25500000920E-02 0.  1.
</event>
<event>
 5   0  0.1325673E-04  0.2092850E+04  0.7818609E-02  0.8564400E-01
        2   -1    0    0  501    0  0.00000000000E+00  0.00000000000E+00  0.10896209433E+04  0.10896209433E+04  0.25500000920E-02 0. -1.
       -2   -1    0    0    0  501  0.00000000000E+00  0.00000000000E+00 -0.10049410404E+04  0.10049410405E+04  0.25500000920E-02 0.  1.
    10030    2    1    2    0    0  0.00000000000E+00  0.00000000000E+00  0.84679902848E+02  0.20945619838E+04  0.20928495450E+04 0.  0.
        5    1    3    3  502    0  0.31923420724E+03 -0.78839250520E+03  0.65235446321E+03  0.10719429355E+04  0.46999998093E+01 0. -1.
       -5    1    3    3    0  502 -0.31923420724E+03  0.78839250520E+03 -0.56767456036E+03  0.10226190482E+04  0.46999998093E+01 0.  1.
</event>
<event>
 5   0  0.6052292E-05  0.2116863E+04  0.7818609E-02  0.8553851E-01
       -1   -1    0    0    0  501  0.00000000000E+00  0.00000000000E+00  0.90577200762E+03  0.90577200763E+03  0.50400001928E-02 0.  1.
        1   -1    0    0  501    0  0.00000000000E+00  0.00000000000E+00 -0.12368205823E+04  0.12368205823E+04  0.50400001928E-02 0. -1.
    10030    2    1    2    0    0  0.00000000000E+00  0.00000000000E+00 -0.33104857465E+03  0.21425925899E+04  0.21168632095E+04 0.  0.
        1    1    3    3  502    0  0.78253546514E+03 -0.37579242036E+03  0.44739000745E+03  0.97659588172E+03  0.50400001928E-02 0.  1.
       -1    1    3    3    0  502 -0.78253546514E+03  0.37579242036E+03 -0.77843858209E+03  0.11659967082E+04  0.50400001928E-02 0. -1.
</event>
<event>
 5   0  0.1349252E-04  0.2084409E+04  0.7818609E-02  0.8568143E-01
        2   -1    0    0  501    0  0.00000000000E+00  0.00000000000E+00  0.20113946503E+04  0.20113946503E+04  0.25500000920E-02 0. -1.
       -2   -1    0    0    0  501  0.00000000000E+00  0.00000000000E+00 -0.54001825371E+03  0.54001825372E+03  0.25500000920E-02 0.  1.
    10030    2    1    2    0    0  0.00000000000E+00  0.00000000000E+00  0.14713763966E+04  0.25514129040E+04  0.20844086227E+04 0.  0.
        2    1    3    3  502    0  0.18850967258E+03 -0.47948300538E+03 -0.37323974292E+03  0.63619788966E+03  0.25500000920E-02 0.  1.
       -2    1    3    3    0  502 -0.18850967258E+03  0.47948300538E+03  0.18446161395E+04  0.19152150144E+04  0.25500000920E-02 0. -1.
</event>
<event>
 5   0  0.5846187E-05  0.2091388E+04  0.7818609E-02  0.8565046E-01
        1   -1    0    0  501    0  0.00000000000E+00  0.00000000000E+00  0.10535268323E+04  0.10535268323E+04  0.50400001928E-02 0.  1.
       -1   -1    0    0    0  501  0.00000000000E+00  0.00000000000E+00 -0.10379195850E+04  0.10379195850E+04  0.50400001928E-02 0. -1.
    10030    2    1    2    0    0  0.00000000000E+00  0.00000000000E+00  0.15607247338E+02  0.20914464173E+04  0.20913881826E+04 0.  0.
        5    1    3    3  502    0 -0.48942290659E+03 -0.25131321381E+03  0.89707577986E+03  0.10523593292E+04  0.46999998093E+01 0.  1.
       -5    1    3    3    0  502  0.48942290659E+03  0.25131321381E+03 -0.88146853252E+03  0.10390870881E+04  0.46999998093E+01 0. -1.
</event>
<event>
 5   0  0.6221148E-05  0.2097859E+04  0.7818609E-02  0.8562187E-01
        1   -1    0    0  501    0  0.00000000000E+00  0.00000000000E+00  0.11599818703E+04  0.11599818703E+04  0.50400001928E-02 0. -1.
       -1   -1    0    0    0  501  0.00000000000E+00  0.00000000000E+00 -0.94850849055E+03  0.94850849056E+03  0.50400001928E-02 0.  1.
    10030    2    1    2    0    0  0.00000000000E+00  0.00000000000E+00  0.21147337978E+03  0.21084903609E+04  0.20978585776E+04 0.  0.
        3    1    3    3  502    0 -0.45310230109E+03  0.48773252124E+03  0.92044200415E+03  0.11359569537E+04  0.10100000352E+00 0. -1.
       -3    1    3    3    0  502  0.45310230109E+03 -0.48773252124E+03 -0.70896862437E+03  0.97253340718E+03  0.10100000352E+00 0.  1.
</event>
<event>
 5   0  0.1252477E-04  0.2124498E+04  0.7818609E-02  0.8550528E-01
        2   -1    0    0  501    0  0.00000000000E+00  0.00000000000E+00  0.20275286316E+04  0.20275286316E+04  0.25500000920E-02 0. -1.
       -2   -1    0    0    0  501  0.00000000000E+00  0.00000000000E+00 -0.55652646045E+03  0.55652646045E+03  0.25500000920E-02 0.  1.
    10030    2    1    2    0    0  0.00000000000E+00  0.00000000000E+00  0.14710021711E+04  0.25840550920E+04  0.21244983717E+04 0.  0.
        4    1    3    3  502    0 -0.70592585345E+02 -0.10450073842E+04  0.95085367751E+03  0.14146194100E+04  0.12699999809E+01 0.  1.
       -4    1    3    3    0  502  0.70592585345E+02  0.10450073842E+04  0.52014849362E+03  0.11694356821E+04  0.12699999809E+01 0. -1.
</event>
<event>
 5   0  0.5846187E-05  0.1931046E+04  0.7818609E-02  0.8639555E-01
       -1   -1    0    0    0  501  0.00000000000E+00  0.00000000000E+00  0.65080366305E+03  0.65080366307E+03  0.50400001928E-02 0. -1.
        1   -1    0    0  501    0  0.00000000000E+00  0.00000000000E+00 -0.14324357056E+04  0.14324357056E+04  0.50400001928E-02 0.  1.
    10030    2    1    2    0    0  0.00000000000E+00  0.00000000000E+00 -0.78163204253E+03  0.20832393687E+04  0.19310457315E+04 0.  0.
        5    1    3    3  502    0 -0.69214881159E+03 -0.39459538246E+03 -0.97917716105E+03  0.12623729623E+04  0.46999998093E+01 0.  1.
       -5    1    3    3    0  502  0.69214881159E+03  0.39459538246E+03  0.19754511852E+03  0.82086640636E+03  0.46999998093E+01 0. -1.
</event>
<event>
 5   0  0.6263616E-05  0.2174022E+04  0.7818609E-02  0.8529319E-01
        1   -1    0    0  501    0  0.00000000000E+00  0.00000000000E+00  0.21439566969E+04  0.21439566969E+04  0.50400001928E-02 0.  1.
       -1   -1    0    0    0  501  0.00000000000E+00  0.00000000000E+00 -0.55112721636E+03  0.55112721638E+03  0.50400001928E-02 0. -1.
    10030    2    1    2    0    0  0.00000000000E+00  0.00000000000E+00  0.15928294806E+04  0.26950839133E+04  0.21740219745E+04 0.  0.
        4    1    3    3  502    0  0.75594955034E+03  0.41742273108E+03 -0.22043871517E+02  0.86382232216E+03  0.12699999809E+01 0. -1.
       -4    1    3    3    0  502 -0.75594955034E+03 -0.41742273108E+03  0.16148733521E+04  0.18312615912E+04  0.12699999809E+01 0.  1.
</event>
<event>
 5   0  0.6221148E-05  0.2060244E+04  0.7818609E-02  0.8578961E-01
       -1   -1    0    0    0  501  0.00000000000E+00  0.00000000000E+00  0.50552241434E+03  0.50552241436E+03  0.50400001928E-02 0. -1.
        1   -1    0    0  501    0  0.00000000000E+00  0.00000000000E+00 -0.20991184703E+04  0.20991184703E+04  0.50400001928E-02 0.  1.
    10030    2    1    2    0    0  0.00000000000E+00  0.00000000000E+00 -0.15935960560E+04  0.26046408847E+04  0.20602440993E+04 0.  0.
        3    1    3    3  502    0  0.88283189351E+03 -0.87790528087E+02 -0.14586269468E+04  0.17072468800E+04  0.10100000352E+00 0.  1.
       -3    1    3    3    0  502 -0.88283189351E+03  0.87790528087E+02 -0.13496910914E+03  0.89739400469E+03  0.10100000352E+00 0. -1.
</event>
<event>
 5   0  0.1281470E-04  0.2026890E+04  0.7818609E-02  0.8594151E-01
        2   -1    0    0  501    0  0.00000000000E+00  0.00000000000E+00  0.15297583697E+04  0.15297583697E+04  0.25500000920E-02 0. -1.
       -2   -1    0    0    0  501  0.00000000000E+00  0.00000000000E+00 -0.67139438033E+03  0.67139438033E+03  0.25500000920E-02 0.  1.
    10030    2    1    2    0    0  0.00000000000E+00  0.00000000000E+00  0.85836398940E+03  0.22011527501E+04  0.20268903993E+04 0.  0.
        3    1    3    3  502    0  0.39081729419E+03  0.42923293901E+02  0.14435610967E+04  0.14961447847E+04  0.10100000352E+00 0. -1.
       -3    1    3    3    0  502 -0.39081729419E+03 -0.42923293901E+02 -0.58519710733E+03  0.70500796536E+03  0.10100000352E+00 0.  1.
</event>
<event>
 5   0  0.6263616E-05  0.2139948E+04  0.7818609E-02  0.8543847E-01
        1   -1    0    0  501    0  0.00000000000E+00  0.00000000000E+00  0.16936665728E+04  0.16936665728E+04  0.50400001928E-02 0.  1.
       -1   -1    0    0    0  501  0.00000000000E+00  0.00000000000E+00 -0.67595619335E+03  0.67595619337E+03  0.50400001928E-02 0. -1.
    10030    2    1    2    0    0  0.00000000000E+00  0.00000000000E+00  0.10177103794E+04  0.23696227662E+04  0.21399480455E+04 0.  0.
        4    1    3    3  502    0  0.48543761676E+03 -0.58739118907E+03  0.13405786304E+04  0.15420216490E+04  0.12699999809E+01 0.  1.
       -4    1    3    3    0  502 -0.48543761676E+03  0.58739118907E+03 -0.32286825096E+03  0.82760111717E+03  0.12699999809E+01 0. -1.
</event>
<event>
 5   0  0.5846187E-05  0.2078802E+04  0.7818609E-02  0.8570639E-01
       -1   -1    0    0    0  501  0.00000000000E+00  0.00000000000E+00  0.68068192107E+03  0.68068192109E+03  0.50400001928E-02 0. -1.
        1   -1    0    0  501    0  0.00000000000E+00  0.00000000000E+00 -0.15871649730E+04  0.15871649730E+04  0.50400001928E-02 0.  1.
    10030    2    1    2    0    0  0.00000000000E+00  0.00000000000E+00 -0.90648305194E+03  0.22678468941E+04  0.20788020617E+04 0.  0.
        5    1    3    3  502    0  0.43226928788E+03  0.58853149639E+03  0.35368960666E+03  0.81138430312E+03  0.46999998093E+01 0. -1.
       -5    1    3    3    0  502 -0.43226928788E+03 -0.58853149639E+03 -0.12601726586E+04  0.14564625910E+04  0.46999998093E+01 0.  1.
</event>
<event>
 5   0  0.1325673E-04  0.2104104E+04  0.7818609E-02  0.8559438E-01
       -2   -1    0    0    0  501  0.00000000000E+00  0.00000000000E+00  0.45949570032E+03  0.45949570033E+03  0.25500000920E-02 0. -1.
        2   -1    0    0  501    0  0.00000000000E+00  0.00000000000E+00 -0.24087564501E+04  0.24087564501E+04  0.25500000920E-02 0.  1.
    10030    2    1    2    0    0  0.00000000000E+00  0.00000000000E+00 -0.19492607498E+04  0.28682521504E+04  0.21041038301E+04 0.  0.
        5    1    3    3  502    0  0.78987852683E+03 -0.64850144279E+02 -0.31500125883E+02  0.79317587980E+03  0.46999998093E+01 0. -1.
       -5    1    3    3    0  502 -0.78987852683E+03  0.64850144279E+02 -0.19177606239E+04  0.20750762707E+04  0.46999998093E+01 0.  1.
</event>
<event>
 5   0  0.5846187E-05  0.2095430E+04  0.7818609E-02  0.8563259E-01
        1   -1    0    0  501    0  0.00000000000E+00  0.00000000000E+00  0.13596304762E+04  0.13596304762E+04  0.50400001928E-02 0.  1.
       -1   -1    0    0    0  501  0.00000000000E+00  0.00000000000E+00 -0.80735671380E+03  0.80735671382E+03  0.50400001928E-02 0. -1.
    10030    2    1    2    0    0  0.00000000000E+00  0.00000000000E+00  0.55227376243E+03  0.21669871901E+04  0.20954300688E+04 0.  0.
        5    1    3    3  502    0 -0.49614468054E+03 -0.49097381830E+03  0.10841441898E+04  0.12894206252E+04  0.46999998093E+01 0.  1.
       -5    1    3    3    0  502  0.49614468054E+03  0.49097381830E+03 -0.53187042739E+03  0.87756656489E+03  0.46999998093E+01 0. -1.
</event>
<event>
 5   0  0.1252477E-04  0.2105476E+04  0.7818609E-02  0.8558835E-01
        2   -1    0    0  501    0  0.00000000000E+00  0.00000000000E+00  0.20940397864E+04  0.20940397864E+04  0.25500000920E-02 0. -1.
       -2   -1    0    0    0  501  0.00000000000E+00  0.00000000000E+00 -0.52924358564E+03  0.52924358564E+03  0.25500000920E-02 0.  1.
    10030    2    1    2    0    0  0.00000000000E+00  0.00000000000E+00  0.15647962007E+04  0.26232833720E+04  0.21054758370E+04 0.  0.
        4    1    3    3  502    0  0.52944045711E+03 -0.57958011824E+03 -0.91564869396E+02  0.79032021946E+03  0.12699999809E+01 0.  1.
       -4    1    3    3    0  502 -0.52944045711E+03  0.57958011824E+03  0.16563610701E+04  0.18329631525E+04  0.12699999809E+01 0. -1.
</event>
<event>
 5   0  0.6263616E-05  0.2102279E+04  0.7818609E-02  0.8560240E-01
        1   -1    0    0  501    0  0.00000000000E+00  0.00000000000E+00  0.12520028835E+04  0.12520028835E+04  0.50400001928E-02 0.  1.
       -1   -1    0    0    0  501  0.00000000000E+00  0.00000000000E+00 -0.88250110832E+03  0.88250110833E+03  0.50400001928E-02 0. -1.
    10030    2    1    2    0    0  0.00000000000E+00  0.00000000000E+00  0.36950177517E+03  0.21345039918E+04  0.21022786992E+04 0.  0.
        4    1    3    3  502    0 -0.78990341997E+03 -0.39471546912E+03 -0.39420431046E+03  0.96702966124E+03  0.12699999809E+01 0. -1.
       -4    1    3    3    0  502  0.78990341997E+03  0.39471546912E+03  0.76370608564E+03  0.11674743306E+04  0.12699999809E+01 0.  1.
</event>
<event>
 5   0  0.5933905E-05  0.2111896E+04  0.7818609E-02  0.8556021E-01
        1   -1    0    0  501    0  0.00000000000E+00  0.00000000000E+00  0.12372151474E+04  0.12372151474E+04  0.50400001928E-02 0. -1.
       -1   -1    0    0    0  501  0.00000000000E+00  0.00000000000E+00 -0.90123847929E+03  0.90123847930E+03  0.50400001928E-02 0.  1.
    10030    2    1    2    0    0  0.00000000000E+00  0.00000000000E+00  0.33597666809E+03  0.21384536267E+04  0.21118957342E+04 0.  0.
        2    1    3    3  502    0 -0.19307658799E+03  0.14595751428E+02  0.12190856189E+04  0.12343667814E+04  0.25500000920E-02 0. -1.
       -2    1    3    3    0  502  0.19307658799E+03 -0.14595751428E+02 -0.88310895082E+03  0.90408684528E+03  0.25500000920E-02 0.  1.
</event>
<event>
 5   0  0.6221148E-05  0.2147368E+04  0.7818609E-02  0.8540660E-01
        1   -1    0    0  501    0  0.00000000000E+00  0.00000000000E+00  0.72119240499E+03  0.72119240501E+03  0.50400001928E-02 0.  1.
       -1   -1    0    0    0  501  0.00000000000E+00  0.00000000000E+00 -0.15984600108E+04  0.15984600108E+04  0.50400001928E-02 0. -1.
    10030    2    1    2    0    0  0.00000000000E+00  0.00000000000E+00 -0.87726760581E+03  0.23196524158E+04  0.21473678954E+04 0.  0.
        3    1    3    3  502    0  0.24581909046E+03 -0.48831712213E+03 -0.14368490036E+04  0.15373404653E+04  0.10100000352E+00 0. -1.
       -3    1    3    3    0  502 -0.24581909046E+03  0.48831712213E+03  0.55958139776E+03  0.78231195051E+03  0.10100000352E+00 0.  1.
</event>
<event>
 5   0  0.1281470E-04  0.2097326E+04  0.7818609E-02  0.8562422E-01
       -2   -1    0    0    0  501  0.00000000000E+00  0.00000000000E+00  0.55727520885E+03  0.55727520886E+03  0.25500000920E-02 0.  1.
        2   -1    0    0  501    0  0.00000000000E+00  0.00000000000E+00 -0.19733415824E+04  0.19733415824E+04  0.25500000920E-02 0. -1.
    10030    2    1    2    0    0  0.00000000000E+00  0.00000000000E+00 -0.14160663735E+04  0.25306167912E+04  0.20973262431E+04 0.  0.
        3    1    3    3  502    0  0.41927809807E+03 -0.35599943632E+03  0.36926120590E+03  0.66248288323E+03  0.10100000352E+00 0.  1.
       -3    1    3    3    0  502 -0.41927809807E+03  0.35599943632E+03 -0.17853275794E+04  0.18681339080E+04  0.10100000352E+00 0. -1.
</event>
<event>
 5   0  0.5933905E-05  0.2099813E+04  0.7818609E-02  0.8561326E-01
       -1   -1    0    0    0  501  0.00000000000E+00  0.00000000000E+00  0.94610179991E+03  0.94610179993E+03  0.50400001928E-02 0.  1.
        1   -1    0    0  501    0  0.00000000000E+00  0.00000000000E+00 -0.11651004660E+04  0.11651004660E+04  0.50400001928E-02 0. -1.
    10030    2    1    2    0    0  0.00000000000E+00  0.00000000000E+00 -0.21899866607E+03  0.21112022659E+04  0.20998129897E+04 0.  0.
        2    1    3    3  502    0 -0.47437390918E+03  0.74155024009E+03 -0.68477079818E+03  0.11152750380E+04  0.25500000920E-02 0. -1.
       -2    1    3    3    0  502  0.47437390918E+03 -0.74155024009E+03  0.46577213211E+03  0.99592722794E+03  0.25500000920E-02 0.  1.
</event>
<event>
 5   0  0.5933905E-05  0.2115619E+04  0.7818609E-02  0.8554394E-01
       -1   -1    0    0    0  501  0.00000000000E+00  0.00000000000E+00  0.89765076869E+03  0.89765076871E+03  0.50400001928E-02 0.  1.
        1   -1    0    0  501    0  0.00000000000E+00  0.00000000000E+00 -0.12465433345E+04  0.12465433345E+04  0.50400001928E-02 0. -1.
    10030    2    1    2    0    0  0.00000000000E+00  0.00000000000E+00 -0.34889256576E+03  0.21441941032E+04  0.21156186636E+04 0.  0.
        2    1    3    3  502    0 -0.99888629539E+03 -0.33874794054E+03 -0.25575824299E+03  0.10853277280E+04  0.25500000920E-02 0.  1.
       -2    1    3    3    0  502  0.99888629539E+03  0.33874794054E+03 -0.93134322771E+02  0.10588663752E+04  0.25500000920E-02 0. -1.
</event>
<event>
 5   0  0.1325673E-04  0.2115453E+04  0.7818609E-02  0.8554467E-01
        2   -1    0    0  501    0  0.00000000000E+00  0.00000000000E+00  0.19660809518E+04  0.19660809518E+04  0.25500000920E-02 0. -1.
       -2   -1    0    0    0  501  0.00000000000E+00  0.00000000000E+00 -0.56904314305E+03  0.56904314305E+03  0.25500000920E-02 0.  1.
    10030    2    1    2    0    0  0.00000000000E+00  0.00000000000E+00  0.13970378087E+04  0.25351240948E+04  0.21154525608E+04 0.  0.
        5    1    3    3  502    0 -0.89441227467E+03  0.39136780095E+03  0.21081832834E+03  0.99880354939E+03  0.46999998093E+01 0.  1.
       -5    1    3    3    0  502  0.89441227467E+03 -0.39136780095E+03  0.11862194804E+04  0.15363205454E+04  0.46999998093E+01 0. -1.
</event>
<event>
 5   0  0.1252477E-04  0.2103483E+04  0.7818609E-02  0.8559711E-01
       -2   -1    0    0    0  501  0.00000000000E+00  0.00000000000E+00  0.87346200586E+03  0.87346200586E+03  0.25500000920E-02 0.  1.
        2   -1    0    0  501    0  0.00000000000E+00  0.00000000000E+00 -0.12664088330E+04  0.12664088330E+04  0.25500000920E-02 0. -1.
    10030    2    1    2    0    0  0.00000000000E+00  0.00000000000E+00 -0.39294682717E+03  0.21398708389E+04  0.21034828257E+04 0.  0.
        4    1    3    3  502    0 -0.76937529718E+03  0.43838636825E+03 -0.77377369152E+03  0.11759457021E+04  0.12699999809E+01 0. -1.
       -4    1    3    3    0  502  0.76937529718E+03 -0.43838636825E+03  0.38082686435E+03  0.96392513677E+03  0.12699999809E+01 0.  1.
</event>
<event>
 5   0  0.5933905E-05  0.2086850E+04  0.7818609E-02  0.8567058E-01
       -1   -1    0    0    0  501  0.00000000000E+00  0.00000000000E+00  0.91165365847E+03  0.91165365848E+03  0.50400001928E-02 0.  1.
        1   -1    0    0  501    0  0.00000000000E+00  0.00000000000E+00 -0.11942432332E+04  0.11942432332E+04  0.50400001928E-02 0. -1.
    10030    2    1    2    0    0  0.00000000000E+00  0.00000000000E+00 -0.28258957475E+03  0.21058968917E+04  0.20868504620E+04 0.  0.
        2    1    3    3  502    0  0.70848994591E+03 -0.45926463692E+01 -0.91428671163E+03  0.11566759645E+04  0.25500000920E-02 0. -1.
       -2    1    3    3    0  502 -0.70848994591E+03  0.45926463692E+01  0.63169713688E+03  0.94922092718E+03  0.25500000920E-02 0.  1.
</event>
<event>
 5   0  0.6052292E-05  0.2001589E+04  0.7818609E-02  0.8605878E-01
        1   -1    0    0  501    0  0.00000000000E+00  0.00000000000E+00  0.93402745041E+03  0.93402745043E+03  0.50400001928E-02 0.  1.
       -1   -1    0    0    0  501  0.00000000000E+00  0.00000000000E+00 -0.10723337523E+04  0.10723337523E+04  0.50400001928E-02 0. -1.
    10030    2    1    2    0    0  0.00000000000E+00  0.00000000000E+00 -0.13830630192E+03  0.20063612028E+04  0.20015885299E+04 0.  0.
        1    1    3    3  502    0 -0.60510906432E+03 -0.28299436266E+03  0.67783942745E+03  0.95168748991E+03  0.50400001928E-02 0.  1.
       -1    1    3    3    0  502  0.60510906432E+03  0.28299436266E+03 -0.81614572937E+03  0.10546737129E+04  0.50400001928E-02 0. -1.
</event>
<event>
 5   0  0.6221148E-05  0.2100447E+04  0.7818609E-02  0.8561046E-01
        1   -1    0    0  501    0  0.00000000000E+00  0.00000000000E+00  0.11109809143E+04  0.11109809143E+04  0.50400001928E-02 0.  1.
       -1   -1    0    0    0  501  0.00000000000E+00  0.00000000000E+00 -0.99278888479E+03  0.99278888480E+03  0.50400001928E-02 0. -1.
    10030    2    1    2    0    0  0.00000000000E+00  0.00000000000E+00  0.11819202951E+03  0.21037697991E+04  0.21004470981E+04 0.  0.
        3    1    3    3  502    0 -0.17981780738E+03 -0.23215884493E+03  0.10690250326E+04  0.11086237882E+04  0.10100000352E+00 0.  1.
       -3    1    3    3    0  502  0.17981780738E+03  0.23215884493E+03 -0.95083300310E+03  0.99514601095E+03  0.10100000352E+00 0. -1.
</event>
<event>
 5   0  0.1349252E-04  0.2111612E+04  0.7818609E-02  0.8556145E-01
       -2   -1    0    0    0  501  0.00000000000E+00  0.00000000000E+00  0.12834737465E+04  0.12834737465E+04  0.25500000920E-02 0. -1.
        2   -1    0    0  501    0  0.00000000000E+00  0.00000000000E+00 -0.86852303260E+03  0.86852303261E+03  0.25500000920E-02 0.  1.
    10030    2    1    2    0    0  0.00000000000E+00  0.00000000000E+00  0.41495071386E+03  0.21519967791E+04  0.21116121903E+04 0.  0.
        2    1    3    3  502    0 -0.19415744222E+02  0.36699269983E+03  0.12161856482E+04  0.12704991711E+04  0.25500000920E-02 0. -1.
       -2    1    3    3    0  502  0.19415744222E+02 -0.36699269983E+03 -0.80123493434E+03  0.88149760798E+03  0.25500000920E-02 0.  1.
</event>
<event>
 5   0  0.6052292E-05  0.2102859E+04  0.7818609E-02  0.8559985E-01
       -1   -1    0    0    0  501  0.00000000000E+00  0.00000000000E+00  0.10160169102E+04  0.10160169102E+04  0.50400001928E-02 0. -1.
        1   -1    0    0  501    0  0.00000000000E+00  0.00000000000E+00 -0.10880764696E+04  0.10880764697E+04  0.50400001928E-02 0.  1.
    10030    2    1    2    0    0  0.00000000000E+00  0.00000000000E+00 -0.72059559434E+02  0.21040933799E+04  0.21028590945E+04 0.  0.
        1    1    3    3  502    0  0.12036402040E+03 -0.77911535502E+03 -0.73213623284E+03  0.10758864704E+04  0.50400001928E-02 0.  1.
       -1    1    3    3    0  502 -0.12036402040E+03  0.77911535502E+03  0.66007667340E+03  0.10282069094E+04  0.50400001928E-02 0. -1.
</event>
<event>
 5   0  0.1325673E-04  0.2071628E+04  0.7818609E-02  0.8573845E-01
       -2   -1    0    0    0  501  0.00000000000E+00  0.00000000000E+00  0.90553506134E+03  0.90553506135E+03  0.25500000920E-02 0.  1.
        2   -1    0    0  501    0  0.00000000000E+00  0.00000000000E+00 -0.11848361472E+04  0.11848361472E+04  0.25500000920E-02 0. -1.
    10030    2    1    2    0    0  0.00000000000E+00  0.00000000000E+00 -0.27930108585E+03  0.20903712085E+04  0.20716280296E+04 0.  0.
        5    1    3    3  502    0 -0.51405382973E+03  0.21482409618E+03  0.74145533963E+03  0.92745827013E+03  0.46999998093E+01 0.  1.
       -5    1    3    3    0  502  0.51405382973E+03 -0.21482409618E+03 -0.10207564255E+04  0.11629129384E+04  0.46999998093E+01 0. -1.
</event>
<event>
 5   0  0.6221148E-05  0.2046351E+04  0.7818609E-02  0.8585252E-01
       -1   -1    0    0    0  501  0.00000000000E+00  0.00000000000E+00  0.10155015866E+04  0.10155015866E+04  0.50400001928E-02 0.  1.
        1   -1    0    0  501    0  0.00000000000E+00  0.00000000000E+00 -0.10309070385E+04  0.10309070385E+04  0.50400001928E-02 0. -1.
    10030    2    1    2    0    0  0.00000000000E+00  0.00000000000E+00 -0.15405451971E+02  0.20464086251E+04  0.20463506378E+04 0.  0.
        3    1    3    3  502    0  0.27981490997E+03  0.32337447206E+03  0.92185053126E+03  0.10162065957E+04  0.10100000352E+00 0.  1.
       -3    1    3    3    0  502 -0.27981490997E+03 -0.32337447206E+03 -0.93725598323E+03  0.10302020294E+04  0.10100000352E+00 0. -1.
</event>
<event>
 5   0  0.1349252E-04  0.2097137E+04  0.7818609E-02  0.8562506E-01
       -2   -1    0    0    0  501  0.00000000000E+00  0.00000000000E+00  0.62028556901E+03  0.62028556902E+03  0.25500000920E-02 0.  1.
        2   -1    0    0  501    0  0.00000000000E+00  0.00000000000E+00 -0.17725641833E+04  0.17725641833E+04  0.25500000920E-02 0. -1.
    10030    2    1    2    0    0  0.00000000000E+00  0.00000000000E+00 -0.11522786143E+04  0.23928497523E+04  0.20971370800E+04 0.  0.
        2    1    3    3  502    0 -0.77590466621E+03 -0.66804166426E+03 -0.31798830027E+03  0.10721120629E+04  0.25500000920E-02 0.  1.
       -2    1    3    3    0  502  0.77590466621E+03  0.66804166426E+03 -0.83429031399E+03  0.13207376894E+04  0.25500000920E-02 0. -1.
</event>
<event>
 5   0  0.4615125E-05  0.2191320E+04  0.7818609E-02  0.8522050E-01
       -3   -1    0    0    0  501  0.00000000000E+00  0.00000000000E+00  0.14773462939E+04  0.14773462973E+04  0.10100000352E+00 0. -1.
        3   -1    0    0  501    0  0.00000000000E+00  0.00000000000E+00 -0.81258595737E+03  0.81258596364E+03  0.10100000352E+00 0.  1.
    10030    2    1    2    0    0  0.00000000000E+00  0.00000000000E+00  0.66476033651E+03  0.22899322610E+04  0.21913200257E+04 0.  0.
        1    1    3    3  502    0 -0.57743385382E+03 -0.24632612396E+03  0.12707683166E+04  0.14173773419E+04  0.50400001928E-02 0. -1.
       -1    1    3    3    0  502  0.57743385382E+03  0.24632612396E+03 -0.60600798007E+03  0.87255491908E+03  0.50400001928E-02 0.  1.
</event>
<event>
 5   0  0.1325673E-04  0.2123800E+04  0.7818609E-02  0.8550831E-01
       -2   -1    0    0    0  501  0.00000000000E+00  0.00000000000E+00  0.59608082841E+03  0.59608082842E+03  0.25500000920E-02 0.  1.
        2   -1    0    0  501    0  0.00000000000E+00  0.00000000000E+00 -0.18917431340E+04  0.18917431340E+04  0.25500000920E-02 0. -1.
    10030    2    1    2    0    0  0.00000000000E+00  0.00000000000E+00 -0.12956623056E+04  0.24878239624E+04  0.21238001925E+04 0.  0.
        5    1    3    3  502    0  0.32320101928E+03  0.28567553845E+03 -0.17844777348E+04  0.18358791595E+04  0.46999998093E+01 0. -1.
       -5    1    3    3    0  502 -0.32320101928E+03 -0.28567553845E+03  0.48881542928E+03  0.65194480290E+03  0.46999998093E+01 0.  1.
</event>
<event>
 5   0  0.6052292E-05  0.2080760E+04  0.7818609E-02  0.8569767E-01
        1   -1    0    0  501    0  0.00000000000E+00  0.00000000000E+00  0.57026013053E+03  0.57026013055E+03  0.50400001928E-02 0.  1.
       -1   -1    0    0    0  501  0.00000000000E+00  0.00000000000E+00 -0.18980639279E+04  0.18980639279E+04  0.50400001928E-02 0. -1.
    10030    2    1    2    0    0  0.00000000000E+00  0.00000000000E+00 -0.13278037973E+04  0.24683240584E+04  0.20807596529E+04 0.  0.
        1    1    3    3  502    0  0.50093696162E+02  0.54069342110E+03 -0.17166251267E+04  0.18004612131E+04  0.50400001928E-02 0. -1.
       -1    1    3    3    0  502 -0.50093696162E+02 -0.54069342110E+03  0.38882132938E+03  0.66786284537E+03  0.50400001928E-02 0.  1.
</event>
<event>
 5   0  0.5933905E-05  0.2086596E+04  0.7818609E-02  0.8567171E-01
       -1   -1    0    0    0  501  0.00000000000E+00  0.00000000000E+00  0.40427904737E+03  0.40427904740E+03  0.50400001928E-02 0. -1.
        1   -1    0    0  501    0  0.00000000000E+00  0.00000000000E+00 -0.26923736121E+04  0.26923736121E+04  0.50400001928E-02 0.  1.
    10030    2    1    2    0    0  0.00000000000E+00  0.00000000000E+00 -0.22880945648E+04  0.30966526595E+04  0.20865955422E+04 0.  0.
        2    1    3    3  502    0  0.15308446836E+03  0.45760512562E+03  0.22872330592E+03  0.53399593269E+03  0.25500000920E-02 0. -1.
       -2    1    3    3    0  502 -0.15308446836E+03 -0.45760512562E+03 -0.25168178707E+04  0.25626567269E+04  0.25500000920E-02 0.  1.
</event>
<event>
 5   0  0.1281470E-04  0.2057570E+04  0.7818609E-02  0.8580168E-01
       -2   -1    0    0    0  501  0.00000000000E+00  0.00000000000E+00  0.45174300526E+03  0.45174300527E+03  0.25500000920E-02 0. -1.
        2   -1    0    0  501    0  0.00000000000E+00  0.00000000000E+00 -0.23429208310E+04  0.23429208310E+04  0.25500000920E-02 0.  1.
    10030    2    1    2    0    0  0.00000000000E+00  0.00000000000E+00 -0.18911778257E+04  0.27946638362E+04  0.20575695345E+04 0.  0.
        3    1    3    3  502    0 -0.96775704948E+03  0.15543873166E+03 -0.52108182007E+03  0.11100635926E+04  0.10100000352E+00 0. -1.
       -3    1    3    3    0  502  0.96775704948E+03 -0.15543873166E+03 -0.13700960056E+04  0.16846002437E+04  0.10100000352E+00 0.  1.
</event>
<event>
 5   0  0.5846187E-05  0.2090856E+04  0.7818609E-02  0.8565282E-01
       -1   -1    0    0    0  501  0.00000000000E+00  0.00000000000E+00  0.41794998420E+03  0.41794998423E+03  0.50400001928E-02 0.  1.
        1   -1    0    0  501    0  0.00000000000E+00  0.00000000000E+00 -0.26149526921E+04  0.26149526921E+04  0.50400001928E-02 0. -1.
    10030    2    1    2    0    0  0.00000000000E+00  0.00000000000E+00 -0.21970027079E+04  0.30329026763E+04  0.20908557448E+04 0.  0.
        5    1    3    3  502    0 -0.46942956705E+03 -0.65473710701E+03 -0.13210838193E+03  0.81640646267E+03  0.46999998093E+01 0.  1.
       -5    1    3    3    0  502  0.46942956705E+03  0.65473710701E+03 -0.20648943260E+04  0.22164962137E+04  0.46999998093E+01 0. -1.
</event>
<event>
 5   0  0.1235817E-04  0.2097818E+04  0.7818609E-02  0.8562205E-01
        2   -1    0    0  501    0  0.00000000000E+00  0.00000000000E+00  0.84747305524E+03  0.84747305525E+03  0.25500000920E-02 0. -1.
       -2   -1    0    0    0  501  0.00000000000E+00  0.00000000000E+00 -0.12982241797E+04  0.12982241797E+04  0.25500000920E-02 0.  1.
    10030    2    1    2    0    0  0.00000000000E+00  0.00000000000E+00 -0.45075112445E+03  0.21456972349E+04  0.20978179253E+04 0.  0.
        1    1    3    3  502    0 -0.63383311267E+03 -0.10677233377E+03  0.62243660770E+03  0.89474693439E+03  0.50400001928E-02 0. -1.
       -1    1    3    3    0  502  0.63383311267E+03  0.10677233377E+03 -0.10731877321E+04  0.12509503005E+04  0.50400001928E-02 0.  1.
</event>
<event>
 5   0  0.6052292E-05  0.2099489E+04  0.7818609E-02  0.8561468E-01
       -1   -1    0    0    0  501  0.00000000000E+00  0.00000000000E+00  0.88344371705E+03  0.88344371706E+03  0.50400001928E-02 0.  1.
        1   -1    0    0  501    0  0.00000000000E+00  0.00000000000E+00 -0.12473505817E+04  0.12473505817E+04  0.50400001928E-02 0. -1.
    10030    2    1    2    0    0  0.00000000000E+00  0.00000000000E+00 -0.36390686463E+03  0.21307942987E+04  0.20994894945E+04 0.  0.
        1    1    3    3  502    0 -0.16384579713E+03 -0.10175253415E+04 -0.38432766047E+03  0.10999595522E+04  0.50400001928E-02 0. -1.
       -1    1    3    3    0  502  0.16384579713E+03  0.10175253415E+04  0.20420795846E+02  0.10308347466E+04  0.50400001928E-02 0.  1.
</event>
<event>
 5   0  0.1349252E-04  0.2087154E+04  0.7818609E-02  0.8566923E-01
        2   -1    0    0  501    0  0.00000000000E+00  0.00000000000E+00  0.88527566852E+03  0.88527566852E+03  0.25500000920E-02 0.  1.
       -2   -1    0    0    0  501  0.00000000000E+00  0.00000000000E+00 -0.12301847961E+04  0.12301847961E+04  0.25500000920E-02 0. -1.
    10030    2    1    2    0    0  0.00000000000E+00  0.00000000000E+00 -0.34490912758E+03  0.21154604646E+04  0.20871537248E+04 0.  0.
        2    1    3    3  502    0 -0.69173632578E+02 -0.51989352095E+02 -0.12265422622E+04  0.12295909097E+04  0.25500000920E-02 0. -1.
       -2    1    3    3    0  502  0.69173632578E+02  0.51989352095E+02  0.88163313466E+03  0.88586955491E+03  0.25500000920E-02 0.  1.
</event>
<event>
 5   0  0.6221148E-05  0.2081234E+04  0.7818609E-02  0.8569555E-01
        1   -1    0    0  501    0  0.00000000000E+00  0.00000000000E+00  0.10543976311E+04  0.10543976311E+04  0.50400001928E-02 0. -1.
       -1   -1    0    0    0  501  0.00000000000E+00  0.00000000000E+00 -0.10270164202E+04  0.10270164202E+04  0.50400001928E-02 0.  1.
    10030    2    1    2    0    0  0.00000000000E+00  0.00000000000E+00  0.27381210829E+02  0.20814140513E+04  0.20812339422E+04 0.  0.
        3    1    3    3  502    0  0.43960114692E+03  0.28456355048E+03  0.91302261064E+03  0.10525378285E+04  0.10100000352E+00 0. -1.
       -3    1    3    3    0  502 -0.43960114692E+03 -0.28456355048E+03 -0.88564139981E+03  0.10288762228E+04  0.10100000352E+00 0.  1.
</event>
<event>
 5   0  0.1252477E-04  0.2094062E+04  0.7818609E-02  0.8563864E-01
       -2   -1    0    0    0  501  0.00000000000E+00  0.00000000000E+00  0.98124097418E+03  0.98124097418E+03  0.25500000920E-02 0. -1.
        2   -1    0    0  501    0  0.00000000000E+00  0.00000000000E+00 -0.11172317184E+04  0.11172317184E+04  0.25500000920E-02 0.  1.
    10030    2    1    2    0    0  0.00000000000E+00  0.00000000000E+00 -0.13599074424E+03  0.20984726926E+04  0.20940616417E+04 0.  0.
        4    1    3    3  502    0 -0.12311902368E+03  0.44248174872E+02 -0.11090078172E+04  0.11166987715E+04  0.12699999809E+01 0.  1.
       -4    1    3    3    0  502  0.12311902368E+03 -0.44248174872E+02  0.97301707291E+03  0.98177392105E+03  0.12699999809E+01 0. -1.
</event>
<event>
 5   0  0.1235817E-04  0.2137695E+04  0.7818609E-02  0.8544818E-01
        2   -1    0    0  501    0  0.00000000000E+00  0.00000000000E+00  0.12726369668E+04  0.12726369668E+04  0.25500000920E-02 0.  1.
       -2   -1    0    0    0  501  0.00000000000E+00  0.00000000000E+00 -0.89769082180E+03  0.89769082181E+03  0.25500000920E-02 0. -1.
    10030    2    1    2    0    0  0.00000000000E+00  0.00000000000E+00  0.37494614496E+03  0.21703277886E+04  0.21376945755E+04 0.  0.
        1    1    3    3  502    0 -0.72194139015E+03  0.33995144650E+03 -0.53448584242E+03  0.96043816696E+03  0.50400001928E-02 0. -1.
       -1    1    3    3    0  502  0.72194139015E+03 -0.33995144650E+03  0.90943198737E+03  0.12098896216E+04  0.50400001928E-02 0.  1.
</event>
<event>
 5   0  0.6221148E-05  0.1557272E+04  0.7818609E-02  0.8847236E-01
        1   -1    0    0  501    0  0.00000000000E+00  0.00000000000E+00  0.10835663909E+04  0.10835663909E+04  0.50400001928E-02 0. -1.
       -1   -1    0    0    0  501  0.00000000000E+00  0.00000000000E+00 -0.55951753151E+03  0.55951753153E+03  0.50400001928E-02 0.  1.
    10030    2    1    2    0    0  0.00000000000E+00  0.00000000000E+00  0.52404885939E+03  0.16430839224E+04  0.15572724775E+04 0.  0.
        3    1    3    3  502    0  0.47655070382E+03  0.48917732951E+03 -0.13258907085E+03  0.69568304918E+03  0.10100000352E+00 0. -1.
       -3    1    3    3    0  502 -0.47655070382E+03 -0.48917732951E+03  0.65663793024E+03  0.94740087325E+03  0.10100000352E+00 0.  1.
</event>
<event>
 5   0  0.5846187E-05  0.2089387E+04  0.7818609E-02  0.8565933E-01
       -1   -1    0    0    0  501  0.00000000000E+00  0.00000000000E+00  0.28150504974E+04  0.28150504974E+04  0.50400001928E-02 0.  1.
        1   -1    0    0  501    0  0.00000000000E+00  0.00000000000E+00 -0.38769615251E+03  0.38769615254E+03  0.50400001928E-02 0. -1.
    10030    2    1    2    0    0  0.00000000000E+00  0.00000000000E+00  0.24273543449E+04  0.32027466499E+04  0.20893867493E+04 0.  0.
        5    1    3    3  502    0  0.40104429556E+03  0.79557703009E+03  0.37748196063E+03  0.96762289060E+03  0.46999998093E+01 0. -1.
       -5    1    3    3    0  502 -0.40104429556E+03 -0.79557703009E+03  0.20498723843E+04  0.22351237593E+04  0.46999998093E+01 0.  1.
</event>
<event>
 5   0  0.6221148E-05  0.2084008E+04  0.7818609E-02  0.8568321E-01
       -1   -1    0    0    0  501  0.00000000000E+00  0.00000000000E+00  0.74233686804E+03  0.74233686806E+03  0.50400001928E-02 0. -1.
        1   -1    0    0  501    0  0.00000000000E+00  0.00000000000E+00 -0.14626413589E+04  0.14626413589E+04  0.50400001928E-02 0.  1.
    10030    2    1    2    0    0  0.00000000000E+00  0.00000000000E+00 -0.72030449085E+03  0.22049782270E+04  0.20840082586E+04 0.  0.
        3    1    3    3  502    0  0.64263301282E+03  0.22762858113E+03 -0.11939177025E+04  0.13748568837E+04  0.10100000352E+00 0.  1.
       -3    1    3    3    0  502 -0.64263301282E+03 -0.22762858113E+03  0.47361321163E+03  0.83012134327E+03  0.10100000352E+00 0. -1.
</event>
<event>
 5   0  0.5846187E-05  0.2176754E+04  0.7818609E-02  0.8528166E-01
        1   -1    0    0  501    0  0.00000000000E+00  0.00000000000E+00  0.13912491025E+04  0.13912491025E+04  0.50400001928E-02 0. -1.
       -1   -1    0    0    0  501  0.00000000000E+00  0.00000000000E+00 -0.85143930678E+03  0.85143930680E+03  0.50400001928E-02 0.  1.
    10030    2    1    2    0    0  0.00000000000E+00  0.00000000000E+00  0.53980979567E+03  0.22426884093E+04  0.21767537035E+04 0.  0.
        5    1    3    3  502    0  0.67187701725E+03  0.54275667583E+03 -0.41237650326E+03  0.95712068513E+03  0.46999998093E+01 0.  1.
       -5    1    3    3    0  502 -0.67187701725E+03 -0.54275667583E+03  0.95218629894E+03  0.12855677241E+04  0.46999998093E+01 0. -1.
</event>
<event>
 5   0  0.1349252E-04  0.2091598E+04  0.7818609E-02  0.8564954E-01
        2   -1    0    0  501    0  0.00000000000E+00  0.00000000000E+00  0.11705905445E+04  0.11705905445E+04  0.25500000920E-02 0. -1.
       -2   -1    0    0    0  501  0.00000000000E+00  0.00000000000E+00 -0.93431079432E+03  0.93431079432E+03  0.25500000920E-02 0.  1.
    10030    2    1    2    0    0  0.00000000000E+00  0.00000000000E+00  0.23627975016E+03  0.21049013388E+04  0.20915978404E+04 0.  0.
        2    1    3    3  502    0 -0.33349400924E+03  0.58083597629E+03  0.92643383678E+03  0.11431834234E+04  0.25500000920E-02 0. -1.
       -2    1    3    3    0  502  0.33349400924E+03 -0.58083597629E+03 -0.69015408662E+03  0.96171791542E+03  0.25500000920E-02 0.  1.
</event>
<event>
 5   0  0.6221148E-05  0.1939102E+04  0.7818609E-02  0.8635634E-01
        1   -1    0    0  501    0  0.00000000000E+00  0.00000000000E+00  0.16319096039E+04  0.16319096039E+04  0.50400001928E-02 0.  1.
       -1   -1    0    0    0  501  0.00000000000E+00  0.00000000000E+00 -0.57603009360E+03  0.57603009363E+03  0.50400001928E-02 0. -1.
    10030    2    1    2    0    0  0.00000000000E+00  0.00000000000E+00  0.10558795103E+04  0.22079396975E+04  0.19391018972E+04 0.  0.
        3    1    3    3  502    0 -0.14395960025E+03  0.77763633058E+03  0.11665803933E+04  0.14093801663E+04  0.10100000352E+00 0.  1.
       -3    1    3    3    0  502  0.14395960025E+03 -0.77763633058E+03 -0.11070088298E+03  0.79855953118E+03  0.10100000352E+00 0. -1.
</event>
<event>
 5   0  0.1235817E-04  0.2115200E+04  0.7818609E-02  0.8554577E-01
       -2   -1    0    0    0  501  0.00000000000E+00  0.00000000000E+00  0.11143220840E+04  0.11143220840E+04  0.25500000920E-02 0.  1.
        2   -1    0    0  501    0  0.00000000000E+00  0.00000000000E+00 -0.10037649184E+04  0.10037649184E+04  0.25500000920E-02 0. -1.
    10030    2    1    2    0    0  0.00000000000E+00  0.00000000000E+00  0.11055716564E+03  0.21180870024E+04  0.21151996745E+04 0.  0.
        1    1    3    3  502    0 -0.96575857504E+02  0.34633732389E+02 -0.99876979762E+03  0.10040256473E+04  0.50400001928E-02 0. -1.
       -1    1    3    3    0  502  0.96575857504E+02 -0.34633732389E+02  0.11093269633E+04  0.11140613552E+04  0.50400001928E-02 0.  1.
</event>
<event>
 5   0  0.1252477E-04  0.2087521E+04  0.7818609E-02  0.8566760E-01
        2   -1    0    0  501    0  0.00000000000E+00  0.00000000000E+00  0.13079279012E+04  0.13079279012E+04  0.25500000920E-02 0. -1.
       -2   -1    0    0    0  501  0.00000000000E+00  0.00000000000E+00 -0.83294835233E+03  0.83294835234E+03  0.25500000920E-02 0.  1.
    10030    2    1    2    0    0  0.00000000000E+00  0.00000000000E+00  0.47497954890E+03  0.21408762536E+04  0.20875213918E+04 0.  0.
        4    1    3    3  502    0  0.80528045949E+03  0.32659831664E+03  0.83044708302E+03  0.12019929490E+04  0.12699999809E+01 0. -1.
       -4    1    3    3    0  502 -0.80528045949E+03 -0.32659831664E+03 -0.35546753412E+03  0.93888330456E+03  0.12699999809E+01 0.  1.
</event>
<event>
 5   0  0.6221148E-05  0.1821840E+04  0.7818609E-02  0.8694771E-01
        1   -1    0    0  501    0  0.00000000000E+00  0.00000000000E+00  0.68814246937E+03  0.68814246939E+03  0.50400001928E-02 0.  1.
       -1   -1    0    0    0  501  0.00000000000E+00  0.00000000000E+00 -0.12058184100E+04  0.12058184100E+04  0.50400001928E-02 0. -1.
    10030    2    1    2    0    0  0.00000000000E+00  0.00000000000E+00 -0.51767594063E+03  0.18939608794E+04  0.18218395739E+04 0.  0.
        3    1    3    3  502    0  0.40980688676E+03  0.72559552444E+03  0.12361748097E+03  0.84244396926E+03  0.10100000352E+00 0.  1.
       -3    1    3    3    0  502 -0.40980688676E+03 -0.72559552444E+03 -0.64129342161E+03  0.10515169101E+04  0.10100000352E+00 0. -1.
</event>
<event>
 5   0  0.1281470E-04  0.2097810E+04  0.7818609E-02  0.8562209E-01
       -2   -1    0    0    0  501  0.00000000000E+00  0.00000000000E+00  0.86216245996E+03  0.86216245996E+03  0.25500000920E-02 0. -1.
        2   -1    0    0  501    0  0.00000000000E+00  0.00000000000E+00 -0.12760956925E+04  0.12760956925E+04  0.25500000920E-02 0.  1.
    10030    2    1    2    0    0  0.00000000000E+00  0.00000000000E+00 -0.41393323256E+03  0.21382581525E+04  0.20978100976E+04 0.  0.
        3    1    3    3  502    0  0.27010155987E+03  0.87467528452E+03 -0.72888440265E+03  0.11701641717E+04  0.10100000352E+00 0.  1.
       -3    1    3    3    0  502 -0.27010155987E+03 -0.87467528452E+03  0.31495117009E+03  0.96809398084E+03  0.10100000352E+00 0. -1.
</event>
<event>
 5   0  0.1235817E-04  0.2423470E+04  0.7818609E-02  0.8430769E-01
        2   -1    0    0  501    0  0.00000000000E+00  0.00000000000E+00  0.14649078495E+04  0.14649078495E+04  0.25500000920E-02 0.  1.
       -2   -1    0    0    0  501  0.00000000000E+00  0.00000000000E+00 -0.10023165956E+04  0.10023165956E+04  0.25500000920E-02 0. -1.
    10030    2    1    2    0    0  0.00000000000E+00  0.00000000000E+00  0.46259125386E+03  0.24672244451E+04  0.24234697841E+04 0.  0.
        1    1    3    3  502    0  0.60456498184E+03  0.57595749248E+03 -0.66266734327E+03  0.10659989954E+04  0.50400001928E-02 0. -1.
       -1    1    3    3    0  502 -0.60456498184E+03 -0.57595749248E+03  0.11252585971E+04  0.14012254497E+04  0.50400001928E-02 0.  1.
</event>
<event>
 5   0  0.5933905E-05  0.2095127E+04  0.7818609E-02  0.8563393E-01
        1   -1    0    0  501    0  0.00000000000E+00  0.00000000000E+00  0.23426769139E+04  0.23426769139E+04  0.50400001928E-02 0.  1.
       -1   -1    0    0    0  501  0.00000000000E+00  0.00000000000E+00 -0.46843410469E+03  0.46843410472E+03  0.50400001928E-02 0. -1.
    10030    2    1    2    0    0  0.00000000000E+00  0.00000000000E+00  0.18742428092E+04  0.28111110186E+04  0.20951274546E+04 0.  0.
        2    1    3    3  502    0  0.37320508315E+03  0.97726544355E+03  0.86290037876E+03  0.13560703687E+04  0.25500000920E-02 0. -1.
       -2    1    3    3    0  502 -0.37320508315E+03 -0.97726544355E+03  0.10113424304E+04  0.14550406499E+04  0.25500000920E-02 0.  1.
</event>
<event>
 5   0  0.5846187E-05  0.1978210E+04  0.7818609E-02  0.8616877E-01
       -1   -1    0    0    0  501  0.00000000000E+00  0.00000000000E+00  0.50845997756E+03  0.50845997759E+03  0.50400001928E-02 0.  1.
        1   -1    0    0  501    0  0.00000000000E+00  0.00000000000E+00 -0.19241014205E+04  0.19241014206E+04  0.50400001928E-02 0. -1.
    10030    2    1    2    0    0  0.00000000000E+00  0.00000000000E+00 -0.14156414430E+04  0.24325613981E+04  0.19782098626E+04 0.  0.
        5    1    3    3  502    0  0.29899169517E+03  0.89226109950E+03 -0.33326195158E+03  0.99830432325E+03  0.46999998093E+01 0.  1.
       -5    1    3    3    0  502 -0.29899169517E+03 -0.89226109950E+03 -0.10823794914E+04  0.14342570749E+04  0.46999998093E+01 0. -1.
</event>
<event>
 5   0  0.6052292E-05  0.2102786E+04  0.7818609E-02  0.8560017E-01
        1   -1    0    0  501    0  0.00000000000E+00  0.00000000000E+00  0.14053219844E+04  0.14053219844E+04  0.50400001928E-02 0.  1.
       -1   -1    0    0    0  501  0.00000000000E+00  0.00000000000E+00 -0.78660087508E+03  0.78660087509E+03  0.50400001928E-02 0. -1.
    10030    2    1    2    0    0  0.00000000000E+00  0.00000000000E+00  0.61872110927E+03  0.21919228595E+04  0.21027862494E+04 0.  0.
        1    1    3    3  502    0 -0.87966624103E+03 -0.43635812465E+03 -0.82342825246E+02  0.98539405795E+03  0.50400001928E-02 0. -1.
       -1    1    3    3    0  502  0.87966624103E+03  0.43635812465E+03  0.70106393452E+03  0.12065288015E+04  0.50400001928E-02 0.  1.
</event>
<event>
 5   0  0.1325673E-04  0.2089554E+04  0.7818609E-02  0.8565859E-01
        2   -1    0    0  501    0  0.00000000000E+00  0.00000000000E+00  0.11859415068E+04  0.11859415068E+04  0.25500000920E-02 0. -1.
       -2   -1    0    0    0  501  0.00000000000E+00  0.00000000000E+00 -0.92041586297E+03  0.92041586297E+03  0.25500000920E-02 0.  1.
    10030    2    1    2    0    0  0.00000000000E+00  0.00000000000E+00  0.26552564383E+03  0.21063573698E+04  0.20895543787E+04 0.  0.
        5    1    3    3  502    0 -0.55263781092E+03 -0.60391035085E+03  0.78715255599E+03  0.11356705061E+04  0.46999998093E+01 0. -1.
       -5    1    3    3    0  502  0.55263781092E+03  0.60391035085E+03 -0.52162691216E+03  0.97068686372E+03  0.46999998093E+01 0.  1.
</event>
<event>
 5   0  0.1281470E-04  0.2065606E+04  0.7818609E-02  0.8576547E-01
       -2   -1    0    0    0  501  0.00000000000E+00  0.00000000000E+00  0.63731290668E+03  0.63731290668E+03  0.25500000920E-02 0.  1.
        2   -1    0    0  501    0  0.00000000000E+00  0.00000000000E+00 -0.16737184529E+04  0.16737184529E+04  0.25500000920E-02 0. -1.
    10030    2    1    2    0    0  0.00000000000E+00  0.00000000000E+00 -0.10364055463E+04  0.23110313596E+04  0.20656063247E+04 0.  0.
        3    1    3    3  502    0  0.56107401389E+03 -0.27318484338E+03  0.40252716167E+03  0.74260496484E+03  0.10100000352E+00 0.  1.
       -3    1    3    3    0  502 -0.56107401389E+03  0.27318484338E+03 -0.14389327079E+04  0.15684263948E+04  0.10100000352E+00 0. -1.
</event>
<event>
 5   0  0.1252477E-04  0.2099947E+04  0.7818609E-02  0.8561267E-01
        2   -1    0    0  501    0  0.00000000000E+00  0.00000000000E+00  0.89108466689E+03  0.89108466689E+03  0.25500000920E-02 0.  1.
       -2   -1    0    0    0  501  0.00000000000E+00  0.00000000000E+00 -0.12371940004E+04  0.12371940004E+04  0.25500000920E-02 0. -1.
    10030    2    1    2    0    0  0.00000000000E+00  0.00000000000E+00 -0.34610933354E+03  0.21282786673E+04  0.20999472410E+04 0.  0.
        4    1    3    3  502    0  0.20562118880E+03 -0.46339084727E+03 -0.11049334163E+04  0.12156852463E+04  0.12699999809E+01 0. -1.
       -4    1    3    3    0  502 -0.20562118880E+03  0.46339084727E+03  0.75882408278E+03  0.91259342104E+03  0.12699999809E+01 0.  1.
</event>
<event>
 5   0  0.1281470E-04  0.2104099E+04  0.7818609E-02  0.8559440E-01
       -2   -1    0    0    0  501  0.00000000000E+00  0.00000000000E+00  0.36258967514E+03  0.36258967515E+03  0.25500000920E-02 0. -1.
        2   -1    0    0  501    0  0.00000000000E+00  0.00000000000E+00 -0.30525082985E+04  0.30525082985E+04  0.25500000920E-02 0.  1.
    10030    2    1    2    0    0  0.00000000000E+00  0.00000000000E+00 -0.26899186233E+04  0.34150979736E+04  0.21040988497E+04 0.  0.
        3    1    3    3  502    0  0.66973873110E+02  0.48864768516E+03  0.16331296122E+03  0.51955095360E+03  0.10100000352E+00 0. -1.
       -3    1    3    3    0  502 -0.66973873110E+02 -0.48864768516E+03 -0.28532315845E+04  0.28955470200E+04  0.10100000352E+00 0.  1.
</event>
<event>
 5   0  0.5846187E-05  0.2034997E+04  0.7818609E-02  0.8590431E-01
        1   -1    0    0  501    0  0.00000000000E+00  0.00000000000E+00  0.68726783828E+03  0.68726783829E+03  0.50400001928E-02 0. -1.
       -1   -1    0    0    0  501  0.00000000000E+00  0.00000000000E+00 -0.15064045361E+04  0.15064045361E+04  0.50400001928E-02 0.  1.
    10030    2    1    2    0    0  0.00000000000E+00  0.00000000000E+00 -0.81913669779E+03  0.21936723744E+04  0.20349971883E+04 0.  0.
        5    1    3    3  502    0 -0.89724764883E+03 -0.94713058981E+02  0.97488726625E+02  0.90749658329E+03  0.46999998093E+01 0. -1.
       -5    1    3    3    0  502  0.89724764883E+03  0.94713058981E+02 -0.91662542441E+03  0.12861757911E+04  0.46999998093E+01 0.  1.
</event>
<event>
 5   0  0.6263616E-05  0.2077474E+04  0.7818609E-02  0.8571232E-01
        1   -1    0    0  501    0  0.00000000000E+00  0.00000000000E+00  0.93558636076E+03  0.93558636078E+03  0.50400001928E-02 0.  1.
       -1   -1    0    0    0  501  0.00000000000E+00  0.00000000000E+00 -0.11532603826E+04  0.11532603826E+04  0.50400001928E-02 0. -1.
    10030    2    1    2    0    0  0.00000000000E+00  0.00000000000E+00 -0.21767402187E+03  0.20888467434E+04  0.20774741244E+04 0.  0.
        4    1    3    3  502    0 -0.86254875905E+03  0.37442679754E+03  0.33492615800E+03  0.99817980978E+03  0.12699999809E+01 0.  1.
       -4    1    3    3    0  502  0.86254875905E+03 -0.37442679754E+03 -0.55260017987E+03  0.10906669336E+04  0.12699999809E+01 0. -1.
</event>
<event>
 5   0  0.5846187E-05  0.2089557E+04  0.7818609E-02  0.8565857E-01
        1   -1    0    0  501    0  0.00000000000E+00  0.00000000000E+00  0.25643518831E+04  0.25643518831E+04  0.50400001928E-02 0. -1.
       -1   -1    0    0    0  501  0.00000000000E+00  0.00000000000E+00 -0.42566798558E+03  0.42566798561E+03  0.50400001928E-02 0.  1.
    10030    2    1    2    0    0  0.00000000000E+00  0.00000000000E+00  0.21386838976E+04  0.29900198688E+04  0.20895573698E+04 0.  0.
        5    1    3    3  502    0 -0.57108725313E+02  0.87344654410E+03  0.18855645589E+04  0.20788328619E+04  0.46999998093E+01 0. -1.
       -5    1    3    3    0  502  0.57108725313E+02 -0.87344654410E+03  0.25311933869E+03  0.91118700689E+03  0.46999998093E+01 0.  1.
</event>
<event>
 5   0  0.6263616E-05  0.2099151E+04  0.7818609E-02  0.8561618E-01
        1   -1    0    0  501    0  0.00000000000E+00  0.00000000000E+00  0.17290160351E+04  0.17290160351E+04  0.50400001928E-02 0.  1.
       -1   -1    0    0    0  501  0.00000000000E+00  0.00000000000E+00 -0.63713020293E+03  0.63713020295E+03  0.50400001928E-02 0. -1.
    10030    2    1    2    0    0  0.00000000000E+00  0.00000000000E+00  0.10918858322E+04  0.23661462381E+04  0.20991506257E+04 0.  0.
        4    1    3    3  502    0  0.64534799782E+03  0.78751981954E+03  0.83320054788E+03  0.13156315101E+04  0.12699999809E+01 0. -1.
       -4    1    3    3    0  502 -0.64534799782E+03 -0.78751981954E+03  0.25868528429E+03  0.10505147280E+04  0.12699999809E+01 0.  1.
</event>
<event>
 5   0  0.1281470E-04  0.2113261E+04  0.7818609E-02  0.8555424E-01
        2   -1    0    0  501    0  0.00000000000E+00  0.00000000000E+00  0.93145062876E+03  0.93145062877E+03  0.25500000920E-02 0.  1.
       -2   -1    0    0    0  501  0.00000000000E+00  0.00000000000E+00 -0.11986340634E+04  0.11986340634E+04  0.25500000920E-02 0. -1.
    10030    2    1    2    0    0  0.00000000000E+00  0.00000000000E+00 -0.26718343459E+03  0.21300846921E+04  0.21132614149E+04 0.  0.
        3    1    3    3  502    0 -0.72370832078E+03 -0.27118808543E+03 -0.85986349153E+03  0.11561409713E+04  0.10100000352E+00 0. -1.
       -3    1    3    3    0  502  0.72370832078E+03  0.27118808543E+03  0.59268005694E+03  0.97394372083E+03  0.10100000352E+00 0.  1.
</event>
<event>
 5   0  0.6221148E-05  0.2022913E+04  0.7818609E-02  0.8595982E-01
        1   -1    0    0  501    0  0.00000000000E+00  0.00000000000E+00  0.91942584310E+03  0.91942584312E+03  0.50400001928E-02 0. -1.
       -1   -1    0    0    0  501  0.00000000000E+00  0.00000000000E+00 -0.11126989532E+04  0.11126989532E+04  0.50400001928E-02 0.  1.
    10030    2    1    2    0    0  0.00000000000E+00  0.00000000000E+00 -0.19327311008E+03  0.20321247963E+04  0.20229129227E+04 0.  0.
        3    1    3    3  502    0 -0.39330102753E+03 -0.70947072642E+03 -0.70354813077E+03  0.10737850774E+04  0.10100000352E+00 0.  1.
       -3    1    3    3    0  502  0.39330102753E+03  0.70947072642E+03  0.51027502070E+03  0.95833971892E+03  0.10100000352E+00 0. -1.
</event>
<event>
 5   0  0.1325673E-04  0.2118624E+04  0.7818609E-02  0.8553083E-01
        2   -1    0    0  501    0  0.00000000000E+00  0.00000000000E+00  0.10802880416E+04  0.10802880416E+04  0.25500000920E-02 0. -1.
       -2   -1    0    0    0  501  0.00000000000E+00  0.00000000000E+00 -0.10387432488E+04  0.10387432488E+04  0.25500000920E-02 0.  1.
    10030    2    1    2    0    0  0.00000000000E+00  0.00000000000E+00  0.41544792805E+02  0.21190312904E+04  0.21186239968E+04 0.  0.
        5    1    3    3  502    0  0.75674177871E+03  0.69065518409E+03 -0.24845794850E+03  0.10542372338E+04  0.46999998093E+01 0.  1.
       -5    1    3    3    0  502 -0.75674177871E+03 -0.69065518409E+03  0.29000274130E+03  0.10647940566E+04  0.46999998093E+01 0. -1.
</event>
<event>
 5   0  0.1281470E-04  0.2110955E+04  0.7818609E-02  0.8556433E-01
        2   -1    0    0  501    0  0.00000000000E+00  0.00000000000E+00  0.10870551150E+04  0.10870551150E+04  0.25500000920E-02 0.  1.
       -2   -1    0    0    0  501  0.00000000000E+00  0.00000000000E+00 -0.10248169334E+04  0.10248169334E+04  0.25500000920E-02 0. -1.
    10030    2    1    2    0    0  0.00000000000E+00  0.00000000000E+00  0.62238181573E+02  0.21118720484E+04  0.21109547502E+04 0.  0.
        3    1    3    3  502    0 -0.64315061870E+03  0.51704724312E+03  0.68947184525E+03  0.10753380890E+04  0.10100000352E+00 0.  1.
       -3    1    3    3    0  502  0.64315061870E+03 -0.51704724312E+03 -0.62723366368E+03  0.10365339594E+04  0.10100000352E+00 0. -1.
</event>
<event>
 5   0  0.6221148E-05  0.2181154E+04  0.7818609E-02  0.8526313E-01
       -1   -1    0    0    0  501  0.00000000000E+00  0.00000000000E+00  0.97554596562E+03  0.97554596563E+03  0.50400001928E-02 0. -1.
        1   -1    0    0  501    0  0.00000000000E+00  0.00000000000E+00 -0.12191723341E+04  0.12191723341E+04  0.50400001928E-02 0.  1.
    10030    2    1    2    0    0  0.00000000000E+00  0.00000000000E+00 -0.24362636845E+03  0.21947182997E+04  0.21811544209E+04 0.  0.
        3    1    3    3  502    0  0.55524400064E+03  0.52682002848E+03 -0.90351195213E+03  0.11841322141E+04  0.10100000352E+00 0.  1.
       -3    1    3    3    0  502 -0.55524400064E+03 -0.52682002848E+03  0.65988558368E+03  0.10105860856E+04  0.10100000352E+00 0. -1.
</event>
<event>
 5   0  0.1252477E-04  0.2084551E+04  0.7818609E-02  0.8568080E-01
       -2   -1    0    0    0  501  0.00000000000E+00  0.00000000000E+00  0.65506833518E+03  0.65506833518E+03  0.25500000920E-02 0.  1.
        2   -1    0    0  501    0  0.00000000000E+00  0.00000000000E+00 -0.16583579151E+04  0.16583579151E+04  0.25500000920E-02 0. -1.
    10030    2    1    2    0    0  0.00000000000E+00  0.00000000000E+00 -0.10032895800E+04  0.23134262503E+04  0.20845505593E+04 0.  0.
        4    1    3    3  502    0  0.58478245433E+03 -0.64381575287E+03  0.13575600048E+03  0.88028435583E+03  0.12699999809E+01 0.  1.
       -4    1    3    3    0  502 -0.58478245433E+03  0.64381575287E+03 -0.11390455804E+04  0.14331418945E+04  0.12699999809E+01 0. -1.
</event>
<event>
 5   0  0.1325673E-04  0.2060671E+04  0.7818609E-02  0.8578769E-01
       -2   -1    0    0    0  501  0.00000000000E+00  0.00000000000E+00  0.71551634928E+03  0.71551634929E+03  0.25500000920E-02 0. -1.
        2   -1    0    0  501    0  0.00000000000E+00  0.00000000000E+00 -0.14836719980E+04  0.14836719980E+04  0.25500000920E-02 0.  1.
    10030    2    1    2    0    0  0.00000000000E+00  0.00000000000E+00 -0.76815564870E+03  0.21991883473E+04  0.20606713193E+04 0.  0.
        5    1    3    3  502    0  0.42059101298E+03  0.88243162365E+03 -0.36637496565E+02  0.97823655972E+03  0.46999998093E+01 0. -1.
       -5    1    3    3    0  502 -0.42059101298E+03 -0.88243162365E+03 -0.73151815213E+03  0.12209517875E+04  0.46999998093E+01 0.  1.
</event>
<event>
 5   0  0.5933905E-05  0.2133361E+04  0.7818609E-02  0.8546688E-01
       -1   -1    0    0    0  501  0.00000000000E+00  0.00000000000E+00  0.65529212059E+03  0.65529212061E+03  0.50400001928E-02 0.  1.
        1   -1    0    0  501    0  0.00000000000E+00  0.00000000000E+00 -0.17363363195E+04  0.17363363195E+04  0.50400001928E-02 0. -1.
    10030    2    1    2    0    0  0.00000000000E+00  0.00000000000E+00 -0.10810441989E+04  0.23916284401E+04  0.21333612061E+04 0.  0.
        2    1    3    3  502    0 -0.10192071249E+04  0.30993599095E+03 -0.47948830178E+03  0.11682262253E+04  0.25500000920E-02 0. -1.
       -2    1    3    3    0  502  0.10192071249E+04 -0.30993599095E+03 -0.60155589713E+03  0.12234022148E+04  0.25500000920E-02 0.  1.
</event>
<event>
 5   0  0.6263616E-05  0.2106495E+04  0.7818609E-02  0.8558388E-01
       -1   -1    0    0    0  501  0.00000000000E+00  0.00000000000E+00  0.69084593406E+03  0.69084593408E+03  0.50400001928E-02 0.  1.
        1   -1    0    0  501    0  0.00000000000E+00  0.00000000000E+00 -0.16057565923E+04  0.16057565923E+04  0.50400001928E-02 0. -1.
    10030    2    1    2    0    0  0.00000000000E+00  0.00000000000E+00 -0.91491065820E+03  0.22966025264E+04  0.21064951107E+04 0.  0.
        4    1    3    3  502    0  0.94665861466E+03 -0.45059472195E+03 -0.34772053958E+03  0.11045855887E+04  0.12699999809E+01 0.  1.
       -4    1    3    3    0  502 -0.94665861466E+03  0.45059472195E+03 -0.56719011862E+03  0.11920169377E+04  0.12699999809E+01 0. -1.
</event>
<event>
 5   0  0.6221148E-05  0.2141852E+04  0.7818609E-02  0.8543028E-01
       -1   -1    0    0    0  501  0.00000000000E+00  0.00000000000E+00  0.71753819939E+03  0.71753819941E+03  0.50400001928E-02 0.  1.
        1   -1    0    0  501    0  0.00000000000E+00  0.00000000000E+00 -0.15983578951E+04  0.15983578951E+04  0.50400001928E-02 0. -1.
    10030    2    1    2    0    0  0.00000000000E+00  0.00000000000E+00 -0.88081969572E+03  0.23158960945E+04  0.21418523255E+04 0.  0.
        3    1    3    3  502    0 -0.25834176145E+03 -0.28751762135E+03 -0.15203029596E+04  0.15686707582E+04  0.10100000352E+00 0. -1.
       -3    1    3    3    0  502  0.25834176145E+03  0.28751762135E+03  0.63948326390E+03  0.74722533637E+03  0.10100000352E+00 0.  1.
</event>
<event>
 5   0  0.5846187E-05  0.2024301E+04  0.7818609E-02  0.8595343E-01
       -1   -1    0    0    0  501  0.00000000000E+00  0.00000000000E+00  0.78577614875E+03  0.78577614876E+03  0.50400001928E-02 0. -1.
        1   -1    0    0  501    0  0.00000000000E+00  0.00000000000E+00 -0.13037410817E+04  0.13037410817E+04  0.50400001928E-02 0.  1.
    10030    2    1    2    0    0  0.00000000000E+00  0.00000000000E+00 -0.51796493292E+03  0.20895172304E+04  0.20243010114E+04 0.  0.
        5    1    3    3  502    0 -0.63067644803E+03 -0.76111835415E+03 -0.48364703708E+03  0.11004501250E+04  0.46999998093E+01 0.  1.
       -5    1    3    3    0  502  0.63067644803E+03  0.76111835415E+03 -0.34317895839E+02  0.98906710545E+03  0.46999998093E+01 0. -1.
</event>
<event>
 5   0  0.1235817E-04  0.2166404E+04  0.7818609E-02  0.8532543E-01
       -2   -1    0    0    0  501  0.00000000000E+00  0.00000000000E+00  0.16828733444E+04  0.16828733444E+04  0.25500000920E-02 0. -1.
        2   -1    0    0  501    0  0.00000000000E+00  0.00000000000E+00 -0.69721597788E+03  0.69721597789E+03  0.25500000920E-02 0.  1.
    10030    2    1    2    0    0  0.00000000000E+00  0.00000000000E+00  0.98565736649E+03  0.23800893223E+04  0.21664036415E+04 0.  0.
        1    1    3    3  502    0 -0.56277773971E+03 -0.18658305660E+03  0.14887737967E+04  0.16024916347E+04  0.50400001928E-02 0. -1.
       -1    1    3    3    0  502  0.56277773971E+03  0.18658305660E+03 -0.50311643025E+03  0.77759768758E+03  0.50400001928E-02 0.  1.
</event>
<event>
 5   0  0.6052292E-05  0.2065550E+04  0.7818609E-02  0.8576572E-01
        1   -1    0    0  501    0  0.00000000000E+00  0.00000000000E+00  0.11419872138E+04  0.11419872138E+04  0.50400001928E-02 0. -1.
       -1   -1    0    0    0  501  0.00000000000E+00  0.00000000000E+00 -0.93400750852E+03  0.93400750853E+03  0.50400001928E-02 0.  1.
    10030    2    1    2    0    0  0.00000000000E+00  0.00000000000E+00  0.20797970526E+03  0.20759947223E+04  0.20655504180E+04 0.  0.
        1    1    3    3  502    0  0.81215215086E+01 -0.98312798906E+03  0.42184525246E+03  0.10698411186E+04  0.50400001928E-02 0. -1.
       -1    1    3    3    0  502 -0.81215215086E+01  0.98312798906E+03 -0.21386554720E+03  0.10061536037E+04  0.50400001928E-02 0.  1.
</event>
<event>
 5   0  0.1235817E-04  0.2053625E+04  0.7818609E-02  0.8581952E-01
        2   -1    0    0  501    0  0.00000000000E+00  0.00000000000E+00  0.14939764283E+04  0.14939764283E+04  0.25500000920E-02 0. -1.
       -2   -1    0    0    0  501  0.00000000000E+00  0.00000000000E+00 -0.70572962334E+03  0.70572962335E+03  0.25500000920E-02 0.  1.
    10030    2    1    2    0    0  0.00000000000E+00  0.00000000000E+00  0.78824680500E+03  0.21997060517E+04  0.20536245247E+04 0.  0.
        1    1    3    3  502    0 -0.12447731293E+03  0.64253064718E+03 -0.45336132394E+03  0.79616375455E+03  0.50400001928E-02 0. -1.
       -1    1    3    3    0  502  0.12447731293E+03 -0.64253064718E+03  0.12416081289E+04  0.14035422971E+04  0.50400001928E-02 0.  1.
</event>
<event>
 5   0  0.6221148E-05  0.2137444E+04  0.7818609E-02  0.8544926E-01
       -1   -1    0    0    0  501  0.00000000000E+00  0.00000000000E+00  0.20761029250E+04  0.20761029250E+04  0.50400001928E-02 0. -1.
        1   -1    0    0  501    0  0.00000000000E+00  0.00000000000E+00 -0.55014928621E+03  0.55014928624E+03  0.50400001928E-02 0.  1.
    10030    2    1    2    0    0  0.00000000000E+00  0.00000000000E+00  0.15259536388E+04  0.26262522112E+04  0.21374438400E+04 0.  0.
        3    1    3    3  502    0 -0.82231325904E+03  0.68221693118E+03  0.73422722135E+03  0.12964214824E+04  0.10100000352E+00 0.  1.
       -3    1    3    3    0  502  0.82231325904E+03 -0.68221693118E+03  0.79172641744E+03  0.13298307289E+04  0.10100000352E+00 0. -1.
</event>
<event>
 5   0  0.5933905E-05  0.2065506E+04  0.7818609E-02  0.8576592E-01
        1   -1    0    0  501    0  0.00000000000E+00  0.00000000000E+00  0.10672677650E+04  0.10672677650E+04  0.50400001928E-02 0. -1.
       -1   -1    0    0    0  501  0.00000000000E+00  0.00000000000E+00 -0.99935483982E+03  0.99935483983E+03  0.50400001928E-02 0.  1.
    10030    2    1    2    0    0  0.00000000000E+00  0.00000000000E+00  0.67912925193E+02  0.20666226049E+04  0.20655064332E+04 0.  0.
        2    1    3    3  502    0 -0.10007970046E+04 -0.25407855013E+03  0.13241354324E+02  0.10326305668E+04  0.25500000920E-02 0. -1.
       -2    1    3    3    0  502  0.10007970046E+04  0.25407855013E+03  0.54671570870E+02  0.10339920380E+04  0.25500000920E-02 0.  1.
</event>
<event>
 5   0  0.5846187E-05  0.1751327E+04  0.7818609E-02  0.8732620E-01
       -1   -1    0    0    0  501  0.00000000000E+00  0.00000000000E+00  0.67258554166E+03  0.67258554168E+03  0.50400001928E-02 0.  1.
        1   -1    0    0  501    0  0.00000000000E+00  0.00000000000E+00 -0.11400580742E+04  0.11400580743E+04  0.50400001928E-02 0. -1.
    10030    2    1    2    0    0  0.00000000000E+00  0.00000000000E+00 -0.46747253258E+03  0.18126436159E+04  0.17513270139E+04 0.  0.
        5    1    3    3  502    0 -0.32583840999E+02  0.27088708944E+03  0.62745486399E+03  0.68422453789E+03  0.46999998093E+01 0.  1.
       -5    1    3    3    0  502  0.32583840999E+02 -0.27088708944E+03 -0.10949273966E+04  0.11284190780E+04  0.46999998093E+01 0. -1.
</event>
<event>
 5   0  0.1325673E-04  0.2090076E+04  0.7818609E-02  0.8565628E-01
       -2   -1    0    0    0  501  0.00000000000E+00  0.00000000000E+00  0.66933058638E+03  0.66933058638E+03  0.25500000920E-02 0. -1.
        2   -1    0    0  501    0  0.00000000000E+00  0.00000000000E+00 -0.16316371260E+04  0.16316371260E+04  0.25500000920E-02 0.  1.
    10030    2    1    2    0    0  0.00000000000E+00  0.00000000000E+00 -0.96230653960E+03  0.23009677124E+04  0.20900762037E+04 0.  0.
        5    1    3    3  502    0 -0.44784613393E+03 -0.44897466711E+03  0.43328307387E+03  0.76804994856E+03  0.46999998093E+01 0. -1.
       -5    1    3    3    0  502  0.44784613393E+03  0.44897466711E+03 -0.13955896135E+04  0.15329177638E+04  0.46999998093E+01 0.  1.
</event>
<event>
 5   0  0.1325673E-04  0.2140575E+04  0.7818609E-02  0.8543578E-01
        2   -1    0    0  501    0  0.00000000000E+00  0.00000000000E+00  0.22164621819E+04  0.22164621819E+04  0.25500000920E-02 0.  1.
       -2   -1    0    0    0  501  0.00000000000E+00  0.00000000000E+00 -0.51682129406E+03  0.51682129407E+03  0.25500000920E-02 0. -1.
    10030    2    1    2    0    0  0.00000000000E+00  0.00000000000E+00  0.16996408878E+04  0.27332834760E+04  0.21405745519E+04 0.  0.
        5    1    3    3  502    0  0.57452958997E+03  0.86081864534E+03  0.50153115102E+03  0.11500645962E+04  0.46999998093E+01 0. -1.
       -5    1    3    3    0  502 -0.57452958997E+03 -0.86081864534E+03  0.11981097368E+04  0.15832188798E+04  0.46999998093E+01 0.  1.
</event>
<event>
 5   0  0.1325673E-04  0.2121392E+04  0.7818609E-02  0.8551878E-01
       -2   -1    0    0    0  501  0.00000000000E+00  0.00000000000E+00  0.79015120649E+03  0.79015120650E+03  0.25500000920E-02 0.  1.
        2   -1    0    0  501    0  0.00000000000E+00  0.00000000000E+00 -0.14238747129E+04  0.14238747129E+04  0.25500000920E-02 0. -1.
    10030    2    1    2    0    0  0.00000000000E+00  0.00000000000E+00 -0.63372350640E+03  0.22140259194E+04  0.21213922997E+04 0.  0.
        5    1    3    3  502    0  0.12988550620E+03  0.66014293664E+03  0.53894171919E+03  0.86205522340E+03  0.46999998093E+01 0.  1.
       -5    1    3    3    0  502 -0.12988550620E+03 -0.66014293664E+03 -0.11726652256E+04  0.13519706960E+04  0.46999998093E+01 0. -1.
</event>
<event>
 5   0  0.6263616E-05  0.2051460E+04  0.7818609E-02  0.8582932E-01
        1   -1    0    0  501    0  0.00000000000E+00  0.00000000000E+00  0.13065512260E+04  0.13065512261E+04  0.50400001928E-02 0.  1.
       -1   -1    0    0    0  501  0.00000000000E+00  0.00000000000E+00 -0.80526633422E+03  0.80526633424E+03  0.50400001928E-02 0. -1.
    10030    2    1    2    0    0  0.00000000000E+00  0.00000000000E+00  0.50128489182E+03  0.21118175603E+04  0.20514596913E+04 0.  0.
        4    1    3    3  502    0 -0.93681224757E+03 -0.42749513191E+02 -0.17712589394E+03  0.95436885075E+03  0.12699999809E+01 0. -1.
       -4    1    3    3    0  502  0.93681224757E+03  0.42749513191E+02  0.67841078576E+03  0.11574487095E+04  0.12699999809E+01 0.  1.
</event>
<event>
 5   0  0.1349252E-04  0.2090349E+04  0.7818609E-02  0.8565507E-01
        2   -1    0    0  501    0  0.00000000000E+00  0.00000000000E+00  0.76274767919E+03  0.76274767920E+03  0.25500000920E-02 0. -1.
       -2   -1    0    0    0  501  0.00000000000E+00  0.00000000000E+00 -0.14321769781E+04  0.14321769781E+04  0.25500000920E-02 0.  1.
    10030    2    1    2    0    0  0.00000000000E+00  0.00000000000E+00 -0.66942929887E+03  0.21949246573E+04  0.20903489338E+04 0.  0.
        2    1    3    3  502    0  0.67103634072E+03 -0.52300842324E+03 -0.97217937524E+03  0.12918824710E+04  0.25500000920E-02 0.  1.
       -2    1    3    3    0  502 -0.67103634072E+03  0.52300842324E+03  0.30275007637E+03  0.90304218622E+03  0.25500000920E-02 0. -1.
</event>
<event>
 5   0  0.1281470E-04  0.2106472E+04  0.7818609E-02  0.8558398E-01
       -2   -1    0    0    0  501  0.00000000000E+00  0.00000000000E+00  0.62090536374E+03  0.62090536374E+03  0.25500000920E-02 0. -1.
        2   -1    0    0  501    0  0.00000000000E+00  0.00000000000E+00 -0.17865940504E+04  0.17865940504E+04  0.25500000920E-02 0.  1.
    10030    2    1    2    0    0  0.00000000000E+00  0.00000000000E+00 -0.11656886866E+04  0.24074994141E+04  0.21064717693E+04 0.  0.
        3    1    3    3  502    0 -0.67849864415E+02  0.80856302181E+03 -0.13503192323E+04  0.15753538662E+04  0.10100000352E+00 0. -1.
       -3    1    3    3    0  502  0.67849864415E+02 -0.80856302181E+03  0.18463054568E+03  0.83214554793E+03  0.10100000352E+00 0.  1.
</event>
<event>
 5   0  0.6052292E-05  0.2087552E+04  0.7818609E-02  0.8566746E-01
       -1   -1    0    0    0  501  0.00000000000E+00  0.00000000000E+00  0.69105246942E+03  0.69105246943E+03  0.50400001928E-02 0.  1.
        1   -1    0    0  501    0  0.00000000000E+00  0.00000000000E+00 -0.15765356546E+04  0.15765356546E+04  0.50400001928E-02 0. -1.
    10030    2    1    2    0    0  0.00000000000E+00  0.00000000000E+00 -0.88548318520E+03  0.22675881241E+04  0.20875524973E+04 0.  0.
        1    1    3    3  502    0  0.51291527641E+03  0.86185772326E+03 -0.12869156034E+03  0.10111589062E+04  0.50400001928E-02 0.  1.
       -1    1    3    3    0  502 -0.51291527641E+03 -0.86185772326E+03 -0.75679162486E+03  0.12564292178E+04  0.50400001928E-02 0. -1.
</event>
<event>
 5   0  0.1281470E-04  0.2094919E+04  0.7818609E-02  0.8563485E-01
       -2   -1    0    0    0  501  0.00000000000E+00  0.00000000000E+00  0.70457144196E+03  0.70457144196E+03  0.25500000920E-02 0.  1.
        2   -1    0    0  501    0  0.00000000000E+00  0.00000000000E+00 -0.15572176716E+04  0.15572176716E+04  0.25500000920E-02 0. -1.
    10030    2    1    2    0    0  0.00000000000E+00  0.00000000000E+00 -0.85264622968E+03  0.22617891136E+04  0.20949187100E+04 0.  0.
        3    1    3    3  502    0 -0.66894439050E+03  0.16183292015E+03  0.42619041776E+03  0.80951514749E+03  0.10100000352E+00 0.  1.
       -3    1    3    3    0  502  0.66894439050E+03 -0.16183292015E+03 -0.12788366474E+04  0.14522739661E+04  0.10100000352E+00 0. -1.
</event>
<event>
 5   0  0.6263616E-05  0.2087853E+04  0.7818609E-02  0.8566613E-01
       -1   -1    0    0    0  501  0.00000000000E+00  0.00000000000E+00  0.10570339466E+04  0.10570339466E+04  0.50400001928E-02 0.  1.
        1   -1    0    0  501    0  0.00000000000E+00  0.00000000000E+00 -0.10309816859E+04  0.10309816859E+04  0.50400001928E-02 0. -1.
    10030    2    1    2    0    0  0.00000000000E+00  0.00000000000E+00  0.26052260691E+02  0.20880156325E+04  0.20878530986E+04 0.  0.
        4    1    3    3  502    0 -0.28261876701E+03  0.90707990245E+03 -0.41957396713E+03  0.10386102463E+04  0.12699999809E+01 0. -1.
       -4    1    3    3    0  502  0.28261876701E+03 -0.90707990245E+03  0.44562622782E+03  0.10494053863E+04  0.12699999809E+01 0.  1.
</event>
<event>
 5   0  0.1325673E-04  0.2102328E+04  0.7818609E-02  0.8560218E-01
        2   -1    0    0  501    0  0.00000000000E+00  0.00000000000E+00  0.91346370085E+03  0.91346370085E+03  0.25500000920E-02 0.  1.
       -2   -1    0    0    0  501  0.00000000000E+00  0.00000000000E+00 -0.12096224512E+04  0.12096224512E+04  0.25500000920E-02 0. -1.
    10030    2    1    2    0    0  0.00000000000E+00  0.00000000000E+00 -0.29615875032E+03  0.21230861520E+04  0.21023284243E+04 0.  0.
        5    1    3    3  502    0 -0.89427930414E+03 -0.25308953597E+03  0.34782343836E+03  0.99236738222E+03  0.46999998093E+01 0.  1.
       -5    1    3    3    0  502  0.89427930414E+03  0.25308953597E+03 -0.64398218868E+03  0.11307187698E+04  0.46999998093E+01 0. -1.
</event>
<event>
 5   0  0.6221148E-05  0.2121504E+04  0.7818609E-02  0.8551829E-01
        1   -1    0    0  501    0  0.00000000000E+00  0.00000000000E+00  0.11961786171E+04  0.11961786171E+04  0.50400001928E-02 0.  1.
       -1   -1    0    0    0  501  0.00000000000E+00  0.00000000000E+00 -0.94065781045E+03  0.94065781046E+03  0.50400001928E-02 0. -1.
    10030    2    1    2    0    0  0.00000000000E+00  0.00000000000E+00  0.25552080668E+03  0.21368364276E+04  0.21215039561E+04 0.  0.
        3    1    3    3  502    0 -0.67447107968E+03 -0.77395337870E+03 -0.14115166949E+03  0.10362619716E+04  0.10100000352E+00 0. -1.
       -3    1    3    3    0  502  0.67447107968E+03  0.77395337870E+03  0.39667247618E+03  0.11005744560E+04  0.10100000352E+00 0.  1.
</event>
<event>
 5   0  0.1349252E-04  0.2100560E+04  0.7818609E-02  0.8560997E-01
       -2   -1    0    0    0  501  0.00000000000E+00  0.00000000000E+00  0.96618859736E+03  0.96618859736E+03  0.25500000920E-02 0. -1.
        2   -1    0    0  501    0  0.00000000000E+00  0.00000000000E+00 -0.11416902173E+04  0.11416902173E+04  0.25500000920E-02 0.  1.
    10030    2    1    2    0    0  0.00000000000E+00  0.00000000000E+00 -0.17550161997E+03  0.21078788147E+04  0.21005599917E+04 0.  0.
        2    1    3    3  502    0 -0.15992127491E+03 -0.10309793824E+04  0.33478925361E+02  0.10438458409E+04  0.25500000920E-02 0. -1.
       -2    1    3    3    0  502  0.15992127491E+03  0.10309793824E+04 -0.20898054533E+03  0.10640329738E+04  0.25500000920E-02 0.  1.
</event>
<event>
 5   0  0.5846187E-05  0.2140200E+04  0.7818609E-02  0.8543739E-01
       -1   -1    0    0    0  501  0.00000000000E+00  0.00000000000E+00  0.79766615673E+03  0.79766615675E+03  0.50400001928E-02 0. -1.
        1   -1    0    0  501    0  0.00000000000E+00  0.00000000000E+00 -0.14355799635E+04  0.14355799635E+04  0.50400001928E-02 0.  1.
    10030    2    1    2    0    0  0.00000000000E+00  0.00000000000E+00 -0.63791380679E+03  0.22332461203E+04  0.21401995722E+04 0.  0.
        5    1    3    3  502    0  0.70773873327E+03  0.77169787383E+03 -0.54918399996E+03  0.11823860955E+04  0.46999998093E+01 0.  1.
       -5    1    3    3    0  502 -0.70773873327E+03 -0.77169787383E+03 -0.88729806824E+02  0.10508600248E+04  0.46999998093E+01 0. -1.
</event>
<event>
 5   0  0.5933905E-05  0.2107757E+04  0.7818609E-02  0.8557834E-01
        1   -1    0    0  501    0  0.00000000000E+00  0.00000000000E+00  0.11601760662E+04  0.11601760662E+04  0.50400001928E-02 0.  1.
       -1   -1    0    0    0  501  0.00000000000E+00  0.00000000000E+00 -0.95732031103E+03  0.95732031104E+03  0.50400001928E-02 0. -1.
    10030    2    1    2    0    0  0.00000000000E+00  0.00000000000E+00  0.20285575518E+03  0.21174963773E+04  0.21077572086E+04 0.  0.
        2    1    3    3  502    0  0.47273292503E+03  0.31544503742E+02 -0.84429780171E+03  0.96814784620E+03  0.25500000920E-02 0. -1.
       -2    1    3    3    0  502 -0.47273292503E+03 -0.31544503742E+02  0.10471535569E+04  0.11493485311E+04  0.25500000920E-02 0.  1.
</event>
<event>
 5   0  0.5846187E-05  0.2079160E+04  0.7818609E-02  0.8570480E-01
        1   -1    0    0  501    0  0.00000000000E+00  0.00000000000E+00  0.66970725644E+03  0.66970725646E+03  0.50400001928E-02 0. -1.
       -1   -1    0    0    0  501  0.00000000000E+00  0.00000000000E+00 -0.16137293477E+04  0.16137293477E+04  0.50400001928E-02 0.  1.
    10030    2    1    2    0    0  0.00000000000E+00  0.00000000000E+00 -0.94402209124E+03  0.22834366041E+04  0.20791596900E+04 0.  0.
        5    1    3    3  502    0 -0.27226750900E+03 -0.59970969206E+03  0.41132785942E+03  0.77652688887E+03  0.46999998093E+01 0. -1.
       -5    1    3    3    0  502  0.27226750900E+03  0.59970969206E+03 -0.13553499507E+04  0.15069097153E+04  0.46999998093E+01 0.  1.
</event>
<event>
 5   0  0.1325673E-04  0.2055508E+04  0.7818609E-02  0.8581100E-01
       -2   -1    0    0    0  501  0.00000000000E+00  0.00000000000E+00  0.46995675244E+03  0.46995675245E+03  0.25500000920E-02 0.  1.
        2   -1    0    0  501    0  0.00000000000E+00  0.00000000000E+00 -0.22476073460E+04  0.22476073460E+04  0.25500000920E-02 0. -1.
    10030    2    1    2    0    0  0.00000000000E+00  0.00000000000E+00 -0.17776505935E+04  0.27175640984E+04  0.20555079655E+04 0.  0.
        5    1    3    3  502    0 -0.71396641257E+03  0.17196318454E+03 -0.18393848932E+04  0.19805752323E+04  0.46999998093E+01 0. -1.
       -5    1    3    3    0  502  0.71396641257E+03 -0.17196318454E+03  0.61734299708E+02  0.73698886618E+03  0.46999998093E+01 0.  1.
</event>
<event>
 5   0  0.5846187E-05  0.2097236E+04  0.7818609E-02  0.8562462E-01
        1   -1    0    0  501    0  0.00000000000E+00  0.00000000000E+00  0.17620413848E+04  0.17620413848E+04  0.50400001928E-02 0. -1.
       -1   -1    0    0    0  501  0.00000000000E+00  0.00000000000E+00 -0.62404879892E+03  0.62404879894E+03  0.50400001928E-02 0.  1.
    10030    2    1    2    0    0  0.00000000000E+00  0.00000000000E+00  0.11379925859E+04  0.23860901838E+04  0.20972360953E+04 0.  0.
        5    1    3    3  502    0 -0.94624296602E+03  0.32016051322E+03  0.20617035175E+03  0.10200033377E+04  0.46999998093E+01 0.  1.
       -5    1    3    3    0  502  0.94624296602E+03 -0.32016051322E+03  0.93182223416E+03  0.13660868461E+04  0.46999998093E+01 0. -1.
</event>
<event>
 5   0  0.1235817E-04  0.2100046E+04  0.7818609E-02  0.8561223E-01
       -2   -1    0    0    0  501  0.00000000000E+00  0.00000000000E+00  0.13360514996E+04  0.13360514996E+04  0.25500000920E-02 0.  1.
        2   -1    0    0  501    0  0.00000000000E+00  0.00000000000E+00 -0.82522881363E+03  0.82522881364E+03  0.25500000920E-02 0. -1.
    10030    2    1    2    0    0  0.00000000000E+00  0.00000000000E+00  0.51082268602E+03  0.21612803133E+04  0.21000458986E+04 0.  0.
        1    1    3    3  502    0  0.37446011699E+03 -0.25378700273E+03  0.12306280359E+04  0.13111344648E+04  0.50400001928E-02 0.  1.
       -1    1    3    3    0  502 -0.37446011699E+03  0.25378700273E+03 -0.71980534989E+03  0.85014584850E+03  0.50400001928E-02 0. -1.
</event>
<event>
 5   0  0.1325673E-04  0.2105647E+04  0.7818609E-02  0.8558760E-01
        2   -1    0    0  501    0  0.00000000000E+00  0.00000000000E+00  0.19942384938E+04  0.19942384938E+04  0.25500000920E-02 0.  1.
       -2   -1    0    0    0  501  0.00000000000E+00  0.00000000000E+00 -0.55581976510E+03  0.55581976510E+03  0.25500000920E-02 0. -1.
    10030    2    1    2    0    0  0.00000000000E+00  0.00000000000E+00  0.14384187287E+04  0.25500582589E+04  0.21056468566E+04 0.  0.
        5    1    3    3  502    0 -0.77801294437E+02 -0.86598981466E+03  0.14381567478E+04  0.16805678569E+04  0.46999998093E+01 0.  1.
       -5    1    3    3    0  502  0.77801294437E+02  0.86598981466E+03  0.26198091692E+00  0.86949040198E+03  0.46999998093E+01 0. -1.
</event>
<event>
 5   0  0.1325673E-04  0.2085767E+04  0.7818609E-02  0.8567539E-01
        2   -1    0    0  501    0  0.00000000000E+00  0.00000000000E+00  0.20267292750E+04  0.20267292750E+04  0.25500000920E-02 0. -1.
       -2   -1    0    0    0  501  0.00000000000E+00  0.00000000000E+00 -0.53663135118E+03  0.53663135119E+03  0.25500000920E-02 0.  1.
    10030    2    1    2    0    0  0.00000000000E+00  0.00000000000E+00  0.14900979238E+04  0.25633606262E+04  0.20857674552E+04 0.  0.
        5    1    3    3  502    0  0.56455748557E+03 -0.11214303378E+03 -0.32372542852E+03  0.66039492549E+03  0.46999998093E+01 0.  1.
       -5    1    3    3    0  502 -0.56455748557E+03  0.11214303378E+03  0.18138233523E+04  0.19029657007E+04  0.46999998093E+01 0. -1.
</event>
<event>
 5   0  0.5846187E-05  0.2203302E+04  0.7818609E-02  0.8517055E-01
       -1   -1    0    0    0  501  0.00000000000E+00  0.00000000000E+00  0.10737592985E+04  0.10737592985E+04  0.50400001928E-02 0.  1.
        1   -1    0    0  501    0  0.00000000000E+00  0.00000000000E+00 -0.11302671853E+04  0.11302671853E+04  0.50400001928E-02 0. -1.
    10030    2    1    2    0    0  0.00000000000E+00  0.00000000000E+00 -0.56507886764E+02  0.22040264839E+04  0.22033019766E+04 0.  0.
        5    1    3    3  502    0 -0.89347308720E+03  0.62540939984E+03  0.12730196612E+03  0.10980250250E+04  0.46999998093E+01 0.  1.
       -5    1    3    3    0  502  0.89347308720E+03 -0.62540939984E+03 -0.18380985289E+03  0.11060014589E+04  0.46999998093E+01 0. -1.
</event>
<event>
 5   0  0.5846187E-05  0.2152613E+04  0.7818609E-02  0.8538415E-01
        1   -1    0    0  501    0  0.00000000000E+00  0.00000000000E+00  0.16862350997E+04  0.16862350997E+04  0.50400001928E-02 0. -1.
       -1   -1    0    0    0  501  0.00000000000E+00  0.00000000000E+00 -0.68699546462E+03  0.68699546464E+03  0.50400001928E-02 0.  1.
    10030    2    1    2    0    0  0.00000000000E+00  0.00000000000E+00  0.99923963508E+03  0.23732305644E+04  0.21526131708E+04 0.  0.
        5    1    3    3  502    0 -0.33270897126E+03  0.23325332386E+03  0.15984147562E+04  0.16492586806E+04  0.46999998093E+01 0. -1.
       -5    1    3    3    0  502  0.33270897126E+03 -0.23325332386E+03 -0.59917512115E+03  0.72397188374E+03  0.46999998093E+01 0.  1.
</event>
<event>
 5   0  0.1325673E-04  0.2118795E+04  0.7818609E-02  0.8553009E-01
        2   -1    0    0  501    0  0.00000000000E+00  0.00000000000E+00  0.12116615602E+04  0.12116615602E+04  0.25500000920E-02 0.  1.
       -2   -1    0    0    0  501  0.00000000000E+00  0.00000000000E+00 -0.92626815591E+03  0.92626815591E+03  0.25500000920E-02 0. -1.
    10030    2    1    2    0    0  0.00000000000E+00  0.00000000000E+00  0.28539340427E+03  0.21379297161E+04  0.21187954304E+04 0.  0.
        5    1    3    3  502    0 -0.82453959828E+02 -0.64879729151E+02  0.12063957306E+04  0.12109586217E+04  0.46999998093E+01 0.  1.
       -5    1    3    3    0  502  0.82453959828E+02  0.64879729151E+02 -0.92100232631E+03  0.92697109438E+03  0.46999998093E+01 0. -1.
</event>
<event>
 5   0  0.6263616E-05  0.2102195E+04  0.7818609E-02  0.8560277E-01
        1   -1    0    0  501    0  0.00000000000E+00  0.00000000000E+00  0.81469888905E+03  0.81469888906E+03  0.50400001928E-02 0. -1.
       -1   -1    0    0    0  501  0.00000000000E+00  0.00000000000E+00 -0.13560905455E+04  0.13560905456E+04  0.50400001928E-02 0.  1.
    10030    2    1    2    0    0  0.00000000000E+00  0.00000000000E+00 -0.54139165650E+03  0.21707894346E+04  0.21021945304E+04 0.  0.
        4    1    3    3  502    0  0.70942656746E+03 -0.75090106146E+03 -0.47110427763E+03  0.11353762865E+04  0.12699999809E+01 0.  1.
       -4    1    3    3    0  502 -0.70942656746E+03  0.75090106146E+03 -0.70287378868E+02  0.10354131481E+04  0.12699999809E+01 0. -1.
</event>
<event>
 5   0  0.1235817E-04  0.2120389E+04  0.7818609E-02  0.8552315E-01
       -2   -1    0    0    0  501  0.00000000000E+00  0.00000000000E+00  0.77607317932E+03  0.77607317933E+03  0.25500000920E-02 0.  1.
        2   -1    0    0  501    0  0.00000000000E+00  0.00000000000E+00 -0.14483332006E+04  0.14483332006E+04  0.25500000920E-02 0. -1.
    10030    2    1    2    0    0  0.00000000000E+00  0.00000000000E+00 -0.67226002126E+03  0.22244063799E+04  0.21203891640E+04 0.  0.
        1    1    3    3  502    0 -0.78265269331E+03  0.60768107887E+03  0.59450275494E+02  0.99265092920E+03  0.50400001928E-02 0.  1.
       -1    1    3    3    0  502  0.78265269331E+03 -0.60768107887E+03 -0.73171029676E+03  0.12317554507E+04  0.50400001928E-02 0. -1.
</event>
<event>
 5   0  0.5846187E-05  0.2000272E+04  0.7818609E-02  0.8606494E-01
        1   -1    0    0  501    0  0.00000000000E+00  0.00000000000E+00  0.87334977313E+03  0.87334977315E+03  0.50400001928E-02 0.  1.
       -1   -1    0    0    0  501  0.00000000000E+00  0.00000000000E+00 -0.11453277608E+04  0.11453277609E+04  0.50400001928E-02 0. -1.
    10030    2    1    2    0    0  0.00000000000E+00  0.00000000000E+00 -0.27197798771E+03  0.20186775340E+04  0.20002717217E+04 0.  0.
        5    1    3    3  502    0 -0.21965098009E+03 -0.82450949362E+03 -0.66250526526E+03  0.10802767121E+04  0.46999998093E+01 0. -1.
       -5    1    3    3    0  502  0.21965098009E+03  0.82450949362E+03  0.39052727755E+03  0.93840082194E+03  0.46999998093E+01 0.  1.
</event>
<event>
 5   0  0.6052292E-05  0.2055186E+04  0.7818609E-02  0.8581245E-01
       -1   -1    0    0    0  501  0.00000000000E+00  0.00000000000E+00  0.74802219162E+03  0.74802219163E+03  0.50400001928E-02 0. -1.
        1   -1    0    0  501    0  0.00000000000E+00  0.00000000000E+00 -0.14116531040E+04  0.14116531040E+04  0.50400001928E-02 0.  1.
    10030    2    1    2    0    0  0.00000000000E+00  0.00000000000E+00 -0.66363091240E+03  0.21596752957E+04  0.20551864623E+04 0.  0.
        1    1    3    3  502    0 -0.10941049939E+03  0.20380684644E+03 -0.13839382156E+04  0.14031367976E+04  0.50400001928E-02 0.  1.
       -1    1    3    3    0  502  0.10941049939E+03 -0.20380684644E+03  0.72030730320E+03  0.75653849810E+03  0.50400001928E-02 0. -1.
</event>
<event>
 5   0  0.6052292E-05  0.2065826E+04  0.7818609E-02  0.8576448E-01
        1   -1    0    0  501    0  0.00000000000E+00  0.00000000000E+00  0.14471076525E+04  0.14471076525E+04  0.50400001928E-02 0.  1.
       -1   -1    0    0    0  501  0.00000000000E+00  0.00000000000E+00 -0.73727045730E+03  0.73727045731E+03  0.50400001928E-02 0. -1.
    10030    2    1    2    0    0  0.00000000000E+00  0.00000000000E+00  0.70983719521E+03  0.21843781098E+04  0.20658264407E+04 0.  0.
        1    1    3    3  502    0  0.15851543763E+03  0.43840336290E+03  0.13295433109E+04  0.14089038534E+04  0.50400001928E-02 0.  1.
       -1    1    3    3    0  502 -0.15851543763E+03 -0.43840336290E+03 -0.61970611567E+03  0.77547425644E+03  0.50400001928E-02 0. -1.
</event>
<event>
 5   0  0.6263616E-05  0.2087074E+04  0.7818609E-02  0.8566959E-01
        1   -1    0    0  501    0  0.00000000000E+00  0.00000000000E+00  0.21749952723E+04  0.21749952723E+04  0.50400001928E-02 0. -1.
       -1   -1    0    0    0  501  0.00000000000E+00  0.00000000000E+00 -0.50067694520E+03  0.50067694523E+03  0.50400001928E-02 0.  1.
    10030    2    1    2    0    0  0.00000000000E+00  0.00000000000E+00  0.16743183271E+04  0.26756722175E+04  0.20870744968E+04 0.  0.
        4    1    3    3  502    0  0.51333634643E+03 -0.10261081426E+03  0.19944801533E+04  0.20620368277E+04  0.12699999809E+01 0. -1.
       -4    1    3    3    0  502 -0.51333634643E+03  0.10261081426E+03 -0.32016182626E+03  0.61363538984E+03  0.12699999809E+01 0.  1.
</event>
<event>
 5   0  0.1252477E-04  0.2110734E+04  0.7818609E-02  0.8556530E-01
        2   -1    0    0  501    0  0.00000000000E+00  0.00000000000E+00  0.16076527721E+04  0.16076527721E+04  0.25500000920E-02 0. -1.
       -2   -1    0    0    0  501  0.00000000000E+00  0.00000000000E+00 -0.69281071770E+03  0.69281071770E+03  0.25500000920E-02 0.  1.
    10030    2    1    2    0    0  0.00000000000E+00  0.00000000000E+00  0.91484205439E+03  0.23004634898E+04  0.21107335889E+04 0.  0.
        4    1    3    3  502    0 -0.35834977998E+03 -0.40665711870E+03 -0.52952240428E+03  0.75774676940E+03  0.12699999809E+01 0.  1.
       -4    1    3    3    0  502  0.35834977998E+03  0.40665711870E+03  0.14443644587E+04  0.15427167204E+04  0.12699999809E+01 0. -1.
</event>
<event>
 5   0  0.1235817E-04  0.2086930E+04  0.7818609E-02  0.8567023E-01
       -2   -1    0    0    0  501  0.00000000000E+00  0.00000000000E+00  0.79826403777E+03  0.79826403777E+03  0.25500000920E-02 0. -1.
        2   -1    0    0  501    0  0.00000000000E+00  0.00000000000E+00 -0.13639839456E+04  0.13639839456E+04  0.25500000920E-02 0.  1.
    10030    2    1    2    0    0  0.00000000000E+00  0.00000000000E+00 -0.56571990780E+03  0.21622479833E+04  0.20869301204E+04 0.  0.
        1    1    3    3  502    0  0.87435849051E+03 -0.16323661314E+03  0.28242235916E+03  0.93322631274E+03  0.50400001928E-02 0. -1.
       -1    1    3    3    0  502 -0.87435849051E+03  0.16323661314E+03 -0.84814226696E+03  0.12290216706E+04  0.50400001928E-02 0.  1.
</event>
<event>
 5   0  0.6263616E-05  0.2146664E+04  0.7818609E-02  0.8540961E-01
       -1   -1    0    0    0  501  0.00000000000E+00  0.00000000000E+00  0.18080470722E+04  0.18080470722E+04  0.50400001928E-02 0. -1.
        1   -1    0    0  501    0  0.00000000000E+00  0.00000000000E+00 -0.63717468102E+03  0.63717468104E+03  0.50400001928E-02 0.  1.
    10030    2    1    2    0    0  0.00000000000E+00  0.00000000000E+00  0.11708723912E+04  0.24452217533E+04  0.21466642183E+04 0.  0.
        4    1    3    3  502    0 -0.16016428689E+02  0.10729831612E+04  0.56020066739E+03  0.12105270715E+04  0.12699999809E+01 0. -1.
       -4    1    3    3    0  502  0.16016428689E+02 -0.10729831612E+04  0.61067172383E+03  0.12346946818E+04  0.12699999809E+01 0.  1.
</event>
<event>
 5   0  0.1325673E-04  0.2007462E+04  0.7818609E-02  0.8603140E-01
        2   -1    0    0  501    0  0.00000000000E+00  0.00000000000E+00  0.12456587383E+04  0.12456587383E+04  0.25500000920E-02 0.  1.
       -2   -1    0    0    0  501  0.00000000000E+00  0.00000000000E+00 -0.80878997551E+03  0.80878997552E+03  0.25500000920E-02 0. -1.
    10030    2    1    2    0    0  0.00000000000E+00  0.00000000000E+00  0.43686876274E+03  0.20544487138E+04  0.20074623786E+04 0.  0.
        5    1    3    3  502    0 -0.22557909532E+02 -0.16654901520E+03  0.12311443719E+04  0.12425723272E+04  0.46999998093E+01 0.  1.
       -5    1    3    3    0  502  0.22557909532E+02  0.16654901520E+03 -0.79427560919E+03  0.81187638659E+03  0.46999998093E+01 0. -1.
</event>
<event>
 5   0  0.1281470E-04  0.1919341E+04  0.7818609E-02  0.8645288E-01
       -2   -1    0    0    0  501  0.00000000000E+00  0.00000000000E+00  0.78764136922E+03  0.78764136923E+03  0.25500000920E-02 0. -1.
        2   -1    0    0  501    0  0.00000000000E+00  0.00000000000E+00 -0.11692730149E+04  0.11692730149E+04  0.25500000920E-02 0.  1.
    10030    2    1    2    0    0  0.00000000000E+00  0.00000000000E+00 -0.38163164567E+03  0.19569143841E+04  0.19193413437E+04 0.  0.
        3    1    3    3  502    0  0.42265670556E+03  0.48882033359E+03  0.53256870486E+03  0.83738488456E+03  0.10100000352E+00 0. -1.
       -3    1    3    3    0  502 -0.42265670556E+03 -0.48882033359E+03 -0.91420035053E+03  0.11195294996E+04  0.10100000352E+00 0.  1.
</event>
<event>
 5   0  0.1252477E-04  0.2109132E+04  0.7818609E-02  0.8557231E-01
       -2   -1    0    0    0  501  0.00000000000E+00  0.00000000000E+00  0.82451277524E+03  0.82451277524E+03  0.25500000920E-02 0. -1.
        2   -1    0    0  501    0  0.00000000000E+00  0.00000000000E+00 -0.13488079893E+04  0.13488079893E+04  0.25500000920E-02 0.  1.
    10030    2    1    2    0    0  0.00000000000E+00  0.00000000000E+00 -0.52429521409E+03  0.21733207646E+04  0.21091319717E+04 0.  0.
        4    1    3    3  502    0  0.10250948309E+04 -0.24752308962E+03 -0.26683732108E+03  0.10877917360E+04  0.12699999809E+01 0. -1.
       -4    1    3    3    0  502 -0.10250948309E+04  0.24752308962E+03 -0.25745789300E+03  0.10855290285E+04  0.12699999809E+01 0.  1.
</event>
<event>
 5   0  0.1349252E-04  0.1873186E+04  0.7818609E-02  0.8668320E-01
       -2   -1    0    0    0  501  0.00000000000E+00  0.00000000000E+00  0.55904593771E+03  0.55904593772E+03  0.25500000920E-02 0.  1.
        2   -1    0    0  501    0  0.00000000000E+00  0.00000000000E+00 -0.15691128443E+04  0.15691128443E+04  0.25500000920E-02 0. -1.
    10030    2    1    2    0    0  0.00000000000E+00  0.00000000000E+00 -0.10100669066E+04  0.21281587820E+04  0.18731856944E+04 0.  0.
        2    1    3    3  502    0 -0.90469096343E+03 -0.14484235029E+03 -0.28426063398E+03  0.95929617626E+03  0.25500000920E-02 0.  1.
       -2    1    3    3    0  502  0.90469096343E+03  0.14484235029E+03 -0.72580627257E+03  0.11688626057E+04  0.25500000920E-02 0. -1.
</event>
<event>
 5   0  0.1349252E-04  0.1957549E+04  0.7818609E-02  0.8626729E-01
       -2   -1    0    0    0  501  0.00000000000E+00  0.00000000000E+00  0.44313447001E+03  0.44313447001E+03  0.25500000920E-02 0.  1.
        2   -1    0    0  501    0  0.00000000000E+00  0.00000000000E+00 -0.21618705789E+04  0.21618705789E+04  0.25500000920E-02 0. -1.
    10030    2    1    2    0    0  0.00000000000E+00  0.00000000000E+00 -0.17187361089E+04  0.26050050489E+04  0.19575488481E+04 0.  0.
        2    1    3    3  502    0 -0.36723200743E+03  0.42794858538E+03  0.20523071497E+03  0.60009914630E+03  0.25500000920E-02 0.  1.
       -2    1    3    3    0  502  0.36723200743E+03 -0.42794858538E+03 -0.19239668239E+04  0.20049059026E+04  0.25500000920E-02 0. -1.
</event>
<event>
 5   0  0.1349252E-04  0.2113698E+04  0.7818609E-02  0.8555233E-01
        2   -1    0    0  501    0  0.00000000000E+00  0.00000000000E+00  0.15502749466E+04  0.15502749466E+04  0.25500000920E-02 0.  1.
       -2   -1    0    0    0  501  0.00000000000E+00  0.00000000000E+00 -0.72047174497E+03  0.72047174498E+03  0.25500000920E-02 0. -1.
    10030    2    1    2    0    0  0.00000000000E+00  0.00000000000E+00  0.82980320164E+03  0.22707466916E+04  0.21136975148E+04 0.  0.
        2    1    3    3  502    0  0.80291087768E+03  0.40922815128E+03 -0.17820164229E+03  0.91863452070E+03  0.25500000920E-02 0. -1.
       -2    1    3    3    0  502 -0.80291087768E+03 -0.40922815128E+03  0.10080048439E+04  0.13521121709E+04  0.25500000920E-02 0.  1.
</event>
<event>
 5   0  0.1281470E-04  0.2062169E+04  0.7818609E-02  0.8578094E-01
        2   -1    0    0  501    0  0.00000000000E+00  0.00000000000E+00  0.81126934270E+03  0.81126934270E+03  0.25500000920E-02 0.  1.
       -2   -1    0    0    0  501  0.00000000000E+00  0.00000000000E+00 -0.13104593136E+04  0.13104593136E+04  0.25500000920E-02 0. -1.
    10030    2    1    2    0    0  0.00000000000E+00  0.00000000000E+00 -0.49918997088E+03  0.21217286563E+04  0.20621692132E+04 0.  0.
        3    1    3    3  502    0  0.44492366013E+02 -0.21255380046E+03  0.78747348693E+03  0.81686791560E+03  0.10100000352E+00 0.  1.
       -3    1    3    3    0  502 -0.44492366013E+02  0.21255380046E+03 -0.12866634578E+04  0.13048607407E+04  0.10100000352E+00 0. -1.
</event>
<event>
 5   0  0.1252477E-04  0.2107295E+04  0.7818609E-02  0.8558037E-01
       -2   -1    0    0    0  501  0.00000000000E+00  0.00000000000E+00  0.12674310886E+04  0.12674310886E+04  0.25500000920E-02 0.  1.
        2   -1    0    0  501    0  0.00000000000E+00  0.00000000000E+00 -0.87592409849E+03  0.87592409850E+03  0.25500000920E-02 0. -1.
    10030    2    1    2    0    0  0.00000000000E+00  0.00000000000E+00  0.39150699010E+03  0.21433551871E+04  0.21072953601E+04 0.  0.
        4    1    3    3  502    0 -0.68530427701E+03  0.28962995154E+03 -0.56309948138E+03  0.93306489579E+03  0.12699999809E+01 0. -1.
       -4    1    3    3    0  502  0.68530427701E+03 -0.28962995154E+03  0.95460647148E+03  0.12102902913E+04  0.12699999809E+01 0.  1.
</event>
<event>
 5   0  0.1235817E-04  0.2106400E+04  0.7818609E-02  0.8558430E-01
        2   -1    0    0  501    0  0.00000000000E+00  0.00000000000E+00  0.15529018159E+04  0.15529018159E+04  0.25500000920E-02 0.  1.
       -2   -1    0    0    0  501  0.00000000000E+00  0.00000000000E+00 -0.71429486150E+03  0.71429486150E+03  0.25500000920E-02 0. -1.
    10030    2    1    2    0    0  0.00000000000E+00  0.00000000000E+00  0.83860695444E+03  0.22671966774E+04  0.21063995704E+04 0.  0.
        1    1    3    3  502    0  0.71974962680E+03  0.76818263556E+03  0.45476876541E+03  0.11467164937E+04  0.50400001928E-02 0. -1.
       -1    1    3    3    0  502 -0.71974962680E+03 -0.76818263556E+03  0.38383818903E+03  0.11204801838E+04  0.50400001928E-02 0.  1.
</event>
<event>
 5   0  0.6052292E-05  0.2125119E+04  0.7818609E-02  0.8550258E-01
       -1   -1    0    0    0  501  0.00000000000E+00  0.00000000000E+00  0.51297751968E+03  0.51297751971E+03  0.50400001928E-02 0. -1.
        1   -1    0    0  501    0  0.00000000000E+00  0.00000000000E+00 -0.22009394470E+04  0.22009394470E+04  0.50400001928E-02 0.  1.
    10030    2    1    2    0    0  0.00000000000E+00  0.00000000000E+00 -0.16879619274E+04  0.27139169668E+04  0.21251187812E+04 0.  0.
        1    1    3    3  502    0 -0.10384162523E+04 -0.11613893669E+03 -0.59755059132E+03  0.12036873659E+04  0.50400001928E-02 0. -1.
       -1    1    3    3    0  502  0.10384162523E+04  0.11613893669E+03 -0.10904113360E+04  0.15102296009E+04  0.50400001928E-02 0.  1.
</event>
<event>
 5   0  0.6221148E-05  0.2141664E+04  0.7818609E-02  0.8543109E-01
       -1   -1    0    0    0  501  0.00000000000E+00  0.00000000000E+00  0.73552088374E+03  0.73552088376E+03  0.50400001928E-02 0.  1.
        1   -1    0    0  501    0  0.00000000000E+00  0.00000000000E+00 -0.15590056382E+04  0.15590056382E+04  0.50400001928E-02 0. -1.
    10030    2    1    2    0    0  0.00000000000E+00  0.00000000000E+00 -0.82348475447E+03  0.22945265220E+04  0.21416640304E+04 0.  0.
        3    1    3    3  502    0 -0.95674673241E+03  0.98752503109E+02 -0.91604607092E+03  0.13282532820E+04  0.10100000352E+00 0. -1.
       -3    1    3    3    0  502  0.95674673241E+03 -0.98752503109E+02  0.92561316445E+02  0.96627324001E+03  0.10100000352E+00 0.  1.
</event>
<event>
 5   0  0.6052292E-05  0.2092525E+04  0.7818609E-02  0.8564543E-01
       -1   -1    0    0    0  501  0.00000000000E+00  0.00000000000E+00  0.10320690177E+04  0.10320690177E+04  0.50400001928E-02 0.  1.
        1   -1    0    0  501    0  0.00000000000E+00  0.00000000000E+00 -0.10606516702E+04  0.10606516702E+04  0.50400001928E-02 0. -1.
    10030    2    1    2    0    0  0.00000000000E+00  0.00000000000E+00 -0.28582652526E+02  0.20927206879E+04  0.20925254860E+04 0.  0.
        1    1    3    3  502    0  0.49433414192E+03  0.82979502004E+03 -0.41649759860E+03  0.10518537298E+04  0.50400001928E-02 0. -1.
       -1    1    3    3    0  502 -0.49433414192E+03 -0.82979502004E+03  0.38791494608E+03  0.10408669582E+04  0.50400001928E-02 0.  1.
</event>
<event>
 5   0  0.1252477E-04  0.2054950E+04  0.7818609E-02  0.8581352E-01
       -2   -1    0    0    0  501  0.00000000000E+00  0.00000000000E+00  0.71169621721E+03  0.71169621721E+03  0.25500000920E-02 0.  1.
        2   -1    0    0  501    0  0.00000000000E+00  0.00000000000E+00 -0.14833649218E+04  0.14833649218E+04  0.25500000920E-02 0. -1.
    10030    2    1    2    0    0  0.00000000000E+00  0.00000000000E+00 -0.77166870459E+03  0.21950611390E+04  0.20549503192E+04 0.  0.
        4    1    3    3  502    0  0.24118168373E+03 -0.39677790291E+03 -0.13648990165E+04  0.14417185047E+04  0.12699999809E+01 0. -1.
       -4    1    3    3    0  502 -0.24118168373E+03  0.39677790291E+03  0.59323031188E+03  0.75334263429E+03  0.12699999809E+01 0.  1.
</event>
<event>
 5   0  0.1349252E-04  0.2090451E+04  0.7818609E-02  0.8565462E-01
        2   -1    0    0  501    0  0.00000000000E+00  0.00000000000E+00  0.13881947680E+04  0.13881947680E+04  0.25500000920E-02 0.  1.
       -2   -1    0    0    0  501  0.00000000000E+00  0.00000000000E+00 -0.78699057979E+03  0.78699057979E+03  0.25500000920E-02 0. -1.
    10030    2    1    2    0    0  0.00000000000E+00  0.00000000000E+00  0.60120418821E+03  0.21751853478E+04  0.20904508656E+04 0.  0.
        2    1    3    3  502    0 -0.48235348538E+03  0.16727795585E+03  0.12496292950E+04  0.13498963569E+04  0.25500000920E-02 0.  1.
       -2    1    3    3    0  502  0.48235348538E+03 -0.16727795585E+03 -0.64842510680E+03  0.82528899091E+03  0.25500000920E-02 0. -1.
</event>
<event>
 5   0  0.1349252E-04  0.2082586E+04  0.7818609E-02  0.8568953E-01
        2   -1    0    0  501    0  0.00000000000E+00  0.00000000000E+00  0.17255740008E+04  0.17255740008E+04  0.25500000920E-02 0. -1.
       -2   -1    0    0    0  501  0.00000000000E+00  0.00000000000E+00 -0.62836549953E+03  0.62836549954E+03  0.25500000920E-02 0.  1.
    10030    2    1    2    0    0  0.00000000000E+00  0.00000000000E+00  0.10972085012E+04  0.23539395003E+04  0.20825860549E+04 0.  0.
        2    1    3    3  502    0  0.34652686092E+03  0.92959001387E+03  0.90616527307E+03  0.13436346086E+04  0.25500000920E-02 0. -1.
       -2    1    3    3    0  502 -0.34652686092E+03 -0.92959001387E+03  0.19104322817E+03  0.10103048917E+04  0.25500000920E-02 0.  1.
</event>
<event>
 5   0  0.1235817E-04  0.1537286E+04  0.7818609E-02  0.8860030E-01
        2   -1    0    0  501    0  0.00000000000E+00  0.00000000000E+00  0.32883286770E+03  0.32883286771E+03  0.25500000920E-02 0.  1.
       -2   -1    0    0    0  501  0.00000000000E+00  0.00000000000E+00 -0.17966929578E+04  0.17966929578E+04  0.25500000920E-02 0. -1.
    10030    2    1    2    0    0  0.00000000000E+00  0.00000000000E+00 -0.14678600901E+04  0.21255258255E+04  0.15372855268E+04 0.  0.
        1    1    3    3  502    0 -0.19921298633E+03 -0.66184388226E+03 -0.26896405958E+03  0.74166353812E+03  0.50400001928E-02 0.  1.
       -1    1    3    3    0  502  0.19921298633E+03  0.66184388226E+03 -0.11988960305E+04  0.13838622874E+04  0.50400001928E-02 0. -1.
</event>
<event>
 5   0  0.1325673E-04  0.2103560E+04  0.7818609E-02  0.8559677E-01
        2   -1    0    0  501    0  0.00000000000E+00  0.00000000000E+00  0.11026461868E+04  0.11026461868E+04  0.25500000920E-02 0. -1.
       -2   -1    0    0    0  501  0.00000000000E+00  0.00000000000E+00 -0.10032600024E+04  0.10032600024E+04  0.25500000920E-02 0.  1.
    10030    2    1    2    0    0  0.00000000000E+00  0.00000000000E+00  0.99386184472E+02  0.21059061892E+04  0.21035596650E+04 0.  0.
        5    1    3    3  502    0 -0.66301020494E+03 -0.32381171190E+03  0.80005047795E+03  0.10883654781E+04  0.46999998093E+01 0. -1.
       -5    1    3    3    0  502  0.66301020494E+03  0.32381171190E+03 -0.70066429348E+03  0.10175407111E+04  0.46999998093E+01 0.  1.
</event>
<event>
 5   0  0.5933905E-05  0.2057987E+04  0.7818609E-02  0.8579979E-01
        1   -1    0    0  501    0  0.00000000000E+00  0.00000000000E+00  0.11064526030E+04  0.11064526031E+04  0.50400001928E-02 0. -1.
       -1   -1    0    0    0  501  0.00000000000E+00  0.00000000000E+00 -0.95695741265E+03  0.95695741266E+03  0.50400001928E-02 0.  1.
    10030    2    1    2    0    0  0.00000000000E+00  0.00000000000E+00  0.14949519040E+03  0.20634100157E+04  0.20579873860E+04 0.  0.
        2    1    3    3  502    0  0.52155841859E+03 -0.74666031637E+02  0.96094858719E+03  0.10959107571E+04  0.25500000920E-02 0. -1.
       -2    1    3    3    0  502 -0.52155841859E+03  0.74666031637E+02 -0.81145339679E+03  0.96749925863E+03  0.25500000920E-02 0.  1.
</event>
<event>
 5   0  0.6221148E-05  0.2104089E+04  0.7818609E-02  0.8559444E-01
        1   -1    0    0  501    0  0.00000000000E+00  0.00000000000E+00  0.21118728143E+04  0.21118728143E+04  0.50400001928E-02 0. -1.
       -1   -1    0    0    0  501  0.00000000000E+00  0.00000000000E+00 -0.52408365964E+03  0.52408365967E+03  0.50400001928E-02 0.  1.
    10030    2    1    2    0    0  0.00000000000E+00  0.00000000000E+00  0.15877891546E+04  0.26359564739E+04  0.21040893833E+04 0.  0.
        3    1    3    3  502    0  0.50987712024E+03 -0.91988452494E+03  0.82548361403E+03  0.13370061422E+04  0.10100000352E+00 0.  1.
       -3    1    3    3    0  502 -0.50987712024E+03  0.91988452494E+03  0.76230554059E+03  0.12989503318E+04  0.10100000352E+00 0. -1.
</event>
<event>
 5   0  0.6052292E-05  0.2103778E+04  0.7818609E-02  0.8559581E-01
       -1   -1    0    0    0  501  0.00000000000E+00  0.00000000000E+00  0.45758564780E+03  0.45758564783E+03  0.50400001928E-02 0.  1.
        1   -1    0    0  501    0  0.00000000000E+00  0.00000000000E+00 -0.24180613771E+04  0.24180613772E+04  0.50400001928E-02 0. -1.
    10030    2    1    2    0    0  0.00000000000E+00  0.00000000000E+00 -0.19604757293E+04  0.28756470250E+04  0.21037777275E+04 0.  0.
        1    1    3    3  502    0  0.63611903487E+03  0.83733617415E+03 -0.10161663679E+04  0.14623178117E+04  0.50400001928E-02 0.  1.
       -1    1    3    3    0  502 -0.63611903487E+03 -0.83733617415E+03 -0.94430936146E+03  0.14133292133E+04  0.50400001928E-02 0. -1.
</event>
<event>
 5   0  0.5933905E-05  0.2089856E+04  0.7818609E-02  0.8565725E-01
        1   -1    0    0  501    0  0.00000000000E+00  0.00000000000E+00  0.16620579101E+04  0.16620579101E+04  0.50400001928E-02 0. -1.
       -1   -1    0    0    0  501  0.00000000000E+00  0.00000000000E+00 -0.65694109249E+03  0.65694109251E+03  0.50400001928E-02 0.  1.
    10030    2    1    2    0    0  0.00000000000E+00  0.00000000000E+00  0.10051168176E+04  0.23189990026E+04  0.20898556307E+04 0.  0.
        2    1    3    3  502    0 -0.40499633754E+03  0.95544349172E+03  0.36674649694E+03  0.11006349496E+04  0.25500000920E-02 0.  1.
       -2    1    3    3    0  502  0.40499633754E+03 -0.95544349172E+03  0.63837032067E+03  0.12183640530E+04  0.25500000920E-02 0. -1.
</event>
<event>
 5   0  0.1281470E-04  0.2128823E+04  0.7818609E-02  0.8548652E-01
        2   -1    0    0  501    0  0.00000000000E+00  0.00000000000E+00  0.12168016844E+04  0.12168016844E+04  0.25500000920E-02 0. -1.
       -2   -1    0    0    0  501  0.00000000000E+00  0.00000000000E+00 -0.93110609313E+03  0.93110609313E+03  0.25500000920E-02 0.  1.
    10030    2    1    2    0    0  0.00000000000E+00  0.00000000000E+00  0.28569559131E+03  0.21479077776E+04  0.21288226441E+04 0.  0.
        3    1    3    3  502    0 -0.21742021435E+02 -0.69564282483E+03 -0.66971672892E+03  0.96587378183E+03  0.10100000352E+00 0.  1.
       -3    1    3    3    0  502  0.21742021435E+02  0.69564282483E+03  0.95541232023E+03  0.11820339957E+04  0.10100000352E+00 0. -1.
</event>
<event>
 5   0  0.5933905E-05  0.2094864E+04  0.7818609E-02  0.8563509E-01
       -1   -1    0    0    0  501  0.00000000000E+00  0.00000000000E+00  0.49478321958E+03  0.49478321961E+03  0.50400001928E-02 0. -1.
        1   -1    0    0  501    0  0.00000000000E+00  0.00000000000E+00 -0.22173620704E+04  0.22173620704E+04  0.50400001928E-02 0.  1.
    10030    2    1    2    0    0  0.00000000000E+00  0.00000000000E+00 -0.17225788508E+04  0.27121452900E+04  0.20948637609E+04 0.  0.
        2    1    3    3  502    0  0.59947984714E+03 -0.63322687912E+03 -0.10998114354E+03  0.87889033418E+03  0.25500000920E-02 0. -1.
       -2    1    3    3    0  502 -0.59947984714E+03  0.63322687912E+03 -0.16125977072E+04  0.18332549558E+04  0.25500000920E-02 0.  1.
</event>
<event>
 5   0  0.1325673E-04  0.2068536E+04  0.7818609E-02  0.8575232E-01
        2   -1    0    0  501    0  0.00000000000E+00  0.00000000000E+00  0.11319364185E+04  0.11319364185E+04  0.25500000920E-02 0.  1.
       -2   -1    0    0    0  501  0.00000000000E+00  0.00000000000E+00 -0.94502678753E+03  0.94502678754E+03  0.25500000920E-02 0. -1.
    10030    2    1    2    0    0  0.00000000000E+00  0.00000000000E+00  0.18690963098E+03  0.20769632061E+04  0.20685359434E+04 0.  0.
        5    1    3    3  502    0  0.34920719798E+03 -0.92532085876E+03 -0.21030668239E+03  0.10111455629E+04  0.46999998093E+01 0. -1.
       -5    1    3    3    0  502 -0.34920719798E+03  0.92532085876E+03  0.39721631337E+03  0.10658176431E+04  0.46999998093E+01 0.  1.
</event>
<event>
 5   0  0.1235817E-04  0.2088649E+04  0.7818609E-02  0.8566260E-01
       -2   -1    0    0    0  501  0.00000000000E+00  0.00000000000E+00  0.80329836678E+03  0.80329836678E+03  0.25500000920E-02 0.  1.
        2   -1    0    0  501    0  0.00000000000E+00  0.00000000000E+00 -0.13576691099E+04  0.13576691099E+04  0.25500000920E-02 0. -1.
    10030    2    1    2    0    0  0.00000000000E+00  0.00000000000E+00 -0.55437074312E+03  0.21609674767E+04  0.20886487293E+04 0.  0.
        1    1    3    3  502    0 -0.56711012135E+03 -0.70087201996E+03  0.26810982252E+03  0.94059468160E+03  0.50400001928E-02 0.  1.
       -1    1    3    3    0  502  0.56711012135E+03  0.70087201996E+03 -0.82248056564E+03  0.12203727951E+04  0.50400001928E-02 0. -1.
</event>
<event>
 5   0  0.5846187E-05  0.2098451E+04  0.7818609E-02  0.8561926E-01
       -1   -1    0    0    0  501  0.00000000000E+00  0.00000000000E+00  0.92624573625E+03  0.92624573626E+03  0.50400001928E-02 0.  1.
        1   -1    0    0  501    0  0.00000000000E+00  0.00000000000E+00 -0.11885330531E+04  0.11885330531E+04  0.50400001928E-02 0. -1.
    10030    2    1    2    0    0  0.00000000000E+00  0.00000000000E+00 -0.26228731682E+03  0.21147787893E+04  0.20984505453E+04 0.  0.
        5    1    3    3  502    0  0.90519839056E+03  0.46973127342E+03  0.11739237911E+03  0.10265644920E+04  0.46999998093E+01 0.  1.
       -5    1    3    3    0  502 -0.90519839056E+03 -0.46973127342E+03 -0.37967969592E+03  0.10882142974E+04  0.46999998093E+01 0. -1.
</event>
<event>
 5   0  0.6221148E-05  0.2115192E+04  0.7818609E-02  0.8554580E-01
       -1   -1    0    0    0  501  0.00000000000E+00  0.00000000000E+00  0.12180392612E+04  0.12180392613E+04  0.50400001928E-02 0. -1.
        1   -1    0    0  501    0  0.00000000000E+00  0.00000000000E+00 -0.91828685729E+03  0.91828685730E+03  0.50400001928E-02 0.  1.
    10030    2    1    2    0    0  0.00000000000E+00  0.00000000000E+00  0.29975240396E+03  0.21363261186E+04  0.21151921381E+04 0.  0.
        3    1    3    3  502    0 -0.94276390721E+02  0.55894178021E+03 -0.75190850343E+03  0.94163175352E+03  0.10100000352E+00 0.  1.
       -3    1    3    3    0  502  0.94276390721E+02 -0.55894178021E+03  0.10516609074E+04  0.11946943650E+04  0.10100000352E+00 0. -1.
</event>
<event>
 5   0  0.6263616E-05  0.2077069E+04  0.7818609E-02  0.8571412E-01
        1   -1    0    0  501    0  0.00000000000E+00  0.00000000000E+00  0.16337757532E+04  0.16337757532E+04  0.50400001928E-02 0. -1.
       -1   -1    0    0    0  501  0.00000000000E+00  0.00000000000E+00 -0.66016057313E+03  0.66016057315E+03  0.50400001928E-02 0.  1.
    10030    2    1    2    0    0  0.00000000000E+00  0.00000000000E+00  0.97361518003E+03  0.22939363263E+04  0.20770694140E+04 0.  0.
        4    1    3    3  502    0  0.27455267352E+03 -0.44077929803E+03  0.14800936039E+04  0.15685484529E+04  0.12699999809E+01 0. -1.
       -4    1    3    3    0  502 -0.27455267352E+03  0.44077929803E+03 -0.50647842385E+03  0.72538787337E+03  0.12699999809E+01 0.  1.
</event>
<event>
 5   0  0.5846187E-05  0.2122764E+04  0.7818609E-02  0.8551282E-01
        1   -1    0    0  501    0  0.00000000000E+00  0.00000000000E+00  0.15642661920E+04  0.15642661920E+04  0.50400001928E-02 0. -1.
       -1   -1    0    0    0  501  0.00000000000E+00  0.00000000000E+00 -0.72016611130E+03  0.72016611131E+03  0.50400001928E-02 0.  1.
    10030    2    1    2    0    0  0.00000000000E+00  0.00000000000E+00  0.84410008073E+03  0.22844323033E+04  0.21227637651E+04 0.  0.
        5    1    3    3  502    0  0.14261905079E+03 -0.67427529338E+03  0.12906927615E+04  0.14631805287E+04  0.46999998093E+01 0. -1.
       -5    1    3    3    0  502 -0.14261905079E+03  0.67427529338E+03 -0.44659268076E+03  0.82125177468E+03  0.46999998093E+01 0.  1.
</event>
<event>
 5   0  0.1349252E-04  0.2139687E+04  0.7818609E-02  0.8543960E-01
       -2   -1    0    0    0  501  0.00000000000E+00  0.00000000000E+00  0.74899477447E+03  0.74899477447E+03  0.25500000920E-02 0. -1.
        2   -1    0    0  501    0  0.00000000000E+00  0.00000000000E+00 -0.15281351898E+04  0.15281351898E+04  0.25500000920E-02 0.  1.
    10030    2    1    2    0    0  0.00000000000E+00  0.00000000000E+00 -0.77914041535E+03  0.22771299643E+04  0.21396871471E+04 0.  0.
        2    1    3    3  502    0  0.16744566696E+02  0.17728981049E+03 -0.15122514912E+04  0.15227004401E+04  0.25500000920E-02 0.  1.
       -2    1    3    3    0  502 -0.16744566696E+02 -0.17728981049E+03  0.73311107589E+03  0.75442952422E+03  0.25500000920E-02 0. -1.
</event>
<event>
 5   0  0.5933905E-05  0.2186083E+04  0.7818609E-02  0.8524243E-01
        1   -1    0    0  501    0  0.00000000000E+00  0.00000000000E+00  0.15291372608E+04  0.15291372608E+04  0.50400001928E-02 0. -1.
       -1   -1    0    0    0  501  0.00000000000E+00  0.00000000000E+00 -0.78131606523E+03  0.78131606524E+03  0.50400001928E-02 0.  1.
    10030    2    1    2    0    0  0.00000000000E+00  0.00000000000E+00  0.74782119559E+03  0.23104533261E+04  0.21860828052E+04 0.  0.
        2    1    3    3  502    0  0.79836107900E+03 -0.74566193115E+03  0.33511561104E+03  0.11426699439E+04  0.25500000920E-02 0. -1.
       -2    1    3    3    0  502 -0.79836107900E+03  0.74566193115E+03  0.41270558456E+03  0.11677833821E+04  0.25500000920E-02 0.  1.
</event>
<event>
 5   0  0.1325673E-04  0.2065157E+04  0.7818609E-02  0.8576749E-01
        2   -1    0    0  501    0  0.00000000000E+00  0.00000000000E+00  0.12502303665E+04  0.12502303665E+04  0.25500000920E-02 0.  1.
       -2   -1    0    0    0  501  0.00000000000E+00  0.00000000000E+00 -0.85281770403E+03  0.85281770403E+03  0.25500000920E-02 0. -1.
    10030    2    1    2    0    0  0.00000000000E+00  0.00000000000E+00  0.39741266249E+03  0.21030480706E+04  0.20651572247E+04 0.  0.
        5    1    3    3  502    0  0.57548847109E+03  0.36540707717E+03  0.98849203725E+03  0.12007697157E+04  0.46999998093E+01 0.  1.
       -5    1    3    3    0  502 -0.57548847109E+03 -0.36540707717E+03 -0.59107937476E+03  0.90227835487E+03  0.46999998093E+01 0. -1.
</event>
<event>
 5   0  0.6052292E-05  0.2154641E+04  0.7818609E-02  0.8537548E-01
       -1   -1    0    0    0  501  0.00000000000E+00  0.00000000000E+00  0.89604851256E+03  0.89604851258E+03  0.50400001928E-02 0. -1.
        1   -1    0    0  501    0  0.00000000000E+00  0.00000000000E+00 -0.12952646222E+04  0.12952646222E+04  0.50400001928E-02 0.  1.
    10030    2    1    2    0    0  0.00000000000E+00  0.00000000000E+00 -0.39921610967E+03  0.21913131348E+04  0.21546414441E+04 0.  0.
        1    1    3    3  502    0 -0.90646219057E+03 -0.28795800484E+03 -0.71421047786E+03  0.11894074669E+04  0.50400001928E-02 0.  1.
       -1    1    3    3    0  502  0.90646219057E+03  0.28795800484E+03  0.31499436820E+03  0.10019056680E+04  0.50400001928E-02 0. -1.
</event>
<event>
 5   0  0.1281470E-04  0.2116320E+04  0.7818609E-02  0.8554088E-01
        2   -1    0    0  501    0  0.00000000000E+00  0.00000000000E+00  0.25130879632E+04  0.25130879632E+04  0.25500000920E-02 0.  1.
       -2   -1    0    0    0  501  0.00000000000E+00  0.00000000000E+00 -0.44554851596E+03  0.44554851597E+03  0.25500000920E-02 0. -1.
    10030    2    1    2    0    0  0.00000000000E+00  0.00000000000E+00  0.20675394472E+04  0.29586364791E+04  0.21163200254E+04 0.  0.
        3    1    3    3  502    0  0.64216943163E+03  0.44213426464E+03  0.33593185088E+02  0.78037990695E+03  0.10100000352E+00 0. -1.
       -3    1    3    3    0  502 -0.64216943163E+03 -0.44213426464E+03  0.20339462621E+04  0.21782565722E+04  0.10100000352E+00 0.  1.
</event>
<event>
 5   0  0.1325673E-04  0.2097415E+04  0.7818609E-02  0.8562383E-01
        2   -1    0    0  501    0  0.00000000000E+00  0.00000000000E+00  0.15944488641E+04  0.15944488641E+04  0.25500000920E-02 0. -1.
       -2   -1    0    0    0  501  0.00000000000E+00  0.00000000000E+00 -0.68976040930E+03  0.68976040931E+03  0.25500000920E-02 0.  1.
    10030    2    1    2    0    0  0.00000000000E+00  0.00000000000E+00  0.90468845479E+03  0.22842092734E+04  0.20974152675E+04 0.  0.
        5    1    3    3  502    0  0.92870788966E+03  0.41464014633E+03  0.73072788831E+03  0.12523618215E+04  0.46999998093E+01 0. -1.
       -5    1    3    3    0  502 -0.92870788966E+03 -0.41464014633E+03  0.17396056648E+03  0.10318474519E+04  0.46999998093E+01 0.  1.
</event>
<event>
 5   0  0.1325673E-04  0.2088583E+04  0.7818609E-02  0.8566289E-01
        2   -1    0    0  501    0  0.00000000000E+00  0.00000000000E+00  0.24559121886E+04  0.24559121886E+04  0.25500000920E-02 0.  1.
       -2   -1    0    0    0  501  0.00000000000E+00  0.00000000000E+00 -0.44404893707E+03  0.44404893708E+03  0.25500000920E-02 0. -1.
    10030    2    1    2    0    0  0.00000000000E+00  0.00000000000E+00  0.20118632515E+04  0.28999611257E+04  0.20885834404E+04 0.  0.
        5    1    3    3  502    0 -0.77133280172E+03  0.70387569151E+03  0.10216298785E+04  0.14608713081E+04  0.46999998093E+01 0. -1.
       -5    1    3    3    0  502  0.77133280172E+03 -0.70387569151E+03  0.99023337306E+03  0.14390898176E+04  0.46999998093E+01 0.  1.
</event>
<event>
 5   0  0.1281470E-04  0.2099210E+04  0.7818609E-02  0.8561591E-01
       -2   -1    0    0    0  501  0.00000000000E+00  0.00000000000E+00  0.57068734594E+03  0.57068734595E+03  0.25500000920E-02 0. -1.
        2   -1    0    0  501    0  0.00000000000E+00  0.00000000000E+00 -0.19304285913E+04  0.19304285913E+04  0.25500000920E-02 0.  1.
    10030    2    1    2    0    0  0.00000000000E+00  0.00000000000E+00 -0.13597412454E+04  0.25011159373E+04  0.20992104890E+04 0.  0.
        3    1    3    3  502    0 -0.62133831507E+03  0.58472271897E+02 -0.16853566294E+04  0.17971942819E+04  0.10100000352E+00 0.  1.
       -3    1    3    3    0  502  0.62133831507E+03 -0.58472271897E+02  0.32561538405E+03  0.70392165536E+03  0.10100000352E+00 0. -1.
</event>
<event>
 5   0  0.6052292E-05  0.2090923E+04  0.7818609E-02  0.8565252E-01
        1   -1    0    0  501    0  0.00000000000E+00  0.00000000000E+00  0.11980456298E+04  0.11980456298E+04  0.50400001928E-02 0.  1.
       -1   -1    0    0    0  501  0.00000000000E+00  0.00000000000E+00 -0.91231056291E+03  0.91231056293E+03  0.50400001928E-02 0. -1.
    10030    2    1    2    0    0  0.00000000000E+00  0.00000000000E+00  0.28573506690E+03  0.21103561928E+04  0.20909229378E+04 0.  0.
        1    1    3    3  502    0  0.81906063355E+03 -0.26941271199E+03  0.73958671576E+03  0.11359718487E+04  0.50400001928E-02 0.  1.
       -1    1    3    3    0  502 -0.81906063355E+03  0.26941271199E+03 -0.45385164885E+03  0.97438434409E+03  0.50400001928E-02 0. -1.
</event>
<event>
 5   0  0.5933905E-05  0.2115932E+04  0.7818609E-02  0.8554258E-01
        1   -1    0    0  501    0  0.00000000000E+00  0.00000000000E+00  0.12646012449E+04  0.12646012449E+04  0.50400001928E-02 0. -1.
       -1   -1    0    0    0  501  0.00000000000E+00  0.00000000000E+00 -0.88509471660E+03  0.88509471661E+03  0.50400001928E-02 0.  1.
    10030    2    1    2    0    0  0.00000000000E+00  0.00000000000E+00  0.37950652831E+03  0.21496959615E+04  0.21159318330E+04 0.  0.
        2    1    3    3  502    0  0.85013673582E+03 -0.59722891248E+03 -0.13125601913E+02  0.10390318209E+04  0.25500000920E-02 0.  1.
       -2    1    3    3    0  502 -0.85013673582E+03  0.59722891248E+03  0.39263213022E+03  0.11106641406E+04  0.25500000920E-02 0. -1.
</event>
<event>
 5   0  0.5846187E-05  0.2098296E+04  0.7818609E-02  0.8561994E-01
        1   -1    0    0  501    0  0.00000000000E+00  0.00000000000E+00  0.13483712688E+04  0.13483712688E+04  0.50400001928E-02 0.  1.
       -1   -1    0    0    0  501  0.00000000000E+00  0.00000000000E+00 -0.81632658608E+03  0.81632658610E+03  0.50400001928E-02 0. -1.
    10030    2    1    2    0    0  0.00000000000E+00  0.00000000000E+00  0.53204468273E+03  0.21646978549E+04  0.20982957987E+04 0.  0.
        5    1    3    3  502    0  0.20011692269E+03  0.77825728601E+03  0.96187332782E+03  0.12533768686E+04  0.46999998093E+01 0.  1.
       -5    1    3    3    0  502 -0.20011692269E+03 -0.77825728601E+03 -0.42982864508E+03  0.91132098632E+03  0.46999998093E+01 0. -1.
</event>
<event>
 5   0  0.1349252E-04  0.2091903E+04  0.7818609E-02  0.8564819E-01
       -2   -1    0    0    0  501  0.00000000000E+00  0.00000000000E+00  0.17302058890E+04  0.17302058890E+04  0.25500000920E-02 0.  1.
        2   -1    0    0  501    0  0.00000000000E+00  0.00000000000E+00 -0.63230285306E+03  0.63230285306E+03  0.25500000920E-02 0. -1.
    10030    2    1    2    0    0  0.00000000000E+00  0.00000000000E+00  0.10979030360E+04  0.23625087421E+04  0.20919025981E+04 0.  0.
        2    1    3    3  502    0  0.38908038680E+03  0.83839984822E+03  0.11018949681E+04  0.14382177768E+04  0.25500000920E-02 0.  1.
       -2    1    3    3    0  502 -0.38908038680E+03 -0.83839984822E+03 -0.39919321428E+01  0.92429096524E+03  0.25500000920E-02 0. -1.
</event>
<event>
 5   0  0.6221148E-05  0.2090320E+04  0.7818609E-02  0.8565519E-01
       -1   -1    0    0    0  501  0.00000000000E+00  0.00000000000E+00  0.98710268651E+03  0.98710268652E+03  0.50400001928E-02 0. -1.
        1   -1    0    0  501    0  0.00000000000E+00  0.00000000000E+00 -0.11066325197E+04  0.11066325197E+04  0.50400001928E-02 0.  1.
    10030    2    1    2    0    0  0.00000000000E+00  0.00000000000E+00 -0.11952983321E+03  0.20937352062E+04  0.20903204857E+04 0.  0.
        3    1    3    3  502    0  0.57187510976E+03 -0.19687140511E+03  0.79401267159E+03  0.99812605624E+03  0.10100000352E+00 0. -1.
       -3    1    3    3    0  502 -0.57187510976E+03  0.19687140511E+03 -0.91354250480E+03  0.10956091500E+04  0.10100000352E+00 0.  1.
</event>
<event>
 5   0  0.6263616E-05  0.2102086E+04  0.7818609E-02  0.8560325E-01
       -1   -1    0    0    0  501  0.00000000000E+00  0.00000000000E+00  0.12018094884E+04  0.12018094884E+04  0.50400001928E-02 0. -1.
        1   -1    0    0  501    0  0.00000000000E+00  0.00000000000E+00 -0.91918989921E+03  0.91918989922E+03  0.50400001928E-02 0.  1.
    10030    2    1    2    0    0  0.00000000000E+00  0.00000000000E+00  0.28261958918E+03  0.21209993876E+04  0.21020857666E+04 0.  0.
        4    1    3    3  502    0 -0.62921939137E+03  0.83710007645E+03  0.50859767438E+02  0.10484473803E+04  0.12699999809E+01 0.  1.
       -4    1    3    3    0  502  0.62921939137E+03 -0.83710007645E+03  0.23175982174E+03  0.10725520073E+04  0.12699999809E+01 0. -1.
</event>
<event>
 5   0  0.1252477E-04  0.2085896E+04  0.7818609E-02  0.8567482E-01
        2   -1    0    0  501    0  0.00000000000E+00  0.00000000000E+00  0.18805407273E+04  0.18805407273E+04  0.25500000920E-02 0.  1.
       -2   -1    0    0    0  501  0.00000000000E+00  0.00000000000E+00 -0.57841926837E+03  0.57841926838E+03  0.25500000920E-02 0. -1.
    10030    2    1    2    0    0  0.00000000000E+00  0.00000000000E+00  0.13021214589E+04  0.24589599956E+04  0.20858964419E+04 0.  0.
        4    1    3    3  502    0 -0.78622387348E+03 -0.64117063106E+03  0.36595525925E+03  0.10785048085E+04  0.12699999809E+01 0. -1.
       -4    1    3    3    0  502  0.78622387348E+03  0.64117063106E+03  0.93616619963E+03  0.13804551871E+04  0.12699999809E+01 0.  1.
</event>
<event>
 5   0  0.6263616E-05  0.2100731E+04  0.7818609E-02  0.8560922E-01
        1   -1    0    0  501    0  0.00000000000E+00  0.00000000000E+00  0.89051694353E+03  0.89051694355E+03  0.50400001928E-02 0. -1.
       -1   -1    0    0    0  501  0.00000000000E+00  0.00000000000E+00 -0.12389067963E+04  0.12389067963E+04  0.50400001928E-02 0.  1.
    10030    2    1    2    0    0  0.00000000000E+00  0.00000000000E+00 -0.34838985281E+03  0.21294237399E+04  0.21007308191E+04 0.  0.
        4    1    3    3  502    0  0.99512836891E+03 -0.33979476533E+02 -0.51317362711E+03  0.11201713529E+04  0.12699999809E+01 0.  1.
       -4    1    3    3    0  502 -0.99512836891E+03  0.33979476533E+02  0.16478377430E+03  0.10092523870E+04  0.12699999809E+01 0. -1.
</event>
<event>
 5   0  0.6263616E-05  0.2354769E+04  0.7818609E-02  0.8456634E-01
        1   -1    0    0  501    0  0.00000000000E+00  0.00000000000E+00  0.21362581313E+04  0.21362581313E+04  0.50400001928E-02 0. -1.
       -1   -1    0    0    0  501  0.00000000000E+00  0.00000000000E+00 -0.64890766669E+03  0.64890766671E+03  0.50400001928E-02 0.  1.
    10030    2    1    2    0    0  0.00000000000E+00  0.00000000000E+00  0.14873504646E+04  0.27851657980E+04  0.23547690158E+04 0.  0.
        4    1    3    3  502    0  0.30705944603E+03 -0.67013604324E+03 -0.34220446009E+03  0.81269509981E+03  0.12699999809E+01 0.  1.
       -4    1    3    3    0  502 -0.30705944603E+03  0.67013604324E+03  0.18295549247E+04  0.19724706982E+04  0.12699999809E+01 0. -1.
</event>
<event>
 5   0  0.6052292E-05  0.2107285E+04  0.7818609E-02  0.8558041E-01
        1   -1    0    0  501    0  0.00000000000E+00  0.00000000000E+00  0.15102132491E+04  0.15102132491E+04  0.50400001928E-02 0. -1.
       -1   -1    0    0    0  501  0.00000000000E+00  0.00000000000E+00 -0.73510347937E+03  0.73510347939E+03  0.50400001928E-02 0.  1.
    10030    2    1    2    0    0  0.00000000000E+00  0.00000000000E+00  0.77510976974E+03  0.22453167285E+04  0.21072854710E+04 0.  0.
        1    1    3    3  502    0 -0.48794932502E+03 -0.35020051364E+03  0.13099547211E+04  0.14410816475E+04  0.50400001928E-02 0. -1.
       -1    1    3    3    0  502  0.48794932502E+03  0.35020051364E+03 -0.53484495132E+03  0.80423508100E+03  0.50400001928E-02 0.  1.
</event>
<event>
 5   0  0.1235817E-04  0.2155227E+04  0.7818609E-02  0.8537298E-01
       -2   -1    0    0    0  501  0.00000000000E+00  0.00000000000E+00  0.10004892633E+04  0.10004892633E+04  0.25500000920E-02 0. -1.
        2   -1    0    0  501    0  0.00000000000E+00  0.00000000000E+00 -0.11606834333E+04  0.11606834333E+04  0.25500000920E-02 0.  1.
    10030    2    1    2    0    0  0.00000000000E+00  0.00000000000E+00 -0.16019417001E+03  0.21611726966E+04  0.21552274247E+04 0.  0.
        1    1    3    3  502    0 -0.85735235610E+03  0.33537567302E+03 -0.64175055394E+03  0.11222181954E+04  0.50400001928E-02 0.  1.
       -1    1    3    3    0  502  0.85735235610E+03 -0.33537567302E+03  0.48155638392E+03  0.10389545012E+04  0.50400001928E-02 0. -1.
</event>
<event>
 5   0  0.6221148E-05  0.2008166E+04  0.7818609E-02  0.8602812E-01
        1   -1    0    0  501    0  0.00000000000E+00  0.00000000000E+00  0.23675409474E+04  0.23675409474E+04  0.50400001928E-02 0. -1.
       -1   -1    0    0    0  501  0.00000000000E+00  0.00000000000E+00 -0.42583522773E+03  0.42583522776E+03  0.50400001928E-02 0.  1.
    10030    2    1    2    0    0  0.00000000000E+00  0.00000000000E+00  0.19417057197E+04  0.27933761752E+04  0.20081656690E+04 0.  0.
        3    1    3    3  502    0 -0.84959234734E+03 -0.52481666107E+03  0.82534346963E+03  0.12955429508E+04  0.10100000352E+00 0. -1.
       -3    1    3    3    0  502  0.84959234734E+03  0.52481666107E+03  0.11163622500E+04  0.14978332243E+04  0.10100000352E+00 0.  1.
</event>
<event>
 5   0  0.1349252E-04  0.2122164E+04  0.7818609E-02  0.8551542E-01
       -2   -1    0    0    0  501  0.00000000000E+00  0.00000000000E+00  0.82095158292E+03  0.82095158293E+03  0.25500000920E-02 0. -1.
        2   -1    0    0  501    0  0.00000000000E+00  0.00000000000E+00 -0.13714514188E+04  0.13714514188E+04  0.25500000920E-02 0.  1.
    10030    2    1    2    0    0  0.00000000000E+00  0.00000000000E+00 -0.55049983584E+03  0.21924030017E+04  0.21221641908E+04 0.  0.
        2    1    3    3  502    0  0.49128814938E+03  0.81334285270E+03  0.21261353908E+03  0.97370178123E+03  0.25500000920E-02 0. -1.
       -2    1    3    3    0  502 -0.49128814938E+03 -0.81334285270E+03 -0.76311337492E+03  0.12187012205E+04  0.25500000920E-02 0.  1.
</event>
<event>
 5   0  0.1281470E-04  0.2109254E+04  0.7818609E-02  0.8557178E-01
        2   -1    0    0  501    0  0.00000000000E+00  0.00000000000E+00  0.10705533810E+04  0.10705533810E+04  0.25500000920E-02 0.  1.
       -2   -1    0    0    0  501  0.00000000000E+00  0.00000000000E+00 -0.10389377423E+04  0.10389377423E+04  0.25500000920E-02 0. -1.
    10030    2    1    2    0    0  0.00000000000E+00  0.00000000000E+00  0.31615638717E+02  0.21094911233E+04  0.21092541930E+04 0.  0.
        3    1    3    3  502    0  0.93550190340E+03  0.28804192425E+03  0.40841572067E+03  0.10606297056E+04  0.10100000352E+00 0.  1.
       -3    1    3    3    0  502 -0.93550190340E+03 -0.28804192425E+03 -0.37680008196E+03  0.10488614176E+04  0.10100000352E+00 0. -1.
</event>
<event>
 5   0  0.4615125E-05  0.2036668E+04  0.7818609E-02  0.8589666E-01
        3   -1    0    0  501    0  0.00000000000E+00  0.00000000000E+00  0.92392468002E+03  0.92392468554E+03  0.10100000352E+00 0. -1.
       -3   -1    0    0    0  501  0.00000000000E+00  0.00000000000E+00 -0.11223905131E+04  0.11223905177E+04  0.10100000352E+00 0.  1.
    10030    2    1    2    0    0  0.00000000000E+00  0.00000000000E+00 -0.19846583311E+03  0.20463152032E+04  0.20366681674E+04 0.  0.
        3    1    3    3  502    0 -0.61545101012E+03  0.61498791263E+03 -0.63090308926E+03  0.10747226604E+04  0.10100000352E+00 0.  1.
       -3    1    3    3    0  502  0.61545101012E+03 -0.61498791263E+03  0.43243725615E+03  0.97159254281E+03  0.10100000352E+00 0. -1.
</event>
<event>
 5   0  0.5846187E-05  0.2085707E+04  0.7818609E-02  0.8567566E-01
        1   -1    0    0  501    0  0.00000000000E+00  0.00000000000E+00  0.12242492235E+04  0.12242492235E+04  0.50400001928E-02 0.  1.
       -1   -1    0    0    0  501  0.00000000000E+00  0.00000000000E+00 -0.88833465263E+03  0.88833465264E+03  0.50400001928E-02 0. -1.
    10030    2    1    2    0    0  0.00000000000E+00  0.00000000000E+00  0.33591457083E+03  0.21125838761E+04  0.20857066032E+04 0.  0.
        5    1    3    3  502    0 -0.10760475089E+03 -0.26462089737E+03  0.11838363644E+04  0.12178233161E+04  0.46999998093E+01 0.  1.
       -5    1    3    3    0  502  0.10760475089E+03  0.26462089737E+03 -0.84792179353E+03  0.89476055998E+03  0.46999998093E+01 0. -1.
</event>
<event>
 5   0  0.1252477E-04  0.2119005E+04  0.7818609E-02  0.8552917E-01
       -2   -1    0    0    0  501  0.00000000000E+00  0.00000000000E+00  0.90249305533E+03  0.90249305534E+03  0.25500000920E-02 0. -1.
        2   -1    0    0  501    0  0.00000000000E+00  0.00000000000E+00 -0.12438276180E+04  0.12438276180E+04  0.25500000920E-02 0.  1.
    10030    2    1    2    0    0  0.00000000000E+00  0.00000000000E+00 -0.34133456265E+03  0.21463206733E+04  0.21190052263E+04 0.  0.
        4    1    3    3  502    0 -0.61257770259E+03 -0.57677584855E+03 -0.82287950934E+03  0.11768832232E+04  0.12699999809E+01 0.  1.
       -4    1    3    3    0  502  0.61257770259E+03  0.57677584855E+03  0.48154494669E+03  0.96943745015E+03  0.12699999809E+01 0. -1.
</event>
<event>
 5   0  0.1252477E-04  0.2060216E+04  0.7818609E-02  0.8578974E-01
       -2   -1    0    0    0  501  0.00000000000E+00  0.00000000000E+00  0.11594224912E+04  0.11594224912E+04  0.25500000920E-02 0. -1.
        2   -1    0    0  501    0  0.00000000000E+00  0.00000000000E+00 -0.91521652543E+03  0.91521652543E+03  0.25500000920E-02 0.  1.
    10030    2    1    2    0    0  0.00000000000E+00  0.00000000000E+00  0.24420596579E+03  0.20746390167E+04  0.20602161284E+04 0.  0.
        4    1    3    3  502    0  0.78932739977E+03 -0.60984449264E+03 -0.13693893398E+03  0.10068276584E+04  0.12699999809E+01 0. -1.
       -4    1    3    3    0  502 -0.78932739977E+03  0.60984449264E+03  0.38114489978E+03  0.10678113582E+04  0.12699999809E+01 0.  1.
</event>
<event>
 5   0  0.1349252E-04  0.2054461E+04  0.7818609E-02  0.8581574E-01
       -2   -1    0    0    0  501  0.00000000000E+00  0.00000000000E+00  0.11991981530E+04  0.11991981530E+04  0.25500000920E-02 0. -1.
        2   -1    0    0  501    0  0.00000000000E+00  0.00000000000E+00 -0.87992297903E+03  0.87992297903E+03  0.25500000920E-02 0.  1.
    10030    2    1    2    0    0  0.00000000000E+00  0.00000000000E+00  0.31927517394E+03  0.20791211320E+04  0.20544605240E+04 0.  0.
        2    1    3    3  502    0  0.42027487295E+03  0.13675781406E+03 -0.77878396168E+03  0.89545414596E+03  0.25500000920E-02 0.  1.
       -2    1    3    3    0  502 -0.42027487295E+03 -0.13675781406E+03  0.10980591356E+04  0.11836669860E+04  0.25500000920E-02 0. -1.
</event>
<event>
 5   0  0.5846187E-05  0.2150556E+04  0.7818609E-02  0.8539294E-01
        1   -1    0    0  501    0  0.00000000000E+00  0.00000000000E+00  0.15000362733E+04  0.15000362733E+04  0.50400001928E-02 0.  1.
       -1   -1    0    0    0  501  0.00000000000E+00  0.00000000000E+00 -0.77079657765E+03  0.77079657766E+03  0.50400001928E-02 0. -1.
    10030    2    1    2    0    0  0.00000000000E+00  0.00000000000E+00  0.72923969564E+03  0.22708328510E+04  0.21505560451E+04 0.  0.
        5    1    3    3  502    0  0.83317637566E+02 -0.11333436222E+03  0.14902681866E+04  0.14968994169E+04  0.46999998093E+01 0.  1.
       -5    1    3    3    0  502 -0.83317637566E+02  0.11333436222E+03 -0.76102849092E+03  0.77393343408E+03  0.46999998093E+01 0. -1.
</event>
<event>
 5   0  0.1281470E-04  0.2109810E+04  0.7818609E-02  0.8556934E-01
        2   -1    0    0  501    0  0.00000000000E+00  0.00000000000E+00  0.12664729436E+04  0.12664729436E+04  0.25500000920E-02 0.  1.
       -2   -1    0    0    0  501  0.00000000000E+00  0.00000000000E+00 -0.87867983223E+03  0.87867983224E+03  0.25500000920E-02 0. -1.
    10030    2    1    2    0    0  0.00000000000E+00  0.00000000000E+00  0.38779311136E+03  0.21451527758E+04  0.21098096915E+04 0.  0.
        3    1    3    3  502    0 -0.83454997153E+03 -0.18989846141E+03 -0.43310974931E+03  0.95922841168E+03  0.10100000352E+00 0. -1.
       -3    1    3    3    0  502  0.83454997153E+03  0.18989846141E+03  0.82090286067E+03  0.11859243642E+04  0.10100000352E+00 0.  1.
</event>
<event>
 5   0  0.4615125E-05  0.2118699E+04  0.7818609E-02  0.8553051E-01
        3   -1    0    0  501    0  0.00000000000E+00  0.00000000000E+00  0.12385193623E+04  0.12385193664E+04  0.10100000352E+00 0.  1.
       -3   -1    0    0    0  501  0.00000000000E+00  0.00000000000E+00 -0.90609947109E+03  0.90609947672E+03  0.10100000352E+00 0. -1.
    10030    2    1    2    0    0  0.00000000000E+00  0.00000000000E+00  0.33241989116E+03  0.21446188431E+04  0.21186993647E+04 0.  0.
        2    1    3    3  502    0 -0.33342107320E+03  0.14026386298E+03  0.11740705285E+04  0.12285296778E+04  0.25500000920E-02 0.  1.
       -2    1    3    3    0  502  0.33342107320E+03 -0.14026386298E+03 -0.84165063738E+03  0.91608916527E+03  0.25500000920E-02 0. -1.
</event>
<event>
 5   0  0.6221148E-05  0.2095880E+04  0.7818609E-02  0.8563060E-01
       -1   -1    0    0    0  501  0.00000000000E+00  0.00000000000E+00  0.20723819001E+04  0.20723819001E+04  0.50400001928E-02 0. -1.
        1   -1    0    0  501    0  0.00000000000E+00  0.00000000000E+00 -0.52991108340E+03  0.52991108342E+03  0.50400001928E-02 0.  1.
    10030    2    1    2    0    0  0.00000000000E+00  0.00000000000E+00  0.15424708167E+04  0.26022929836E+04  0.20958798992E+04 0.  0.
        3    1    3    3  502    0 -0.10832664063E+03 -0.98700124132E+03  0.11872662807E+04  0.15477426604E+04  0.10100000352E+00 0. -1.
       -3    1    3    3    0  502  0.10832664063E+03  0.98700124132E+03  0.35520453609E+03  0.10545503232E+04  0.10100000352E+00 0.  1.
</event>
<event>
 5   0  0.4615125E-05  0.2138019E+04  0.7818609E-02  0.8544678E-01
        3   -1    0    0  501    0  0.00000000000E+00  0.00000000000E+00  0.18376289464E+04  0.18376289492E+04  0.10100000352E+00 0.  1.
       -3   -1    0    0    0  501  0.00000000000E+00  0.00000000000E+00 -0.62187800393E+03  0.62187801213E+03  0.10100000352E+00 0. -1.
    10030    2    1    2    0    0  0.00000000000E+00  0.00000000000E+00  0.12157509425E+04  0.24595069613E+04  0.21380187414E+04 0.  0.
        4    1    3    3  502    0  0.87948045165E+03  0.16179808981E+03  0.12817148068E+04  0.15628368263E+04  0.12699999809E+01 0.  1.
       -4    1    3    3    0  502 -0.87948045165E+03 -0.16179808981E+03 -0.65963864356E+02  0.89667013500E+03  0.12699999809E+01 0. -1.
</event>
<event>
 5   0  0.1252477E-04  0.2090161E+04  0.7818609E-02  0.8565590E-01
       -2   -1    0    0    0  501  0.00000000000E+00  0.00000000000E+00  0.10955552566E+04  0.10955552566E+04  0.25500000920E-02 0. -1.
        2   -1    0    0  501    0  0.00000000000E+00  0.00000000000E+00 -0.99693101832E+03  0.99693101833E+03  0.25500000920E-02 0.  1.
    10030    2    1    2    0    0  0.00000000000E+00  0.00000000000E+00  0.98624238308E+02  0.20924862750E+04  0.20901607762E+04 0.  0.
        4    1    3    3  502    0  0.27324326297E+03 -0.96073470456E+03  0.35709254312E+03  0.10607496173E+04  0.12699999809E+01 0. -1.
       -4    1    3    3    0  502 -0.27324326297E+03  0.96073470456E+03 -0.25846830482E+03  0.10317366577E+04  0.12699999809E+01 0.  1.
</event>
<event>
 5   0  0.6263616E-05  0.2102623E+04  0.7818609E-02  0.8560089E-01
       -1   -1    0    0    0  501  0.00000000000E+00  0.00000000000E+00  0.14005517643E+04  0.14005517643E+04  0.50400001928E-02 0. -1.
        1   -1    0    0  501    0  0.00000000000E+00  0.00000000000E+00 -0.78915748847E+03  0.78915748849E+03  0.50400001928E-02 0.  1.
    10030    2    1    2    0    0  0.00000000000E+00  0.00000000000E+00  0.61139427585E+03  0.21897092528E+04  0.21026230407E+04 0.  0.
        4    1    3    3  502    0  0.27033731483E+03  0.56464319702E+03  0.11852792659E+04  0.13404449839E+04  0.12699999809E+01 0. -1.
       -4    1    3    3    0  502 -0.27033731483E+03 -0.56464319702E+03 -0.57388499007E+03  0.84926426892E+03  0.12699999809E+01 0.  1.
</event>
<event>
 5   0  0.6221148E-05  0.1971657E+04  0.7818609E-02  0.8619988E-01
        1   -1    0    0  501    0  0.00000000000E+00  0.00000000000E+00  0.67867330603E+03  0.67867330605E+03  0.50400001928E-02 0.  1.
       -1   -1    0    0    0  501  0.00000000000E+00  0.00000000000E+00 -0.14319959506E+04  0.14319959507E+04  0.50400001928E-02 0. -1.
    10030    2    1    2    0    0  0.00000000000E+00  0.00000000000E+00 -0.75332264461E+03  0.21106692567E+04  0.19716565888E+04 0.  0.
        3    1    3    3  502    0  0.58352463915E+03 -0.75416605800E+03 -0.64448025559E+03  0.11509223508E+04  0.10100000352E+00 0. -1.
       -3    1    3    3    0  502 -0.58352463915E+03  0.75416605800E+03 -0.10884238902E+03  0.95974690590E+03  0.10100000352E+00 0.  1.
</event>
<event>
 5   0  0.1349252E-04  0.2108680E+04  0.7818609E-02  0.8557429E-01
        2   -1    0    0  501    0  0.00000000000E+00  0.00000000000E+00  0.88151703112E+03  0.88151703112E+03  0.25500000920E-02 0.  1.
       -2   -1    0    0    0  501  0.00000000000E+00  0.00000000000E+00 -0.12610452111E+04  0.12610452111E+04  0.25500000920E-02 0. -1.
    10030    2    1    2    0    0  0.00000000000E+00  0.00000000000E+00 -0.37952818000E+03  0.21425622422E+04  0.21086799953E+04 0.  0.
        2    1    3    3  502    0 -0.56631178415E+03  0.41375395114E+03  0.61011536387E+03  0.92959245166E+03  0.25500000920E-02 0.  1.
       -2    1    3    3    0  502  0.56631178415E+03 -0.41375395114E+03 -0.98964354386E+03  0.12129697906E+04  0.25500000920E-02 0. -1.
</event>
<event>
 5   0  0.6221148E-05  0.2115054E+04  0.7818609E-02  0.8554641E-01
       -1   -1    0    0    0  501  0.00000000000E+00  0.00000000000E+00  0.66889389058E+03  0.66889389060E+03  0.50400001928E-02 0.  1.
        1   -1    0    0  501    0  0.00000000000E+00  0.00000000000E+00 -0.16719592687E+04  0.16719592687E+04  0.50400001928E-02 0. -1.
    10030    2    1    2    0    0  0.00000000000E+00  0.00000000000E+00 -0.10030653781E+04  0.23408531593E+04  0.21150539853E+04 0.  0.
        3    1    3    3  502    0 -0.36624947681E+03  0.98969316234E+03 -0.42539854887E+03  0.11378027819E+04  0.10100000352E+00 0. -1.
       -3    1    3    3    0  502  0.36624947681E+03 -0.98969316234E+03 -0.57766682926E+03  0.12030503774E+04  0.10100000352E+00 0.  1.
</event>
<event>
 5   0  0.1252477E-04  0.2099778E+04  0.7818609E-02  0.8561341E-01
        2   -1    0    0  501    0  0.00000000000E+00  0.00000000000E+00  0.18802248688E+04  0.18802248688E+04  0.25500000920E-02 0. -1.
       -2   -1    0    0    0  501  0.00000000000E+00  0.00000000000E+00 -0.58624232298E+03  0.58624232299E+03  0.25500000920E-02 0.  1.
    10030    2    1    2    0    0  0.00000000000E+00  0.00000000000E+00  0.12939825458E+04  0.24664671918E+04  0.20997784596E+04 0.  0.
        4    1    3    3  502    0 -0.37727559897E+03 -0.23268394523E+02 -0.50354122821E+03  0.62962979374E+03  0.12699999809E+01 0.  1.
       -4    1    3    3    0  502  0.37727559897E+03  0.23268394523E+02  0.17975237740E+04  0.18368373981E+04  0.12699999809E+01 0. -1.
</event>
<event>
 5   0  0.1235817E-04  0.2100423E+04  0.7818609E-02  0.8561057E-01
       -2   -1    0    0    0  501  0.00000000000E+00  0.00000000000E+00  0.88323782617E+03  0.88323782617E+03  0.25500000920E-02 0.  1.
        2   -1    0    0  501    0  0.00000000000E+00  0.00000000000E+00 -0.12487510845E+04  0.12487510845E+04  0.25500000920E-02 0. -1.
    10030    2    1    2    0    0  0.00000000000E+00  0.00000000000E+00 -0.36551325834E+03  0.21319889107E+04  0.21004229986E+04 0.  0.
        1    1    3    3  502    0 -0.40047812601E+03  0.11208750444E+03  0.79610014330E+03  0.89817691813E+03  0.50400001928E-02 0.  1.
       -1    1    3    3    0  502  0.40047812601E+03 -0.11208750444E+03 -0.11616134016E+04  0.12338119925E+04  0.50400001928E-02 0. -1.
</event>
<event>
 5   0  0.1235817E-04  0.2083827E+04  0.7818609E-02  0.8568401E-01
        2   -1    0    0  501    0  0.00000000000E+00  0.00000000000E+00  0.11182181506E+04  0.11182181506E+04  0.25500000920E-02 0. -1.
       -2   -1    0    0    0  501  0.00000000000E+00  0.00000000000E+00 -0.97081559602E+03  0.97081559602E+03  0.25500000920E-02 0.  1.
    10030    2    1    2    0    0  0.00000000000E+00  0.00000000000E+00  0.14740255454E+03  0.20890337466E+04  0.20838268837E+04 0.  0.
        1    1    3    3  502    0 -0.99677441300E+03  0.53643817958E+02 -0.22561926919E+03  0.10233967678E+04  0.50400001928E-02 0.  1.
       -1    1    3    3    0  502  0.99677441300E+03 -0.53643817958E+02  0.37302182373E+03  0.10656369788E+04  0.50400001928E-02 0. -1.
</event>
<event>
 5   0  0.1281470E-04  0.2087375E+04  0.7818609E-02  0.8566825E-01
       -2   -1    0    0    0  501  0.00000000000E+00  0.00000000000E+00  0.11156155327E+04  0.11156155328E+04  0.25500000920E-02 0. -1.
        2   -1    0    0  501    0  0.00000000000E+00  0.00000000000E+00 -0.97639730923E+03  0.97639730923E+03  0.25500000920E-02 0.  1.
    10030    2    1    2    0    0  0.00000000000E+00  0.00000000000E+00  0.13921822352E+03  0.20920128420E+04  0.20873753896E+04 0.  0.
        3    1    3    3  502    0  0.61304105600E+03 -0.35649824613E+03 -0.69784251938E+03  0.99493443396E+03  0.10100000352E+00 0.  1.
       -3    1    3    3    0  502 -0.61304105600E+03  0.35649824613E+03  0.83706074290E+03  0.10970784080E+04  0.10100000352E+00 0. -1.
</event>
<event>
 5   0  0.1325673E-04  0.2162881E+04  0.7818609E-02  0.8534039E-01
       -2   -1    0    0    0  501  0.00000000000E+00  0.00000000000E+00  0.80554855441E+03  0.80554855441E+03  0.25500000920E-02 0. -1.
        2   -1    0    0  501    0  0.00000000000E+00  0.00000000000E+00 -0.14518220496E+04  0.14518220496E+04  0.25500000920E-02 0.  1.
    10030    2    1    2    0    0  0.00000000000E+00  0.00000000000E+00 -0.64627349522E+03  0.22573706040E+04  0.21628806286E+04 0.  0.
        5    1    3    3  502    0  0.55382317819E+03 -0.42925554802E+03 -0.11828401405E+04  0.13748139242E+04  0.46999998093E+01 0.  1.
       -5    1    3    3    0  502 -0.55382317819E+03  0.42925554802E+03  0.53656664532E+03  0.88255667981E+03  0.46999998093E+01 0. -1.
</event>
<event>
 5   0  0.6221148E-05  0.2115803E+04  0.7818609E-02  0.8554314E-01
       -1   -1    0    0    0  501  0.00000000000E+00  0.00000000000E+00  0.85465832513E+03  0.85465832514E+03  0.50400001928E-02 0. -1.
        1   -1    0    0  501    0  0.00000000000E+00  0.00000000000E+00 -0.13094771312E+04  0.13094771312E+04  0.50400001928E-02 0.  1.
    10030    2    1    2    0    0  0.00000000000E+00  0.00000000000E+00 -0.45481880611E+03  0.21641354564E+04  0.21158029509E+04 0.  0.
        3    1    3    3  502    0  0.80905849370E+03  0.21978864205E+03  0.43252117767E+03  0.94337546752E+03  0.10100000352E+00 0.  1.
       -3    1    3    3    0  502 -0.80905849370E+03 -0.21978864205E+03 -0.88733998378E+03  0.12207599889E+04  0.10100000352E+00 0. -1.
</event>
<event>
 5   0  0.6263616E-05  0.2100952E+04  0.7818609E-02  0.8560824E-01
        1   -1    0    0  501    0  0.00000000000E+00  0.00000000000E+00  0.17114326108E+04  0.17114326108E+04  0.50400001928E-02 0.  1.
       -1   -1    0    0    0  501  0.00000000000E+00  0.00000000000E+00 -0.64478110770E+03  0.64478110772E+03  0.50400001928E-02 0. -1.
    10030    2    1    2    0    0  0.00000000000E+00  0.00000000000E+00  0.10666515031E+04  0.23562137186E+04  0.21009516078E+04 0.  0.
        4    1    3    3  502    0  0.75941641899E+03 -0.71483389351E+03  0.39236894138E+03  0.11142960970E+04  0.12699999809E+01 0.  1.
       -4    1    3    3    0  502 -0.75941641899E+03  0.71483389351E+03  0.67428256177E+03  0.12419176216E+04  0.12699999809E+01 0. -1.
</event>
<event>
 5   0  0.1252477E-04  0.2107033E+04  0.7818609E-02  0.8558151E-01
       -2   -1    0    0    0  501  0.00000000000E+00  0.00000000000E+00  0.86213840429E+03  0.86213840429E+03  0.25500000920E-02 0.  1.
        2   -1    0    0  501    0  0.00000000000E+00  0.00000000000E+00 -0.12873772144E+04  0.12873772144E+04  0.25500000920E-02 0. -1.
    10030    2    1    2    0    0  0.00000000000E+00  0.00000000000E+00 -0.42523881011E+03  0.21495156187E+04  0.21070333052E+04 0.  0.
        4    1    3    3  502    0 -0.48526637280E+03  0.89609305275E+03  0.60032193521E+02  0.10208191264E+04  0.12699999809E+01 0.  1.
       -4    1    3    3    0  502  0.48526637280E+03 -0.89609305275E+03 -0.48527100363E+03  0.11286964922E+04  0.12699999809E+01 0. -1.
</event>
<event>
 5   0  0.6221148E-05  0.2111149E+04  0.7818609E-02  0.8556348E-01
       -1   -1    0    0    0  501  0.00000000000E+00  0.00000000000E+00  0.75253319492E+03  0.75253319493E+03  0.50400001928E-02 0.  1.
        1   -1    0    0  501    0  0.00000000000E+00  0.00000000000E+00 -0.14806493650E+04  0.14806493650E+04  0.50400001928E-02 0. -1.
    10030    2    1    2    0    0  0.00000000000E+00  0.00000000000E+00 -0.72811617006E+03  0.22331825599E+04  0.21111492578E+04 0.  0.
        3    1    3    3  502    0  0.32230998763E+03  0.52464448107E+03 -0.12709993409E+04  0.14122941954E+04  0.10100000352E+00 0. -1.
       -3    1    3    3    0  502 -0.32230998763E+03 -0.52464448107E+03  0.54288317082E+03  0.82088836452E+03  0.10100000352E+00 0.  1.
</event>
<event>
 5   0  0.5933905E-05  0.2158606E+04  0.7818609E-02  0.8535858E-01
       -1   -1    0    0    0  501  0.00000000000E+00  0.00000000000E+00  0.11876051860E+04  0.11876051861E+04  0.50400001928E-02 0. -1.
        1   -1    0    0  501    0  0.00000000000E+00  0.00000000000E+00 -0.98087689168E+03  0.98087689169E+03  0.50400001928E-02 0.  1.
    10030    2    1    2    0    0  0.00000000000E+00  0.00000000000E+00  0.20672829436E+03  0.21684820777E+04  0.21586055531E+04 0.  0.
        2    1    3    3  502    0 -0.26783374349E+03  0.31268725611E+03  0.11056194565E+04  0.11797892257E+04  0.25500000920E-02 0. -1.
       -2    1    3    3    0  502  0.26783374349E+03 -0.31268725611E+03 -0.89889116219E+03  0.98869285208E+03  0.25500000920E-02 0.  1.
</event>
<event>
 5   0  0.6221148E-05  0.2024091E+04  0.7818609E-02  0.8595440E-01
        1   -1    0    0  501    0  0.00000000000E+00  0.00000000000E+00  0.98703224509E+03  0.98703224511E+03  0.50400001928E-02 0. -1.
       -1   -1    0    0    0  501  0.00000000000E+00  0.00000000000E+00 -0.10376924568E+04  0.10376924568E+04  0.50400001928E-02 0.  1.
    10030    2    1    2    0    0  0.00000000000E+00  0.00000000000E+00 -0.50660211731E+02  0.20247247019E+04  0.20240908235E+04 0.  0.
        3    1    3    3  502    0 -0.60308619945E+03 -0.57792419922E+03  0.54627387235E+03  0.99806036783E+03  0.10100000352E+00 0. -1.
       -3    1    3    3    0  502  0.60308619945E+03  0.57792419922E+03 -0.59693408408E+03  0.10266643341E+04  0.10100000352E+00 0.  1.
</event>
<event>
 5   0  0.6221148E-05  0.2218448E+04  0.7818609E-02  0.8510788E-01
        1   -1    0    0  501    0  0.00000000000E+00  0.00000000000E+00  0.24466570567E+04  0.24466570567E+04  0.50400001928E-02 0.  1.
       -1   -1    0    0    0  501  0.00000000000E+00  0.00000000000E+00 -0.50288142276E+03  0.50288142279E+03  0.50400001928E-02 0. -1.
    10030    2    1    2    0    0  0.00000000000E+00  0.00000000000E+00  0.19437756340E+04  0.29495384795E+04  0.22184484504E+04 0.  0.
        3    1    3    3  502    0  0.34739654039E+03 -0.21742532323E+03 -0.39852967553E+03  0.57165027765E+03  0.10100000352E+00 0. -1.
       -3    1    3    3    0  502 -0.34739654039E+03  0.21742532323E+03  0.23423053095E+04  0.23778882019E+04  0.10100000352E+00 0.  1.
</event>
<event>
 5   0  0.5846187E-05  0.2160872E+04  0.7818609E-02  0.8534893E-01
       -1   -1    0    0    0  501  0.00000000000E+00  0.00000000000E+00  0.92250710278E+03  0.92250710279E+03  0.50400001928E-02 0. -1.
        1   -1    0    0  501    0  0.00000000000E+00  0.00000000000E+00 -0.12654013927E+04  0.12654013927E+04  0.50400001928E-02 0.  1.
    10030    2    1    2    0    0  0.00000000000E+00  0.00000000000E+00 -0.34289428991E+03  0.21879084955E+04  0.21608718358E+04 0.  0.
        5    1    3    3  502    0  0.97583347415E+03 -0.10745574262E+03 -0.62822580024E+03  0.11655416989E+04  0.46999998093E+01 0.  1.
       -5    1    3    3    0  502 -0.97583347415E+03  0.10745574262E+03  0.28533151033E+03  0.10223667965E+04  0.46999998093E+01 0. -1.
</event>
<event>
 5   0  0.5933905E-05  0.1649052E+04  0.7818609E-02  0.8790968E-01
        1   -1    0    0  501    0  0.00000000000E+00  0.00000000000E+00  0.80590508862E+03  0.80590508863E+03  0.50400001928E-02 0. -1.
       -1   -1    0    0    0  501  0.00000000000E+00  0.00000000000E+00 -0.84357665622E+03  0.84357665624E+03  0.50400001928E-02 0.  1.
    10030    2    1    2    0    0  0.00000000000E+00  0.00000000000E+00 -0.37671567606E+02  0.16494817449E+04  0.16490515091E+04 0.  0.
        2    1    3    3  502    0 -0.72625288685E+03 -0.19965935668E+01  0.37164469954E+03  0.81582291261E+03  0.25500000920E-02 0.  1.
       -2    1    3    3    0  502  0.72625288685E+03  0.19965935668E+01 -0.40931626715E+03  0.83365883226E+03  0.25500000920E-02 0. -1.
</event>
<event>
 5   0  0.4615125E-05  0.1986556E+04  0.7818609E-02  0.8612932E-01
        3   -1    0    0  501    0  0.00000000000E+00  0.00000000000E+00  0.78362594928E+03  0.78362595579E+03  0.10100000352E+00 0. -1.
       -3   -1    0    0    0  501  0.00000000000E+00  0.00000000000E+00 -0.12590211244E+04  0.12590211284E+04  0.10100000352E+00 0.  1.
    10030    2    1    2    0    0  0.00000000000E+00  0.00000000000E+00 -0.47539517507E+03  0.20426470842E+04  0.19865564523E+04 0.  0.
        5    1    3    3  502    0  0.88829359066E+03  0.42780294156E+03 -0.11388730136E+03  0.99250857297E+03  0.46999998093E+01 0.  1.
       -5    1    3    3    0  502 -0.88829359066E+03 -0.42780294156E+03 -0.36150787372E+03  0.10501385112E+04  0.46999998093E+01 0. -1.
</event>
<event>
 5   0  0.5933905E-05  0.1940031E+04  0.7818609E-02  0.8635183E-01
       -1   -1    0    0    0  501  0.00000000000E+00  0.00000000000E+00  0.96389575738E+03  0.96389575739E+03  0.50400001928E-02 0.  1.
        1   -1    0    0  501    0  0.00000000000E+00  0.00000000000E+00 -0.97617428136E+03  0.97617428138E+03  0.50400001928E-02 0. -1.
    10030    2    1    2    0    0  0.00000000000E+00  0.00000000000E+00 -0.12278523983E+02  0.19400700388E+04  0.19400311836E+04 0.  0.
        2    1    3    3  502    0  0.24639885171E+03  0.11213677652E+03 -0.93763158747E+03  0.97593034823E+03  0.25500000920E-02 0. -1.
       -2    1    3    3    0  502 -0.24639885171E+03 -0.11213677652E+03  0.92535306348E+03  0.96413969054E+03  0.25500000920E-02 0.  1.
</event>
<event>
 5   0  0.1325673E-04  0.2078497E+04  0.7818609E-02  0.8570775E-01
       -2   -1    0    0    0  501  0.00000000000E+00  0.00000000000E+00  0.82026069599E+03  0.82026069599E+03  0.25500000920E-02 0.  1.
        2   -1    0    0  501    0  0.00000000000E+00  0.00000000000E+00 -0.13167000719E+04  0.13167000719E+04  0.25500000920E-02 0. -1.
    10030    2    1    2    0    0  0.00000000000E+00  0.00000000000E+00 -0.49643937596E+03  0.21369607679E+04  0.20784968775E+04 0.  0.
        5    1    3    3  502    0  0.21680097812E+03  0.74242220507E+03  0.46543875865E+03  0.90268971565E+03  0.46999998093E+01 0.  1.
       -5    1    3    3    0  502 -0.21680097812E+03 -0.74242220507E+03 -0.96187813460E+03  0.12342710523E+04  0.46999998093E+01 0. -1.
</event>
<event>
 5   0  0.6221148E-05  0.2077219E+04  0.7818609E-02  0.8571345E-01
        1   -1    0    0  501    0  0.00000000000E+00  0.00000000000E+00  0.21327120556E+04  0.21327120556E+04  0.50400001928E-02 0.  1.
       -1   -1    0    0    0  501  0.00000000000E+00  0.00000000000E+00 -0.50579248244E+03  0.50579248247E+03  0.50400001928E-02 0. -1.
    10030    2    1    2    0    0  0.00000000000E+00  0.00000000000E+00  0.16269195732E+04  0.26385045381E+04  0.20772190303E+04 0.  0.
        3    1    3    3  502    0 -0.58942305012E+03  0.90790188232E+02 -0.26662765007E+03  0.65326312025E+03  0.10100000352E+00 0. -1.
       -3    1    3    3    0  502  0.58942305012E+03 -0.90790188232E+02  0.18935472233E+04  0.19852414179E+04  0.10100000352E+00 0.  1.
</event>
<event>
 5   0  0.1325673E-04  0.2183207E+04  0.7818609E-02  0.8525450E-01
        2   -1    0    0  501    0  0.00000000000E+00  0.00000000000E+00  0.12936346785E+04  0.12936346785E+04  0.25500000920E-02 0.  1.
       -2   -1    0    0    0  501  0.00000000000E+00  0.00000000000E+00 -0.92112436404E+03  0.92112436404E+03  0.25500000920E-02 0. -1.
    10030    2    1    2    0    0  0.00000000000E+00  0.00000000000E+00  0.37251031449E+03  0.22147590426E+04  0.21832072009E+04 0.  0.
        5    1    3    3  502    0  0.38530913618E+02  0.32009987850E+03  0.12442210616E+04  0.12853235794E+04  0.46999998093E+01 0.  1.
       -5    1    3    3    0  502 -0.38530913618E+02 -0.32009987850E+03 -0.87171074715E+03  0.92943546318E+03  0.46999998093E+01 0. -1.
</event>
<event>
 5   0  0.6221148E-05  0.2068913E+04  0.7818609E-02  0.8575062E-01
        1   -1    0    0  501    0  0.00000000000E+00  0.00000000000E+00  0.90495644784E+03  0.90495644785E+03  0.50400001928E-02 0.  1.
       -1   -1    0    0    0  501  0.00000000000E+00  0.00000000000E+00 -0.11824881023E+04  0.11824881023E+04  0.50400001928E-02 0. -1.
    10030    2    1    2    0    0  0.00000000000E+00  0.00000000000E+00 -0.27753165449E+03  0.20874445502E+04  0.20689129829E+04 0.  0.
        3    1    3    3  502    0 -0.84606940810E+03 -0.59122029747E+03 -0.69409001046E+02  0.10345010890E+04  0.10100000352E+00 0. -1.
       -3    1    3    3    0  502  0.84606940810E+03  0.59122029747E+03 -0.20812265345E+03  0.10529434612E+04  0.10100000352E+00 0.  1.
</event>
<event>
 5   0  0.1252477E-04  0.2132007E+04  0.7818609E-02  0.8547274E-01
       -2   -1    0    0    0  501  0.00000000000E+00  0.00000000000E+00  0.12654109958E+04  0.12654109958E+04  0.25500000920E-02 0.  1.
        2   -1    0    0  501    0  0.00000000000E+00  0.00000000000E+00 -0.89801907862E+03  0.89801907862E+03  0.25500000920E-02 0. -1.
    10030    2    1    2    0    0  0.00000000000E+00  0.00000000000E+00  0.36739191716E+03  0.21634300744E+04  0.21320067697E+04 0.  0.
        4    1    3    3  502    0 -0.64423369961E+03 -0.34687842925E+03  0.97036395593E+03  0.12153063500E+04  0.12699999809E+01 0.  1.
       -4    1    3    3    0  502  0.64423369961E+03  0.34687842925E+03 -0.60297203877E+03  0.94812372444E+03  0.12699999809E+01 0. -1.
</event>
<event>
 5   0  0.6263616E-05  0.2062410E+04  0.7818609E-02  0.8577985E-01
       -1   -1    0    0    0  501  0.00000000000E+00  0.00000000000E+00  0.49120028819E+03  0.49120028821E+03  0.50400001928E-02 0. -1.
        1   -1    0    0  501    0  0.00000000000E+00  0.00000000000E+00 -0.21648671776E+04  0.21648671776E+04  0.50400001928E-02 0.  1.
    10030    2    1    2    0    0  0.00000000000E+00  0.00000000000E+00 -0.16736668894E+04  0.26560674658E+04  0.20624096407E+04 0.  0.
        4    1    3    3  502    0 -0.43171877893E+03  0.62646246543E+03 -0.17332945039E+04  0.18929204354E+04  0.12699999809E+01 0.  1.
       -4    1    3    3    0  502  0.43171877893E+03 -0.62646246543E+03  0.59627614502E+02  0.76314703039E+03  0.12699999809E+01 0. -1.
</event>
<event>
 5   0  0.1252477E-04  0.2130712E+04  0.7818609E-02  0.8547834E-01
       -2   -1    0    0    0  501  0.00000000000E+00  0.00000000000E+00  0.72463973013E+03  0.72463973013E+03  0.25500000920E-02 0. -1.
        2   -1    0    0  501    0  0.00000000000E+00  0.00000000000E+00 -0.15662728327E+04  0.15662728327E+04  0.25500000920E-02 0.  1.
    10030    2    1    2    0    0  0.00000000000E+00  0.00000000000E+00 -0.84163310261E+03  0.22909125629E+04  0.21307121090E+04 0.  0.
        4    1    3    3  502    0  0.74225794682E+03 -0.75743767300E+03 -0.31157411691E+03  0.11053229082E+04  0.12699999809E+01 0. -1.
       -4    1    3    3    0  502 -0.74225794682E+03  0.75743767300E+03 -0.53005898570E+03  0.11855896547E+04  0.12699999809E+01 0.  1.
</event>
<event>
 5   0  0.1349252E-04  0.2120446E+04  0.7818609E-02  0.8552290E-01
       -2   -1    0    0    0  501  0.00000000000E+00  0.00000000000E+00  0.65222336491E+03  0.65222336492E+03  0.25500000920E-02 0. -1.
        2   -1    0    0  501    0  0.00000000000E+00  0.00000000000E+00 -0.17234476323E+04  0.17234476323E+04  0.25500000920E-02 0.  1.
    10030    2    1    2    0    0  0.00000000000E+00  0.00000000000E+00 -0.10712242674E+04  0.23756709973E+04  0.21204460040E+04 0.  0.
        2    1    3    3  502    0 -0.12413731933E+03 -0.10510957276E+04 -0.60522371481E+03  0.12192243631E+04  0.25500000920E-02 0.  1.
       -2    1    3    3    0  502  0.12413731933E+03  0.10510957276E+04 -0.46600055262E+03  0.11564466342E+04  0.25500000920E-02 0. -1.
</event>
<event>
 5   0  0.6052292E-05  0.2074612E+04  0.7818609E-02  0.8572510E-01
        1   -1    0    0  501    0  0.00000000000E+00  0.00000000000E+00  0.13808591598E+04  0.13808591598E+04  0.50400001928E-02 0.  1.
       -1   -1    0    0    0  501  0.00000000000E+00  0.00000000000E+00 -0.77922744712E+03  0.77922744714E+03  0.50400001928E-02 0. -1.
    10030    2    1    2    0    0  0.00000000000E+00  0.00000000000E+00  0.60163171267E+03  0.21600866069E+04  0.20746116340E+04 0.  0.
        1    1    3    3  502    0 -0.64001382618E+03  0.19954503834E+03  0.11249886342E+04  0.13095935809E+04  0.50400001928E-02 0.  1.
       -1    1    3    3    0  502  0.64001382618E+03 -0.19954503834E+03 -0.52335692152E+03  0.85049302604E+03  0.50400001928E-02 0. -1.
</event>
<event>
 5   0  0.4615125E-05  0.1585178E+04  0.7818609E-02  0.8829706E-01
       -3   -1    0    0    0  501  0.00000000000E+00  0.00000000000E+00  0.37500748727E+03  0.37500750088E+03  0.10100000352E+00 0. -1.
        3   -1    0    0  501    0  0.00000000000E+00  0.00000000000E+00 -0.16751589934E+04  0.16751589965E+04  0.10100000352E+00 0.  1.
    10030    2    1    2    0    0  0.00000000000E+00  0.00000000000E+00 -0.13001515061E+04  0.20501664973E+04  0.15851778222E+04 0.  0.
        4    1    3    3  502    0 -0.43336737883E+03 -0.14575914789E+03 -0.14873968289E+04  0.15560861010E+04  0.12699999809E+01 0.  1.
       -4    1    3    3    0  502  0.43336737883E+03  0.14575914789E+03  0.18724532277E+03  0.49408039632E+03  0.12699999809E+01 0. -1.
</event>
<event>
 5   0  0.6052292E-05  0.2100504E+04  0.7818609E-02  0.8561021E-01
        1   -1    0    0  501    0  0.00000000000E+00  0.00000000000E+00  0.10372400903E+04  0.10372400903E+04  0.50400001928E-02 0.  1.
       -1   -1    0    0    0  501  0.00000000000E+00  0.00000000000E+00 -0.10634276076E+04  0.10634276076E+04  0.50400001928E-02 0. -1.
    10030    2    1    2    0    0  0.00000000000E+00  0.00000000000E+00 -0.26187517322E+02  0.21006676979E+04  0.21005044611E+04 0.  0.
        1    1    3    3  502    0  0.57581931998E+03 -0.54891675292E+03  0.67263602316E+03  0.10417853477E+04  0.50400001928E-02 0.  1.
       -1    1    3    3    0  502 -0.57581931998E+03  0.54891675292E+03 -0.69882354048E+03  0.10588823502E+04  0.50400001928E-02 0. -1.
</event>
<event>
 5   0  0.1325673E-04  0.2092534E+04  0.7818609E-02  0.8564540E-01
       -2   -1    0    0    0  501  0.00000000000E+00  0.00000000000E+00  0.10620901549E+04  0.10620901549E+04  0.25500000920E-02 0. -1.
        2   -1    0    0  501    0  0.00000000000E+00  0.00000000000E+00 -0.10306791993E+04  0.10306791993E+04  0.25500000920E-02 0.  1.
    10030    2    1    2    0    0  0.00000000000E+00  0.00000000000E+00  0.31410955603E+02  0.20927693541E+04  0.20925336130E+04 0.  0.
        5    1    3    3  502    0 -0.46135560223E+02 -0.10295783601E+04  0.19598130037E+03  0.10490904869E+04  0.46999998093E+01 0. -1.
       -5    1    3    3    0  502  0.46135560223E+02  0.10295783601E+04 -0.16457034476E+03  0.10436788672E+04  0.46999998093E+01 0.  1.
</event>
<event>
 5   0  0.1281470E-04  0.2103224E+04  0.7818609E-02  0.8559825E-01
        2   -1    0    0  501    0  0.00000000000E+00  0.00000000000E+00  0.10422843929E+04  0.10422843929E+04  0.25500000920E-02 0. -1.
       -2   -1    0    0    0  501  0.00000000000E+00  0.00000000000E+00 -0.10610230245E+04  0.10610230245E+04  0.25500000920E-02 0.  1.
    10030    2    1    2    0    0  0.00000000000E+00  0.00000000000E+00 -0.18738631640E+02  0.21033074174E+04  0.21032239433E+04 0.  0.
        3    1    3    3  502    0 -0.10298000862E+04  0.19635328626E+03 -0.92106499593E+02  0.10523908247E+04  0.10100000352E+00 0.  1.
       -3    1    3    3    0  502  0.10298000862E+04 -0.19635328626E+03  0.73367867953E+02  0.10509165927E+04  0.10100000352E+00 0. -1.
</event>
<event>
 5   0  0.1281470E-04  0.2090972E+04  0.7818609E-02  0.8565231E-01
       -2   -1    0    0    0  501  0.00000000000E+00  0.00000000000E+00  0.10209283736E+04  0.10209283736E+04  0.25500000920E-02 0.  1.
        2   -1    0    0  501    0  0.00000000000E+00  0.00000000000E+00 -0.10706347974E+04  0.10706347974E+04  0.25500000920E-02 0. -1.
    10030    2    1    2    0    0  0.00000000000E+00  0.00000000000E+00 -0.49706423837E+02  0.20915631710E+04  0.20909724460E+04 0.  0.
        3    1    3    3  502    0 -0.21245467629E+03 -0.61132496274E+02 -0.10469869232E+04  0.10700728009E+04  0.10100000352E+00 0. -1.
       -3    1    3    3    0  502  0.21245467629E+03  0.61132496274E+02  0.99728049941E+03  0.10214903701E+04  0.10100000352E+00 0.  1.
</event>
<event>
 5   0  0.5933905E-05  0.2074838E+04  0.7818609E-02  0.8572409E-01
       -1   -1    0    0    0  501  0.00000000000E+00  0.00000000000E+00  0.87577491394E+03  0.87577491395E+03  0.50400001928E-02 0.  1.
        1   -1    0    0  501    0  0.00000000000E+00  0.00000000000E+00 -0.12288986752E+04  0.12288986752E+04  0.50400001928E-02 0. -1.
    10030    2    1    2    0    0  0.00000000000E+00  0.00000000000E+00 -0.35312376125E+03  0.21046735892E+04  0.20748384337E+04 0.  0.
        2    1    3    3  502    0  0.57930430397E+03  0.85207304313E+03 -0.53923926294E+02  0.10317605038E+04  0.25500000920E-02 0.  1.
       -2    1    3    3    0  502 -0.57930430397E+03 -0.85207304313E+03 -0.29919983496E+03  0.10729130853E+04  0.25500000920E-02 0. -1.
</event>
<event>
 5   0  0.1252477E-04  0.2122290E+04  0.7818609E-02  0.8551487E-01
        2   -1    0    0  501    0  0.00000000000E+00  0.00000000000E+00  0.53137804012E+03  0.53137804013E+03  0.25500000920E-02 0.  1.
       -2   -1    0    0    0  501  0.00000000000E+00  0.00000000000E+00 -0.21190736462E+04  0.21190736462E+04  0.25500000920E-02 0. -1.
    10030    2    1    2    0    0  0.00000000000E+00  0.00000000000E+00 -0.15876956061E+04  0.26504516864E+04  0.21222904618E+04 0.  0.
        4    1    3    3  502    0 -0.81704521740E+03 -0.20230309132E+03  0.13132912450E+02  0.84182154541E+03  0.12699999809E+01 0.  1.
       -4    1    3    3    0  502  0.81704521740E+03  0.20230309132E+03 -0.16008285186E+04  0.18086301410E+04  0.12699999809E+01 0. -1.
</event>
<event>
 5   0  0.6052292E-05  0.2076732E+04  0.7818609E-02  0.8571563E-01
       -1   -1    0    0    0  501  0.00000000000E+00  0.00000000000E+00  0.88213899442E+03  0.88213899444E+03  0.50400001928E-02 0. -1.
        1   -1    0    0  501    0  0.00000000000E+00  0.00000000000E+00 -0.12222605342E+04  0.12222605342E+04  0.50400001928E-02 0.  1.
    10030    2    1    2    0    0  0.00000000000E+00  0.00000000000E+00 -0.34012153979E+03  0.21043995287E+04  0.20767317387E+04 0.  0.
        1    1    3    3  502    0 -0.52930618275E+03 -0.86264635212E+02  0.73094047707E+03  0.90657630866E+03  0.50400001928E-02 0. -1.
       -1    1    3    3    0  502  0.52930618275E+03  0.86264635212E+02 -0.10710620169E+04  0.11978232200E+04  0.50400001928E-02 0.  1.
</event>
<event>
 5   0  0.1281470E-04  0.2080439E+04  0.7818609E-02  0.8569910E-01
        2   -1    0    0  501    0  0.00000000000E+00  0.00000000000E+00  0.15736329193E+04  0.15736329193E+04  0.25500000920E-02 0.  1.
       -2   -1    0    0    0  501  0.00000000000E+00  0.00000000000E+00 -0.68761666910E+03  0.68761666911E+03  0.25500000920E-02 0. -1.
    10030    2    1    2    0    0  0.00000000000E+00  0.00000000000E+00  0.88601625021E+03  0.22612495884E+04  0.20804386330E+04 0.  0.
        3    1    3    3  502    0  0.75195641837E+03 -0.69386028922E+03  0.23915624613E+03  0.10507503397E+04  0.10100000352E+00 0.  1.
       -3    1    3    3    0  502 -0.75195641837E+03  0.69386028922E+03  0.64686000408E+03  0.12104992487E+04  0.10100000352E+00 0. -1.
</event>
<event>
 5   0  0.6052292E-05  0.2119535E+04  0.7818609E-02  0.8552687E-01
       -1   -1    0    0    0  501  0.00000000000E+00  0.00000000000E+00  0.56414991983E+03  0.56414991985E+03  0.50400001928E-02 0. -1.
        1   -1    0    0  501    0  0.00000000000E+00  0.00000000000E+00 -0.19907953866E+04  0.19907953866E+04  0.50400001928E-02 0.  1.
    10030    2    1    2    0    0  0.00000000000E+00  0.00000000000E+00 -0.14266454667E+04  0.25549453064E+04  0.21195349091E+04 0.  0.
        1    1    3    3  502    0  0.36043310141E+03  0.95369924843E+03 -0.36467951279E+03  0.10827951903E+04  0.50400001928E-02 0.  1.
       -1    1    3    3    0  502 -0.36043310141E+03 -0.95369924843E+03 -0.10619659540E+04  0.14721501161E+04  0.50400001928E-02 0. -1.
</event>
<event>
 5   0  0.1325673E-04  0.2116080E+04  0.7818609E-02  0.8554193E-01
        2   -1    0    0  501    0  0.00000000000E+00  0.00000000000E+00  0.16696317595E+04  0.16696317595E+04  0.25500000920E-02 0.  1.
       -2   -1    0    0    0  501  0.00000000000E+00  0.00000000000E+00 -0.67047641937E+03  0.67047641937E+03  0.25500000920E-02 0. -1.
    10030    2    1    2    0    0  0.00000000000E+00  0.00000000000E+00  0.99915534016E+03  0.23401081789E+04  0.21160800777E+04 0.  0.
        5    1    3    3  502    0  0.59608563961E+03 -0.79804689964E+03  0.10512212040E+03  0.10016335128E+04  0.46999998093E+01 0.  1.
       -5    1    3    3    0  502 -0.59608563961E+03  0.79804689964E+03  0.89403321976E+03  0.13384746661E+04  0.46999998093E+01 0. -1.
</event>
<event>
 5   0  0.4615125E-05  0.2120847E+04  0.7818609E-02  0.8552115E-01
        3   -1    0    0  501    0  0.00000000000E+00  0.00000000000E+00  0.11884241403E+04  0.11884241446E+04  0.10100000352E+00 0. -1.
       -3   -1    0    0    0  501  0.00000000000E+00  0.00000000000E+00 -0.94620893780E+03  0.94620894319E+03  0.10100000352E+00 0.  1.
    10030    2    1    2    0    0  0.00000000000E+00  0.00000000000E+00  0.24221520253E+03  0.21346330878E+04  0.21208465799E+04 0.  0.
        1    1    3    3  502    0 -0.36533233653E+03  0.90818369855E+02 -0.87669021682E+03  0.95409717990E+03  0.50400001928E-02 0.  1.
       -1    1    3    3    0  502  0.36533233653E+03 -0.90818369855E+02  0.11189054193E+04  0.11805359079E+04  0.50400001928E-02 0. -1.
</event>
<event>
 5   0  0.6263616E-05  0.1578053E+04  0.7818609E-02  0.8834145E-01
        1   -1    0    0  501    0  0.00000000000E+00  0.00000000000E+00  0.10267998657E+04  0.10267998657E+04  0.50400001928E-02 0. -1.
       -1   -1    0    0    0  501  0.00000000000E+00  0.00000000000E+00 -0.60631385559E+03  0.60631385561E+03  0.50400001928E-02 0.  1.
    10030    2    1    2    0    0  0.00000000000E+00  0.00000000000E+00  0.42048601014E+03  0.16331137214E+04  0.15780532127E+04 0.  0.
        4    1    3    3  502    0  0.60798707245E+03 -0.72793716544E+02  0.72521371532E+03  0.94914896156E+03  0.12699999809E+01 0. -1.
       -4    1    3    3    0  502 -0.60798707245E+03  0.72793716544E+02 -0.30472770518E+03  0.68396475979E+03  0.12699999809E+01 0.  1.
</event>
<event>
 5   0  0.1349252E-04  0.2121057E+04  0.7818609E-02  0.8552024E-01
        2   -1    0    0  501    0  0.00000000000E+00  0.00000000000E+00  0.77463586322E+03  0.77463586323E+03  0.25500000920E-02 0. -1.
       -2   -1    0    0    0  501  0.00000000000E+00  0.00000000000E+00 -0.14519353887E+04  0.14519353887E+04  0.25500000920E-02 0.  1.
    10030    2    1    2    0    0  0.00000000000E+00  0.00000000000E+00 -0.67729952550E+03  0.22265712520E+04  0.21210574940E+04 0.  0.
        2    1    3    3  502    0 -0.11814197787E+03  0.32600234689E+03  0.71344809580E+03  0.79324853767E+03  0.25500000920E-02 0. -1.
       -2    1    3    3    0  502  0.11814197787E+03 -0.32600234689E+03 -0.13907476213E+04  0.14333227143E+04  0.25500000920E-02 0.  1.
</event>
<event>
 5   0  0.1281470E-04  0.2057863E+04  0.7818609E-02  0.8580036E-01
       -2   -1    0    0    0  501  0.00000000000E+00  0.00000000000E+00  0.10584694620E+04  0.10584694620E+04  0.25500000920E-02 0. -1.
        2   -1    0    0  501    0  0.00000000000E+00  0.00000000000E+00 -0.10002177323E+04  0.10002177323E+04  0.25500000920E-02 0.  1.
    10030    2    1    2    0    0  0.00000000000E+00  0.00000000000E+00  0.58251729680E+02  0.20586871943E+04  0.20578628963E+04 0.  0.
        3    1    3    3  502    0  0.75212448734E+03  0.26459296875E+03 -0.62151856369E+03  0.10109332415E+04  0.10100000352E+00 0.  1.
       -3    1    3    3    0  502 -0.75212448734E+03 -0.26459296875E+03  0.67977029337E+03  0.10477539528E+04  0.10100000352E+00 0. -1.
</event>
<event>
 5   0  0.5846187E-05  0.2132162E+04  0.7818609E-02  0.8547207E-01
        1   -1    0    0  501    0  0.00000000000E+00  0.00000000000E+00  0.12142629566E+04  0.12142629566E+04  0.50400001928E-02 0.  1.
       -1   -1    0    0    0  501  0.00000000000E+00  0.00000000000E+00 -0.93598238533E+03  0.93598238535E+03  0.50400001928E-02 0. -1.
    10030    2    1    2    0    0  0.00000000000E+00  0.00000000000E+00  0.27828057128E+03  0.21502453420E+04  0.21321620375E+04 0.  0.
        5    1    3    3  502    0 -0.75217401198E+03 -0.11074070338E+03 -0.61451128895E+03  0.97758654958E+03  0.46999998093E+01 0. -1.
       -5    1    3    3    0  502  0.75217401198E+03  0.11074070338E+03  0.89279186024E+03  0.11726587924E+04  0.46999998093E+01 0.  1.
</event>
<event>
 5   0  0.1325673E-04  0.1735219E+04  0.7818609E-02  0.8741529E-01
        2   -1    0    0  501    0  0.00000000000E+00  0.00000000000E+00  0.74952131625E+03  0.74952131625E+03  0.25500000920E-02 0.  1.
       -2   -1    0    0    0  501  0.00000000000E+00  0.00000000000E+00 -0.10043028009E+04  0.10043028009E+04  0.25500000920E-02 0. -1.
    10030    2    1    2    0    0  0.00000000000E+00  0.00000000000E+00 -0.25478148470E+03  0.17538241172E+04  0.17352191300E+04 0.  0.
        5    1    3    3  502    0 -0.39516320847E+03  0.59329528943E+03 -0.62723441103E+03  0.94952533309E+03  0.46999998093E+01 0. -1.
       -5    1    3    3    0  502  0.39516320847E+03 -0.59329528943E+03  0.37245292634E+03  0.80429878412E+03  0.46999998093E+01 0.  1.
</event>
<event>
 5   0  0.1252477E-04  0.2061883E+04  0.7818609E-02  0.8578223E-01
        2   -1    0    0  501    0  0.00000000000E+00  0.00000000000E+00  0.12855308999E+04  0.12855308999E+04  0.25500000920E-02 0. -1.
       -2   -1    0    0    0  501  0.00000000000E+00  0.00000000000E+00 -0.82677165282E+03  0.82677165282E+03  0.25500000920E-02 0.  1.
    10030    2    1    2    0    0  0.00000000000E+00  0.00000000000E+00  0.45875924705E+03  0.21123025527E+04  0.20618831265E+04 0.  0.
        4    1    3    3  502    0  0.27032534324E+03 -0.88906591969E+03  0.68675507304E+03  0.11554861072E+04  0.12699999809E+01 0. -1.
       -4    1    3    3    0  502 -0.27032534324E+03  0.88906591969E+03 -0.22799582599E+03  0.95681644547E+03  0.12699999809E+01 0.  1.
</event>
<event>
 5   0  0.1349252E-04  0.2090314E+04  0.7818609E-02  0.8565522E-01
       -2   -1    0    0    0  501  0.00000000000E+00  0.00000000000E+00  0.63173561743E+03  0.63173561743E+03  0.25500000920E-02 0.  1.
        2   -1    0    0  501    0  0.00000000000E+00  0.00000000000E+00 -0.17291298523E+04  0.17291298523E+04  0.25500000920E-02 0. -1.
    10030    2    1    2    0    0  0.00000000000E+00  0.00000000000E+00 -0.10973942349E+04  0.23608654698E+04  0.20903137706E+04 0.  0.
        2    1    3    3  502    0  0.30304520106E+03  0.68348379399E+03  0.27614835547E+03  0.79702221096E+03  0.25500000920E-02 0.  1.
       -2    1    3    3    0  502 -0.30304520106E+03 -0.68348379399E+03 -0.13735425904E+04  0.15638432588E+04  0.25500000920E-02 0. -1.
</event>
<event>
 5   0  0.5933905E-05  0.2101957E+04  0.7818609E-02  0.8560382E-01
        1   -1    0    0  501    0  0.00000000000E+00  0.00000000000E+00  0.11041747073E+04  0.11041747073E+04  0.50400001928E-02 0. -1.
       -1   -1    0    0    0  501  0.00000000000E+00  0.00000000000E+00 -0.10003452934E+04  0.10003452934E+04  0.50400001928E-02 0.  1.
    10030    2    1    2    0    0  0.00000000000E+00  0.00000000000E+00  0.10382941386E+03  0.21045200007E+04  0.21019571561E+04 0.  0.
        2    1    3    3  502    0  0.91394774775E+03 -0.49617884891E+03  0.20396176410E+03  0.10597614528E+04  0.25500000920E-02 0. -1.
       -2    1    3    3    0  502 -0.91394774775E+03  0.49617884891E+03 -0.10013235024E+03  0.10447585478E+04  0.25500000920E-02 0.  1.
</event>
<event>
 5   0  0.1252477E-04  0.2101359E+04  0.7818609E-02  0.8560645E-01
       -2   -1    0    0    0  501  0.00000000000E+00  0.00000000000E+00  0.98217220428E+03  0.98217220428E+03  0.25500000920E-02 0. -1.
        2   -1    0    0  501    0  0.00000000000E+00  0.00000000000E+00 -0.11239650295E+04  0.11239650295E+04  0.25500000920E-02 0.  1.
    10030    2    1    2    0    0  0.00000000000E+00  0.00000000000E+00 -0.14179282525E+03  0.21061372338E+04  0.21013588086E+04 0.  0.
        4    1    3    3  502    0  0.72464734043E+03 -0.67306911967E+03 -0.42637148140E+03  0.10770004925E+04  0.12699999809E+01 0.  1.
       -4    1    3    3    0  502 -0.72464734043E+03  0.67306911967E+03  0.28457865615E+03  0.10291367413E+04  0.12699999809E+01 0. -1.
</event>
<event>
 5   0  0.1325673E-04  0.2122457E+04  0.7818609E-02  0.8551415E-01
       -2   -1    0    0    0  501  0.00000000000E+00  0.00000000000E+00  0.61121736486E+03  0.61121736486E+03  0.25500000920E-02 0. -1.
        2   -1    0    0  501    0  0.00000000000E+00  0.00000000000E+00 -0.18425626311E+04  0.18425626311E+04  0.25500000920E-02 0.  1.
    10030    2    1    2    0    0  0.00000000000E+00  0.00000000000E+00 -0.12313452662E+04  0.24537799959E+04  0.21224573267E+04 0.  0.
        5    1    3    3  502    0  0.35805715414E+03  0.99593606564E+03 -0.52544757417E+03  0.11816136491E+04  0.46999998093E+01 0. -1.
       -5    1    3    3    0  502 -0.35805715414E+03 -0.99593606564E+03 -0.70589769204E+03  0.12721663469E+04  0.46999998093E+01 0.  1.
</event>
<event>
 5   0  0.1252477E-04  0.2076685E+04  0.7818609E-02  0.8571584E-01
        2   -1    0    0  501    0  0.00000000000E+00  0.00000000000E+00  0.98602503573E+03  0.98602503573E+03  0.25500000920E-02 0.  1.
       -2   -1    0    0    0  501  0.00000000000E+00  0.00000000000E+00 -0.10934359521E+04  0.10934359521E+04  0.25500000920E-02 0. -1.
    10030    2    1    2    0    0  0.00000000000E+00  0.00000000000E+00 -0.10741091633E+03  0.20794609878E+04  0.20766850736E+04 0.  0.
        4    1    3    3  502    0  0.47557925816E+03  0.92297542609E+03 -0.43979449894E+02  0.10392281140E+04  0.12699999809E+01 0.  1.
       -4    1    3    3    0  502 -0.47557925816E+03 -0.92297542609E+03 -0.63431466438E+02  0.10402328738E+04  0.12699999809E+01 0. -1.
</event>
<event>
 5   0  0.1349252E-04  0.2107725E+04  0.7818609E-02  0.8557848E-01
       -2   -1    0    0    0  501  0.00000000000E+00  0.00000000000E+00  0.99179357665E+03  0.99179357666E+03  0.25500000920E-02 0. -1.
        2   -1    0    0  501    0  0.00000000000E+00  0.00000000000E+00 -0.11198155449E+04  0.11198155449E+04  0.25500000920E-02 0.  1.
    10030    2    1    2    0    0  0.00000000000E+00  0.00000000000E+00 -0.12802196821E+03  0.21116091215E+04  0.21077247111E+04 0.  0.
        2    1    3    3  502    0  0.53055154797E+03 -0.25160357267E+03  0.81272269527E+03  0.10026502293E+04  0.25500000920E-02 0. -1.
       -2    1    3    3    0  502 -0.53055154797E+03  0.25160357267E+03 -0.94074466348E+03  0.11089588923E+04  0.25500000920E-02 0.  1.
</event>
<event>
 5   0  0.1325673E-04  0.2082939E+04  0.7818609E-02  0.8568797E-01
       -2   -1    0    0    0  501  0.00000000000E+00  0.00000000000E+00  0.63722172379E+03  0.63722172379E+03  0.25500000920E-02 0. -1.
        2   -1    0    0  501    0  0.00000000000E+00  0.00000000000E+00 -0.17021677696E+04  0.17021677696E+04  0.25500000920E-02 0.  1.
    10030    2    1    2    0    0  0.00000000000E+00  0.00000000000E+00 -0.10649460458E+04  0.23393894934E+04  0.20829385784E+04 0.  0.
        5    1    3    3  502    0  0.78048612302E+03 -0.44327444171E+03 -0.11256943925E+04  0.14397433015E+04  0.46999998093E+01 0.  1.
       -5    1    3    3    0  502 -0.78048612302E+03  0.44327444171E+03  0.60748346738E+02  0.89964619186E+03  0.46999998093E+01 0. -1.
</event>
<event>
 5   0  0.6052292E-05  0.2008566E+04  0.7818609E-02  0.8602626E-01
       -1   -1    0    0    0  501  0.00000000000E+00  0.00000000000E+00  0.67151628552E+03  0.67151628554E+03  0.50400001928E-02 0. -1.
        1   -1    0    0  501    0  0.00000000000E+00  0.00000000000E+00 -0.15019503901E+04  0.15019503901E+04  0.50400001928E-02 0.  1.
    10030    2    1    2    0    0  0.00000000000E+00  0.00000000000E+00 -0.83043410458E+03  0.21734666757E+04  0.20085658038E+04 0.  0.
        1    1    3    3  502    0  0.42751787467E+03 -0.79941896518E+03 -0.88283141837E+03  0.12653985650E+04  0.50400001928E-02 0. -1.
       -1    1    3    3    0  502 -0.42751787467E+03  0.79941896518E+03  0.52397313788E+02  0.90806811064E+03  0.50400001928E-02 0.  1.
</event>
<event>
 5   0  0.1281470E-04  0.1651708E+04  0.7818609E-02  0.8789397E-01
        2   -1    0    0  501    0  0.00000000000E+00  0.00000000000E+00  0.10867065808E+04  0.10867065808E+04  0.25500000920E-02 0.  1.
       -2   -1    0    0    0  501  0.00000000000E+00  0.00000000000E+00 -0.62761629427E+03  0.62761629428E+03  0.25500000920E-02 0. -1.
    10030    2    1    2    0    0  0.00000000000E+00  0.00000000000E+00  0.45909028653E+03  0.17143228751E+04  0.16517079127E+04 0.  0.
        3    1    3    3  502    0 -0.74625812930E+01  0.36968997550E+03  0.99598919187E+03  0.10624127487E+04  0.10100000352E+00 0.  1.
       -3    1    3    3    0  502  0.74625812930E+01 -0.36968997550E+03 -0.53689890534E+03  0.65191012637E+03  0.10100000352E+00 0. -1.
</event>
<event>
 5   0  0.6052292E-05  0.2066449E+04  0.7818609E-02  0.8576169E-01
       -1   -1    0    0    0  501  0.00000000000E+00  0.00000000000E+00  0.96721256493E+03  0.96721256494E+03  0.50400001928E-02 0. -1.
        1   -1    0    0  501    0  0.00000000000E+00  0.00000000000E+00 -0.11037417059E+04  0.11037417059E+04  0.50400001928E-02 0.  1.
    10030    2    1    2    0    0  0.00000000000E+00  0.00000000000E+00 -0.13652914094E+03  0.20709542708E+04  0.20664489797E+04 0.  0.
        1    1    3    3  502    0 -0.61457346195E+03 -0.33737748679E+03 -0.82888484501E+03  0.10856215708E+04  0.50400001928E-02 0.  1.
       -1    1    3    3    0  502  0.61457346195E+03  0.33737748679E+03  0.69235570406E+03  0.98533270000E+03  0.50400001928E-02 0. -1.
</event>
<event>
 5   0  0.1349252E-04  0.2022490E+04  0.7818609E-02  0.8596177E-01
       -2   -1    0    0    0  501  0.00000000000E+00  0.00000000000E+00  0.13335463644E+04  0.13335463644E+04  0.25500000920E-02 0. -1.
        2   -1    0    0  501    0  0.00000000000E+00  0.00000000000E+00 -0.76684016204E+03  0.76684016204E+03  0.25500000920E-02 0.  1.
    10030    2    1    2    0    0  0.00000000000E+00  0.00000000000E+00  0.56670620236E+03  0.21003865265E+04  0.20224904550E+04 0.  0.
        2    1    3    3  502    0  0.20458575050E+03 -0.92462389435E+03 -0.85037632833E+02  0.95079759903E+03  0.25500000920E-02 0.  1.
       -2    1    3    3    0  502 -0.20458575050E+03  0.92462389435E+03  0.65174383520E+03  0.11495889274E+04  0.25500000920E-02 0. -1.
</event>
<event>
 5   0  0.1325673E-04  0.1951496E+04  0.7818609E-02  0.8629639E-01
       -2   -1    0    0    0  501  0.00000000000E+00  0.00000000000E+00  0.82228284958E+03  0.82228284958E+03  0.25500000920E-02 0. -1.
        2   -1    0    0  501    0  0.00000000000E+00  0.00000000000E+00 -0.11578553648E+04  0.11578553648E+04  0.25500000920E-02 0.  1.
    10030    2    1    2    0    0  0.00000000000E+00  0.00000000000E+00 -0.33557251526E+03  0.19801382144E+04  0.19514964605E+04 0.  0.
        5    1    3    3  502    0 -0.30047527174E+03  0.64501697955E+03  0.50964273571E+03  0.87526573159E+03  0.46999998093E+01 0. -1.
       -5    1    3    3    0  502  0.30047527174E+03 -0.64501697955E+03 -0.84521525097E+03  0.11048724828E+04  0.46999998093E+01 0.  1.
</event>
<event>
 5   0  0.6052292E-05  0.2097395E+04  0.7818609E-02  0.8562392E-01
        1   -1    0    0  501    0  0.00000000000E+00  0.00000000000E+00  0.22127880327E+04  0.22127880327E+04  0.50400001928E-02 0. -1.
       -1   -1    0    0    0  501  0.00000000000E+00  0.00000000000E+00 -0.49700510809E+03  0.49700510812E+03  0.50400001928E-02 0.  1.
    10030    2    1    2    0    0  0.00000000000E+00  0.00000000000E+00  0.17157829246E+04  0.27097931408E+04  0.20973954853E+04 0.  0.
        1    1    3    3  502    0  0.12248418239E+03 -0.25748417714E+03 -0.44596318734E+03  0.52932375811E+03  0.50400001928E-02 0.  1.
       -1    1    3    3    0  502 -0.12248418239E+03  0.25748417714E+03  0.21617461120E+04  0.21804693827E+04  0.50400001928E-02 0. -1.
</event>
<event>
 5   0  0.6263616E-05  0.2113205E+04  0.7818609E-02  0.8555449E-01
       -1   -1    0    0    0  501  0.00000000000E+00  0.00000000000E+00  0.54768974367E+03  0.54768974369E+03  0.50400001928E-02 0.  1.
        1   -1    0    0  501    0  0.00000000000E+00  0.00000000000E+00 -0.20383967428E+04  0.20383967428E+04  0.50400001928E-02 0. -1.
    10030    2    1    2    0    0  0.00000000000E+00  0.00000000000E+00 -0.14907069991E+04  0.25860864865E+04  0.21132051387E+04 0.  0.
        4    1    3    3  502    0  0.27500114488E+03  0.12661815129E+03  0.49347236349E+03  0.57894246031E+03  0.12699999809E+01 0.  1.
       -4    1    3    3    0  502 -0.27500114488E+03 -0.12661815129E+03 -0.19841793626E+04  0.20071440261E+04  0.12699999809E+01 0. -1.
</event>
<event>
 5   0  0.5846187E-05  0.2127409E+04  0.7818609E-02  0.8549265E-01
       -1   -1    0    0    0  501  0.00000000000E+00  0.00000000000E+00  0.10563335988E+04  0.10563335988E+04  0.50400001928E-02 0. -1.
        1   -1    0    0  501    0  0.00000000000E+00  0.00000000000E+00 -0.10711264805E+04  0.10711264805E+04  0.50400001928E-02 0.  1.
    10030    2    1    2    0    0  0.00000000000E+00  0.00000000000E+00 -0.14792881728E+02  0.21274600793E+04  0.21274086490E+04 0.  0.
        5    1    3    3  502    0  0.59741125344E+03 -0.13819631762E+03 -0.87658163312E+03  0.10697737506E+04  0.46999998093E+01 0.  1.
       -5    1    3    3    0  502 -0.59741125344E+03  0.13819631762E+03  0.86178875139E+03  0.10576863287E+04  0.46999998093E+01 0. -1.
</event>
<event>
 5   0  0.4615125E-05  0.2062148E+04  0.7818609E-02  0.8578103E-01
        3   -1    0    0  501    0  0.00000000000E+00  0.00000000000E+00  0.14633307851E+04  0.14633307886E+04  0.10100000352E+00 0.  1.
       -3   -1    0    0    0  501  0.00000000000E+00  0.00000000000E+00 -0.72650258916E+03  0.72650259618E+03  0.10100000352E+00 0. -1.
    10030    2    1    2    0    0  0.00000000000E+00  0.00000000000E+00  0.73682819595E+03  0.21898333848E+04  0.20621480215E+04 0.  0.
        3    1    3    3  502    0 -0.49596325813E+03 -0.65902970601E+03  0.10254439244E+04  0.13159920057E+04  0.10100000352E+00 0.  1.
       -3    1    3    3    0  502  0.49596325813E+03  0.65902970601E+03 -0.28861572845E+03  0.87384137905E+03  0.10100000352E+00 0. -1.
</event>
<event>
 5   0  0.4615125E-05  0.2196769E+04  0.7818609E-02  0.8519774E-01
       -3   -1    0    0    0  501  0.00000000000E+00  0.00000000000E+00  0.62393602554E+03  0.62393603371E+03  0.10100000352E+00 0. -1.
        3   -1    0    0  501    0  0.00000000000E+00  0.00000000000E+00 -0.19336097790E+04  0.19336097817E+04  0.10100000352E+00 0.  1.
    10030    2    1    2    0    0  0.00000000000E+00  0.00000000000E+00 -0.13096737535E+04  0.25575458154E+04  0.21967692772E+04 0.  0.
        2    1    3    3  502    0 -0.66219741005E+03 -0.88390894512E+02  0.36020285574E+03  0.75898910229E+03  0.25500000920E-02 0. -1.
       -2    1    3    3    0  502  0.66219741005E+03  0.88390894512E+02 -0.16698766092E+04  0.17985567131E+04  0.25500000920E-02 0.  1.
</event>
<event>
 5   0  0.6221148E-05  0.2082782E+04  0.7818609E-02  0.8568866E-01
        1   -1    0    0  501    0  0.00000000000E+00  0.00000000000E+00  0.89598779023E+03  0.89598779025E+03  0.50400001928E-02 0. -1.
       -1   -1    0    0    0  501  0.00000000000E+00  0.00000000000E+00 -0.12103910438E+04  0.12103910438E+04  0.50400001928E-02 0.  1.
    10030    2    1    2    0    0  0.00000000000E+00  0.00000000000E+00 -0.31440325359E+03  0.21063788341E+04  0.20827823666E+04 0.  0.
        3    1    3    3  502    0  0.88138408844E+02 -0.76322722066E+03  0.55376461005E+03  0.94706885865E+03  0.10100000352E+00 0. -1.
       -3    1    3    3    0  502 -0.88138408844E+02  0.76322722066E+03 -0.86816786364E+03  0.11593099754E+04  0.10100000352E+00 0.  1.
</event>
<event>
 5   0  0.1325673E-04  0.2101916E+04  0.7818609E-02  0.8560400E-01
       -2   -1    0    0    0  501  0.00000000000E+00  0.00000000000E+00  0.74547197084E+03  0.74547197084E+03  0.25500000920E-02 0.  1.
        2   -1    0    0  501    0  0.00000000000E+00  0.00000000000E+00 -0.14816287791E+04  0.14816287791E+04  0.25500000920E-02 0. -1.
    10030    2    1    2    0    0  0.00000000000E+00  0.00000000000E+00 -0.73615680821E+03  0.22271007499E+04  0.21019160078E+04 0.  0.
        5    1    3    3  502    0  0.46560133831E+03  0.93911196579E+03 -0.28756078405E+03  0.10869356858E+04  0.46999998093E+01 0.  1.
       -5    1    3    3    0  502 -0.46560133831E+03 -0.93911196579E+03 -0.44859602416E+03  0.11401650641E+04  0.46999998093E+01 0. -1.
</event>
<event>
 5   0  0.4615125E-05  0.2121874E+04  0.7818609E-02  0.8551669E-01
       -3   -1    0    0    0  501  0.00000000000E+00  0.00000000000E+00  0.10954099189E+04  0.10954099236E+04  0.10100000352E+00 0. -1.
        3   -1    0    0  501    0  0.00000000000E+00  0.00000000000E+00 -0.10275485772E+04  0.10275485822E+04  0.10100000352E+00 0.  1.
    10030    2    1    2    0    0  0.00000000000E+00  0.00000000000E+00  0.67861341690E+02  0.21229585058E+04  0.21218736191E+04 0.  0.
        2    1    3    3  502    0  0.67097075883E+02  0.82247971520E+03  0.70106392546E+03  0.10828044732E+04  0.25500000920E-02 0. -1.
       -2    1    3    3    0  502 -0.67097075883E+02 -0.82247971520E+03 -0.63320258377E+03  0.10401540326E+04  0.25500000920E-02 0.  1.
</event>
<event>
 5   0  0.1325673E-04  0.2131678E+04  0.7818609E-02  0.8547416E-01
       -2   -1    0    0    0  501  0.00000000000E+00  0.00000000000E+00  0.65431817675E+03  0.65431817676E+03  0.25500000920E-02 0.  1.
        2   -1    0    0  501    0  0.00000000000E+00  0.00000000000E+00 -0.17361779016E+04  0.17361779016E+04  0.25500000920E-02 0. -1.
    10030    2    1    2    0    0  0.00000000000E+00  0.00000000000E+00 -0.10818597249E+04  0.23904960784E+04  0.21316779861E+04 0.  0.
        5    1    3    3  502    0 -0.82832565523E+03  0.82912157202E+02 -0.12873181138E+04  0.15330387579E+04  0.46999998093E+01 0. -1.
       -5    1    3    3    0  502  0.82832565523E+03 -0.82912157202E+02  0.20545838895E+03  0.85745732052E+03  0.46999998093E+01 0.  1.
</event>
<event>
 5   0  0.6263616E-05  0.2194327E+04  0.7818609E-02  0.8520793E-01
       -1   -1    0    0    0  501  0.00000000000E+00  0.00000000000E+00  0.10061828134E+04  0.10061828135E+04  0.50400001928E-02 0.  1.
        1   -1    0    0  501    0  0.00000000000E+00  0.00000000000E+00 -0.11963705398E+04  0.11963705398E+04  0.50400001928E-02 0. -1.
    10030    2    1    2    0    0  0.00000000000E+00  0.00000000000E+00 -0.19018772637E+03  0.22025533533E+04  0.21943267539E+04 0.  0.
        4    1    3    3  502    0 -0.39589571681E+03  0.41296400975E+03  0.84462816519E+03  0.10201328552E+04  0.12699999809E+01 0.  1.
       -4    1    3    3    0  502  0.39589571681E+03 -0.41296400975E+03 -0.10348158916E+04  0.11824204981E+04  0.12699999809E+01 0. -1.
</event>
<event>
 5   0  0.5846187E-05  0.2144545E+04  0.7818609E-02  0.8541871E-01
       -1   -1    0    0    0  501  0.00000000000E+00  0.00000000000E+00  0.10063138187E+04  0.10063138187E+04  0.50400001928E-02 0. -1.
        1   -1    0    0  501    0  0.00000000000E+00  0.00000000000E+00 -0.11425545454E+04  0.11425545455E+04  0.50400001928E-02 0.  1.
    10030    2    1    2    0    0  0.00000000000E+00  0.00000000000E+00 -0.13624072672E+03  0.21488683642E+04  0.21445451058E+04 0.  0.
        5    1    3    3  502    0  0.49964238384E+03 -0.48117168178E+03 -0.88743469294E+03  0.11263796533E+04  0.46999998093E+01 0.  1.
       -5    1    3    3    0  502 -0.49964238384E+03  0.48117168178E+03  0.75119396622E+03  0.10224887109E+04  0.46999998093E+01 0. -1.
</event>
<event>
 5   0  0.1281470E-04  0.2082913E+04  0.7818609E-02  0.8568808E-01
        2   -1    0    0  501    0  0.00000000000E+00  0.00000000000E+00  0.96539070870E+03  0.96539070870E+03  0.25500000920E-02 0. -1.
       -2   -1    0    0    0  501  0.00000000000E+00  0.00000000000E+00 -0.11235154954E+04  0.11235154954E+04  0.25500000920E-02 0.  1.
    10030    2    1    2    0    0  0.00000000000E+00  0.00000000000E+00 -0.15812478666E+03  0.20889062041E+04  0.20829127877E+04 0.  0.
        3    1    3    3  502    0  0.74680899707E+03  0.72574489170E+03 -0.93318928789E+02  0.10455322848E+04  0.10100000352E+00 0. -1.
       -3    1    3    3    0  502 -0.74680899707E+03 -0.72574489170E+03 -0.64805857871E+02  0.10433739192E+04  0.10100000352E+00 0.  1.
</event>
<event>
 5   0  0.1325673E-04  0.2100049E+04  0.7818609E-02  0.8561222E-01
        2   -1    0    0  501    0  0.00000000000E+00  0.00000000000E+00  0.92935159794E+03  0.92935159794E+03  0.25500000920E-02 0. -1.
       -2   -1    0    0    0  501  0.00000000000E+00  0.00000000000E+00 -0.11863668633E+04  0.11863668634E+04  0.25500000920E-02 0.  1.
    10030    2    1    2    0    0  0.00000000000E+00  0.00000000000E+00 -0.25701526541E+03  0.21157184613E+04  0.21000494663E+04 0.  0.
        5    1    3    3  502    0 -0.48529446604E+03  0.38884479855E+03 -0.98088109040E+03  0.11614046666E+04  0.46999998093E+01 0.  1.
       -5    1    3    3    0  502  0.48529446604E+03 -0.38884479855E+03  0.72386582499E+03  0.95431379468E+03  0.46999998093E+01 0. -1.
</event>
<event>
 5   0  0.4615125E-05  0.2066457E+04  0.7818609E-02  0.8576165E-01
        3   -1    0    0  501    0  0.00000000000E+00  0.00000000000E+00  0.84202661510E+03  0.84202662115E+03  0.10100000352E+00 0.  1.
       -3   -1    0    0    0  501  0.00000000000E+00  0.00000000000E+00 -0.12678476585E+04  0.12678476625E+04  0.10100000352E+00 0. -1.
    10030    2    1    2    0    0  0.00000000000E+00  0.00000000000E+00 -0.42582104336E+03  0.21098742836E+04  0.20664573385E+04 0.  0.
        4    1    3    3  502    0  0.86447119752E+03  0.42541918343E+03  0.16811643873E+03  0.97803715821E+03  0.12699999809E+01 0.  1.
       -4    1    3    3    0  502 -0.86447119752E+03 -0.42541918343E+03 -0.59393748209E+03  0.11318371254E+04  0.12699999809E+01 0. -1.
</event>
<event>
 5   0  0.1252477E-04  0.1593207E+04  0.7818609E-02  0.8824732E-01
        2   -1    0    0  501    0  0.00000000000E+00  0.00000000000E+00  0.19445259860E+04  0.19445259861E+04  0.25500000920E-02 0. -1.
       -2   -1    0    0    0  501  0.00000000000E+00  0.00000000000E+00 -0.32634032716E+03  0.32634032717E+03  0.25500000920E-02 0.  1.
    10030    2    1    2    0    0  0.00000000000E+00  0.00000000000E+00  0.16181856589E+04  0.22708663132E+04  0.15932071384E+04 0.  0.
        4    1    3    3  502    0 -0.21413799593E+03  0.12373321733E+03  0.18884177364E+04  0.19045440794E+04  0.12699999809E+01 0. -1.
       -4    1    3    3    0  502  0.21413799593E+03 -0.12373321733E+03 -0.27023207750E+03  0.36632223381E+03  0.12699999809E+01 0.  1.
</event>
<event>
 5   0  0.6052292E-05  0.2084015E+04  0.7818609E-02  0.8568318E-01
        1   -1    0    0  501    0  0.00000000000E+00  0.00000000000E+00  0.12849506306E+04  0.12849506306E+04  0.50400001928E-02 0. -1.
       -1   -1    0    0    0  501  0.00000000000E+00  0.00000000000E+00 -0.84499692761E+03  0.84499692763E+03  0.50400001928E-02 0.  1.
    10030    2    1    2    0    0  0.00000000000E+00  0.00000000000E+00  0.43995370298E+03  0.21299475582E+04  0.20840147169E+04 0.  0.
        1    1    3    3  502    0  0.21258038708E+03  0.38763516542E+03 -0.74439187651E+03  0.86577751662E+03  0.50400001928E-02 0.  1.
       -1    1    3    3    0  502 -0.21258038708E+03 -0.38763516542E+03  0.11843455795E+04  0.12641700416E+04  0.50400001928E-02 0. -1.
</event>
<event>
 5   0  0.5933905E-05  0.2096008E+04  0.7818609E-02  0.8563004E-01
        1   -1    0    0  501    0  0.00000000000E+00  0.00000000000E+00  0.15181539870E+04  0.15181539870E+04  0.50400001928E-02 0. -1.
       -1   -1    0    0    0  501  0.00000000000E+00  0.00000000000E+00 -0.72345263648E+03  0.72345263650E+03  0.50400001928E-02 0.  1.
    10030    2    1    2    0    0  0.00000000000E+00  0.00000000000E+00  0.79470135050E+03  0.22416066235E+04  0.20960081150E+04 0.  0.
        2    1    3    3  502    0  0.22351576234E+03  0.88073591432E+03 -0.16108754193E+03  0.92282405851E+03  0.25500000920E-02 0.  1.
       -2    1    3    3    0  502 -0.22351576234E+03 -0.88073591432E+03  0.95578889244E+03  0.13187825650E+04  0.25500000920E-02 0. -1.
</event>
<event>
 5   0  0.6263616E-05  0.2101345E+04  0.7818609E-02  0.8560651E-01
       -1   -1    0    0    0  501  0.00000000000E+00  0.00000000000E+00  0.10593007338E+04  0.10593007338E+04  0.50400001928E-02 0. -1.
        1   -1    0    0  501    0  0.00000000000E+00  0.00000000000E+00 -0.10421146038E+04  0.10421146038E+04  0.50400001928E-02 0.  1.
    10030    2    1    2    0    0  0.00000000000E+00  0.00000000000E+00  0.17186130059E+02  0.21014153376E+04  0.21013450593E+04 0.  0.
        4    1    3    3  502    0 -0.60608468778E+02 -0.10466360389E+04  0.77810748120E+02  0.10512737559E+04  0.12699999809E+01 0. -1.
       -4    1    3    3    0  502  0.60608468778E+02  0.10466360389E+04 -0.60624618061E+02  0.10501415817E+04  0.12699999809E+01 0.  1.
</event>
<event>
 5   0  0.6263616E-05  0.2042202E+04  0.7818609E-02  0.8587140E-01
       -1   -1    0    0    0  501  0.00000000000E+00  0.00000000000E+00  0.17871741297E+04  0.17871741297E+04  0.50400001928E-02 0.  1.
        1   -1    0    0  501    0  0.00000000000E+00  0.00000000000E+00 -0.58340535275E+03  0.58340535277E+03  0.50400001928E-02 0. -1.
    10030    2    1    2    0    0  0.00000000000E+00  0.00000000000E+00  0.12037687769E+04  0.23705794825E+04  0.20422017076E+04 0.  0.
        4    1    3    3  502    0 -0.30634490808E+03 -0.92979579773E+03  0.93887109661E+03  0.13564099591E+04  0.12699999809E+01 0.  1.
       -4    1    3    3    0  502  0.30634490808E+03  0.92979579773E+03  0.26489768032E+03  0.10141695234E+04  0.12699999809E+01 0. -1.
</event>
<event>
 5   0  0.6052292E-05  0.2111645E+04  0.7818609E-02  0.8556131E-01
       -1   -1    0    0    0  501  0.00000000000E+00  0.00000000000E+00  0.94046837620E+03  0.94046837621E+03  0.50400001928E-02 0. -1.
        1   -1    0    0  501    0  0.00000000000E+00  0.00000000000E+00 -0.11853259744E+04  0.11853259745E+04  0.50400001928E-02 0.  1.
    10030    2    1    2    0    0  0.00000000000E+00  0.00000000000E+00 -0.24485759825E+03  0.21257943507E+04  0.21116454196E+04 0.  0.
        1    1    3    3  502    0 -0.33949264758E+03 -0.51466701169E+03  0.74041636691E+03  0.96351117643E+03  0.50400001928E-02 0. -1.
       -1    1    3    3    0  502  0.33949264758E+03  0.51466701169E+03 -0.98527396516E+03  0.11622831742E+04  0.50400001928E-02 0.  1.
</event>
<event>
 5   0  0.5846187E-05  0.2076740E+04  0.7818609E-02  0.8571560E-01
       -1   -1    0    0    0  501  0.00000000000E+00  0.00000000000E+00  0.64303383892E+03  0.64303383894E+03  0.50400001928E-02 0.  1.
        1   -1    0    0  501    0  0.00000000000E+00  0.00000000000E+00 -0.16767575651E+04  0.16767575651E+04  0.50400001928E-02 0. -1.
    10030    2    1    2    0    0  0.00000000000E+00  0.00000000000E+00 -0.10337237262E+04  0.23197914041E+04  0.20767396120E+04 0.  0.
        5    1    3    3  502    0  0.83732044368E+03  0.54252047298E+03 -0.19552093532E+03  0.10167027664E+04  0.46999998093E+01 0.  1.
       -5    1    3    3    0  502 -0.83732044368E+03 -0.54252047298E+03 -0.83820279088E+03  0.13030886377E+04  0.46999998093E+01 0. -1.
</event>
<event>
 5   0  0.1252477E-04  0.2052669E+04  0.7818609E-02  0.8582384E-01
        2   -1    0    0  501    0  0.00000000000E+00  0.00000000000E+00  0.13751014211E+04  0.13751014211E+04  0.25500000920E-02 0. -1.
       -2   -1    0    0    0  501  0.00000000000E+00  0.00000000000E+00 -0.76602549897E+03  0.76602549898E+03  0.25500000920E-02 0.  1.
    10030    2    1    2    0    0  0.00000000000E+00  0.00000000000E+00  0.60907592211E+03  0.21411269201E+04  0.20526692400E+04 0.  0.
        4    1    3    3  502    0  0.71010802282E+03 -0.24714045799E+03  0.10332339834E+04  0.12778520601E+04  0.12699999809E+01 0. -1.
       -4    1    3    3    0  502 -0.71010802282E+03  0.24714045799E+03 -0.42415806129E+03  0.86327486000E+03  0.12699999809E+01 0.  1.
</event>
<event>
 5   0  0.5846187E-05  0.1598744E+04  0.7818609E-02  0.8821320E-01
        1   -1    0    0  501    0  0.00000000000E+00  0.00000000000E+00  0.96280162322E+03  0.96280162323E+03  0.50400001928E-02 0. -1.
       -1   -1    0    0    0  501  0.00000000000E+00  0.00000000000E+00 -0.66368387682E+03  0.66368387684E+03  0.50400001928E-02 0.  1.
    10030    2    1    2    0    0  0.00000000000E+00  0.00000000000E+00  0.29911774639E+03  0.16264855001E+04  0.15987443998E+04 0.  0.
        5    1    3    3  502    0  0.45983296375E+03  0.67763773859E+02 -0.51206055637E+03  0.69156806389E+03  0.46999998093E+01 0.  1.
       -5    1    3    3    0  502 -0.45983296375E+03 -0.67763773859E+02  0.81117830277E+03  0.93491743618E+03  0.46999998093E+01 0. -1.
</event>
<event>
 5   0  0.1252477E-04  0.2094142E+04  0.7818609E-02  0.8563828E-01
        2   -1    0    0  501    0  0.00000000000E+00  0.00000000000E+00  0.12280579625E+04  0.12280579625E+04  0.25500000920E-02 0.  1.
       -2   -1    0    0    0  501  0.00000000000E+00  0.00000000000E+00 -0.89275693337E+03  0.89275693337E+03  0.25500000920E-02 0. -1.
    10030    2    1    2    0    0  0.00000000000E+00  0.00000000000E+00  0.33530102911E+03  0.21208148959E+04  0.20941416004E+04 0.  0.
        4    1    3    3  502    0 -0.36731447029E+03 -0.44118145081E+03  0.10544721081E+04  0.12006140230E+04  0.12699999809E+01 0.  1.
       -4    1    3    3    0  502  0.36731447029E+03  0.44118145081E+03 -0.71917107898E+03  0.92020087284E+03  0.12699999809E+01 0. -1.
</event>
<event>
 5   0  0.6052292E-05  0.2084184E+04  0.7818609E-02  0.8568243E-01
       -1   -1    0    0    0  501  0.00000000000E+00  0.00000000000E+00  0.69499555219E+03  0.69499555221E+03  0.50400001928E-02 0.  1.
        1   -1    0    0  501    0  0.00000000000E+00  0.00000000000E+00 -0.15625363315E+04  0.15625363315E+04  0.50400001928E-02 0. -1.
    10030    2    1    2    0    0  0.00000000000E+00  0.00000000000E+00 -0.86754077927E+03  0.22575318837E+04  0.20841840615E+04 0.  0.
        1    1    3    3  502    0  0.49442908367E+03 -0.91587695285E+03 -0.48968865345E+03  0.11502546192E+04  0.50400001928E-02 0. -1.
       -1    1    3    3    0  502 -0.49442908367E+03  0.91587695285E+03 -0.37785212582E+03  0.11072772645E+04  0.50400001928E-02 0.  1.
</event>
<event>
 5   0  0.1235817E-04  0.2121225E+04  0.7818609E-02  0.8551951E-01
       -2   -1    0    0    0  501  0.00000000000E+00  0.00000000000E+00  0.76538835593E+03  0.76538835593E+03  0.25500000920E-02 0.  1.
        2   -1    0    0  501    0  0.00000000000E+00  0.00000000000E+00 -0.14697100437E+04  0.14697100437E+04  0.25500000920E-02 0. -1.
    10030    2    1    2    0    0  0.00000000000E+00  0.00000000000E+00 -0.70432168775E+03  0.22350983996E+04  0.21212250744E+04 0.  0.
        1    1    3    3  502    0  0.82827029146E+03  0.15328199423E+03 -0.10312525970E+04  0.13315438274E+04  0.50400001928E-02 0. -1.
       -1    1    3    3    0  502 -0.82827029146E+03 -0.15328199423E+03  0.32693090927E+03  0.90355457219E+03  0.50400001928E-02 0.  1.
</event>
<event>
 5   0  0.6221148E-05  0.2235352E+04  0.7818609E-02  0.8503856E-01
       -1   -1    0    0    0  501  0.00000000000E+00  0.00000000000E+00  0.78721956536E+03  0.78721956537E+03  0.50400001928E-02 0.  1.
        1   -1    0    0  501    0  0.00000000000E+00  0.00000000000E+00 -0.15868500042E+04  0.15868500042E+04  0.50400001928E-02 0. -1.
    10030    2    1    2    0    0  0.00000000000E+00  0.00000000000E+00 -0.79963043888E+03  0.23740695696E+04  0.22353517581E+04 0.  0.
        3    1    3    3  502    0 -0.62907024793E+03  0.46831396361E+03 -0.12455695997E+04  0.14719004665E+04  0.10100000352E+00 0. -1.
       -3    1    3    3    0  502  0.62907024793E+03 -0.46831396361E+03  0.44593916080E+03  0.90216910315E+03  0.10100000352E+00 0.  1.
</event>
<event>
 5   0  0.1349252E-04  0.1900567E+04  0.7818609E-02  0.8654574E-01
       -2   -1    0    0    0  501  0.00000000000E+00  0.00000000000E+00  0.13145639001E+04  0.13145639001E+04  0.25500000920E-02 0.  1.
        2   -1    0    0  501    0  0.00000000000E+00  0.00000000000E+00 -0.68694959956E+03  0.68694959956E+03  0.25500000920E-02 0. -1.
    10030    2    1    2    0    0  0.00000000000E+00  0.00000000000E+00  0.62761430059E+03  0.20015134997E+04  0.19005674361E+04 0.  0.
        2    1    3    3  502    0 -0.72432774726E+03  0.49464628131E+03 -0.71283428450E+02  0.88000395240E+03  0.25500000920E-02 0.  1.
       -2    1    3    3    0  502  0.72432774726E+03 -0.49464628131E+03  0.69889772904E+03  0.11215095473E+04  0.25500000920E-02 0. -1.
</event>
<event>
 5   0  0.6052292E-05  0.2095403E+04  0.7818609E-02  0.8563271E-01
        1   -1    0    0  501    0  0.00000000000E+00  0.00000000000E+00  0.14871539684E+04  0.14871539684E+04  0.50400001928E-02 0.  1.
       -1   -1    0    0    0  501  0.00000000000E+00  0.00000000000E+00 -0.73810690595E+03  0.73810690597E+03  0.50400001928E-02 0. -1.
    10030    2    1    2    0    0  0.00000000000E+00  0.00000000000E+00  0.74904706249E+03  0.22252608744E+04  0.20954031730E+04 0.  0.
        1    1    3    3  502    0 -0.26964707835E+03 -0.90831398534E+03  0.84937468784E+03  0.12724705117E+04  0.50400001928E-02 0. -1.
       -1    1    3    3    0  502  0.26964707835E+03  0.90831398534E+03 -0.10032762535E+03  0.95279036270E+03  0.50400001928E-02 0.  1.
</event>
<event>
 5   0  0.6221148E-05  0.2201962E+04  0.7818609E-02  0.8517612E-01
        1   -1    0    0  501    0  0.00000000000E+00  0.00000000000E+00  0.16111130206E+04  0.16111130206E+04  0.50400001928E-02 0.  1.
       -1   -1    0    0    0  501  0.00000000000E+00  0.00000000000E+00 -0.75237400038E+03  0.75237400040E+03  0.50400001928E-02 0. -1.
    10030    2    1    2    0    0  0.00000000000E+00  0.00000000000E+00  0.85873902020E+03  0.23634870210E+04  0.22019623506E+04 0.  0.
        3    1    3    3  502    0  0.68335589413E+02  0.46726546298E+03  0.14968870488E+04  0.15696106564E+04  0.10100000352E+00 0.  1.
       -3    1    3    3    0  502 -0.68335589413E+02 -0.46726546298E+03 -0.63814802858E+03  0.79387636459E+03  0.10100000352E+00 0. -1.
</event>
<event>
 5   0  0.6052292E-05  0.2161057E+04  0.7818609E-02  0.8534814E-01
       -1   -1    0    0    0  501  0.00000000000E+00  0.00000000000E+00  0.59378245042E+03  0.59378245044E+03  0.50400001928E-02 0.  1.
        1   -1    0    0  501    0  0.00000000000E+00  0.00000000000E+00 -0.19662782682E+04  0.19662782682E+04  0.50400001928E-02 0. -1.
    10030    2    1    2    0    0  0.00000000000E+00  0.00000000000E+00 -0.13724958178E+04  0.25600607186E+04  0.21610567122E+04 0.  0.
        1    1    3    3  502    0 -0.10207087584E+04 -0.17599779900E+03 -0.10508379439E+04  0.14754938085E+04  0.50400001928E-02 0. -1.
       -1    1    3    3    0  502  0.10207087584E+04  0.17599779900E+03 -0.32165787386E+03  0.10845669101E+04  0.50400001928E-02 0.  1.
</event>
<event>
 5   0  0.1325673E-04  0.2083518E+04  0.7818609E-02  0.8568539E-01
       -2   -1    0    0    0  501  0.00000000000E+00  0.00000000000E+00  0.97888162493E+03  0.97888162493E+03  0.25500000920E-02 0. -1.
        2   -1    0    0  501    0  0.00000000000E+00  0.00000000000E+00 -0.11086747542E+04  0.11086747542E+04  0.25500000920E-02 0.  1.
    10030    2    1    2    0    0  0.00000000000E+00  0.00000000000E+00 -0.12979312925E+03  0.20875563791E+04  0.20835175496E+04 0.  0.
        5    1    3    3  502    0  0.33701748349E+03  0.27015357874E+03  0.88492604867E+03  0.98472328189E+03  0.46999998093E+01 0. -1.
       -5    1    3    3    0  502 -0.33701748349E+03 -0.27015357874E+03 -0.10147191779E+04  0.11028330972E+04  0.46999998093E+01 0.  1.
</event>
<event>
 5   0  0.1281470E-04  0.1935941E+04  0.7818609E-02  0.8637170E-01
       -2   -1    0    0    0  501  0.00000000000E+00  0.00000000000E+00  0.40155734822E+03  0.40155734823E+03  0.25500000920E-02 0.  1.
        2   -1    0    0  501    0  0.00000000000E+00  0.00000000000E+00 -0.23333320988E+04  0.23333320988E+04  0.25500000920E-02 0. -1.
    10030    2    1    2    0    0  0.00000000000E+00  0.00000000000E+00 -0.19317747505E+04  0.27348894470E+04  0.19359407533E+04 0.  0.
        3    1    3    3  502    0 -0.64377700002E+03 -0.66239297236E+03 -0.55705164508E+03  0.10786657597E+04  0.10100000352E+00 0.  1.
       -3    1    3    3    0  502  0.64377700002E+03  0.66239297236E+03 -0.13747231055E+04  0.16562236873E+04  0.10100000352E+00 0. -1.
</event>
<event>
 5   0  0.1235817E-04  0.2125621E+04  0.7818609E-02  0.8550040E-01
        2   -1    0    0  501    0  0.00000000000E+00  0.00000000000E+00  0.13448035138E+04  0.13448035138E+04  0.25500000920E-02 0. -1.
       -2   -1    0    0    0  501  0.00000000000E+00  0.00000000000E+00 -0.83994863258E+03  0.83994863258E+03  0.25500000920E-02 0.  1.
    10030    2    1    2    0    0  0.00000000000E+00  0.00000000000E+00  0.50485488117E+03  0.21847521463E+04  0.21256207305E+04 0.  0.
        1    1    3    3  502    0  0.47519450208E+03 -0.58873263936E+03  0.10196165701E+04  0.12696589643E+04  0.50400001928E-02 0. -1.
       -1    1    3    3    0  502 -0.47519450208E+03  0.58873263936E+03 -0.51476168894E+03  0.91509318208E+03  0.50400001928E-02 0.  1.
</event>
<event>
 5   0  0.5933905E-05  0.1577984E+04  0.7818609E-02  0.8834189E-01
       -1   -1    0    0    0  501  0.00000000000E+00  0.00000000000E+00  0.28890974414E+03  0.28890974419E+03  0.50400001928E-02 0. -1.
        1   -1    0    0  501    0  0.00000000000E+00  0.00000000000E+00 -0.21546799164E+04  0.21546799164E+04  0.50400001928E-02 0.  1.
    10030    2    1    2    0    0  0.00000000000E+00  0.00000000000E+00 -0.18657701723E+04  0.24435896606E+04  0.15779835530E+04 0.  0.
        2    1    3    3  502    0 -0.72656809143E+03  0.14345550884E+02 -0.45709631388E+03  0.85851268277E+03  0.25500000920E-02 0. -1.
       -2    1    3    3    0  502  0.72656809143E+03 -0.14345550884E+02 -0.14086738584E+04  0.15850769778E+04  0.25500000920E-02 0.  1.
</event>
<event>
 5   0  0.6052292E-05  0.2096545E+04  0.7818609E-02  0.8562767E-01
       -1   -1    0    0    0  501  0.00000000000E+00  0.00000000000E+00  0.84501174759E+03  0.84501174760E+03  0.50400001928E-02 0. -1.
        1   -1    0    0  501    0  0.00000000000E+00  0.00000000000E+00 -0.13004262997E+04  0.13004262997E+04  0.50400001928E-02 0.  1.
    10030    2    1    2    0    0  0.00000000000E+00  0.00000000000E+00 -0.45541455207E+03  0.21454380473E+04  0.20965452536E+04 0.  0.
        1    1    3    3  502    0  0.76196380148E+03 -0.32900478389E+03  0.42757162226E+03  0.93362223344E+03  0.50400001928E-02 0. -1.
       -1    1    3    3    0  502 -0.76196380148E+03  0.32900478389E+03 -0.88298617432E+03  0.12118158138E+04  0.50400001928E-02 0.  1.
</event>
<event>
 5   0  0.1325673E-04  0.2091629E+04  0.7818609E-02  0.8564940E-01
       -2   -1    0    0    0  501  0.00000000000E+00  0.00000000000E+00  0.14244190967E+04  0.14244190967E+04  0.25500000920E-02 0. -1.
        2   -1    0    0  501    0  0.00000000000E+00  0.00000000000E+00 -0.76784167873E+03  0.76784167874E+03  0.25500000920E-02 0.  1.
    10030    2    1    2    0    0  0.00000000000E+00  0.00000000000E+00  0.65657741796E+03  0.21922607754E+04  0.20916293653E+04 0.  0.
        5    1    3    3  502    0 -0.28748577748E+03  0.31150026716E+03 -0.67375508714E+03  0.79602041188E+03  0.46999998093E+01 0.  1.
       -5    1    3    3    0  502  0.28748577748E+03 -0.31150026716E+03  0.13303325051E+04  0.13962403636E+04  0.46999998093E+01 0. -1.
</event>
<event>
 5   0  0.5846187E-05  0.2113067E+04  0.7818609E-02  0.8555509E-01
       -1   -1    0    0    0  501  0.00000000000E+00  0.00000000000E+00  0.58610370521E+03  0.58610370524E+03  0.50400001928E-02 0.  1.
        1   -1    0    0  501    0  0.00000000000E+00  0.00000000000E+00 -0.19045487133E+04  0.19045487133E+04  0.50400001928E-02 0. -1.
    10030    2    1    2    0    0  0.00000000000E+00  0.00000000000E+00 -0.13184450081E+04  0.24906524185E+04  0.21130670199E+04 0.  0.
        5    1    3    3  502    0 -0.20639937366E+03 -0.88130964514E+03 -0.16934950333E+02  0.90532661212E+03  0.46999998093E+01 0.  1.
       -5    1    3    3    0  502  0.20639937366E+03  0.88130964514E+03 -0.13015100577E+04  0.15853258064E+04  0.46999998093E+01 0. -1.
</event>
<event>
 5   0  0.6263616E-05  0.2071140E+04  0.7818609E-02  0.8574064E-01
       -1   -1    0    0    0  501  0.00000000000E+00  0.00000000000E+00  0.79929051378E+03  0.79929051380E+03  0.50400001928E-02 0. -1.
        1   -1    0    0  501    0  0.00000000000E+00  0.00000000000E+00 -0.13416969364E+04  0.13416969364E+04  0.50400001928E-02 0.  1.
    10030    2    1    2    0    0  0.00000000000E+00  0.00000000000E+00 -0.54240642262E+03  0.21409874502E+04  0.20711403947E+04 0.  0.
        4    1    3    3  502    0 -0.45221124691E+03 -0.86979245364E+03  0.73772787366E+02  0.98309610990E+03  0.12699999809E+01 0. -1.
       -4    1    3    3    0  502  0.45221124691E+03  0.86979245364E+03 -0.61617920998E+03  0.11578913403E+04  0.12699999809E+01 0.  1.
</event>
<event>
 5   0  0.1281470E-04  0.2101440E+04  0.7818609E-02  0.8560609E-01
       -2   -1    0    0    0  501  0.00000000000E+00  0.00000000000E+00  0.12809526492E+04  0.12809526492E+04  0.25500000920E-02 0. -1.
        2   -1    0    0  501    0  0.00000000000E+00  0.00000000000E+00 -0.86186843080E+03  0.86186843080E+03  0.25500000920E-02 0.  1.
    10030    2    1    2    0    0  0.00000000000E+00  0.00000000000E+00  0.41908421838E+03  0.21428210800E+04  0.21014401250E+04 0.  0.
        3    1    3    3  502    0  0.55984644430E+03  0.64328325590E+03 -0.41636195017E+03  0.94899877358E+03  0.10100000352E+00 0.  1.
       -3    1    3    3    0  502 -0.55984644430E+03 -0.64328325590E+03  0.83544616856E+03  0.11938223064E+04  0.10100000352E+00 0. -1.
</event>
<event>
 5   0  0.5846187E-05  0.2061310E+04  0.7818609E-02  0.8578481E-01
       -1   -1    0    0    0  501  0.00000000000E+00  0.00000000000E+00  0.10218601553E+04  0.10218601553E+04  0.50400001928E-02 0. -1.
        1   -1    0    0  501    0  0.00000000000E+00  0.00000000000E+00 -0.10395253578E+04  0.10395253578E+04  0.50400001928E-02 0.  1.
    10030    2    1    2    0    0  0.00000000000E+00  0.00000000000E+00 -0.17665202519E+02  0.20613855132E+04  0.20613098201E+04 0.  0.
        5    1    3    3  502    0  0.14091673548E+03  0.16779554223E+03  0.99828659244E+03  0.10220621708E+04  0.46999998093E+01 0. -1.
       -5    1    3    3    0  502 -0.14091673548E+03 -0.16779554223E+03 -0.10159517950E+04  0.10393233424E+04  0.46999998093E+01 0.  1.
</event>
<event>
 5   0  0.1325673E-04  0.2123482E+04  0.7818609E-02  0.8550969E-01
        2   -1    0    0  501    0  0.00000000000E+00  0.00000000000E+00  0.10123647150E+04  0.10123647150E+04  0.25500000920E-02 0.  1.
       -2   -1    0    0    0  501  0.00000000000E+00  0.00000000000E+00 -0.11135260051E+04  0.11135260051E+04  0.25500000920E-02 0. -1.
    10030    2    1    2    0    0  0.00000000000E+00  0.00000000000E+00 -0.10116129002E+03  0.21258907201E+04  0.21234824575E+04 0.  0.
        5    1    3    3  502    0 -0.43335566466E+03 -0.69924749328E+03 -0.72255581886E+03  0.10949215453E+04  0.46999998093E+01 0. -1.
       -5    1    3    3    0  502  0.43335566466E+03  0.69924749328E+03  0.62139452884E+03  0.10309691748E+04  0.46999998093E+01 0.  1.
</event>
<event>
 5   0  0.1252477E-04  0.2091060E+04  0.7818609E-02  0.8565192E-01
       -2   -1    0    0    0  501  0.00000000000E+00  0.00000000000E+00  0.12594581722E+04  0.12594581722E+04  0.25500000920E-02 0. -1.
        2   -1    0    0  501    0  0.00000000000E+00  0.00000000000E+00 -0.86793912282E+03  0.86793912283E+03  0.25500000920E-02 0.  1.
    10030    2    1    2    0    0  0.00000000000E+00  0.00000000000E+00  0.39151904937E+03  0.21273972950E+04  0.20910600386E+04 0.  0.
        4    1    3    3  502    0  0.32557064059E+03 -0.55194217831E+03 -0.64472909353E+03  0.90901794655E+03  0.12699999809E+01 0.  1.
       -4    1    3    3    0  502 -0.32557064059E+03  0.55194217831E+03  0.10362481429E+04  0.12183793485E+04  0.12699999809E+01 0. -1.
</event>
<event>
 5   0  0.1235817E-04  0.2049704E+04  0.7818609E-02  0.8583729E-01
       -2   -1    0    0    0  501  0.00000000000E+00  0.00000000000E+00  0.77929895248E+03  0.77929895248E+03  0.25500000920E-02 0.  1.
        2   -1    0    0  501    0  0.00000000000E+00  0.00000000000E+00 -0.13477771617E+04  0.13477771617E+04  0.25500000920E-02 0. -1.
    10030    2    1    2    0    0  0.00000000000E+00  0.00000000000E+00 -0.56847820918E+03  0.21270761141E+04  0.20497037154E+04 0.  0.
        1    1    3    3  502    0  0.88640605400E+03 -0.32836976165E+03 -0.69513878224E+03  0.11733543026E+04  0.50400001928E-02 0. -1.
       -1    1    3    3    0  502 -0.88640605400E+03  0.32836976165E+03  0.12666057306E+03  0.95372181150E+03  0.50400001928E-02 0.  1.
</event>
<event>
 5   0  0.1235817E-04  0.2148502E+04  0.7818609E-02  0.8540174E-01
        2   -1    0    0  501    0  0.00000000000E+00  0.00000000000E+00  0.96646517106E+03  0.96646517107E+03  0.25500000920E-02 0. -1.
       -2   -1    0    0    0  501  0.00000000000E+00  0.00000000000E+00 -0.11940582311E+04  0.11940582311E+04  0.25500000920E-02 0.  1.
    10030    2    1    2    0    0  0.00000000000E+00  0.00000000000E+00 -0.22759306005E+03  0.21605234022E+04  0.21485024483E+04 0.  0.
        1    1    3    3  502    0  0.23969635764E+03  0.26474110224E+03 -0.11326154286E+04  0.11875857461E+04  0.50400001928E-02 0.  1.
       -1    1    3    3    0  502 -0.23969635764E+03 -0.26474110224E+03  0.90502236856E+03  0.97293765613E+03  0.50400001928E-02 0. -1.
</event>
<event>
 5   0  0.5933905E-05  0.2325315E+04  0.7818609E-02  0.8468006E-01
       -1   -1    0    0    0  501  0.00000000000E+00  0.00000000000E+00  0.23158403207E+04  0.23158403207E+04  0.50400001928E-02 0.  1.
        1   -1    0    0  501    0  0.00000000000E+00  0.00000000000E+00 -0.58370698046E+03  0.58370698048E+03  0.50400001928E-02 0. -1.
    10030    2    1    2    0    0  0.00000000000E+00  0.00000000000E+00  0.17321333402E+04  0.28995473012E+04  0.23253147407E+04 0.  0.
        2    1    3    3  502    0  0.85664557334E+03 -0.18889150832E+03 -0.85421506370E+02  0.88137306176E+03  0.25500000920E-02 0. -1.
       -2    1    3    3    0  502 -0.85664557334E+03  0.18889150832E+03  0.18175548466E+04  0.20181742394E+04  0.25500000920E-02 0.  1.
</event>
<event>
 5   0  0.1235817E-04  0.2084315E+04  0.7818609E-02  0.8568184E-01
       -2   -1    0    0    0  501  0.00000000000E+00  0.00000000000E+00  0.79200587480E+03  0.79200587480E+03  0.25500000920E-02 0.  1.
        2   -1    0    0  501    0  0.00000000000E+00  0.00000000000E+00 -0.13713181317E+04  0.13713181317E+04  0.25500000920E-02 0. -1.
    10030    2    1    2    0    0  0.00000000000E+00  0.00000000000E+00 -0.57931225694E+03  0.21633240065E+04  0.20843147714E+04 0.  0.
        1    1    3    3  502    0  0.75727601035E+03 -0.71271928471E+03 -0.21883254522E+03  0.10626962960E+04  0.50400001928E-02 0. -1.
       -1    1    3    3    0  502 -0.75727601035E+03  0.71271928471E+03 -0.36047971172E+03  0.11006277106E+04  0.50400001928E-02 0.  1.
</event>
<event>
 5   0  0.5846187E-05  0.2099549E+04  0.7818609E-02  0.8561442E-01
       -1   -1    0    0    0  501  0.00000000000E+00  0.00000000000E+00  0.60805294482E+03  0.60805294484E+03  0.50400001928E-02 0.  1.
        1   -1    0    0  501    0  0.00000000000E+00  0.00000000000E+00 -0.18123854086E+04  0.18123854086E+04  0.50400001928E-02 0. -1.
    10030    2    1    2    0    0  0.00000000000E+00  0.00000000000E+00 -0.12043324637E+04  0.24204383534E+04  0.20995487942E+04 0.  0.
        5    1    3    3  502    0  0.26423686111E+03  0.68825552932E+03  0.25937237660E+03  0.78154520800E+03  0.46999998093E+01 0.  1.
       -5    1    3    3    0  502 -0.26423686111E+03 -0.68825552932E+03 -0.14637048403E+04  0.16388931454E+04  0.46999998093E+01 0. -1.
</event>
<event>
 5   0  0.6221148E-05  0.2088730E+04  0.7818609E-02  0.8566224E-01
       -1   -1    0    0    0  501  0.00000000000E+00  0.00000000000E+00  0.80710211527E+03  0.80710211528E+03  0.50400001928E-02 0. -1.
        1   -1    0    0  501    0  0.00000000000E+00  0.00000000000E+00 -0.13513753136E+04  0.13513753136E+04  0.50400001928E-02 0.  1.
    10030    2    1    2    0    0  0.00000000000E+00  0.00000000000E+00 -0.54427319830E+03  0.21584774289E+04  0.20887296370E+04 0.  0.
        3    1    3    3  502    0  0.14105243679E+03 -0.85177250614E+03 -0.87936847483E+03  0.12323559213E+04  0.10100000352E+00 0.  1.
       -3    1    3    3    0  502 -0.14105243679E+03  0.85177250614E+03  0.33509527653E+03  0.92612150752E+03  0.10100000352E+00 0. -1.
</event>
<event>
 5   0  0.1252477E-04  0.2079747E+04  0.7818609E-02  0.8570218E-01
       -2   -1    0    0    0  501  0.00000000000E+00  0.00000000000E+00  0.68707224331E+03  0.68707224332E+03  0.25500000920E-02 0.  1.
        2   -1    0    0  501    0  0.00000000000E+00  0.00000000000E+00 -0.15738329143E+04  0.15738329143E+04  0.25500000920E-02 0. -1.
    10030    2    1    2    0    0  0.00000000000E+00  0.00000000000E+00 -0.88676067095E+03  0.22609051576E+04  0.20797470144E+04 0.  0.
        4    1    3    3  502    0  0.70565711431E+03 -0.83014728686E+02  0.38202721266E+03  0.80671544690E+03  0.12699999809E+01 0.  1.
       -4    1    3    3    0  502 -0.70565711431E+03  0.83014728686E+02 -0.12687878836E+04  0.14541897107E+04  0.12699999809E+01 0. -1.
</event>
<event>
 5   0  0.6263616E-05  0.2120978E+04  0.7818609E-02  0.8552058E-01
        1   -1    0    0  501    0  0.00000000000E+00  0.00000000000E+00  0.45891282905E+03  0.45891282908E+03  0.50400001928E-02 0.  1.
       -1   -1    0    0    0  501  0.00000000000E+00  0.00000000000E+00 -0.24506556217E+04  0.24506556217E+04  0.50400001928E-02 0. -1.
    10030    2    1    2    0    0  0.00000000000E+00  0.00000000000E+00 -0.19917427926E+04  0.29095684507E+04  0.21209783633E+04 0.  0.
        4    1    3    3  502    0  0.93289314475E+03 -0.48718747815E+03 -0.81703921168E+03  0.13323647942E+04  0.12699999809E+01 0. -1.
       -4    1    3    3    0  502 -0.93289314475E+03  0.48718747815E+03 -0.11747035809E+04  0.15772036566E+04  0.12699999809E+01 0.  1.
</event>
<event>
 5   0  0.1281470E-04  0.2141887E+04  0.7818609E-02  0.8543013E-01
       -2   -1    0    0    0  501  0.00000000000E+00  0.00000000000E+00  0.51034487221E+03  0.51034487221E+03  0.25500000920E-02 0. -1.
        2   -1    0    0  501    0  0.00000000000E+00  0.00000000000E+00 -0.22473439609E+04  0.22473439609E+04  0.25500000920E-02 0.  1.
    10030    2    1    2    0    0  0.00000000000E+00  0.00000000000E+00 -0.17369990887E+04  0.27576888332E+04  0.21418874542E+04 0.  0.
        3    1    3    3  502    0  0.80851984754E+03 -0.30806700226E+03 -0.55931622479E+02  0.86702824541E+03  0.10100000352E+00 0. -1.
       -3    1    3    3    0  502 -0.80851984754E+03  0.30806700226E+03 -0.16810674663E+04  0.18906605877E+04  0.10100000352E+00 0.  1.
</event>
<event>
 5   0  0.1281470E-04  0.2102910E+04  0.7818609E-02  0.8559963E-01
        2   -1    0    0  501    0  0.00000000000E+00  0.00000000000E+00  0.19658563039E+04  0.19658563039E+04  0.25500000920E-02 0. -1.
       -2   -1    0    0    0  501  0.00000000000E+00  0.00000000000E+00 -0.56237968852E+03  0.56237968853E+03  0.25500000920E-02 0.  1.
    10030    2    1    2    0    0  0.00000000000E+00  0.00000000000E+00  0.14034766154E+04  0.25282359925E+04  0.21029100370E+04 0.  0.
        3    1    3    3  502    0 -0.73734940670E+03 -0.16595189520E+03 -0.17708811088E+03  0.77626309219E+03  0.10100000352E+00 0.  1.
       -3    1    3    3    0  502  0.73734940670E+03  0.16595189520E+03  0.15805647263E+04  0.17519729003E+04  0.10100000352E+00 0. -1.
</event>
<event>
 5   0  0.1281470E-04  0.2108296E+04  0.7818609E-02  0.8557598E-01
       -2   -1    0    0    0  501  0.00000000000E+00  0.00000000000E+00  0.10267591640E+04  0.10267591640E+04  0.25500000920E-02 0. -1.
        2   -1    0    0  501    0  0.00000000000E+00  0.00000000000E+00 -0.10822677784E+04  0.10822677784E+04  0.25500000920E-02 0.  1.
    10030    2    1    2    0    0  0.00000000000E+00  0.00000000000E+00 -0.55508614435E+02  0.21090269424E+04  0.21082963353E+04 0.  0.
        3    1    3    3  502    0 -0.65572790146E+03 -0.43924228479E+03 -0.72679220544E+03  0.10729118256E+04  0.10100000352E+00 0.  1.
       -3    1    3    3    0  502  0.65572790146E+03  0.43924228479E+03  0.67128359100E+03  0.10361151168E+04  0.10100000352E+00 0. -1.
</event>
<event>
 5   0  0.5933905E-05  0.2113199E+04  0.7818609E-02  0.8555452E-01
        1   -1    0    0  501    0  0.00000000000E+00  0.00000000000E+00  0.79496807864E+03  0.79496807865E+03  0.50400001928E-02 0. -1.
       -1   -1    0    0    0  501  0.00000000000E+00  0.00000000000E+00 -0.14043356233E+04  0.14043356233E+04  0.50400001928E-02 0.  1.
    10030    2    1    2    0    0  0.00000000000E+00  0.00000000000E+00 -0.60936754465E+03  0.21993037019E+04  0.21131985162E+04 0.  0.
        2    1    3    3  502    0  0.96377280065E+03  0.41978857500E+03 -0.19394555413E+03  0.10689692872E+04  0.25500000920E-02 0.  1.
       -2    1    3    3    0  502 -0.96377280065E+03 -0.41978857500E+03 -0.41542199052E+03  0.11303344148E+04  0.25500000920E-02 0. -1.
</event>
<event>
 5   0  0.1325673E-04  0.2099231E+04  0.7818609E-02  0.8561582E-01
       -2   -1    0    0    0  501  0.00000000000E+00  0.00000000000E+00  0.93947106505E+03  0.93947106505E+03  0.25500000920E-02 0. -1.
        2   -1    0    0  501    0  0.00000000000E+00  0.00000000000E+00 -0.11726738870E+04  0.11726738870E+04  0.25500000920E-02 0.  1.
    10030    2    1    2    0    0  0.00000000000E+00  0.00000000000E+00 -0.23320282196E+03  0.21121449521E+04  0.20992314647E+04 0.  0.
        5    1    3    3  502    0  0.66524012330E+03  0.74838648288E+02  0.69678100214E+03  0.96626657805E+03  0.46999998093E+01 0. -1.
       -5    1    3    3    0  502 -0.66524012330E+03 -0.74838648288E+02 -0.92998382409E+03  0.11458783740E+04  0.46999998093E+01 0.  1.
</event>
<event>
 5   0  0.1325673E-04  0.2063648E+04  0.7818609E-02  0.8577428E-01
       -2   -1    0    0    0  501  0.00000000000E+00  0.00000000000E+00  0.42416682457E+03  0.42416682458E+03  0.25500000920E-02 0. -1.
        2   -1    0    0  501    0  0.00000000000E+00  0.00000000000E+00 -0.25100059660E+04  0.25100059660E+04  0.25500000920E-02 0.  1.
    10030    2    1    2    0    0  0.00000000000E+00  0.00000000000E+00 -0.20858391414E+04  0.29341727906E+04  0.20636484781E+04 0.  0.
        5    1    3    3  502    0 -0.66468904602E+02  0.39597441668E+03 -0.23943574643E+04  0.24277939803E+04  0.46999998093E+01 0.  1.
       -5    1    3    3    0  502  0.66468904602E+02 -0.39597441668E+03  0.30851832288E+03  0.50637881027E+03  0.46999998093E+01 0. -1.
</event>
<event>
 5   0  0.1252477E-04  0.2095595E+04  0.7818609E-02  0.8563186E-01
        2   -1    0    0  501    0  0.00000000000E+00  0.00000000000E+00  0.10657158495E+04  0.10657158495E+04  0.25500000920E-02 0. -1.
       -2   -1    0    0    0  501  0.00000000000E+00  0.00000000000E+00 -0.10301805708E+04  0.10301805708E+04  0.25500000920E-02 0.  1.
    10030    2    1    2    0    0  0.00000000000E+00  0.00000000000E+00  0.35535278739E+02  0.20958964203E+04  0.20955951537E+04 0.  0.
        4    1    3    3  502    0  0.99931983838E+03  0.28539265386E+03 -0.11562710596E+03  0.10456865433E+04  0.12699999809E+01 0. -1.
       -4    1    3    3    0  502 -0.99931983838E+03 -0.28539265386E+03  0.15116238470E+03  0.10502098770E+04  0.12699999809E+01 0.  1.
</event>
<event>
 5   0  0.1252477E-04  0.2126897E+04  0.7818609E-02  0.8549487E-01
        2   -1    0    0  501    0  0.00000000000E+00  0.00000000000E+00  0.15557974710E+04  0.15557974710E+04  0.25500000920E-02 0.  1.
       -2   -1    0    0    0  501  0.00000000000E+00  0.00000000000E+00 -0.72690893523E+03  0.72690893523E+03  0.25500000920E-02 0. -1.
    10030    2    1    2    0    0  0.00000000000E+00  0.00000000000E+00  0.82888853579E+03  0.22827064062E+04  0.21268973488E+04 0.  0.
        4    1    3    3  502    0  0.75321297397E+03 -0.73470652312E+03  0.58001129755E+03  0.12014733361E+04  0.12699999809E+01 0.  1.
       -4    1    3    3    0  502 -0.75321297397E+03  0.73470652312E+03  0.24887723823E+03  0.10812330701E+04  0.12699999809E+01 0. -1.
</event>
<event>
 5   0  0.5933905E-05  0.2182993E+04  0.7818609E-02  0.8525540E-01
        1   -1    0    0  501    0  0.00000000000E+00  0.00000000000E+00  0.96823924341E+03  0.96823924342E+03  0.50400001928E-02 0.  1.
       -1   -1    0    0    0  501  0.00000000000E+00  0.00000000000E+00 -0.12304449307E+04  0.12304449308E+04  0.50400001928E-02 0. -1.
    10030    2    1    2    0    0  0.00000000000E+00  0.00000000000E+00 -0.26220568734E+03  0.21986841742E+04  0.21829934208E+04 0.  0.
        2    1    3    3  502    0 -0.19661704413E+01  0.78265312770E+03  0.63516467935E+03  0.10079602939E+04  0.25500000920E-02 0.  1.
       -2    1    3    3    0  502  0.19661704413E+01 -0.78265312770E+03 -0.89737036668E+03  0.11907238803E+04  0.25500000920E-02 0. -1.
</event>
<event>
 5   0  0.1281470E-04  0.2016972E+04  0.7818609E-02  0.8598727E-01
        2   -1    0    0  501    0  0.00000000000E+00  0.00000000000E+00  0.77450790577E+03  0.77450790578E+03  0.25500000920E-02 0. -1.
       -2   -1    0    0    0  501  0.00000000000E+00  0.00000000000E+00 -0.13131488230E+04  0.13131488230E+04  0.25500000920E-02 0.  1.
    10030    2    1    2    0    0  0.00000000000E+00  0.00000000000E+00 -0.53864091725E+03  0.20876567288E+04  0.20169721316E+04 0.  0.
        3    1    3    3  502    0 -0.87283129641E+03  0.34665705143E+03 -0.64967453687E+03  0.11419643591E+04  0.10100000352E+00 0.  1.
       -3    1    3    3    0  502  0.87283129641E+03 -0.34665705143E+03  0.11103361962E+03  0.94569236974E+03  0.10100000352E+00 0. -1.
</event>
<event>
 5   0  0.6263616E-05  0.2084030E+04  0.7818609E-02  0.8568311E-01
        1   -1    0    0  501    0  0.00000000000E+00  0.00000000000E+00  0.99883402146E+03  0.99883402147E+03  0.50400001928E-02 0. -1.
       -1   -1    0    0    0  501  0.00000000000E+00  0.00000000000E+00 -0.10870628216E+04  0.10870628216E+04  0.50400001928E-02 0.  1.
    10030    2    1    2    0    0  0.00000000000E+00  0.00000000000E+00 -0.88228800110E+02  0.20858968430E+04  0.20840300666E+04 0.  0.
        4    1    3    3  502    0 -0.19443931801E+03  0.10035995523E+04 -0.24622350020E+03  0.10514971872E+04  0.12699999809E+01 0.  1.
       -4    1    3    3    0  502  0.19443931801E+03 -0.10035995523E+04  0.15799470008E+03  0.10343996558E+04  0.12699999809E+01 0. -1.
</event>
<event>
 5   0  0.1235817E-04  0.2211493E+04  0.7818609E-02  0.8513659E-01
       -2   -1    0    0    0  501  0.00000000000E+00  0.00000000000E+00  0.54987768052E+03  0.54987768053E+03  0.25500000920E-02 0.  1.
        2   -1    0    0  501    0  0.00000000000E+00  0.00000000000E+00 -0.22235414758E+04  0.22235414758E+04  0.25500000920E-02 0. -1.
    10030    2    1    2    0    0  0.00000000000E+00  0.00000000000E+00 -0.16736637953E+04  0.27734191563E+04  0.22114934585E+04 0.  0.
        1    1    3    3  502    0  0.79499348243E+03 -0.46694318799E+03 -0.71295237936E+02  0.92473433422E+03  0.50400001928E-02 0.  1.
       -1    1    3    3    0  502 -0.79499348243E+03  0.46694318799E+03 -0.16023685574E+04  0.18486848221E+04  0.50400001928E-02 0. -1.
</event>
<event>
 5   0  0.1349252E-04  0.2076610E+04  0.7818609E-02  0.8571617E-01
        2   -1    0    0  501    0  0.00000000000E+00  0.00000000000E+00  0.14951311387E+04  0.14951311387E+04  0.25500000920E-02 0. -1.
       -2   -1    0    0    0  501  0.00000000000E+00  0.00000000000E+00 -0.72105856737E+03  0.72105856738E+03  0.25500000920E-02 0.  1.
    10030    2    1    2    0    0  0.00000000000E+00  0.00000000000E+00  0.77407257136E+03  0.22161897061E+04  0.20766098497E+04 0.  0.
        2    1    3    3  502    0  0.41113452865E+03 -0.28933703391E+03 -0.58250371916E+03  0.76945311922E+03  0.25500000920E-02 0.  1.
       -2    1    3    3    0  502 -0.41113452865E+03  0.28933703391E+03  0.13565762905E+04  0.14467365869E+04  0.25500000920E-02 0. -1.
</event>
<event>
 5   0  0.6263616E-05  0.2063910E+04  0.7818609E-02  0.8577310E-01
       -1   -1    0    0    0  501  0.00000000000E+00  0.00000000000E+00  0.85454455683E+03  0.85454455684E+03  0.50400001928E-02 0. -1.
        1   -1    0    0  501    0  0.00000000000E+00  0.00000000000E+00 -0.12461976424E+04  0.12461976424E+04  0.50400001928E-02 0.  1.
    10030    2    1    2    0    0  0.00000000000E+00  0.00000000000E+00 -0.39165308554E+03  0.21007421992E+04  0.20639102810E+04 0.  0.
        4    1    3    3  502    0  0.56264013720E+03  0.18514857531E+03  0.66428973736E+03  0.89001482402E+03  0.12699999809E+01 0. -1.
       -4    1    3    3    0  502 -0.56264013720E+03 -0.18514857531E+03 -0.10559428229E+04  0.12107273752E+04  0.12699999809E+01 0.  1.
</event>
<event>
 5   0  0.5933905E-05  0.2071558E+04  0.7818609E-02  0.8573877E-01
       -1   -1    0    0    0  501  0.00000000000E+00  0.00000000000E+00  0.61991014966E+03  0.61991014968E+03  0.50400001928E-02 0. -1.
        1   -1    0    0  501    0  0.00000000000E+00  0.00000000000E+00 -0.17306341128E+04  0.17306341128E+04  0.50400001928E-02 0.  1.
    10030    2    1    2    0    0  0.00000000000E+00  0.00000000000E+00 -0.11107239632E+04  0.23505442625E+04  0.20715575318E+04 0.  0.
        2    1    3    3  502    0  0.10103607859E+04 -0.14522629243E+03 -0.75487789424E+03  0.12695511920E+04  0.25500000920E-02 0.  1.
       -2    1    3    3    0  502 -0.10103607859E+04  0.14522629243E+03 -0.35584606892E+03  0.10809930705E+04  0.25500000920E-02 0. -1.
</event>
<event>
 5   0  0.1252477E-04  0.2165646E+04  0.7818609E-02  0.8532865E-01
       -2   -1    0    0    0  501  0.00000000000E+00  0.00000000000E+00  0.74283785912E+03  0.74283785912E+03  0.25500000920E-02 0. -1.
        2   -1    0    0  501    0  0.00000000000E+00  0.00000000000E+00 -0.15784132720E+04  0.15784132720E+04  0.25500000920E-02 0.  1.
    10030    2    1    2    0    0  0.00000000000E+00  0.00000000000E+00 -0.83557541289E+03  0.23212511311E+04  0.21656455257E+04 0.  0.
        4    1    3    3  502    0 -0.12797657605E+03 -0.91083255751E+03  0.19467932229E+03  0.94015722263E+03  0.12699999809E+01 0. -1.
       -4    1    3    3    0  502  0.12797657605E+03  0.91083255751E+03 -0.10302547352E+04  0.13810939085E+04  0.12699999809E+01 0.  1.
</event>
<event>
 5   0  0.1252477E-04  0.2073226E+04  0.7818609E-02  0.8573130E-01
        2   -1    0    0  501    0  0.00000000000E+00  0.00000000000E+00  0.13705244918E+04  0.13705244918E+04  0.25500000920E-02 0. -1.
       -2   -1    0    0    0  501  0.00000000000E+00  0.00000000000E+00 -0.78405473675E+03  0.78405473675E+03  0.25500000920E-02 0.  1.
    10030    2    1    2    0    0  0.00000000000E+00  0.00000000000E+00  0.58646975508E+03  0.21545792286E+04  0.20732257182E+04 0.  0.
        4    1    3    3  502    0  0.15375754918E+03  0.64563033537E+03  0.11207758697E+04  0.13025436948E+04  0.12699999809E+01 0. -1.
       -4    1    3    3    0  502 -0.15375754918E+03 -0.64563033537E+03 -0.53430611458E+03  0.85203553380E+03  0.12699999809E+01 0.  1.
</event>
<event>
 5   0  0.6263616E-05  0.2109094E+04  0.7818609E-02  0.8557248E-01
       -1   -1    0    0    0  501  0.00000000000E+00  0.00000000000E+00  0.13760671916E+04  0.13760671916E+04  0.50400001928E-02 0. -1.
        1   -1    0    0  501    0  0.00000000000E+00  0.00000000000E+00 -0.80815027531E+03  0.80815027532E+03  0.50400001928E-02 0.  1.
    10030    2    1    2    0    0  0.00000000000E+00  0.00000000000E+00  0.56791691633E+03  0.21842174670E+04  0.21090937199E+04 0.  0.
        4    1    3    3  502    0  0.17362162687E+03 -0.12132539634E+03 -0.78589315448E+03  0.81393733436E+03  0.12699999809E+01 0.  1.
       -4    1    3    3    0  502 -0.17362162687E+03  0.12132539634E+03  0.13538100708E+04  0.13702801326E+04  0.12699999809E+01 0. -1.
</event>
<event>
 5   0  0.5933905E-05  0.2092667E+04  0.7818609E-02  0.8564480E-01
       -1   -1    0    0    0  501  0.00000000000E+00  0.00000000000E+00  0.73219531482E+03  0.73219531484E+03  0.50400001928E-02 0.  1.
        1   -1    0    0  501    0  0.00000000000E+00  0.00000000000E+00 -0.14952483444E+04  0.14952483444E+04  0.50400001928E-02 0. -1.
    10030    2    1    2    0    0  0.00000000000E+00  0.00000000000E+00 -0.76305302958E+03  0.22274436593E+04  0.20926670374E+04 0.  0.
        2    1    3    3  502    0  0.39022877827E+03  0.95967696174E+03 -0.22525304241E+03  0.10601873907E+04  0.25500000920E-02 0. -1.
       -2    1    3    3    0  502 -0.39022877827E+03 -0.95967696174E+03 -0.53779998717E+03  0.11672562686E+04  0.25500000920E-02 0.  1.
</event>
<event>
 5   0  0.1325673E-04  0.2106004E+04  0.7818609E-02  0.8558603E-01
        2   -1    0    0  501    0  0.00000000000E+00  0.00000000000E+00  0.14123565645E+04  0.14123565645E+04  0.25500000920E-02 0. -1.
       -2   -1    0    0    0  501  0.00000000000E+00  0.00000000000E+00 -0.78508013499E+03  0.78508013499E+03  0.25500000920E-02 0.  1.
    10030    2    1    2    0    0  0.00000000000E+00  0.00000000000E+00  0.62727642954E+03  0.21974366995E+04  0.21060038769E+04 0.  0.
        5    1    3    3  502    0 -0.98707605257E+03 -0.30753584902E+03  0.52204344098E+03  0.11582093404E+04  0.46999998093E+01 0.  1.
       -5    1    3    3    0  502  0.98707605257E+03  0.30753584902E+03  0.10523298856E+03  0.10392273591E+04  0.46999998093E+01 0. -1.
</event>
<event>
 5   0  0.1325673E-04  0.2101336E+04  0.7818609E-02  0.8560655E-01
        2   -1    0    0  501    0  0.00000000000E+00  0.00000000000E+00  0.15126462021E+04  0.15126462021E+04  0.25500000920E-02 0. -1.
       -2   -1    0    0    0  501  0.00000000000E+00  0.00000000000E+00 -0.72978298774E+03  0.72978298775E+03  0.25500000920E-02 0.  1.
    10030    2    1    2    0    0  0.00000000000E+00  0.00000000000E+00  0.78286321431E+03  0.22424291898E+04  0.21013362080E+04 0.  0.
        5    1    3    3  502    0 -0.44088571649E+03 -0.92287590169E+03  0.13486996093E+03  0.10316453564E+04  0.46999998093E+01 0.  1.
       -5    1    3    3    0  502  0.44088571649E+03  0.92287590169E+03  0.64799325338E+03  0.12107838335E+04  0.46999998093E+01 0. -1.
</event>
<event>
 5   0  0.5846187E-05  0.2620145E+04  0.7818609E-02  0.8361391E-01
        1   -1    0    0  501    0  0.00000000000E+00  0.00000000000E+00  0.11334765741E+04  0.11334765741E+04  0.50400001928E-02 0.  1.
       -1   -1    0    0    0  501  0.00000000000E+00  0.00000000000E+00 -0.15141815505E+04  0.15141815505E+04  0.50400001928E-02 0. -1.
    10030    2    1    2    0    0  0.00000000000E+00  0.00000000000E+00 -0.38070497641E+03  0.26476581245E+04  0.26201445123E+04 0.  0.
        5    1    3    3  502    0  0.62476218642E+02  0.94305315522E+03  0.72637542709E+03  0.11920133735E+04  0.46999998093E+01 0.  1.
       -5    1    3    3    0  502 -0.62476218642E+02 -0.94305315522E+03 -0.11070804035E+04  0.14556447511E+04  0.46999998093E+01 0. -1.
</event>
<event>
 5   0  0.1349252E-04  0.2097950E+04  0.7818609E-02  0.8562147E-01
        2   -1    0    0  501    0  0.00000000000E+00  0.00000000000E+00  0.87180064530E+03  0.87180064531E+03  0.25500000920E-02 0. -1.
       -2   -1    0    0    0  501  0.00000000000E+00  0.00000000000E+00 -0.12621560017E+04  0.12621560017E+04  0.25500000920E-02 0.  1.
    10030    2    1    2    0    0  0.00000000000E+00  0.00000000000E+00 -0.39035535642E+03  0.21339566470E+04  0.20979498724E+04 0.  0.
        2    1    3    3  502    0  0.67847936112E+03 -0.22610272675E+03 -0.97574113059E+03  0.12097633820E+04  0.25500000920E-02 0.  1.
       -2    1    3    3    0  502 -0.67847936112E+03  0.22610272675E+03  0.58538577417E+03  0.92419326502E+03  0.25500000920E-02 0. -1.
</event>
<event>
 5   0  0.6263616E-05  0.2090557E+04  0.7818609E-02  0.8565414E-01
       -1   -1    0    0    0  501  0.00000000000E+00  0.00000000000E+00  0.70618495821E+03  0.70618495822E+03  0.50400001928E-02 0.  1.
        1   -1    0    0  501    0  0.00000000000E+00  0.00000000000E+00 -0.15471974365E+04  0.15471974366E+04  0.50400001928E-02 0. -1.
    10030    2    1    2    0    0  0.00000000000E+00  0.00000000000E+00 -0.84101247834E+03  0.22533823948E+04  0.20905573966E+04 0.  0.
        4    1    3    3  502    0  0.38818707201E+03  0.32578610451E+03 -0.14059204677E+04  0.14944697265E+04  0.12699999809E+01 0. -1.
       -4    1    3    3    0  502 -0.38818707201E+03 -0.32578610451E+03  0.56490798940E+03  0.75891266833E+03  0.12699999809E+01 0.  1.
</event>
<event>
 5   0  0.1281470E-04  0.2106342E+04  0.7818609E-02  0.8558455E-01
        2   -1    0    0  501    0  0.00000000000E+00  0.00000000000E+00  0.14886782630E+04  0.14886782630E+04  0.25500000920E-02 0.  1.
       -2   -1    0    0    0  501  0.00000000000E+00  0.00000000000E+00 -0.74506973398E+03  0.74506973399E+03  0.25500000920E-02 0. -1.
    10030    2    1    2    0    0  0.00000000000E+00  0.00000000000E+00  0.74360852905E+03  0.22337479970E+04  0.21063419641E+04 0.  0.
        3    1    3    3  502    0 -0.54352108261E+03  0.86947860565E+03  0.11693219211E+03  0.10320277906E+04  0.10100000352E+00 0. -1.
       -3    1    3    3    0  502  0.54352108261E+03 -0.86947860565E+03  0.62667633694E+03  0.12017202064E+04  0.10100000352E+00 0.  1.
</event>
<event>
 5   0  0.1325673E-04  0.2212885E+04  0.7818609E-02  0.8513084E-01
        2   -1    0    0  501    0  0.00000000000E+00  0.00000000000E+00  0.21723398720E+04  0.21723398720E+04  0.25500000920E-02 0. -1.
       -2   -1    0    0    0  501  0.00000000000E+00  0.00000000000E+00 -0.56354666339E+03  0.56354666339E+03  0.25500000920E-02 0.  1.
    10030    2    1    2    0    0  0.00000000000E+00  0.00000000000E+00  0.16087932086E+04  0.27358865353E+04  0.22128848923E+04 0.  0.
        5    1    3    3  502    0 -0.10033775725E+04 -0.38051543762E+03  0.11376004249E+04  0.15638783098E+04  0.46999998093E+01 0.  1.
       -5    1    3    3    0  502  0.10033775725E+04  0.38051543762E+03  0.47119278369E+03  0.11720082255E+04  0.46999998093E+01 0. -1.
</event>
<event>
 5   0  0.1349252E-04  0.2249415E+04  0.7818609E-02  0.8498138E-01
       -2   -1    0    0    0  501  0.00000000000E+00  0.00000000000E+00  0.69709905261E+03  0.69709905261E+03  0.25500000920E-02 0. -1.
        2   -1    0    0  501    0  0.00000000000E+00  0.00000000000E+00 -0.18146154185E+04  0.18146154185E+04  0.25500000920E-02 0.  1.
    10030    2    1    2    0    0  0.00000000000E+00  0.00000000000E+00 -0.11175163659E+04  0.25117144711E+04  0.22494147586E+04 0.  0.
        2    1    3    3  502    0  0.91945252335E+03  0.10079310470E+03  0.15570908226E+03  0.93797521873E+03  0.25500000920E-02 0. -1.
       -2    1    3    3    0  502 -0.91945252335E+03 -0.10079310470E+03 -0.12732254481E+04  0.15737392524E+04  0.25500000920E-02 0.  1.
</event>
<event>
 5   0  0.6221148E-05  0.1962016E+04  0.7818609E-02  0.8624588E-01
        1   -1    0    0  501    0  0.00000000000E+00  0.00000000000E+00  0.16036318719E+04  0.16036318719E+04  0.50400001928E-02 0.  1.
       -1   -1    0    0    0  501  0.00000000000E+00  0.00000000000E+00 -0.60012321778E+03  0.60012321780E+03  0.50400001928E-02 0. -1.
    10030    2    1    2    0    0  0.00000000000E+00  0.00000000000E+00  0.10035086541E+04  0.22037550897E+04  0.19620160235E+04 0.  0.
        3    1    3    3  502    0  0.23619443848E+03  0.93462775122E+03  0.70598045438E+03  0.11948745785E+04  0.10100000352E+00 0. -1.
       -3    1    3    3    0  502 -0.23619443848E+03 -0.93462775122E+03  0.29752819974E+03  0.10088805112E+04  0.10100000352E+00 0.  1.
</event>
<event>
 5   0  0.1349252E-04  0.2081634E+04  0.7818609E-02  0.8569377E-01
        2   -1    0    0  501    0  0.00000000000E+00  0.00000000000E+00  0.12450363063E+04  0.12450363063E+04  0.25500000920E-02 0. -1.
       -2   -1    0    0    0  501  0.00000000000E+00  0.00000000000E+00 -0.87009478035E+03  0.87009478035E+03  0.25500000920E-02 0.  1.
    10030    2    1    2    0    0  0.00000000000E+00  0.00000000000E+00  0.37494152600E+03  0.21151310867E+04  0.20816335811E+04 0.  0.
        2    1    3    3  502    0 -0.95380393769E+03 -0.33852915971E+03  0.43418585190E+03  0.11012998218E+04  0.25500000920E-02 0. -1.
       -2    1    3    3    0  502  0.95380393769E+03  0.33852915971E+03 -0.59244325904E+02  0.10138312649E+04  0.25500000920E-02 0.  1.
</event>
<event>
 5   0  0.5846187E-05  0.1959598E+04  0.7818609E-02  0.8625746E-01
        1   -1    0    0  501    0  0.00000000000E+00  0.00000000000E+00  0.83640775362E+03  0.83640775364E+03  0.50400001928E-02 0.  1.
       -1   -1    0    0    0  501  0.00000000000E+00  0.00000000000E+00 -0.11477725995E+04  0.11477725995E+04  0.50400001928E-02 0. -1.
    10030    2    1    2    0    0  0.00000000000E+00  0.00000000000E+00 -0.31136484587E+03  0.19841803531E+04  0.19595978175E+04 0.  0.
        5    1    3    3  502    0  0.70308055677E+03 -0.31024113969E+01  0.53526483193E+03  0.88366420351E+03  0.46999998093E+01 0.  1.
       -5    1    3    3    0  502 -0.70308055677E+03  0.31024113969E+01 -0.84662967779E+03  0.11005161496E+04  0.46999998093E+01 0. -1.
</event>
<event>
 5   0  0.6263616E-05  0.2088755E+04  0.7818609E-02  0.8566213E-01
       -1   -1    0    0    0  501  0.00000000000E+00  0.00000000000E+00  0.47811939813E+03  0.47811939815E+03  0.50400001928E-02 0.  1.
        1   -1    0    0  501    0  0.00000000000E+00  0.00000000000E+00 -0.22812810784E+04  0.22812810784E+04  0.50400001928E-02 0. -1.
    10030    2    1    2    0    0  0.00000000000E+00  0.00000000000E+00 -0.18031616802E+04  0.27594004765E+04  0.20887553578E+04 0.  0.
        4    1    3    3  502    0 -0.91165320527E+03  0.42964728743E+03 -0.53975420394E+03  0.11432605004E+04  0.12699999809E+01 0.  1.
       -4    1    3    3    0  502  0.91165320527E+03 -0.42964728743E+03 -0.12634074763E+04  0.16161399761E+04  0.12699999809E+01 0. -1.
</event>
<event>
 5   0  0.1281470E-04  0.2051064E+04  0.7818609E-02  0.8583112E-01
       -2   -1    0    0    0  501  0.00000000000E+00  0.00000000000E+00  0.10100077708E+04  0.10100077708E+04  0.25500000920E-02 0.  1.
        2   -1    0    0  501    0  0.00000000000E+00  0.00000000000E+00 -0.10412946640E+04  0.10412946640E+04  0.25500000920E-02 0. -1.
    10030    2    1    2    0    0  0.00000000000E+00  0.00000000000E+00 -0.31286893218E+02  0.20513024348E+04  0.20510638238E+04 0.  0.
        3    1    3    3  502    0 -0.78588153931E+03 -0.26872111390E+03  0.58600351660E+03  0.10164747722E+04  0.10100000352E+00 0.  1.
       -3    1    3    3    0  502  0.78588153931E+03  0.26872111390E+03 -0.61729040982E+03  0.10348276625E+04  0.10100000352E+00 0. -1.
</event>
<event>
 5   0  0.6221148E-05  0.2086789E+04  0.7818609E-02  0.8567085E-01
       -1   -1    0    0    0  501  0.00000000000E+00  0.00000000000E+00  0.46306093146E+03  0.46306093149E+03  0.50400001928E-02 0.  1.
        1   -1    0    0  501    0  0.00000000000E+00  0.00000000000E+00 -0.23510337426E+04  0.23510337427E+04  0.50400001928E-02 0. -1.
    10030    2    1    2    0    0  0.00000000000E+00  0.00000000000E+00 -0.18879728112E+04  0.28140946741E+04  0.20867888008E+04 0.  0.
        3    1    3    3  502    0 -0.32813185847E+02  0.58938693647E+03 -0.21042057067E+04  0.21854371033E+04  0.10100000352E+00 0. -1.
       -3    1    3    3    0  502  0.32813185847E+02 -0.58938693647E+03  0.21623289555E+03  0.62865757083E+03  0.10100000352E+00 0.  1.
</event>
<event>
 5   0  0.5933905E-05  0.2058487E+04  0.7818609E-02  0.8579754E-01
        1   -1    0    0  501    0  0.00000000000E+00  0.00000000000E+00  0.84647245663E+03  0.84647245665E+03  0.50400001928E-02 0.  1.
       -1   -1    0    0    0  501  0.00000000000E+00  0.00000000000E+00 -0.12514781184E+04  0.12514781184E+04  0.50400001928E-02 0. -1.
    10030    2    1    2    0    0  0.00000000000E+00  0.00000000000E+00 -0.40500566175E+03  0.20979505750E+04  0.20584865871E+04 0.  0.
        2    1    3    3  502    0  0.37174589979E+03 -0.89915225811E+03 -0.54460445477E+03  0.11150174032E+04  0.25500000920E-02 0. -1.
       -2    1    3    3    0  502 -0.37174589979E+03  0.89915225811E+03  0.13959879302E+03  0.98293317183E+03  0.25500000920E-02 0.  1.
</event>
<event>
 5   0  0.5933905E-05  0.2092067E+04  0.7818609E-02  0.8564746E-01
        1   -1    0    0  501    0  0.00000000000E+00  0.00000000000E+00  0.12125329301E+04  0.12125329301E+04  0.50400001928E-02 0.  1.
       -1   -1    0    0    0  501  0.00000000000E+00  0.00000000000E+00 -0.90239701056E+03  0.90239701057E+03  0.50400001928E-02 0. -1.
    10030    2    1    2    0    0  0.00000000000E+00  0.00000000000E+00  0.31013591949E+03  0.21149299406E+04  0.20920670078E+04 0.  0.
        2    1    3    3  502    0  0.67723537975E+03 -0.71556425502E+03  0.51034296065E+03  0.11095629320E+04  0.25500000920E-02 0.  1.
       -2    1    3    3    0  502 -0.67723537975E+03  0.71556425502E+03 -0.20020704115E+03  0.10053670086E+04  0.25500000920E-02 0. -1.
</event>
<event>
 5   0  0.1252477E-04  0.2080123E+04  0.7818609E-02  0.8570050E-01
        2   -1    0    0  501    0  0.00000000000E+00  0.00000000000E+00  0.23407749936E+04  0.23407749936E+04  0.25500000920E-02 0.  1.
       -2   -1    0    0    0  501  0.00000000000E+00  0.00000000000E+00 -0.46212375607E+03  0.46212375607E+03  0.25500000920E-02 0. -1.
    10030    2    1    2    0    0  0.00000000000E+00  0.00000000000E+00  0.18786512375E+04  0.28028987497E+04  0.20801228158E+04 0.  0.
        4    1    3    3  502    0  0.15627116348E+03  0.53488634316E+03  0.21226464716E+04  0.21945737019E+04  0.12699999809E+01 0.  1.
       -4    1    3    3    0  502 -0.15627116348E+03 -0.53488634316E+03 -0.24399523407E+03  0.60832504780E+03  0.12699999809E+01 0. -1.
</event>
<event>
 5   0  0.6263616E-05  0.2096971E+04  0.7818609E-02  0.8562579E-01
        1   -1    0    0  501    0  0.00000000000E+00  0.00000000000E+00  0.21157523956E+04  0.21157523956E+04  0.50400001928E-02 0.  1.
       -1   -1    0    0    0  501  0.00000000000E+00  0.00000000000E+00 -0.51958913265E+03  0.51958913268E+03  0.50400001928E-02 0. -1.
    10030    2    1    2    0    0  0.00000000000E+00  0.00000000000E+00  0.15961632630E+04  0.26353415283E+04  0.20969711035E+04 0.  0.
        4    1    3    3  502    0 -0.21337488950E+03 -0.75916002198E+03 -0.70311527616E+02  0.79170582052E+03  0.12699999809E+01 0. -1.
       -4    1    3    3    0  502  0.21337488950E+03  0.75916002198E+03  0.16664747906E+04  0.18436357078E+04  0.12699999809E+01 0.  1.
</event>
<event>
 5   0  0.6052292E-05  0.2102433E+04  0.7818609E-02  0.8560172E-01
        1   -1    0    0  501    0  0.00000000000E+00  0.00000000000E+00  0.13499437587E+04  0.13499437587E+04  0.50400001928E-02 0.  1.
       -1   -1    0    0    0  501  0.00000000000E+00  0.00000000000E+00 -0.81859409306E+03  0.81859409307E+03  0.50400001928E-02 0. -1.
    10030    2    1    2    0    0  0.00000000000E+00  0.00000000000E+00  0.53134966565E+03  0.21685378518E+04  0.21024328640E+04 0.  0.
        1    1    3    3  502    0  0.45775651746E+03  0.49564565840E+03  0.10971543314E+04  0.12880036005E+04  0.50400001928E-02 0.  1.
       -1    1    3    3    0  502 -0.45775651746E+03 -0.49564565840E+03 -0.56580466572E+03  0.88053425132E+03  0.50400001928E-02 0. -1.
</event>
<event>
 5   0  0.1325673E-04  0.2111708E+04  0.7818609E-02  0.8556104E-01
       -2   -1    0    0    0  501  0.00000000000E+00  0.00000000000E+00  0.57063090647E+03  0.57063090648E+03  0.25500000920E-02 0. -1.
        2   -1    0    0  501    0  0.00000000000E+00  0.00000000000E+00 -0.19536748639E+04  0.19536748639E+04  0.25500000920E-02 0.  1.
    10030    2    1    2    0    0  0.00000000000E+00  0.00000000000E+00 -0.13830439574E+04  0.25243057704E+04  0.21117076110E+04 0.  0.
        5    1    3    3  502    0 -0.34286961136E+03  0.99378345733E+03 -0.80888939660E+03  0.13264574160E+04  0.46999998093E+01 0.  1.
       -5    1    3    3    0  502  0.34286961136E+03 -0.99378345733E+03 -0.57415456084E+03  0.11978483544E+04  0.46999998093E+01 0. -1.
</event>
<event>
 5   0  0.1235817E-04  0.2127452E+04  0.7818609E-02  0.8549246E-01
       -2   -1    0    0    0  501  0.00000000000E+00  0.00000000000E+00  0.93730606651E+03  0.93730606651E+03  0.25500000920E-02 0.  1.
        2   -1    0    0  501    0  0.00000000000E+00  0.00000000000E+00 -0.12071966886E+04  0.12071966886E+04  0.25500000920E-02 0. -1.
    10030    2    1    2    0    0  0.00000000000E+00  0.00000000000E+00 -0.26989062212E+03  0.21445027551E+04  0.21274517900E+04 0.  0.
        1    1    3    3  502    0  0.22494007658E+03 -0.51112315483E+03  0.77766597420E+03  0.95739714064E+03  0.50400001928E-02 0.  1.
       -1    1    3    3    0  502 -0.22494007658E+03  0.51112315483E+03 -0.10475565963E+04  0.11871056145E+04  0.50400001928E-02 0. -1.
</event>
<event>
 5   0  0.1235817E-04  0.2081143E+04  0.7818609E-02  0.8569596E-01
       -2   -1    0    0    0  501  0.00000000000E+00  0.00000000000E+00  0.15857222257E+04  0.15857222257E+04  0.25500000920E-02 0.  1.
        2   -1    0    0  501    0  0.00000000000E+00  0.00000000000E+00 -0.68283657054E+03  0.68283657055E+03  0.25500000920E-02 0. -1.
    10030    2    1    2    0    0  0.00000000000E+00  0.00000000000E+00  0.90288565516E+03  0.22685587963E+04  0.20811430767E+04 0.  0.
        1    1    3    3  502    0  0.88118038399E+03  0.42485756656E+03  0.83807617133E+03  0.12881593418E+04  0.50400001928E-02 0.  1.
       -1    1    3    3    0  502 -0.88118038399E+03 -0.42485756656E+03  0.64809483832E+02  0.98039945441E+03  0.50400001928E-02 0. -1.
</event>
<event>
 5   0  0.6221148E-05  0.1806447E+04  0.7818609E-02  0.8702878E-01
       -1   -1    0    0    0  501  0.00000000000E+00  0.00000000000E+00  0.96539961390E+03  0.96539961392E+03  0.50400001928E-02 0. -1.
        1   -1    0    0  501    0  0.00000000000E+00  0.00000000000E+00 -0.84505226375E+03  0.84505226377E+03  0.50400001928E-02 0.  1.
    10030    2    1    2    0    0  0.00000000000E+00  0.00000000000E+00  0.12034735015E+03  0.18104518777E+04  0.18064474852E+04 0.  0.
        3    1    3    3  502    0 -0.28940151699E+03  0.79108345086E+03  0.38685152305E+03  0.92694140880E+03  0.10100000352E+00 0. -1.
       -3    1    3    3    0  502  0.28940151699E+03 -0.79108345086E+03 -0.26650417290E+03  0.88351046889E+03  0.10100000352E+00 0.  1.
</event>
<event>
 5   0  0.1325673E-04  0.2074104E+04  0.7818609E-02  0.8572737E-01
       -2   -1    0    0    0  501  0.00000000000E+00  0.00000000000E+00  0.17930068005E+04  0.17930068005E+04  0.25500000920E-02 0.  1.
        2   -1    0    0  501    0  0.00000000000E+00  0.00000000000E+00 -0.59981736880E+03  0.59981736881E+03  0.25500000920E-02 0. -1.
    10030    2    1    2    0    0  0.00000000000E+00  0.00000000000E+00  0.11931894317E+04  0.23928241693E+04  0.20741037788E+04 0.  0.
        5    1    3    3  502    0 -0.32764555103E+03 -0.20576862538E+03 -0.51342329434E+03  0.64289805060E+03  0.46999998093E+01 0. -1.
       -5    1    3    3    0  502  0.32764555103E+03  0.20576862538E+03  0.17066127260E+04  0.17499261187E+04  0.46999998093E+01 0.  1.
</event>
<event>
 5   0  0.1349252E-04  0.2041326E+04  0.7818609E-02  0.8587540E-01
        2   -1    0    0  501    0  0.00000000000E+00  0.00000000000E+00  0.18288316701E+04  0.18288316701E+04  0.25500000920E-02 0. -1.
       -2   -1    0    0    0  501  0.00000000000E+00  0.00000000000E+00 -0.56962744890E+03  0.56962744890E+03  0.25500000920E-02 0.  1.
    10030    2    1    2    0    0  0.00000000000E+00  0.00000000000E+00  0.12592042212E+04  0.23984591190E+04  0.20413257640E+04 0.  0.
        2    1    3    3  502    0 -0.61367308256E+03  0.75246269580E+03  0.99921351745E+03  0.13932775798E+04  0.25500000920E-02 0. -1.
       -2    1    3    3    0  502  0.61367308256E+03 -0.75246269580E+03  0.25999070378E+03  0.10051815393E+04  0.25500000920E-02 0.  1.
</event>
<event>
 5   0  0.5846187E-05  0.2140134E+04  0.7818609E-02  0.8543767E-01
        1   -1    0    0  501    0  0.00000000000E+00  0.00000000000E+00  0.16363263092E+04  0.16363263092E+04  0.50400001928E-02 0.  1.
       -1   -1    0    0    0  501  0.00000000000E+00  0.00000000000E+00 -0.69976478209E+03  0.69976478211E+03  0.50400001928E-02 0. -1.
    10030    2    1    2    0    0  0.00000000000E+00  0.00000000000E+00  0.93656152707E+03  0.23360910913E+04  0.21401341296E+04 0.  0.
        5    1    3    3  502    0  0.14151792428E+03 -0.84331432470E+03  0.11704663754E+04  0.14495585531E+04  0.46999998093E+01 0.  1.
       -5    1    3    3    0  502 -0.14151792428E+03  0.84331432470E+03 -0.23390484829E+03  0.88653253814E+03  0.46999998093E+01 0. -1.
</event>
<event>
 5   0  0.1235817E-04  0.2003710E+04  0.7818609E-02  0.8604888E-01
        2   -1    0    0  501    0  0.00000000000E+00  0.00000000000E+00  0.12266692465E+04  0.12266692465E+04  0.25500000920E-02 0. -1.
       -2   -1    0    0    0  501  0.00000000000E+00  0.00000000000E+00 -0.81824332309E+03  0.81824332310E+03  0.25500000920E-02 0.  1.
    10030    2    1    2    0    0  0.00000000000E+00  0.00000000000E+00  0.40842592341E+03  0.20449125696E+04  0.20037104787E+04 0.  0.
        1    1    3    3  502    0  0.83110204824E+02 -0.96571661753E+03  0.46279635043E+03  0.10741025805E+04  0.50400001928E-02 0. -1.
       -1    1    3    3    0  502 -0.83110204824E+02  0.96571661753E+03 -0.54370427022E+02  0.97080998907E+03  0.50400001928E-02 0.  1.
</event>
<event>
 5   0  0.1252477E-04  0.1992483E+04  0.7818609E-02  0.8610143E-01
        2   -1    0    0  501    0  0.00000000000E+00  0.00000000000E+00  0.10996035659E+04  0.10996035659E+04  0.25500000920E-02 0. -1.
       -2   -1    0    0    0  501  0.00000000000E+00  0.00000000000E+00 -0.90259500627E+03  0.90259500627E+03  0.25500000920E-02 0.  1.
    10030    2    1    2    0    0  0.00000000000E+00  0.00000000000E+00  0.19700855967E+03  0.20021985722E+04  0.19924825595E+04 0.  0.
        4    1    3    3  502    0  0.80972473722E+03 -0.45633044781E+03  0.45886622562E+03  0.10365575013E+04  0.12699999809E+01 0. -1.
       -4    1    3    3    0  502 -0.80972473722E+03  0.45633044781E+03 -0.26185766594E+03  0.96564107088E+03  0.12699999809E+01 0.  1.
</event>
<event>
 5   0  0.1235817E-04  0.1945734E+04  0.7818609E-02  0.8632421E-01
       -2   -1    0    0    0  501  0.00000000000E+00  0.00000000000E+00  0.11150842904E+04  0.11150842904E+04  0.25500000920E-02 0. -1.
        2   -1    0    0  501    0  0.00000000000E+00  0.00000000000E+00 -0.84878812573E+03  0.84878812574E+03  0.25500000920E-02 0.  1.
    10030    2    1    2    0    0  0.00000000000E+00  0.00000000000E+00  0.26629616464E+03  0.19638724161E+04  0.19457341081E+04 0.  0.
        1    1    3    3  502    0  0.80477386418E+03  0.50184429078E+03 -0.85578419202E+02  0.95227744409E+03  0.50400001928E-02 0.  1.
       -1    1    3    3    0  502 -0.80477386418E+03 -0.50184429078E+03  0.35187458384E+03  0.10115949720E+04  0.50400001928E-02 0. -1.
</event>
<event>
 5   0  0.1349252E-04  0.2091076E+04  0.7818609E-02  0.8565185E-01
        2   -1    0    0  501    0  0.00000000000E+00  0.00000000000E+00  0.20139404210E+04  0.20139404210E+04  0.25500000920E-02 0. -1.
       -2   -1    0    0    0  501  0.00000000000E+00  0.00000000000E+00 -0.54279127189E+03  0.54279127189E+03  0.25500000920E-02 0.  1.
    10030    2    1    2    0    0  0.00000000000E+00  0.00000000000E+00  0.14711491491E+04  0.25567316929E+04  0.20910755918E+04 0.  0.
        2    1    3    3  502    0 -0.10243657037E+04  0.20124757120E+03  0.66508579619E+03  0.12378064453E+04  0.25500000920E-02 0.  1.
       -2    1    3    3    0  502  0.10243657037E+04 -0.20124757120E+03  0.80606335296E+03  0.13189252476E+04  0.25500000920E-02 0. -1.
</event>
<event>
 5   0  0.5933905E-05  0.2101494E+04  0.7818609E-02  0.8560585E-01
        1   -1    0    0  501    0  0.00000000000E+00  0.00000000000E+00  0.14080429472E+04  0.14080429473E+04  0.50400001928E-02 0.  1.
       -1   -1    0    0    0  501  0.00000000000E+00  0.00000000000E+00 -0.78411631464E+03  0.78411631465E+03  0.50400001928E-02 0. -1.
    10030    2    1    2    0    0  0.00000000000E+00  0.00000000000E+00  0.62392663261E+03  0.21921592619E+04  0.21014941796E+04 0.  0.
        2    1    3    3  502    0 -0.10965849666E+03  0.37238152412E+03 -0.70657207420E+03  0.80618675345E+03  0.25500000920E-02 0. -1.
       -2    1    3    3    0  502  0.10965849666E+03 -0.37238152412E+03  0.13304987068E+04  0.13859725085E+04  0.25500000920E-02 0.  1.
</event>
<event>
 5   0  0.5933905E-05  0.1667094E+04  0.7818609E-02  0.8780358E-01
       -1   -1    0    0    0  501  0.00000000000E+00  0.00000000000E+00  0.67318730600E+03  0.67318730602E+03  0.50400001928E-02 0.  1.
        1   -1    0    0  501    0  0.00000000000E+00  0.00000000000E+00 -0.10321053237E+04  0.10321053237E+04  0.50400001928E-02 0. -1.
    10030    2    1    2    0    0  0.00000000000E+00  0.00000000000E+00 -0.35891801768E+03  0.17052926297E+04  0.16670935215E+04 0.  0.
        2    1    3    3  502    0 -0.23419137666E+03  0.79626529917E+03 -0.10077989669E+03  0.83608648784E+03  0.25500000920E-02 0.  1.
       -2    1    3    3    0  502  0.23419137666E+03 -0.79626529917E+03 -0.25813812099E+03  0.86920614188E+03  0.25500000920E-02 0. -1.
</event>
<event>
 5   0  0.1235817E-04  0.2104360E+04  0.7818609E-02  0.8559325E-01
        2   -1    0    0  501    0  0.00000000000E+00  0.00000000000E+00  0.16852055894E+04  0.16852055894E+04  0.25500000920E-02 0. -1.
       -2   -1    0    0    0  501  0.00000000000E+00  0.00000000000E+00 -0.65694226261E+03  0.65694226261E+03  0.25500000920E-02 0.  1.
    10030    2    1    2    0    0  0.00000000000E+00  0.00000000000E+00  0.10282633268E+04  0.23421478520E+04  0.21043600194E+04 0.  0.
        1    1    3    3  502    0 -0.23894105960E+03 -0.33340210853E+03  0.15925529038E+04  0.16445286703E+04  0.50400001928E-02 0. -1.
       -1    1    3    3    0  502  0.23894105960E+03  0.33340210853E+03 -0.56428957703E+03  0.69761918172E+03  0.50400001928E-02 0.  1.
</event>
<event>
 5   0  0.6052292E-05  0.2182396E+04  0.7818609E-02  0.8525791E-01
       -1   -1    0    0    0  501  0.00000000000E+00  0.00000000000E+00  0.83523845596E+03  0.83523845597E+03  0.50400001928E-02 0. -1.
        1   -1    0    0  501    0  0.00000000000E+00  0.00000000000E+00 -0.14255959725E+04  0.14255959725E+04  0.50400001928E-02 0.  1.
    10030    2    1    2    0    0  0.00000000000E+00  0.00000000000E+00 -0.59035751656E+03  0.22608344285E+04  0.21823955452E+04 0.  0.
        1    1    3    3  502    0 -0.71248581441E+03 -0.46374499229E+03  0.41352733049E+03  0.94535723760E+03  0.50400001928E-02 0. -1.
       -1    1    3    3    0  502  0.71248581441E+03  0.46374499229E+03 -0.10038848470E+04  0.13154771909E+04  0.50400001928E-02 0.  1.
</event>
<event>
 5   0  0.5846187E-05  0.2097238E+04  0.7818609E-02  0.8562461E-01
       -1   -1    0    0    0  501  0.00000000000E+00  0.00000000000E+00  0.92890577704E+03  0.92890577706E+03  0.50400001928E-02 0.  1.
        1   -1    0    0  501    0  0.00000000000E+00  0.00000000000E+00 -0.11837600636E+04  0.11837600636E+04  0.50400001928E-02 0. -1.
    10030    2    1    2    0    0  0.00000000000E+00  0.00000000000E+00 -0.25485428659E+03  0.21126658407E+04  0.20972377660E+04 0.  0.
        5    1    3    3  502    0 -0.91720418630E+02 -0.55650750937E+03  0.76308172320E+03  0.94890940003E+03  0.46999998093E+01 0.  1.
       -5    1    3    3    0  502  0.91720418630E+02  0.55650750937E+03 -0.10179360098E+04  0.11637564407E+04  0.46999998093E+01 0. -1.
</event>
<event>
 5   0  0.1235817E-04  0.2062029E+04  0.7818609E-02  0.8578157E-01
       -2   -1    0    0    0  501  0.00000000000E+00  0.00000000000E+00  0.10637596469E+04  0.10637596469E+04  0.25500000920E-02 0. -1.
        2   -1    0    0  501    0  0.00000000000E+00  0.00000000000E+00 -0.99927697128E+03  0.99927697128E+03  0.25500000920E-02 0.  1.
    10030    2    1    2    0    0  0.00000000000E+00  0.00000000000E+00  0.64482675616E+02  0.20630366182E+04  0.20620286304E+04 0.  0.
        1    1    3    3  502    0 -0.44820553242E+03  0.69947208638E+03  0.64314699534E+03  0.10506128957E+04  0.50400001928E-02 0. -1.
       -1    1    3    3    0  502  0.44820553242E+03 -0.69947208638E+03 -0.57866431972E+03  0.10124237225E+04  0.50400001928E-02 0.  1.
</event>
<event>
 5   0  0.6263616E-05  0.2099024E+04  0.7818609E-02  0.8561674E-01
        1   -1    0    0  501    0  0.00000000000E+00  0.00000000000E+00  0.20533363861E+04  0.20533363861E+04  0.50400001928E-02 0. -1.
       -1   -1    0    0    0  501  0.00000000000E+00  0.00000000000E+00 -0.53643183252E+03  0.53643183255E+03  0.50400001928E-02 0.  1.
    10030    2    1    2    0    0  0.00000000000E+00  0.00000000000E+00  0.15169045536E+04  0.25897682186E+04  0.20990235829E+04 0.  0.
        4    1    3    3  502    0  0.52438931678E+03  0.68388770030E+03  0.19422674385E+02  0.86201241021E+03  0.12699999809E+01 0.  1.
       -4    1    3    3    0  502 -0.52438931678E+03 -0.68388770030E+03  0.14974818792E+04  0.17277558084E+04  0.12699999809E+01 0. -1.
</event>
<event>
 5   0  0.1349252E-04  0.2093445E+04  0.7818609E-02  0.8564136E-01
       -2   -1    0    0    0  501  0.00000000000E+00  0.00000000000E+00  0.55309261755E+03  0.55309261756E+03  0.25500000920E-02 0. -1.
        2   -1    0    0  501    0  0.00000000000E+00  0.00000000000E+00 -0.19809131962E+04  0.19809131962E+04  0.25500000920E-02 0.  1.
    10030    2    1    2    0    0  0.00000000000E+00  0.00000000000E+00 -0.14278205786E+04  0.25340058137E+04  0.20934454517E+04 0.  0.
        2    1    3    3  502    0 -0.44104951017E+03  0.84648599370E+03 -0.19388922766E+03  0.97398985650E+03  0.25500000920E-02 0.  1.
       -2    1    3    3    0  502  0.44104951017E+03 -0.84648599370E+03 -0.12339313509E+04  0.15600159572E+04  0.25500000920E-02 0. -1.
</event>
<event>
 5   0  0.6263616E-05  0.2100167E+04  0.7818609E-02  0.8561170E-01
        1   -1    0    0  501    0  0.00000000000E+00  0.00000000000E+00  0.13132966271E+04  0.13132966272E+04  0.50400001928E-02 0. -1.
       -1   -1    0    0    0  501  0.00000000000E+00  0.00000000000E+00 -0.83962382408E+03  0.83962382409E+03  0.50400001928E-02 0.  1.
    10030    2    1    2    0    0  0.00000000000E+00  0.00000000000E+00  0.47367280307E+03  0.21529204513E+04  0.21001667898E+04 0.  0.
        4    1    3    3  502    0 -0.80703132024E+03  0.13144915833E+02  0.92542418163E+03  0.12279592296E+04  0.12699999809E+01 0. -1.
       -4    1    3    3    0  502  0.80703132024E+03 -0.13144915833E+02 -0.45175137856E+03  0.92496122167E+03  0.12699999809E+01 0.  1.
</event>
<event>
 5   0  0.6052292E-05  0.2104716E+04  0.7818609E-02  0.8559169E-01
       -1   -1    0    0    0  501  0.00000000000E+00  0.00000000000E+00  0.96050973667E+03  0.96050973668E+03  0.50400001928E-02 0. -1.
        1   -1    0    0  501    0  0.00000000000E+00  0.00000000000E+00 -0.11529890970E+04  0.11529890970E+04  0.50400001928E-02 0.  1.
    10030    2    1    2    0    0  0.00000000000E+00  0.00000000000E+00 -0.19247936029E+03  0.21134988336E+04  0.21047158990E+04 0.  0.
        1    1    3    3  502    0  0.66644618299E+03 -0.65169371260E+03  0.39426777288E+03  0.10120782018E+04  0.50400001928E-02 0. -1.
       -1    1    3    3    0  502 -0.66644618299E+03  0.65169371260E+03 -0.58674713317E+03  0.11014206318E+04  0.50400001928E-02 0.  1.
</event>
<event>
 5   0  0.1325673E-04  0.2044456E+04  0.7818609E-02  0.8586113E-01
       -2   -1    0    0    0  501  0.00000000000E+00  0.00000000000E+00  0.89796905689E+03  0.89796905689E+03  0.25500000920E-02 0.  1.
        2   -1    0    0  501    0  0.00000000000E+00  0.00000000000E+00 -0.11636819803E+04  0.11636819803E+04  0.25500000920E-02 0. -1.
    10030    2    1    2    0    0  0.00000000000E+00  0.00000000000E+00 -0.26571292343E+03  0.20616510372E+04  0.20444563193E+04 0.  0.
        5    1    3    3  502    0  0.14748310740E+02  0.77084851149E+03 -0.80969697734E+03  0.11180591333E+04  0.46999998093E+01 0. -1.
       -5    1    3    3    0  502 -0.14748310740E+02 -0.77084851149E+03  0.54398405390E+03  0.94359190397E+03  0.46999998093E+01 0.  1.
</event>
<event>
 5   0  0.6221148E-05  0.2076244E+04  0.7818609E-02  0.8571781E-01
       -1   -1    0    0    0  501  0.00000000000E+00  0.00000000000E+00  0.72529771589E+03  0.72529771590E+03  0.50400001928E-02 0.  1.
        1   -1    0    0  501    0  0.00000000000E+00  0.00000000000E+00 -0.14858682057E+04  0.14858682057E+04  0.50400001928E-02 0. -1.
    10030    2    1    2    0    0  0.00000000000E+00  0.00000000000E+00 -0.76057048979E+03  0.22111659216E+04  0.20762435461E+04 0.  0.
        3    1    3    3  502    0  0.17900890851E+03  0.97137710723E+03 -0.72054573297E+03  0.12226217065E+04  0.10100000352E+00 0. -1.
       -3    1    3    3    0  502 -0.17900890851E+03 -0.97137710723E+03 -0.40024756821E+02  0.98854421506E+03  0.10100000352E+00 0.  1.
</event>
<event>
 5   0  0.6221148E-05  0.2090315E+04  0.7818609E-02  0.8565522E-01
        1   -1    0    0  501    0  0.00000000000E+00  0.00000000000E+00  0.21026101965E+04  0.21026101965E+04  0.50400001928E-02 0. -1.
       -1   -1    0    0    0  501  0.00000000000E+00  0.00000000000E+00 -0.51952268953E+03  0.51952268956E+03  0.50400001928E-02 0.  1.
    10030    2    1    2    0    0  0.00000000000E+00  0.00000000000E+00  0.15830875069E+04  0.26221328860E+04  0.20903145259E+04 0.  0.
        3    1    3    3  502    0 -0.80928500965E+03 -0.15560640290E+03  0.15978912175E+04  0.17978909679E+04  0.10100000352E+00 0. -1.
       -3    1    3    3    0  502  0.80928500965E+03  0.15560640290E+03 -0.14803710569E+02  0.82424191807E+03  0.10100000352E+00 0.  1.
</event>
<event>
 5   0  0.1349252E-04  0.1552186E+04  0.7818609E-02  0.8850473E-01
        2   -1    0    0  501    0  0.00000000000E+00  0.00000000000E+00  0.14896422286E+04  0.14896422286E+04  0.25500000920E-02 0. -1.
       -2   -1    0    0    0  501  0.00000000000E+00  0.00000000000E+00 -0.40433873034E+03  0.40433873035E+03  0.25500000920E-02 0.  1.
    10030    2    1    2    0    0  0.00000000000E+00  0.00000000000E+00  0.10853034982E+04  0.18939809589E+04  0.15521856170E+04 0.  0.
        2    1    3    3  502    0  0.60243792476E+03 -0.11915220710E+03  0.11216907306E+04  0.12787958385E+04  0.25500000920E-02 0.  1.
       -2    1    3    3    0  502 -0.60243792476E+03  0.11915220710E+03 -0.36387232341E+02  0.61518512037E+03  0.25500000920E-02 0. -1.
</event>
<event>
 5   0  0.1252477E-04  0.2085376E+04  0.7818609E-02  0.8567713E-01
        2   -1    0    0  501    0  0.00000000000E+00  0.00000000000E+00  0.14657707391E+04  0.14657707391E+04  0.25500000920E-02 0. -1.
       -2   -1    0    0    0  501  0.00000000000E+00  0.00000000000E+00 -0.74172470397E+03  0.74172470398E+03  0.25500000920E-02 0.  1.
    10030    2    1    2    0    0  0.00000000000E+00  0.00000000000E+00  0.72404603509E+03  0.22074954430E+04  0.20853760980E+04 0.  0.
        4    1    3    3  502    0 -0.29706111370E+03  0.31399998791E+03  0.13664593759E+04  0.14331971730E+04  0.12699999809E+01 0. -1.
       -4    1    3    3    0  502  0.29706111370E+03 -0.31399998791E+03 -0.64241334082E+03  0.77429827008E+03  0.12699999809E+01 0.  1.
</event>
<event>
 5   0  0.6221148E-05  0.2059348E+04  0.7818609E-02  0.8579365E-01
       -1   -1    0    0    0  501  0.00000000000E+00  0.00000000000E+00  0.57396365589E+03  0.57396365592E+03  0.50400001928E-02 0. -1.
        1   -1    0    0  501    0  0.00000000000E+00  0.00000000000E+00 -0.18472055608E+04  0.18472055608E+04  0.50400001928E-02 0.  1.
    10030    2    1    2    0    0  0.00000000000E+00  0.00000000000E+00 -0.12732419049E+04  0.24211692167E+04  0.20593483017E+04 0.  0.
        3    1    3    3  502    0 -0.57854498853E+03 -0.29879837724E+03  0.30116516505E+03  0.71742263753E+03  0.10100000352E+00 0. -1.
       -3    1    3    3    0  502  0.57854498853E+03  0.29879837724E+03 -0.15744070700E+04  0.17037465792E+04  0.10100000352E+00 0.  1.
</event>
<event>
 5   0  0.1349252E-04  0.2129803E+04  0.7818609E-02  0.8548227E-01
        2   -1    0    0  501    0  0.00000000000E+00  0.00000000000E+00  0.10621725906E+04  0.10621725906E+04  0.25500000920E-02 0. -1.
       -2   -1    0    0    0  501  0.00000000000E+00  0.00000000000E+00 -0.10676374154E+04  0.10676374154E+04  0.25500000920E-02 0.  1.
    10030    2    1    2    0    0  0.00000000000E+00  0.00000000000E+00 -0.54648247398E+01  0.21298100060E+04  0.21298029949E+04 0.  0.
        2    1    3    3  502    0  0.60507966893E+03  0.87203277807E+03 -0.89061298587E+02  0.10651265121E+04  0.25500000920E-02 0.  1.
       -2    1    3    3    0  502 -0.60507966893E+03 -0.87203277807E+03  0.83596473847E+02  0.10646834939E+04  0.25500000920E-02 0. -1.
</event>
<event>
 5   0  0.1252477E-04  0.2251756E+04  0.7818609E-02  0.8497190E-01
       -2   -1    0    0    0  501  0.00000000000E+00  0.00000000000E+00  0.55018781233E+03  0.55018781233E+03  0.25500000920E-02 0.  1.
        2   -1    0    0  501    0  0.00000000000E+00  0.00000000000E+00 -0.23039433276E+04  0.23039433276E+04  0.25500000920E-02 0. -1.
    10030    2    1    2    0    0  0.00000000000E+00  0.00000000000E+00 -0.17537555153E+04  0.28541311400E+04  0.22517562383E+04 0.  0.
        4    1    3    3  502    0 -0.34874388980E+03 -0.18272102186E+03  0.46008790388E+03  0.60555079448E+03  0.12699999809E+01 0.  1.
       -4    1    3    3    0  502  0.34874388980E+03  0.18272102186E+03 -0.22138434192E+04  0.22485803455E+04  0.12699999809E+01 0. -1.
</event>
<event>
 5   0  0.1281470E-04  0.2051040E+04  0.7818609E-02  0.8583123E-01
       -2   -1    0    0    0  501  0.00000000000E+00  0.00000000000E+00  0.45557013662E+03  0.45557013663E+03  0.25500000920E-02 0.  1.
        2   -1    0    0  501    0  0.00000000000E+00  0.00000000000E+00 -0.23085167648E+04  0.23085167648E+04  0.25500000920E-02 0. -1.
    10030    2    1    2    0    0  0.00000000000E+00  0.00000000000E+00 -0.18529466282E+04  0.27640869014E+04  0.20510400269E+04 0.  0.
        3    1    3    3  502    0 -0.32781890036E+03  0.16981178454E+03  0.36290583328E+03  0.51768902599E+03  0.10100000352E+00 0.  1.
       -3    1    3    3    0  502  0.32781890036E+03 -0.16981178454E+03 -0.22158524615E+04  0.22463978754E+04  0.10100000352E+00 0. -1.
</event>
<event>
 5   0  0.6221148E-05  0.1954991E+04  0.7818609E-02  0.8627958E-01
        1   -1    0    0  501    0  0.00000000000E+00  0.00000000000E+00  0.16462502836E+04  0.16462502836E+04  0.50400001928E-02 0.  1.
       -1   -1    0    0    0  501  0.00000000000E+00  0.00000000000E+00 -0.58040846037E+03  0.58040846039E+03  0.50400001928E-02 0. -1.
    10030    2    1    2    0    0  0.00000000000E+00  0.00000000000E+00  0.10658418232E+04  0.22266587440E+04  0.19549911432E+04 0.  0.
        3    1    3    3  502    0 -0.93896113437E+03  0.61835574641E+02  0.83431748997E+03  0.12575998308E+04  0.10100000352E+00 0.  1.
       -3    1    3    3    0  502  0.93896113437E+03 -0.61835574641E+02  0.23152433325E+03  0.96905891319E+03  0.10100000352E+00 0. -1.
</event>
<event>
 5   0  0.1349252E-04  0.2092970E+04  0.7818609E-02  0.8564346E-01
       -2   -1    0    0    0  501  0.00000000000E+00  0.00000000000E+00  0.45784482878E+03  0.45784482878E+03  0.25500000920E-02 0.  1.
        2   -1    0    0  501    0  0.00000000000E+00  0.00000000000E+00 -0.23919266436E+04  0.23919266436E+04  0.25500000920E-02 0. -1.
    10030    2    1    2    0    0  0.00000000000E+00  0.00000000000E+00 -0.19340818148E+04  0.28497714724E+04  0.20929703721E+04 0.  0.
        2    1    3    3  502    0  0.67670035961E+03  0.14146417534E+03  0.10265028342E+03  0.69890812721E+03  0.25500000920E-02 0.  1.
       -2    1    3    3    0  502 -0.67670035961E+03 -0.14146417534E+03 -0.20367320982E+04  0.21508633451E+04  0.25500000920E-02 0. -1.
</event>
<event>
 5   0  0.5846187E-05  0.2097680E+04  0.7818609E-02  0.8562266E-01
        1   -1    0    0  501    0  0.00000000000E+00  0.00000000000E+00  0.12116049599E+04  0.12116049599E+04  0.50400001928E-02 0. -1.
       -1   -1    0    0    0  501  0.00000000000E+00  0.00000000000E+00 -0.90794042417E+03  0.90794042419E+03  0.50400001928E-02 0.  1.
    10030    2    1    2    0    0  0.00000000000E+00  0.00000000000E+00  0.30366453571E+03  0.21195453841E+04  0.20976797861E+04 0.  0.
        5    1    3    3  502    0  0.10789321280E+03  0.25957317572E+03 -0.86915769086E+03  0.91349677641E+03  0.46999998093E+01 0.  1.
       -5    1    3    3    0  502 -0.10789321280E+03 -0.25957317572E+03  0.11728222266E+04  0.12060486077E+04  0.46999998093E+01 0. -1.
</event>
<event>
 5   0  0.6263616E-05  0.2069691E+04  0.7818609E-02  0.8574713E-01
       -1   -1    0    0    0  501  0.00000000000E+00  0.00000000000E+00  0.69517735541E+03  0.69517735543E+03  0.50400001928E-02 0.  1.
        1   -1    0    0  501    0  0.00000000000E+00  0.00000000000E+00 -0.15404781097E+04  0.15404781097E+04  0.50400001928E-02 0. -1.
    10030    2    1    2    0    0  0.00000000000E+00  0.00000000000E+00 -0.84530075425E+03  0.22356554651E+04  0.20696912798E+04 0.  0.
        4    1    3    3  502    0  0.37953809599E+03 -0.55499394736E+03 -0.12723926900E+04  0.14391150817E+04  0.12699999809E+01 0. -1.
       -4    1    3    3    0  502 -0.37953809599E+03  0.55499394736E+03  0.42709193575E+03  0.79654038340E+03  0.12699999809E+01 0.  1.
</event>
<event>
 5   0  0.1349252E-04  0.2103381E+04  0.7818609E-02  0.8559756E-01
       -2   -1    0    0    0  501  0.00000000000E+00  0.00000000000E+00  0.51879289546E+03  0.51879289547E+03  0.25500000920E-02 0. -1.
        2   -1    0    0  501    0  0.00000000000E+00  0.00000000000E+00 -0.21319730824E+04  0.21319730824E+04  0.25500000920E-02 0.  1.
    10030    2    1    2    0    0  0.00000000000E+00  0.00000000000E+00 -0.16131801870E+04  0.26507659779E+04  0.21033806013E+04 0.  0.
        2    1    3    3  502    0 -0.10037273634E+03  0.70511276078E+03 -0.17817866744E+04  0.19188596730E+04  0.25500000920E-02 0.  1.
       -2    1    3    3    0  502  0.10037273634E+03 -0.70511276078E+03  0.16860648738E+03  0.73190630494E+03  0.25500000920E-02 0. -1.
</event>
<event>
 5   0  0.5846187E-05  0.2102613E+04  0.7818609E-02  0.8560093E-01
       -1   -1    0    0    0  501  0.00000000000E+00  0.00000000000E+00  0.66621228578E+03  0.66621228579E+03  0.50400001928E-02 0.  1.
        1   -1    0    0  501    0  0.00000000000E+00  0.00000000000E+00 -0.16589994195E+04  0.16589994195E+04  0.50400001928E-02 0. -1.
    10030    2    1    2    0    0  0.00000000000E+00  0.00000000000E+00 -0.99278713369E+03  0.23252117053E+04  0.21026134170E+04 0.  0.
        5    1    3    3  502    0 -0.60330875632E+03  0.77579556700E+03 -0.90925919977E+03  0.13388855812E+04  0.46999998093E+01 0. -1.
       -5    1    3    3    0  502  0.60330875632E+03 -0.77579556700E+03 -0.83527933925E+02  0.98632612405E+03  0.46999998093E+01 0.  1.
</event>
<event>
 5   0  0.5846187E-05  0.2059573E+04  0.7818609E-02  0.8579264E-01
        1   -1    0    0  501    0  0.00000000000E+00  0.00000000000E+00  0.77753125598E+03  0.77753125599E+03  0.50400001928E-02 0.  1.
       -1   -1    0    0    0  501  0.00000000000E+00  0.00000000000E+00 -0.13638805557E+04  0.13638805557E+04  0.50400001928E-02 0. -1.
    10030    2    1    2    0    0  0.00000000000E+00  0.00000000000E+00 -0.58634929974E+03  0.21414118117E+04  0.20595725396E+04 0.  0.
        5    1    3    3  502    0  0.65687706263E+03  0.79076569687E+03 -0.23044651358E+03  0.10535300415E+04  0.46999998093E+01 0. -1.
       -5    1    3    3    0  502 -0.65687706263E+03 -0.79076569687E+03 -0.35590278616E+03  0.10878817702E+04  0.46999998093E+01 0.  1.
</event>
<event>
 5   0  0.6221148E-05  0.2092808E+04  0.7818609E-02  0.8564418E-01
        1   -1    0    0  501    0  0.00000000000E+00  0.00000000000E+00  0.47746781445E+03  0.47746781448E+03  0.50400001928E-02 0.  1.
       -1   -1    0    0    0  501  0.00000000000E+00  0.00000000000E+00 -0.22932667188E+04  0.22932667188E+04  0.50400001928E-02 0. -1.
    10030    2    1    2    0    0  0.00000000000E+00  0.00000000000E+00 -0.18157989043E+04  0.27707345333E+04  0.20928077296E+04 0.  0.
        3    1    3    3  502    0 -0.21660294754E+03  0.28469461778E+03  0.39399954220E+03  0.53216868729E+03  0.10100000352E+00 0.  1.
       -3    1    3    3    0  502  0.21660294754E+03 -0.28469461778E+03 -0.22097984465E+04  0.22385658460E+04  0.10100000352E+00 0. -1.
</event>
<event>
 5   0  0.5933905E-05  0.2091794E+04  0.7818609E-02  0.8564867E-01
        1   -1    0    0  501    0  0.00000000000E+00  0.00000000000E+00  0.25853933093E+04  0.25853933093E+04  0.50400001928E-02 0.  1.
       -1   -1    0    0    0  501  0.00000000000E+00  0.00000000000E+00 -0.42310779668E+03  0.42310779671E+03  0.50400001928E-02 0. -1.
    10030    2    1    2    0    0  0.00000000000E+00  0.00000000000E+00  0.21622855127E+04  0.30085011061E+04  0.20917935526E+04 0.  0.
        2    1    3    3  502    0 -0.66297292265E+03 -0.67537089051E+03  0.17215087172E+04  0.19644976964E+04  0.25500000920E-02 0.  1.
       -2    1    3    3    0  502  0.66297292265E+03  0.67537089051E+03  0.44077679550E+03  0.10440034097E+04  0.25500000920E-02 0. -1.
</event>
<event>
 5   0  0.1325673E-04  0.2222636E+04  0.7818609E-02  0.8509065E-01
        2   -1    0    0  501    0  0.00000000000E+00  0.00000000000E+00  0.20605126396E+04  0.20605126396E+04  0.25500000920E-02 0. -1.
       -2   -1    0    0    0  501  0.00000000000E+00  0.00000000000E+00 -0.59937873434E+03  0.59937873434E+03  0.25500000920E-02 0.  1.
    10030    2    1    2    0    0  0.00000000000E+00  0.00000000000E+00  0.14611339052E+04  0.26598913739E+04  0.22226357848E+04 0.  0.
        5    1    3    3  502    0  0.10066480549E+04  0.42801150772E+03  0.96529421081E+03  0.14588862741E+04  0.46999998093E+01 0. -1.
       -5    1    3    3    0  502 -0.10066480549E+04 -0.42801150772E+03  0.49583969441E+03  0.12010050998E+04  0.46999998093E+01 0.  1.
</event>
<event>
 5   0  0.6263616E-05  0.2070105E+04  0.7818609E-02  0.8574528E-01
        1   -1    0    0  501    0  0.00000000000E+00  0.00000000000E+00  0.92824256851E+03  0.92824256853E+03  0.50400001928E-02 0. -1.
       -1   -1    0    0    0  501  0.00000000000E+00  0.00000000000E+00 -0.11541527386E+04  0.11541527386E+04  0.50400001928E-02 0.  1.
    10030    2    1    2    0    0  0.00000000000E+00  0.00000000000E+00 -0.22591017006E+03  0.20823953071E+04  0.20701050239E+04 0.  0.
        4    1    3    3  502    0  0.11537683462E+03 -0.88380179721E+03 -0.64230612450E+03  0.10986246862E+04  0.12699999809E+01 0.  1.
       -4    1    3    3    0  502 -0.11537683462E+03  0.88380179721E+03  0.41639595444E+03  0.98377062088E+03  0.12699999809E+01 0. -1.
</event>
<event>
 5   0  0.5846187E-05  0.2117047E+04  0.7818609E-02  0.8553771E-01
        1   -1    0    0  501    0  0.00000000000E+00  0.00000000000E+00  0.11596584165E+04  0.11596584165E+04  0.50400001928E-02 0.  1.
       -1   -1    0    0    0  501  0.00000000000E+00  0.00000000000E+00 -0.96620865112E+03  0.96620865113E+03  0.50400001928E-02 0. -1.
    10030    2    1    2    0    0  0.00000000000E+00  0.00000000000E+00  0.19344976535E+03  0.21258670676E+04  0.21170469946E+04 0.  0.
        5    1    3    3  502    0 -0.17856574193E+03 -0.81168831811E+03 -0.56154130761E+03  0.10030325917E+04  0.46999998093E+01 0. -1.
       -5    1    3    3    0  502  0.17856574193E+03  0.81168831811E+03  0.75499107296E+03  0.11228344759E+04  0.46999998093E+01 0.  1.
</event>
<event>
 5   0  0.1349252E-04  0.2080443E+04  0.7818609E-02  0.8569908E-01
        2   -1    0    0  501    0  0.00000000000E+00  0.00000000000E+00  0.15855895331E+04  0.15855895331E+04  0.25500000920E-02 0.  1.
       -2   -1    0    0    0  501  0.00000000000E+00  0.00000000000E+00 -0.68243407565E+03  0.68243407566E+03  0.25500000920E-02 0. -1.
    10030    2    1    2    0    0  0.00000000000E+00  0.00000000000E+00  0.90315545744E+03  0.22680236087E+04  0.20804425754E+04 0.  0.
        2    1    3    3  502    0 -0.62594624321E+03  0.58068455795E+03 -0.19618252415E+03  0.87606554436E+03  0.25500000920E-02 0. -1.
       -2    1    3    3    0  502  0.62594624321E+03 -0.58068455795E+03  0.10993379816E+04  0.13919580644E+04  0.25500000920E-02 0.  1.
</event>
<event>
 5   0  0.5933905E-05  0.2032093E+04  0.7818609E-02  0.8591761E-01
        1   -1    0    0  501    0  0.00000000000E+00  0.00000000000E+00  0.10196739892E+04  0.10196739892E+04  0.50400001928E-02 0. -1.
       -1   -1    0    0    0  501  0.00000000000E+00  0.00000000000E+00 -0.10124319454E+04  0.10124319454E+04  0.50400001928E-02 0.  1.
    10030    2    1    2    0    0  0.00000000000E+00  0.00000000000E+00  0.72420437591E+01  0.20321059346E+04  0.20320930299E+04 0.  0.
        2    1    3    3  502    0 -0.21850503970E+03  0.69573249289E+03 -0.70388779371E+03  0.10135315388E+04  0.25500000920E-02 0.  1.
       -2    1    3    3    0  502  0.21850503970E+03 -0.69573249289E+03  0.71112983747E+03  0.10185743958E+04  0.25500000920E-02 0. -1.
</event>
<event>
 5   0  0.1325673E-04  0.2108656E+04  0.7818609E-02  0.8557440E-01
       -2   -1    0    0    0  501  0.00000000000E+00  0.00000000000E+00  0.53927686926E+03  0.53927686927E+03  0.25500000920E-02 0. -1.
        2   -1    0    0  501    0  0.00000000000E+00  0.00000000000E+00 -0.20612932279E+04  0.20612932279E+04  0.25500000920E-02 0.  1.
    10030    2    1    2    0    0  0.00000000000E+00  0.00000000000E+00 -0.15220163587E+04  0.26005700972E+04  0.21086562153E+04 0.  0.
        5    1    3    3  502    0  0.85619313298E+03 -0.36550578663E+03 -0.13713581189E+04  0.16575000276E+04  0.46999998093E+01 0.  1.
       -5    1    3    3    0  502 -0.85619313298E+03  0.36550578663E+03 -0.15065823973E+03  0.94307006963E+03  0.46999998093E+01 0. -1.
</event>
<event>
 5   0  0.6052292E-05  0.2078924E+04  0.7818609E-02  0.8570585E-01
       -1   -1    0    0    0  501  0.00000000000E+00  0.00000000000E+00  0.13689658601E+04  0.13689658602E+04  0.50400001928E-02 0.  1.
        1   -1    0    0  501    0  0.00000000000E+00  0.00000000000E+00 -0.78926826870E+03  0.78926826871E+03  0.50400001928E-02 0. -1.
    10030    2    1    2    0    0  0.00000000000E+00  0.00000000000E+00  0.57969759145E+03  0.21582341289E+04  0.20789240625E+04 0.  0.
        1    1    3    3  502    0  0.10389755107E+04 -0.10411565248E+02  0.32104172217E+03  0.10874954253E+04  0.50400001928E-02 0.  1.
       -1    1    3    3    0  502 -0.10389755107E+04  0.10411565248E+02  0.25865586928E+03  0.10707387036E+04  0.50400001928E-02 0. -1.
</event>
<event>
 5   0  0.1281470E-04  0.1574934E+04  0.7818609E-02  0.8836096E-01
       -2   -1    0    0    0  501  0.00000000000E+00  0.00000000000E+00  0.29166257562E+03  0.29166257563E+03  0.25500000920E-02 0.  1.
        2   -1    0    0  501    0  0.00000000000E+00  0.00000000000E+00 -0.21261028758E+04  0.21261028758E+04  0.25500000920E-02 0. -1.
    10030    2    1    2    0    0  0.00000000000E+00  0.00000000000E+00 -0.18344403002E+04  0.24177654514E+04  0.15749344631E+04 0.  0.
        3    1    3    3  502    0  0.40048197393E+03 -0.44075445506E+03 -0.17081657011E+04  0.18089998269E+04  0.10100000352E+00 0. -1.
       -3    1    3    3    0  502 -0.40048197393E+03  0.44075445506E+03 -0.12627459914E+03  0.60876562459E+03  0.10100000352E+00 0.  1.
</event>
<event>
 5   0  0.1325673E-04  0.2081876E+04  0.7818609E-02  0.8569269E-01
        2   -1    0    0  501    0  0.00000000000E+00  0.00000000000E+00  0.87785650184E+03  0.87785650185E+03  0.25500000920E-02 0.  1.
       -2   -1    0    0    0  501  0.00000000000E+00  0.00000000000E+00 -0.12343160231E+04  0.12343160231E+04  0.25500000920E-02 0. -1.
    10030    2    1    2    0    0  0.00000000000E+00  0.00000000000E+00 -0.35645952122E+03  0.21121725249E+04  0.20818764096E+04 0.  0.
        5    1    3    3  502    0  0.21944307698E+03 -0.23759814110E+03  0.82557329875E+03  0.88668004506E+03  0.46999998093E+01 0.  1.
       -5    1    3    3    0  502 -0.21944307698E+03  0.23759814110E+03 -0.11820328200E+04  0.12254924799E+04  0.46999998093E+01 0. -1.
</event>
<event>
 5   0  0.6052292E-05  0.1958238E+04  0.7818609E-02  0.8626399E-01
       -1   -1    0    0    0  501  0.00000000000E+00  0.00000000000E+00  0.40388064628E+03  0.40388064631E+03  0.50400001928E-02 0. -1.
        1   -1    0    0  501    0  0.00000000000E+00  0.00000000000E+00 -0.23736559750E+04  0.23736559750E+04  0.50400001928E-02 0.  1.
    10030    2    1    2    0    0  0.00000000000E+00  0.00000000000E+00 -0.19697753287E+04  0.27775366213E+04  0.19582376866E+04 0.  0.
        1    1    3    3  502    0 -0.86857334038E+03  0.27177756126E+03 -0.47271283814E+03  0.10255438156E+04  0.50400001928E-02 0. -1.
       -1    1    3    3    0  502  0.86857334038E+03 -0.27177756126E+03 -0.14970624906E+04  0.17519928057E+04  0.50400001928E-02 0.  1.
</event>
<event>
 5   0  0.1349252E-04  0.1942329E+04  0.7818609E-02  0.8634069E-01
        2   -1    0    0  501    0  0.00000000000E+00  0.00000000000E+00  0.73032344656E+03  0.73032344656E+03  0.25500000920E-02 0. -1.
       -2   -1    0    0    0  501  0.00000000000E+00  0.00000000000E+00 -0.12914289591E+04  0.12914289591E+04  0.25500000920E-02 0.  1.
    10030    2    1    2    0    0  0.00000000000E+00  0.00000000000E+00 -0.56110551258E+03  0.20217524057E+04  0.19423293731E+04 0.  0.
        2    1    3    3  502    0  0.57090942404E+03  0.18842784373E+03 -0.10744447571E+04  0.12312084141E+04  0.25500000920E-02 0.  1.
       -2    1    3    3    0  502 -0.57090942404E+03 -0.18842784373E+03  0.51333924454E+03  0.79054399165E+03  0.25500000920E-02 0. -1.
</event>
<event>
 5   0  0.1325673E-04  0.2105974E+04  0.7818609E-02  0.8558616E-01
       -2   -1    0    0    0  501  0.00000000000E+00  0.00000000000E+00  0.98654728151E+03  0.98654728152E+03  0.25500000920E-02 0.  1.
        2   -1    0    0  501    0  0.00000000000E+00  0.00000000000E+00 -0.11239016485E+04  0.11239016485E+04  0.25500000920E-02 0. -1.
    10030    2    1    2    0    0  0.00000000000E+00  0.00000000000E+00 -0.13735436702E+03  0.21104489301E+04  0.21059744690E+04 0.  0.
        5    1    3    3  502    0 -0.96511240283E+03  0.34601080909E+03 -0.30917581717E+03  0.10708768398E+04  0.46999998093E+01 0. -1.
       -5    1    3    3    0  502  0.96511240283E+03 -0.34601080909E+03  0.17182145015E+03  0.10395720903E+04  0.46999998093E+01 0.  1.
</event>
<event>
 5   0  0.5933905E-05  0.1717486E+04  0.7818609E-02  0.8751454E-01
       -1   -1    0    0    0  501  0.00000000000E+00  0.00000000000E+00  0.53412260857E+03  0.53412260859E+03  0.50400001928E-02 0.  1.
        1   -1    0    0  501    0  0.00000000000E+00  0.00000000000E+00 -0.13806566577E+04  0.13806566577E+04  0.50400001928E-02 0. -1.
    10030    2    1    2    0    0  0.00000000000E+00  0.00000000000E+00 -0.84653404914E+03  0.19147792663E+04  0.17174864606E+04 0.  0.
        2    1    3    3  502    0  0.84562174177E+03  0.24629673513E+02 -0.25881972645E+03  0.88468661219E+03  0.25500000920E-02 0.  1.
       -2    1    3    3    0  502 -0.84562174177E+03 -0.24629673513E+02 -0.58771432269E+03  0.10300926541E+04  0.25500000920E-02 0. -1.
</event>
<event>
 5   0  0.1325673E-04  0.2150049E+04  0.7818609E-02  0.8539511E-01
        2   -1    0    0  501    0  0.00000000000E+00  0.00000000000E+00  0.96221498104E+03  0.96221498105E+03  0.25500000920E-02 0. -1.
       -2   -1    0    0    0  501  0.00000000000E+00  0.00000000000E+00 -0.12010595187E+04  0.12010595187E+04  0.25500000920E-02 0.  1.
    10030    2    1    2    0    0  0.00000000000E+00  0.00000000000E+00 -0.23884453766E+03  0.21632744998E+04  0.21500488013E+04 0.  0.
        5    1    3    3  502    0  0.84135739445E+03  0.48807755904E+03  0.34116366706E+03  0.10307845102E+04  0.46999998093E+01 0. -1.
       -5    1    3    3    0  502 -0.84135739445E+03 -0.48807755904E+03 -0.58000820472E+03  0.11324899895E+04  0.46999998093E+01 0.  1.
</event>
<event>
 5   0  0.6263616E-05  0.2106193E+04  0.7818609E-02  0.8558520E-01
       -1   -1    0    0    0  501  0.00000000000E+00  0.00000000000E+00  0.86577847867E+03  0.86577847869E+03  0.50400001928E-02 0. -1.
        1   -1    0    0  501    0  0.00000000000E+00  0.00000000000E+00 -0.12809428265E+04  0.12809428265E+04  0.50400001928E-02 0.  1.
    10030    2    1    2    0    0  0.00000000000E+00  0.00000000000E+00 -0.41516434778E+03  0.21467213051E+04  0.21061934684E+04 0.  0.
        4    1    3    3  502    0 -0.39026007082E+03 -0.32367825779E+03 -0.11483491368E+04  0.12552999204E+04  0.12699999809E+01 0.  1.
       -4    1    3    3    0  502  0.39026007082E+03  0.32367825779E+03  0.73318478898E+03  0.89142138472E+03  0.12699999809E+01 0. -1.
</event>
<event>
 5   0  0.5846187E-05  0.2094649E+04  0.7818609E-02  0.8563604E-01
       -1   -1    0    0    0  501  0.00000000000E+00  0.00000000000E+00  0.12687705465E+04  0.12687705465E+04  0.50400001928E-02 0. -1.
        1   -1    0    0  501    0  0.00000000000E+00  0.00000000000E+00 -0.86452905043E+03  0.86452905045E+03  0.50400001928E-02 0.  1.
    10030    2    1    2    0    0  0.00000000000E+00  0.00000000000E+00  0.40424149604E+03  0.21332995969E+04  0.20946493700E+04 0.  0.
        5    1    3    3  502    0  0.76022123664E+02  0.43130268860E+03 -0.76678276165E+03  0.88305111180E+03  0.46999998093E+01 0.  1.
       -5    1    3    3    0  502 -0.76022123664E+02 -0.43130268860E+03  0.11710242577E+04  0.12502484851E+04  0.46999998093E+01 0. -1.
</event>
<event>
 5   0  0.5846187E-05  0.2116528E+04  0.7818609E-02  0.8553997E-01
        1   -1    0    0  501    0  0.00000000000E+00  0.00000000000E+00  0.11511040886E+04  0.11511040886E+04  0.50400001928E-02 0. -1.
       -1   -1    0    0    0  501  0.00000000000E+00  0.00000000000E+00 -0.97291164170E+03  0.97291164171E+03  0.50400001928E-02 0.  1.
    10030    2    1    2    0    0  0.00000000000E+00  0.00000000000E+00  0.17819244689E+03  0.21240157303E+04  0.21165278818E+04 0.  0.
        5    1    3    3  502    0 -0.20022406992E+03 -0.74729180021E+02  0.11292118839E+04  0.11492674612E+04  0.46999998093E+01 0. -1.
       -5    1    3    3    0  502  0.20022406992E+03  0.74729180021E+02 -0.95101943705E+03  0.97474826913E+03  0.46999998093E+01 0.  1.
</event>
<event>
 5   0  0.4615125E-05  0.1569680E+04  0.7818609E-02  0.8839394E-01
       -3   -1    0    0    0  501  0.00000000000E+00  0.00000000000E+00  0.16562356767E+04  0.16562356797E+04  0.10100000352E+00 0. -1.
        3   -1    0    0  501    0  0.00000000000E+00  0.00000000000E+00 -0.37191189834E+03  0.37191191205E+03  0.10100000352E+00 0.  1.
    10030    2    1    2    0    0  0.00000000000E+00  0.00000000000E+00  0.12843237783E+04  0.20281475918E+04  0.15696799312E+04 0.  0.
        2    1    3    3  502    0 -0.59371376134E+02  0.62154412044E+02 -0.36581204347E+03  0.37577464309E+03  0.25500000920E-02 0.  1.
       -2    1    3    3    0  502  0.59371376134E+02 -0.62154412044E+02  0.16501358218E+04  0.16523729487E+04  0.25500000920E-02 0. -1.
</event>
<event>
 5   0  0.1281470E-04  0.2103834E+04  0.7818609E-02  0.8559556E-01
       -2   -1    0    0    0  501  0.00000000000E+00  0.00000000000E+00  0.53177433001E+03  0.53177433001E+03  0.25500000920E-02 0.  1.
        2   -1    0    0  501    0  0.00000000000E+00  0.00000000000E+00 -0.20808260641E+04  0.20808260641E+04  0.25500000920E-02 0. -1.
    10030    2    1    2    0    0  0.00000000000E+00  0.00000000000E+00 -0.15490517341E+04  0.26126003942E+04  0.21038344860E+04 0.  0.
        3    1    3    3  502    0  0.22648654340E+03  0.53785254556E+03 -0.18613547308E+04  0.19506980697E+04  0.10100000352E+00 0. -1.
       -3    1    3    3    0  502 -0.22648654340E+03 -0.53785254556E+03  0.31230299670E+03  0.66190232441E+03  0.10100000352E+00 0.  1.
</event>
<event>
 5   0  0.5846187E-05  0.1987125E+04  0.7818609E-02  0.8612664E-01
        1   -1    0    0  501    0  0.00000000000E+00  0.00000000000E+00  0.59033158869E+03  0.59033158871E+03  0.50400001928E-02 0.  1.
       -1   -1    0    0    0  501  0.00000000000E+00  0.00000000000E+00 -0.16722240315E+04  0.16722240315E+04  0.50400001928E-02 0. -1.
    10030    2    1    2    0    0  0.00000000000E+00  0.00000000000E+00 -0.10818924428E+04  0.22625556202E+04  0.19871252293E+04 0.  0.
        5    1    3    3  502    0 -0.47719119700E+03  0.77843577723E+03 -0.94892650382E+02  0.91798714744E+03  0.46999998093E+01 0.  1.
       -5    1    3    3    0  502  0.47719119700E+03 -0.77843577723E+03 -0.98699979245E+03  0.13445684728E+04  0.46999998093E+01 0. -1.
</event>
<event>
 5   0  0.5846187E-05  0.2140687E+04  0.7818609E-02  0.8543529E-01
        1   -1    0    0  501    0  0.00000000000E+00  0.00000000000E+00  0.12127558653E+04  0.12127558653E+04  0.50400001928E-02 0.  1.
       -1   -1    0    0    0  501  0.00000000000E+00  0.00000000000E+00 -0.94465414837E+03  0.94465414838E+03  0.50400001928E-02 0. -1.
    10030    2    1    2    0    0  0.00000000000E+00  0.00000000000E+00  0.26810171688E+03  0.21574100136E+04  0.21406866740E+04 0.  0.
        5    1    3    3  502    0  0.51849207640E+03  0.13109543399E+02  0.10776380151E+04  0.11959647466E+04  0.46999998093E+01 0.  1.
       -5    1    3    3    0  502 -0.51849207640E+03 -0.13109543399E+02 -0.80953629824E+03  0.96144526707E+03  0.46999998093E+01 0. -1.
</event>
<event>
 5   0  0.1281470E-04  0.2101054E+04  0.7818609E-02  0.8560779E-01
       -2   -1    0    0    0  501  0.00000000000E+00  0.00000000000E+00  0.17253847068E+04  0.17253847068E+04  0.25500000920E-02 0. -1.
        2   -1    0    0  501    0  0.00000000000E+00  0.00000000000E+00 -0.63962948421E+03  0.63962948421E+03  0.25500000920E-02 0.  1.
    10030    2    1    2    0    0  0.00000000000E+00  0.00000000000E+00  0.10857552226E+04  0.23650141910E+04  0.21010539546E+04 0.  0.
        3    1    3    3  502    0 -0.94258265499E+03  0.37141488776E+03  0.23013036587E+03  0.10389278492E+04  0.10100000352E+00 0.  1.
       -3    1    3    3    0  502  0.94258265499E+03 -0.37141488776E+03  0.85562485673E+03  0.13260863418E+04  0.10100000352E+00 0. -1.
</event>
<event>
 5   0  0.1235817E-04  0.1557855E+04  0.7818609E-02  0.8846866E-01
       -2   -1    0    0    0  501  0.00000000000E+00  0.00000000000E+00  0.31174278983E+03  0.31174278984E+03  0.25500000920E-02 0. -1.
        2   -1    0    0  501    0  0.00000000000E+00  0.00000000000E+00 -0.19462457632E+04  0.19462457632E+04  0.25500000920E-02 0.  1.
    10030    2    1    2    0    0  0.00000000000E+00  0.00000000000E+00 -0.16345029734E+04  0.22579885531E+04  0.15578550433E+04 0.  0.
        1    1    3    3  502    0  0.40939168692E+03  0.84097597262E+02  0.13546519401E+03  0.43934585237E+03  0.50400001928E-02 0. -1.
       -1    1    3    3    0  502 -0.40939168692E+03 -0.84097597262E+02 -0.17699681674E+04  0.18186427007E+04  0.50400001928E-02 0.  1.
</event>
<event>
 5   0  0.1252477E-04  0.2103779E+04  0.7818609E-02  0.8559581E-01
        2   -1    0    0  501    0  0.00000000000E+00  0.00000000000E+00  0.15917941613E+04  0.15917941613E+04  0.25500000920E-02 0. -1.
       -2   -1    0    0    0  501  0.00000000000E+00  0.00000000000E+00 -0.69510960808E+03  0.69510960808E+03  0.25500000920E-02 0.  1.
    10030    2    1    2    0    0  0.00000000000E+00  0.00000000000E+00  0.89668455326E+03  0.22869037694E+04  0.21037789006E+04 0.  0.
        4    1    3    3  502    0 -0.87518023954E+03  0.51623650688E+03  0.74410904899E+03  0.12594206892E+04  0.12699999809E+01 0.  1.
       -4    1    3    3    0  502  0.87518023954E+03 -0.51623650688E+03  0.15257550426E+03  0.10274830802E+04  0.12699999809E+01 0. -1.
</event>
<event>
 5   0  0.5933905E-05  0.2088487E+04  0.7818609E-02  0.8566332E-01
        1   -1    0    0  501    0  0.00000000000E+00  0.00000000000E+00  0.16243460794E+04  0.16243460794E+04  0.50400001928E-02 0.  1.
       -1   -1    0    0    0  501  0.00000000000E+00  0.00000000000E+00 -0.67131318312E+03  0.67131318313E+03  0.50400001928E-02 0. -1.
    10030    2    1    2    0    0  0.00000000000E+00  0.00000000000E+00  0.95303289627E+03  0.22956592625E+04  0.20884874307E+04 0.  0.
        2    1    3    3  502    0  0.19922077861E+03 -0.43961001999E+03 -0.54135371756E+03  0.72526528652E+03  0.25500000920E-02 0. -1.
       -2    1    3    3    0  502 -0.19922077861E+03  0.43961001999E+03  0.14943866138E+04  0.15703939760E+04  0.25500000920E-02 0.  1.
</event>
<event>
 5   0  0.1325673E-04  0.1598478E+04  0.7818609E-02  0.8821484E-01
       -2   -1    0    0    0  501  0.00000000000E+00  0.00000000000E+00  0.50418781570E+03  0.50418781570E+03  0.25500000920E-02 0.  1.
        2   -1    0    0  501    0  0.00000000000E+00  0.00000000000E+00 -0.12669541059E+04  0.12669541059E+04  0.25500000920E-02 0. -1.
    10030    2    1    2    0    0  0.00000000000E+00  0.00000000000E+00 -0.76276629017E+03  0.17711419216E+04  0.15984778050E+04 0.  0.
        5    1    3    3  502    0 -0.32004992889E+02 -0.24863581913E+03 -0.12222487083E+04  0.12477011201E+04  0.46999998093E+01 0. -1.
       -5    1    3    3    0  502  0.32004992889E+02  0.24863581913E+03  0.45948241811E+03  0.52344080150E+03  0.46999998093E+01 0.  1.
</event>
<event>
 5   0  0.6263616E-05  0.2096570E+04  0.7818609E-02  0.8562756E-01
        1   -1    0    0  501    0  0.00000000000E+00  0.00000000000E+00  0.11148483465E+04  0.11148483466E+04  0.50400001928E-02 0. -1.
       -1   -1    0    0    0  501  0.00000000000E+00  0.00000000000E+00 -0.98569580450E+03  0.98569580452E+03  0.50400001928E-02 0.  1.
    10030    2    1    2    0    0  0.00000000000E+00  0.00000000000E+00  0.12915254204E+03  0.21005441511E+04  0.20965699014E+04 0.  0.
        4    1    3    3  502    0 -0.55137201570E+03 -0.87280136247E+03 -0.11772029683E+03  0.10390635203E+04  0.12699999809E+01 0.  1.
       -4    1    3    3    0  502  0.55137201570E+03  0.87280136247E+03  0.24687283887E+03  0.10614806308E+04  0.12699999809E+01 0. -1.
</event>
<event>
 5   0  0.1235817E-04  0.2119756E+04  0.7818609E-02  0.8552590E-01
       -2   -1    0    0    0  501  0.00000000000E+00  0.00000000000E+00  0.78723091161E+03  0.78723091161E+03  0.25500000920E-02 0. -1.
        2   -1    0    0  501    0  0.00000000000E+00  0.00000000000E+00 -0.14269531636E+04  0.14269531636E+04  0.25500000920E-02 0.  1.
    10030    2    1    2    0    0  0.00000000000E+00  0.00000000000E+00 -0.63972225199E+03  0.22141840752E+04  0.21197562500E+04 0.  0.
        1    1    3    3  502    0 -0.52943719977E+03 -0.68593801309E+03 -0.95739995032E+03  0.12912898091E+04  0.50400001928E-02 0.  1.
       -1    1    3    3    0  502  0.52943719977E+03  0.68593801309E+03  0.31767769833E+03  0.92289426607E+03  0.50400001928E-02 0. -1.
</event>
<event>
 5   0  0.1325673E-04  0.2054671E+04  0.7818609E-02  0.8581478E-01
       -2   -1    0    0    0  501  0.00000000000E+00  0.00000000000E+00  0.10539800586E+04  0.10539800586E+04  0.25500000920E-02 0. -1.
        2   -1    0    0  501    0  0.00000000000E+00  0.00000000000E+00 -0.10013649071E+04  0.10013649071E+04  0.25500000920E-02 0.  1.
    10030    2    1    2    0    0  0.00000000000E+00  0.00000000000E+00  0.52615151528E+02  0.20553449657E+04  0.20546714029E+04 0.  0.
        5    1    3    3  502    0 -0.79272378127E+03  0.24858489698E+03 -0.57820097039E+03  0.10121975581E+04  0.46999998093E+01 0.  1.
       -5    1    3    3    0  502  0.79272378127E+03 -0.24858489698E+03  0.63081612191E+03  0.10431474076E+04  0.46999998093E+01 0. -1.
</event>
<event>
 5   0  0.1349252E-04  0.2120506E+04  0.7818609E-02  0.8552264E-01
        2   -1    0    0  501    0  0.00000000000E+00  0.00000000000E+00  0.21755366939E+04  0.21755366939E+04  0.25500000920E-02 0. -1.
       -2   -1    0    0    0  501  0.00000000000E+00  0.00000000000E+00 -0.51671695464E+03  0.51671695465E+03  0.25500000920E-02 0.  1.
    10030    2    1    2    0    0  0.00000000000E+00  0.00000000000E+00  0.16588197392E+04  0.26922536485E+04  0.21205062558E+04 0.  0.
        2    1    3    3  502    0 -0.75420763317E+03 -0.57920123355E+03  0.14246926582E+04  0.17129075846E+04  0.25500000920E-02 0. -1.
       -2    1    3    3    0  502  0.75420763317E+03  0.57920123355E+03  0.23412708098E+03  0.97934606393E+03  0.25500000920E-02 0.  1.
</event>
<event>
 5   0  0.6052292E-05  0.2625893E+04  0.7818609E-02  0.8359459E-01
        1   -1    0    0  501    0  0.00000000000E+00  0.00000000000E+00  0.17024507075E+04  0.17024507075E+04  0.50400001928E-02 0. -1.
       -1   -1    0    0    0  501  0.00000000000E+00  0.00000000000E+00 -0.10125572538E+04  0.10125572538E+04  0.50400001928E-02 0.  1.
    10030    2    1    2    0    0  0.00000000000E+00  0.00000000000E+00  0.68989345368E+03  0.27150079613E+04  0.26258932295E+04 0.  0.
        1    1    3    3  502    0  0.77484863476E+03 -0.21057739988E+03  0.14189954863E+04  0.16304236990E+04  0.50400001928E-02 0. -1.
       -1    1    3    3    0  502 -0.77484863476E+03  0.21057739988E+03 -0.72910203259E+03  0.10845842623E+04  0.50400001928E-02 0.  1.
</event>
<event>
 5   0  0.6263616E-05  0.2010800E+04  0.7818609E-02  0.8601588E-01
       -1   -1    0    0    0  501  0.00000000000E+00  0.00000000000E+00  0.70821084820E+03  0.70821084822E+03  0.50400001928E-02 0.  1.
        1   -1    0    0  501    0  0.00000000000E+00  0.00000000000E+00 -0.14272992535E+04  0.14272992535E+04  0.50400001928E-02 0. -1.
    10030    2    1    2    0    0  0.00000000000E+00  0.00000000000E+00 -0.71908840532E+03  0.21355101017E+04  0.20107996568E+04 0.  0.
        4    1    3    3  502    0  0.44906096773E+03 -0.38506060634E+03 -0.12229215126E+04  0.13584793197E+04  0.12699999809E+01 0. -1.
       -4    1    3    3    0  502 -0.44906096773E+03  0.38506060634E+03  0.50383310728E+03  0.77703078200E+03  0.12699999809E+01 0.  1.
</event>
<event>
 5   0  0.1349252E-04  0.2178151E+04  0.7818609E-02  0.8527577E-01
        2   -1    0    0  501    0  0.00000000000E+00  0.00000000000E+00  0.66723055158E+03  0.66723055159E+03  0.25500000920E-02 0.  1.
       -2   -1    0    0    0  501  0.00000000000E+00  0.00000000000E+00 -0.17776251498E+04  0.17776251498E+04  0.25500000920E-02 0. -1.
    10030    2    1    2    0    0  0.00000000000E+00  0.00000000000E+00 -0.11103945982E+04  0.24448557014E+04  0.21781513347E+04 0.  0.
        2    1    3    3  502    0 -0.80006043143E+03  0.70149170801E+03 -0.81578476096E+03  0.13407804021E+04  0.25500000920E-02 0.  1.
       -2    1    3    3    0  502  0.80006043143E+03 -0.70149170801E+03 -0.29460983724E+03  0.11040752993E+04  0.25500000920E-02 0. -1.
</event>
<event>
 5   0  0.1325673E-04  0.2106933E+04  0.7818609E-02  0.8558195E-01
       -2   -1    0    0    0  501  0.00000000000E+00  0.00000000000E+00  0.10626168208E+04  0.10626168208E+04  0.25500000920E-02 0.  1.
        2   -1    0    0  501    0  0.00000000000E+00  0.00000000000E+00 -0.10443953841E+04  0.10443953841E+04  0.25500000920E-02 0. -1.
    10030    2    1    2    0    0  0.00000000000E+00  0.00000000000E+00  0.18221436687E+02  0.21070122049E+04  0.21069334140E+04 0.  0.
        5    1    3    3  502    0 -0.98455651642E+03 -0.37110192791E+03  0.61091867517E+02  0.10539556353E+04  0.46999998093E+01 0.  1.
       -5    1    3    3    0  502  0.98455651642E+03  0.37110192791E+03 -0.42870430829E+02  0.10530565696E+04  0.46999998093E+01 0. -1.
</event>
<event>
 5   0  0.6263616E-05  0.2114826E+04  0.7818609E-02  0.8554741E-01
       -1   -1    0    0    0  501  0.00000000000E+00  0.00000000000E+00  0.12775104253E+04  0.12775104253E+04  0.50400001928E-02 0. -1.
        1   -1    0    0  501    0  0.00000000000E+00  0.00000000000E+00 -0.87523497988E+03  0.87523497989E+03  0.50400001928E-02 0.  1.
    10030    2    1    2    0    0  0.00000000000E+00  0.00000000000E+00  0.40227544538E+03  0.21527454052E+04  0.21148255827E+04 0.  0.
        4    1    3    3  502    0 -0.10265233942E+04  0.14230221439E+03 -0.12676142420E+02  0.10364181090E+04  0.12699999809E+01 0.  1.
       -4    1    3    3    0  502  0.10265233942E+04 -0.14230221439E+03  0.41495158780E+03  0.11163272962E+04  0.12699999809E+01 0. -1.
</event>
<event>
 5   0  0.5933905E-05  0.2091939E+04  0.7818609E-02  0.8564803E-01
       -1   -1    0    0    0  501  0.00000000000E+00  0.00000000000E+00  0.80079285411E+03  0.80079285413E+03  0.50400001928E-02 0.  1.
        1   -1    0    0  501    0  0.00000000000E+00  0.00000000000E+00 -0.13662110074E+04  0.13662110074E+04  0.50400001928E-02 0. -1.
    10030    2    1    2    0    0  0.00000000000E+00  0.00000000000E+00 -0.56541815328E+03  0.21670038615E+04  0.20919388251E+04 0.  0.
        2    1    3    3  502    0  0.77198090447E+02  0.88936467164E+03 -0.84735838748E+03  0.12308311424E+04  0.25500000920E-02 0.  1.
       -2    1    3    3    0  502 -0.77198090447E+02 -0.88936467164E+03  0.28194023419E+03  0.93617271910E+03  0.25500000920E-02 0. -1.
</event>
<event>
 5   0  0.1252477E-04  0.2133351E+04  0.7818609E-02  0.8546693E-01
       -2   -1    0    0    0  501  0.00000000000E+00  0.00000000000E+00  0.86625107092E+03  0.86625107092E+03  0.25500000920E-02 0. -1.
        2   -1    0    0  501    0  0.00000000000E+00  0.00000000000E+00 -0.13134719287E+04  0.13134719287E+04  0.25500000920E-02 0.  1.
    10030    2    1    2    0    0  0.00000000000E+00  0.00000000000E+00 -0.44722085783E+03  0.21797229997E+04  0.21333508524E+04 0.  0.
        4    1    3    3  502    0 -0.27776128306E+03  0.10055273649E+04 -0.45106619907E+03  0.11365293400E+04  0.12699999809E+01 0.  1.
       -4    1    3    3    0  502  0.27776128306E+03 -0.10055273649E+04  0.38453412467E+01  0.10431936596E+04  0.12699999809E+01 0. -1.
</event>
<event>
 5   0  0.5846187E-05  0.2153582E+04  0.7818609E-02  0.8538001E-01
        1   -1    0    0  501    0  0.00000000000E+00  0.00000000000E+00  0.79936083971E+03  0.79936083972E+03  0.50400001928E-02 0.  1.
       -1   -1    0    0    0  501  0.00000000000E+00  0.00000000000E+00 -0.14505070923E+04  0.14505070923E+04  0.50400001928E-02 0. -1.
    10030    2    1    2    0    0  0.00000000000E+00  0.00000000000E+00 -0.65114625255E+03  0.22498679320E+04  0.21535817303E+04 0.  0.
        5    1    3    3  502    0 -0.88973952633E+03 -0.19081059008E+03  0.27584895638E+03  0.95087320014E+03  0.46999998093E+01 0.  1.
       -5    1    3    3    0  502  0.88973952633E+03  0.19081059008E+03 -0.92699520893E+03  0.12989947319E+04  0.46999998093E+01 0. -1.
</event>
<event>
 5   0  0.1252477E-04  0.1928905E+04  0.7818609E-02  0.8640601E-01
       -2   -1    0    0    0  501  0.00000000000E+00  0.00000000000E+00  0.56402579799E+03  0.56402579799E+03  0.25500000920E-02 0. -1.
        2   -1    0    0  501    0  0.00000000000E+00  0.00000000000E+00 -0.16491601007E+04  0.16491601007E+04  0.25500000920E-02 0.  1.
    10030    2    1    2    0    0  0.00000000000E+00  0.00000000000E+00 -0.10851343027E+04  0.22131858987E+04  0.19289052251E+04 0.  0.
        4    1    3    3  502    0  0.25221698440E+02  0.69997917854E+03 -0.13032720414E+04  0.14795697386E+04  0.12699999809E+01 0.  1.
       -4    1    3    3    0  502 -0.25221698440E+02 -0.69997917854E+03  0.21813773870E+03  0.73361616013E+03  0.12699999809E+01 0. -1.
</event>
<event>
 5   0  0.1252477E-04  0.1943923E+04  0.7818609E-02  0.8633297E-01
       -2   -1    0    0    0  501  0.00000000000E+00  0.00000000000E+00  0.54038580970E+03  0.54038580970E+03  0.25500000920E-02 0. -1.
        2   -1    0    0  501    0  0.00000000000E+00  0.00000000000E+00 -0.17482126516E+04  0.17482126516E+04  0.25500000920E-02 0.  1.
    10030    2    1    2    0    0  0.00000000000E+00  0.00000000000E+00 -0.12078268419E+04  0.22885984614E+04  0.19439231562E+04 0.  0.
        4    1    3    3  502    0  0.46993418645E+03 -0.70592301288E+03 -0.11630327023E+04  0.14393790742E+04  0.12699999809E+01 0.  1.
       -4    1    3    3    0  502 -0.46993418645E+03  0.70592301288E+03 -0.44794139668E+02  0.84921938717E+03  0.12699999809E+01 0. -1.
</event>
<event>
 5   0  0.1281470E-04  0.1570664E+04  0.7818609E-02  0.8838776E-01
        2   -1    0    0  501    0  0.00000000000E+00  0.00000000000E+00  0.93435591493E+03  0.93435591493E+03  0.25500000920E-02 0.  1.
       -2   -1    0    0    0  501  0.00000000000E+00  0.00000000000E+00 -0.66007668236E+03  0.66007668236E+03  0.25500000920E-02 0. -1.
    10030    2    1    2    0    0  0.00000000000E+00  0.00000000000E+00  0.27427923257E+03  0.15944325973E+04  0.15706642575E+04 0.  0.
        3    1    3    3  502    0 -0.28703941104E+03 -0.41090477183E+03 -0.47658527110E+03  0.69164144311E+03  0.10100000352E+00 0.  1.
       -3    1    3    3    0  502  0.28703941104E+03  0.41090477183E+03  0.75086450367E+03  0.90279115418E+03  0.10100000352E+00 0. -1.
</event>
<event>
 5   0  0.5933905E-05  0.2119701E+04  0.7818609E-02  0.8552614E-01
       -1   -1    0    0    0  501  0.00000000000E+00  0.00000000000E+00  0.77870326478E+03  0.77870326479E+03  0.50400001928E-02 0. -1.
        1   -1    0    0  501    0  0.00000000000E+00  0.00000000000E+00 -0.14425049505E+04  0.14425049505E+04  0.50400001928E-02 0.  1.
    10030    2    1    2    0    0  0.00000000000E+00  0.00000000000E+00 -0.66380168573E+03  0.22212082153E+04  0.21197012190E+04 0.  0.
        2    1    3    3  502    0 -0.16233980389E+03  0.91666319677E+03 -0.86277521319E+03  0.12692543861E+04  0.25500000920E-02 0.  1.
       -2    1    3    3    0  502  0.16233980389E+03 -0.91666319677E+03  0.19897352746E+03  0.95195382917E+03  0.25500000920E-02 0. -1.
</event>
<event>
 5   0  0.6052292E-05  0.2100749E+04  0.7818609E-02  0.8560913E-01
        1   -1    0    0  501    0  0.00000000000E+00  0.00000000000E+00  0.21643149592E+04  0.21643149592E+04  0.50400001928E-02 0. -1.
       -1   -1    0    0    0  501  0.00000000000E+00  0.00000000000E+00 -0.50976256632E+03  0.50976256634E+03  0.50400001928E-02 0.  1.
    10030    2    1    2    0    0  0.00000000000E+00  0.00000000000E+00  0.16545523929E+04  0.26740775255E+04  0.21007491501E+04 0.  0.
        1    1    3    3  502    0 -0.88794584789E+03  0.56256991263E+02  0.15379169892E+04  0.17767389633E+04  0.50400001928E-02 0. -1.
       -1    1    3    3    0  502  0.88794584789E+03 -0.56256991263E+02  0.11663540361E+03  0.89733856223E+03  0.50400001928E-02 0.  1.
</event>
<event>
 5   0  0.5846187E-05  0.2104854E+04  0.7818609E-02  0.8559108E-01
       -1   -1    0    0    0  501  0.00000000000E+00  0.00000000000E+00  0.15150409702E+04  0.15150409702E+04  0.50400001928E-02 0.  1.
        1   -1    0    0  501    0  0.00000000000E+00  0.00000000000E+00 -0.73107130044E+03  0.73107130045E+03  0.50400001928E-02 0. -1.
    10030    2    1    2    0    0  0.00000000000E+00  0.00000000000E+00  0.78396966977E+03  0.22461122707E+04  0.21048543630E+04 0.  0.
        5    1    3    3  502    0 -0.39572997751E+03  0.83430653385E+03 -0.14678581737E+03  0.93500683083E+03  0.46999998093E+01 0. -1.
       -5    1    3    3    0  502  0.39572997751E+03 -0.83430653385E+03  0.93075548713E+03  0.13111054398E+04  0.46999998093E+01 0.  1.
</event>
<event>
 5   0  0.1235817E-04  0.2207848E+04  0.7818609E-02  0.8515169E-01
       -2   -1    0    0    0  501  0.00000000000E+00  0.00000000000E+00  0.63065130517E+03  0.63065130518E+03  0.25500000920E-02 0.  1.
        2   -1    0    0  501    0  0.00000000000E+00  0.00000000000E+00 -0.19323645292E+04  0.19323645292E+04  0.25500000920E-02 0. -1.
    10030    2    1    2    0    0  0.00000000000E+00  0.00000000000E+00 -0.13017132240E+04  0.25630158344E+04  0.22078480133E+04 0.  0.
        1    1    3    3  502    0  0.97801137550E+03 -0.31578256810E+03 -0.11187062769E+04  0.15191210008E+04  0.50400001928E-02 0. -1.
       -1    1    3    3    0  502 -0.97801137550E+03  0.31578256810E+03 -0.18300694710E+03  0.10438948336E+04  0.50400001928E-02 0.  1.
</event>
<event>
 5   0  0.1325673E-04  0.2091905E+04  0.7818609E-02  0.8564818E-01
       -2   -1    0    0    0  501  0.00000000000E+00  0.00000000000E+00  0.87594767284E+03  0.87594767284E+03  0.25500000920E-02 0.  1.
        2   -1    0    0  501    0  0.00000000000E+00  0.00000000000E+00 -0.12489515886E+04  0.12489515886E+04  0.25500000920E-02 0. -1.
    10030    2    1    2    0    0  0.00000000000E+00  0.00000000000E+00 -0.37300391578E+03  0.21248992615E+04  0.20919046226E+04 0.  0.
        5    1    3    3  502    0 -0.37479164432E+03  0.97014703801E+03 -0.29934004805E+03  0.10822571813E+04  0.46999998093E+01 0.  1.
       -5    1    3    3    0  502  0.37479164432E+03 -0.97014703801E+03 -0.73663867732E+02  0.10426420802E+04  0.46999998093E+01 0. -1.
</event>
<event>
 5   0  0.1252477E-04  0.2163529E+04  0.7818609E-02  0.8533763E-01
       -2   -1    0    0    0  501  0.00000000000E+00  0.00000000000E+00  0.12762156449E+04  0.12762156449E+04  0.25500000920E-02 0. -1.
        2   -1    0    0  501    0  0.00000000000E+00  0.00000000000E+00 -0.91694135113E+03  0.91694135114E+03  0.25500000920E-02 0.  1.
    10030    2    1    2    0    0  0.00000000000E+00  0.00000000000E+00  0.35927429375E+03  0.21931569960E+04  0.21635294292E+04 0.  0.
        4    1    3    3  502    0 -0.69431484744E+03  0.30938197649E+03  0.95986753148E+03  0.12243927497E+04  0.12699999809E+01 0. -1.
       -4    1    3    3    0  502  0.69431484744E+03 -0.30938197649E+03 -0.60059323773E+03  0.96876424627E+03  0.12699999809E+01 0.  1.
</event>
<event>
 5   0  0.5846187E-05  0.2088697E+04  0.7818609E-02  0.8566239E-01
       -1   -1    0    0    0  501  0.00000000000E+00  0.00000000000E+00  0.90950573737E+03  0.90950573738E+03  0.50400001928E-02 0.  1.
        1   -1    0    0  501    0  0.00000000000E+00  0.00000000000E+00 -0.11991825171E+04  0.11991825171E+04  0.50400001928E-02 0. -1.
    10030    2    1    2    0    0  0.00000000000E+00  0.00000000000E+00 -0.28967677974E+03  0.21086882545E+04  0.20886966074E+04 0.  0.
        5    1    3    3  502    0  0.99726938629E+02 -0.66865381669E+03 -0.94844570692E+03  0.11647380555E+04  0.46999998093E+01 0. -1.
       -5    1    3    3    0  502 -0.99726938629E+02  0.66865381669E+03  0.65876892718E+03  0.94395019904E+03  0.46999998093E+01 0.  1.
</event>
<event>
 5   0  0.6052292E-05  0.2139153E+04  0.7818609E-02  0.8544190E-01
       -1   -1    0    0    0  501  0.00000000000E+00  0.00000000000E+00  0.94057500908E+03  0.94057500910E+03  0.50400001928E-02 0.  1.
        1   -1    0    0  501    0  0.00000000000E+00  0.00000000000E+00 -0.12162707178E+04  0.12162707178E+04  0.50400001928E-02 0. -1.
    10030    2    1    2    0    0  0.00000000000E+00  0.00000000000E+00 -0.27569570871E+03  0.21568457269E+04  0.21391529552E+04 0.  0.
        1    1    3    3  502    0  0.94162537895E+03  0.16186241455E+03 -0.62259033742E+03  0.11403843755E+04  0.50400001928E-02 0. -1.
       -1    1    3    3    0  502 -0.94162537895E+03 -0.16186241455E+03  0.34689462871E+03  0.10164613514E+04  0.50400001928E-02 0.  1.
</event>
<event>
 5   0  0.5933905E-05  0.2090325E+04  0.7818609E-02  0.8565517E-01
        1   -1    0    0  501    0  0.00000000000E+00  0.00000000000E+00  0.95688145139E+03  0.95688145140E+03  0.50400001928E-02 0.  1.
       -1   -1    0    0    0  501  0.00000000000E+00  0.00000000000E+00 -0.11415885207E+04  0.11415885207E+04  0.50400001928E-02 0. -1.
    10030    2    1    2    0    0  0.00000000000E+00  0.00000000000E+00 -0.18470706932E+03  0.20984699721E+04  0.20903252193E+04 0.  0.
        2    1    3    3  502    0 -0.31399059954E+03  0.23386848725E+03 -0.10651909545E+04  0.11348640163E+04  0.25500000920E-02 0. -1.
       -2    1    3    3    0  502  0.31399059954E+03 -0.23386848725E+03  0.88048388521E+03  0.96360595580E+03  0.25500000920E-02 0.  1.
</event>
<event>
 5   0  0.5933905E-05  0.1529597E+04  0.7818609E-02  0.8865006E-01
        1   -1    0    0  501    0  0.00000000000E+00  0.00000000000E+00  0.19832888726E+04  0.19832888726E+04  0.50400001928E-02 0.  1.
       -1   -1    0    0    0  501  0.00000000000E+00  0.00000000000E+00 -0.29492277707E+03  0.29492277711E+03  0.50400001928E-02 0. -1.
    10030    2    1    2    0    0  0.00000000000E+00  0.00000000000E+00  0.16883660955E+04  0.22782116497E+04  0.15295974138E+04 0.  0.
        2    1    3    3  502    0 -0.48511595526E+03  0.10373828038E+03 -0.22779082037E+02  0.49660649155E+03  0.25500000920E-02 0. -1.
       -2    1    3    3    0  502  0.48511595526E+03 -0.10373828038E+03  0.17111451775E+04  0.17816051581E+04  0.25500000920E-02 0.  1.
</event>
<event>
 5   0  0.5846187E-05  0.2104792E+04  0.7818609E-02  0.8559136E-01
       -1   -1    0    0    0  501  0.00000000000E+00  0.00000000000E+00  0.11188137501E+04  0.11188137501E+04  0.50400001928E-02 0. -1.
        1   -1    0    0  501    0  0.00000000000E+00  0.00000000000E+00 -0.98992069806E+03  0.98992069808E+03  0.50400001928E-02 0.  1.
    10030    2    1    2    0    0  0.00000000000E+00  0.00000000000E+00  0.12889305203E+03  0.21087344482E+04  0.21047915702E+04 0.  0.
        5    1    3    3  502    0  0.44343927950E+03 -0.45553507334E+03 -0.77579265104E+03  0.10030089357E+04  0.46999998093E+01 0.  1.
       -5    1    3    3    0  502 -0.44343927950E+03  0.45553507334E+03  0.90468570307E+03  0.11057255125E+04  0.46999998093E+01 0. -1.
</event>
<event>
 5   0  0.1235817E-04  0.2190839E+04  0.7818609E-02  0.8522251E-01
       -2   -1    0    0    0  501  0.00000000000E+00  0.00000000000E+00  0.13244386956E+04  0.13244386956E+04  0.25500000920E-02 0. -1.
        2   -1    0    0  501    0  0.00000000000E+00  0.00000000000E+00 -0.90600184605E+03  0.90600184605E+03  0.25500000920E-02 0.  1.
    10030    2    1    2    0    0  0.00000000000E+00  0.00000000000E+00  0.41843684959E+03  0.22304405417E+04  0.21908390203E+04 0.  0.
        1    1    3    3  502    0 -0.32626542503E+03  0.83290478852E+03 -0.43447968715E+03  0.99446071460E+03  0.50400001928E-02 0.  1.
       -1    1    3    3    0  502  0.32626542503E+03 -0.83290478852E+03  0.85291653674E+03  0.12359798271E+04  0.50400001928E-02 0. -1.
</event>
<event>
 5   0  0.5933905E-05  0.2082913E+04  0.7818609E-02  0.8568808E-01
        1   -1    0    0  501    0  0.00000000000E+00  0.00000000000E+00  0.13044643547E+04  0.13044643547E+04  0.50400001928E-02 0.  1.
       -1   -1    0    0    0  501  0.00000000000E+00  0.00000000000E+00 -0.83147657460E+03  0.83147657461E+03  0.50400001928E-02 0. -1.
    10030    2    1    2    0    0  0.00000000000E+00  0.00000000000E+00  0.47298778010E+03  0.21359409293E+04  0.20829129155E+04 0.  0.
        2    1    3    3  502    0 -0.29370258916E+03 -0.49404261340E+03  0.11271046637E+04  0.12651894078E+04  0.25500000920E-02 0.  1.
       -2    1    3    3    0  502  0.29370258916E+03  0.49404261340E+03 -0.65411688361E+03  0.87075152148E+03  0.25500000920E-02 0. -1.
</event>
<event>
 5   0  0.6052292E-05  0.1787115E+04  0.7818609E-02  0.8713182E-01
       -1   -1    0    0    0  501  0.00000000000E+00  0.00000000000E+00  0.31312708838E+03  0.31312708843E+03  0.50400001928E-02 0. -1.
        1   -1    0    0  501    0  0.00000000000E+00  0.00000000000E+00 -0.25499070947E+04  0.25499070947E+04  0.50400001928E-02 0.  1.
    10030    2    1    2    0    0  0.00000000000E+00  0.00000000000E+00 -0.22367800064E+04  0.28630341832E+04  0.17871149759E+04 0.  0.
        1    1    3    3  502    0  0.83587032402E+03 -0.24779345521E+03 -0.80460148272E+03  0.11863660232E+04  0.50400001928E-02 0. -1.
       -1    1    3    3    0  502 -0.83587032402E+03  0.24779345521E+03 -0.14321785236E+04  0.16766681600E+04  0.50400001928E-02 0.  1.
</event>
<event>
 5   0  0.1252477E-04  0.2013072E+04  0.7818609E-02  0.8600533E-01
       -2   -1    0    0    0  501  0.00000000000E+00  0.00000000000E+00  0.90214600804E+03  0.90214600804E+03  0.25500000920E-02 0. -1.
        2   -1    0    0  501    0  0.00000000000E+00  0.00000000000E+00 -0.11230056757E+04  0.11230056757E+04  0.25500000920E-02 0.  1.
    10030    2    1    2    0    0  0.00000000000E+00  0.00000000000E+00 -0.22085966763E+03  0.20251516837E+04  0.20130723656E+04 0.  0.
        4    1    3    3  502    0 -0.58625735831E+03 -0.23087326661E+03 -0.90006861402E+03  0.10986925313E+04  0.12699999809E+01 0.  1.
       -4    1    3    3    0  502  0.58625735831E+03  0.23087326661E+03  0.67920894639E+03  0.92645915245E+03  0.12699999809E+01 0. -1.
</event>
<event>
 5   0  0.5846187E-05  0.2087142E+04  0.7818609E-02  0.8566929E-01
       -1   -1    0    0    0  501  0.00000000000E+00  0.00000000000E+00  0.74565682032E+03  0.74565682034E+03  0.50400001928E-02 0. -1.
        1   -1    0    0  501    0  0.00000000000E+00  0.00000000000E+00 -0.14605120494E+04  0.14605120494E+04  0.50400001928E-02 0.  1.
    10030    2    1    2    0    0  0.00000000000E+00  0.00000000000E+00 -0.71485522908E+03  0.22061688697E+04  0.20871423246E+04 0.  0.
        5    1    3    3  502    0 -0.53167061073E+03  0.46802809106E+03 -0.11674830599E+04  0.13655631503E+04  0.46999998093E+01 0.  1.
       -5    1    3    3    0  502  0.53167061073E+03 -0.46802809106E+03  0.45262783081E+03  0.84060571944E+03  0.46999998093E+01 0. -1.
</event>
<event>
 5   0  0.5846187E-05  0.2145289E+04  0.7818609E-02  0.8541551E-01
       -1   -1    0    0    0  501  0.00000000000E+00  0.00000000000E+00  0.10701786903E+04  0.10701786903E+04  0.50400001928E-02 0. -1.
        1   -1    0    0  501    0  0.00000000000E+00  0.00000000000E+00 -0.10751164643E+04  0.10751164643E+04  0.50400001928E-02 0.  1.
    10030    2    1    2    0    0  0.00000000000E+00  0.00000000000E+00 -0.49377739871E+01  0.21452951547E+04  0.21452894721E+04 0.  0.
        5    1    3    3  502    0  0.30469435852E+03  0.90671537430E+03 -0.48782902715E+03  0.10737647190E+04  0.46999998093E+01 0. -1.
       -5    1    3    3    0  502 -0.30469435852E+03 -0.90671537430E+03  0.48289125316E+03  0.10715304356E+04  0.46999998093E+01 0.  1.
</event>
<event>
 5   0  0.5933905E-05  0.1955746E+04  0.7818609E-02  0.8627595E-01
        1   -1    0    0  501    0  0.00000000000E+00  0.00000000000E+00  0.15478387250E+04  0.15478387250E+04  0.50400001928E-02 0. -1.
       -1   -1    0    0    0  501  0.00000000000E+00  0.00000000000E+00 -0.61778786478E+03  0.61778786480E+03  0.50400001928E-02 0.  1.
    10030    2    1    2    0    0  0.00000000000E+00  0.00000000000E+00  0.93005086022E+03  0.21656265898E+04  0.19557463854E+04 0.  0.
        2    1    3    3  502    0 -0.94102570500E+03 -0.22915223754E+03  0.31565752884E+03  0.10186656964E+04  0.25500000920E-02 0.  1.
       -2    1    3    3    0  502  0.94102570500E+03  0.22915223754E+03  0.61439333138E+03  0.11469608934E+04  0.25500000920E-02 0. -1.
</event>
<event>
 5   0  0.1235817E-04  0.2117577E+04  0.7818609E-02  0.8553540E-01
       -2   -1    0    0    0  501  0.00000000000E+00  0.00000000000E+00  0.65739652202E+03  0.65739652203E+03  0.25500000920E-02 0.  1.
        2   -1    0    0  501    0  0.00000000000E+00  0.00000000000E+00 -0.17052619894E+04  0.17052619894E+04  0.25500000920E-02 0. -1.
    10030    2    1    2    0    0  0.00000000000E+00  0.00000000000E+00 -0.10478654674E+04  0.23626585115E+04  0.21175772014E+04 0.  0.
        1    1    3    3  502    0 -0.88998992114E+02 -0.80927228958E+03 -0.12791725965E+04  0.15162865794E+04  0.50400001928E-02 0. -1.
       -1    1    3    3    0  502  0.88998992114E+02  0.80927228958E+03  0.23130712913E+03  0.84637193200E+03  0.50400001928E-02 0.  1.
</event>
<event>
 5   0  0.5933905E-05  0.2111365E+04  0.7818609E-02  0.8556254E-01
        1   -1    0    0  501    0  0.00000000000E+00  0.00000000000E+00  0.70659248454E+03  0.70659248456E+03  0.50400001928E-02 0. -1.
       -1   -1    0    0    0  501  0.00000000000E+00  0.00000000000E+00 -0.15772388726E+04  0.15772388726E+04  0.50400001928E-02 0.  1.
    10030    2    1    2    0    0  0.00000000000E+00  0.00000000000E+00 -0.87064638805E+03  0.22838313572E+04  0.21113646144E+04 0.  0.
        2    1    3    3  502    0  0.45929265101E+03 -0.23598324006E+03  0.56066569246E+03  0.76222296447E+03  0.25500000920E-02 0. -1.
       -2    1    3    3    0  502 -0.45929265101E+03  0.23598324006E+03 -0.14313120805E+04  0.15216083927E+04  0.25500000920E-02 0.  1.
</event>
<event>
 5   0  0.1235817E-04  0.1575405E+04  0.7818609E-02  0.8835802E-01
       -2   -1    0    0    0  501  0.00000000000E+00  0.00000000000E+00  0.28950358926E+03  0.28950358927E+03  0.25500000920E-02 0. -1.
        2   -1    0    0  501    0  0.00000000000E+00  0.00000000000E+00 -0.21432381836E+04  0.21432381836E+04  0.25500000920E-02 0.  1.
    10030    2    1    2    0    0  0.00000000000E+00  0.00000000000E+00 -0.18537345944E+04  0.24327417729E+04  0.15754048963E+04 0.  0.
        1    1    3    3  502    0  0.14610298728E+03  0.75246573848E+03 -0.64667086563E+03  0.10028628914E+04  0.50400001928E-02 0.  1.
       -1    1    3    3    0  502 -0.14610298728E+03 -0.75246573848E+03 -0.12070637288E+04  0.14298788815E+04  0.50400001928E-02 0. -1.
</event>
<event>
 5   0  0.1281470E-04  0.2120928E+04  0.7818609E-02  0.8552080E-01
        2   -1    0    0  501    0  0.00000000000E+00  0.00000000000E+00  0.16714167029E+04  0.16714167029E+04  0.25500000920E-02 0.  1.
       -2   -1    0    0    0  501  0.00000000000E+00  0.00000000000E+00 -0.67283270450E+03  0.67283270450E+03  0.25500000920E-02 0. -1.
    10030    2    1    2    0    0  0.00000000000E+00  0.00000000000E+00  0.99858399844E+03  0.23442494074E+04  0.21209279296E+04 0.  0.
        3    1    3    3  502    0 -0.34555103061E+03 -0.75553283668E+03 -0.22915344399E+03  0.86182753098E+03  0.10100000352E+00 0. -1.
       -3    1    3    3    0  502  0.34555103061E+03  0.75553283668E+03  0.12277374424E+04  0.14824218765E+04  0.10100000352E+00 0.  1.
</event>
<event>
 5   0  0.1281470E-04  0.2057332E+04  0.7818609E-02  0.8580276E-01
       -2   -1    0    0    0  501  0.00000000000E+00  0.00000000000E+00  0.59209913776E+03  0.59209913777E+03  0.25500000920E-02 0.  1.
        2   -1    0    0  501    0  0.00000000000E+00  0.00000000000E+00 -0.17871220418E+04  0.17871220418E+04  0.25500000920E-02 0. -1.
    10030    2    1    2    0    0  0.00000000000E+00  0.00000000000E+00 -0.11950229041E+04  0.23792211796E+04  0.20573316894E+04 0.  0.
        3    1    3    3  502    0  0.71173691742E+02 -0.43646931120E+03  0.47655403501E+03  0.65013453415E+03  0.10100000352E+00 0.  1.
       -3    1    3    3    0  502 -0.71173691742E+02  0.43646931120E+03 -0.16715769391E+04  0.17290866455E+04  0.10100000352E+00 0. -1.
</event>
<event>
 5   0  0.6052292E-05  0.2145267E+04  0.7818609E-02  0.8541561E-01
       -1   -1    0    0    0  501  0.00000000000E+00  0.00000000000E+00  0.74722498815E+03  0.74722498817E+03  0.50400001928E-02 0. -1.
        1   -1    0    0  501    0  0.00000000000E+00  0.00000000000E+00 -0.15397543533E+04  0.15397543533E+04  0.50400001928E-02 0.  1.
    10030    2    1    2    0    0  0.00000000000E+00  0.00000000000E+00 -0.79252936518E+03  0.22869793415E+04  0.21452672826E+04 0.  0.
        1    1    3    3  502    0  0.78479794653E+03 -0.10219839370E+02 -0.11756767853E+04  0.14135869855E+04  0.50400001928E-02 0.  1.
       -1    1    3    3    0  502 -0.78479794653E+03  0.10219839370E+02  0.38314742011E+03  0.87339235603E+03  0.50400001928E-02 0. -1.
</event>
<event>
 5   0  0.5846187E-05  0.2019843E+04  0.7818609E-02  0.8597399E-01
        1   -1    0    0  501    0  0.00000000000E+00  0.00000000000E+00  0.10075845216E+04  0.10075845216E+04  0.50400001928E-02 0.  1.
       -1   -1    0    0    0  501  0.00000000000E+00  0.00000000000E+00 -0.10122641473E+04  0.10122641473E+04  0.50400001928E-02 0. -1.
    10030    2    1    2    0    0  0.00000000000E+00  0.00000000000E+00 -0.46796257107E+01  0.20198486689E+04  0.20198432480E+04 0.  0.
        5    1    3    3  502    0 -0.61908438878E+03 -0.67158210254E+03  0.42851119640E+03  0.10089261303E+04  0.46999998093E+01 0.  1.
       -5    1    3    3    0  502  0.61908438878E+03  0.67158210254E+03 -0.43319082211E+03  0.10109225387E+04  0.46999998093E+01 0. -1.
</event>
<event>
 5   0  0.1281470E-04  0.2100811E+04  0.7818609E-02  0.8560886E-01
        2   -1    0    0  501    0  0.00000000000E+00  0.00000000000E+00  0.14543809542E+04  0.14543809542E+04  0.25500000920E-02 0. -1.
       -2   -1    0    0    0  501  0.00000000000E+00  0.00000000000E+00 -0.75863984443E+03  0.75863984443E+03  0.25500000920E-02 0.  1.
    10030    2    1    2    0    0  0.00000000000E+00  0.00000000000E+00  0.69574110975E+03  0.22130207986E+04  0.21008106443E+04 0.  0.
        3    1    3    3  502    0 -0.65631743344E+03 -0.57616511996E+02 -0.51392096498E+03  0.83557585193E+03  0.10100000352E+00 0.  1.
       -3    1    3    3    0  502  0.65631743344E+03  0.57616511996E+02  0.12096620747E+04  0.13774449467E+04  0.10100000352E+00 0. -1.
</event>
<event>
 5   0  0.5846187E-05  0.2092416E+04  0.7818609E-02  0.8564591E-01
        1   -1    0    0  501    0  0.00000000000E+00  0.00000000000E+00  0.84197480909E+03  0.84197480910E+03  0.50400001928E-02 0. -1.
       -1   -1    0    0    0  501  0.00000000000E+00  0.00000000000E+00 -0.12999815315E+04  0.12999815315E+04  0.50400001928E-02 0.  1.
    10030    2    1    2    0    0  0.00000000000E+00  0.00000000000E+00 -0.45800672245E+03  0.21419563406E+04  0.20924164995E+04 0.  0.
        5    1    3    3  502    0  0.20112364310E+03  0.27571477601E+03  0.78338066437E+03  0.85450378164E+03  0.46999998093E+01 0. -1.
       -5    1    3    3    0  502 -0.20112364310E+03 -0.27571477601E+03 -0.12413873868E+04  0.12874525590E+04  0.46999998093E+01 0.  1.
</event>
<event>
 5   0  0.1349252E-04  0.2091782E+04  0.7818609E-02  0.8564872E-01
       -2   -1    0    0    0  501  0.00000000000E+00  0.00000000000E+00  0.13550848464E+04  0.13550848464E+04  0.25500000920E-02 0.  1.
        2   -1    0    0  501    0  0.00000000000E+00  0.00000000000E+00 -0.80724711509E+03  0.80724711510E+03  0.25500000920E-02 0. -1.
    10030    2    1    2    0    0  0.00000000000E+00  0.00000000000E+00  0.54783773130E+03  0.21623319615E+04  0.20917823338E+04 0.  0.
        2    1    3    3  502    0  0.10330367455E+04 -0.65259271718E+02  0.11898168966E+03  0.10419118641E+04  0.25500000920E-02 0. -1.
       -2    1    3    3    0  502 -0.10330367455E+04  0.65259271718E+02  0.42885604165E+03  0.11204200974E+04  0.25500000920E-02 0.  1.
</event>
<event>
 5   0  0.6052292E-05  0.2109559E+04  0.7818609E-02  0.8557044E-01
       -1   -1    0    0    0  501  0.00000000000E+00  0.00000000000E+00  0.15169774791E+04  0.15169774791E+04  0.50400001928E-02 0. -1.
        1   -1    0    0  501    0  0.00000000000E+00  0.00000000000E+00 -0.73340579043E+03  0.73340579045E+03  0.50400001928E-02 0.  1.
    10030    2    1    2    0    0  0.00000000000E+00  0.00000000000E+00  0.78357168865E+03  0.22503832695E+04  0.21095592593E+04 0.  0.
        1    1    3    3  502    0 -0.34113022456E+03  0.46890366259E+03  0.13316931693E+04  0.14524624511E+04  0.50400001928E-02 0. -1.
       -1    1    3    3    0  502  0.34113022456E+03 -0.46890366259E+03 -0.54812148061E+03  0.79792081840E+03  0.50400001928E-02 0.  1.
</event>
<event>
 5   0  0.6052292E-05  0.2082524E+04  0.7818609E-02  0.8568981E-01
        1   -1    0    0  501    0  0.00000000000E+00  0.00000000000E+00  0.98801890775E+03  0.98801890776E+03  0.50400001928E-02 0. -1.
       -1   -1    0    0    0  501  0.00000000000E+00  0.00000000000E+00 -0.10973741990E+04  0.10973741990E+04  0.50400001928E-02 0.  1.
    10030    2    1    2    0    0  0.00000000000E+00  0.00000000000E+00 -0.10935529122E+03  0.20853931067E+04  0.20825239086E+04 0.  0.
        1    1    3    3  502    0  0.98426839985E+03  0.11724437974E+03  0.26465970920E+03  0.10259509195E+04  0.50400001928E-02 0. -1.
       -1    1    3    3    0  502 -0.98426839985E+03 -0.11724437974E+03 -0.37401500042E+03  0.10594421872E+04  0.50400001928E-02 0.  1.
</event>
<event>
 5   0  0.6263616E-05  0.1953449E+04  0.7818609E-02  0.8628699E-01
       -1   -1    0    0    0  501  0.00000000000E+00  0.00000000000E+00  0.11797815696E+04  0.11797815696E+04  0.50400001928E-02 0.  1.
        1   -1    0    0  501    0  0.00000000000E+00  0.00000000000E+00 -0.80861641463E+03  0.80861641465E+03  0.50400001928E-02 0. -1.
    10030    2    1    2    0    0  0.00000000000E+00  0.00000000000E+00  0.37116515497E+03  0.19883979843E+04  0.19534489938E+04 0.  0.
        4    1    3    3  502    0 -0.84459596594E+03  0.43877461666E+03  0.40887828936E+03  0.10358805811E+04  0.12699999809E+01 0.  1.
       -4    1    3    3    0  502  0.84459596594E+03 -0.43877461666E+03 -0.37713134392E+02  0.95251740315E+03  0.12699999809E+01 0. -1.
</event>
<event>
 5   0  0.1252477E-04  0.2085210E+04  0.7818609E-02  0.8567786E-01
       -2   -1    0    0    0  501  0.00000000000E+00  0.00000000000E+00  0.47026816447E+03  0.47026816447E+03  0.25500000920E-02 0.  1.
        2   -1    0    0  501    0  0.00000000000E+00  0.00000000000E+00 -0.23115017589E+04  0.23115017589E+04  0.25500000920E-02 0. -1.
    10030    2    1    2    0    0  0.00000000000E+00  0.00000000000E+00 -0.18412335944E+04  0.27817699234E+04  0.20852104827E+04 0.  0.
        4    1    3    3  502    0 -0.57012896319E+03 -0.81055617556E+03 -0.13528476416E+04  0.16769754627E+04  0.12699999809E+01 0. -1.
       -4    1    3    3    0  502  0.57012896319E+03  0.81055617556E+03 -0.48838595287E+03  0.11047944606E+04  0.12699999809E+01 0.  1.
</event>
<event>
 5   0  0.6221148E-05  0.2079208E+04  0.7818609E-02  0.8570458E-01
        1   -1    0    0  501    0  0.00000000000E+00  0.00000000000E+00  0.95943233012E+03  0.95943233014E+03  0.50400001928E-02 0. -1.
       -1   -1    0    0    0  501  0.00000000000E+00  0.00000000000E+00 -0.11264751940E+04  0.11264751940E+04  0.50400001928E-02 0.  1.
    10030    2    1    2    0    0  0.00000000000E+00  0.00000000000E+00 -0.16704286387E+03  0.20859075241E+04  0.20792082341E+04 0.  0.
        3    1    3    3  502    0 -0.54653759059E+03  0.73642071442E+03  0.40770703951E+03  0.10036153879E+04  0.10100000352E+00 0. -1.
       -3    1    3    3    0  502  0.54653759059E+03 -0.73642071442E+03 -0.57474990338E+03  0.10822921362E+04  0.10100000352E+00 0.  1.
</event>
<event>
 5   0  0.5846187E-05  0.2099308E+04  0.7818609E-02  0.8561548E-01
       -1   -1    0    0    0  501  0.00000000000E+00  0.00000000000E+00  0.93398883901E+03  0.93398883902E+03  0.50400001928E-02 0.  1.
        1   -1    0    0  501    0  0.00000000000E+00  0.00000000000E+00 -0.11796436940E+04  0.11796436941E+04  0.50400001928E-02 0. -1.
    10030    2    1    2    0    0  0.00000000000E+00  0.00000000000E+00 -0.24565485503E+03  0.21136325331E+04  0.20993084997E+04 0.  0.
        5    1    3    3  502    0 -0.59586417928E+03  0.53455347334E+03 -0.80639322980E+03  0.11362630272E+04  0.46999998093E+01 0. -1.
       -5    1    3    3    0  502  0.59586417928E+03 -0.53455347334E+03  0.56073837476E+03  0.97736950584E+03  0.46999998093E+01 0.  1.
</event>
<event>
 5   0  0.6263616E-05  0.2147576E+04  0.7818609E-02  0.8540571E-01
        1   -1    0    0  501    0  0.00000000000E+00  0.00000000000E+00  0.86147815999E+03  0.86147816001E+03  0.50400001928E-02 0.  1.
       -1   -1    0    0    0  501  0.00000000000E+00  0.00000000000E+00 -0.13384210581E+04  0.13384210582E+04  0.50400001928E-02 0. -1.
    10030    2    1    2    0    0  0.00000000000E+00  0.00000000000E+00 -0.47694289815E+03  0.21998992182E+04  0.21475758524E+04 0.  0.
        4    1    3    3  502    0 -0.58624542153E+03  0.72287426058E+03  0.31010197737E+03  0.98101770634E+03  0.12699999809E+01 0.  1.
       -4    1    3    3    0  502  0.58624542153E+03 -0.72287426058E+03 -0.78704487553E+03  0.12188815118E+04  0.12699999809E+01 0. -1.
</event>
<event>
 5   0  0.1349252E-04  0.2088878E+04  0.7818609E-02  0.8566159E-01
        2   -1    0    0  501    0  0.00000000000E+00  0.00000000000E+00  0.16779219893E+04  0.16779219893E+04  0.25500000920E-02 0.  1.
       -2   -1    0    0    0  501  0.00000000000E+00  0.00000000000E+00 -0.65012139013E+03  0.65012139014E+03  0.25500000920E-02 0. -1.
    10030    2    1    2    0    0  0.00000000000E+00  0.00000000000E+00  0.10278005991E+04  0.23280433794E+04  0.20888781451E+04 0.  0.
        2    1    3    3  502    0 -0.40295172876E+03  0.34411766720E+03  0.15169862345E+04  0.16068709656E+04  0.25500000920E-02 0.  1.
       -2    1    3    3    0  502  0.40295172876E+03 -0.34411766720E+03 -0.48918563533E+03  0.72117241379E+03  0.25500000920E-02 0. -1.
</event>
<event>
 5   0  0.1252477E-04  0.2188051E+04  0.7818609E-02  0.8523418E-01
       -2   -1    0    0    0  501  0.00000000000E+00  0.00000000000E+00  0.56904351336E+03  0.56904351336E+03  0.25500000920E-02 0. -1.
        2   -1    0    0  501    0  0.00000000000E+00  0.00000000000E+00 -0.21033390168E+04  0.21033390168E+04  0.25500000920E-02 0.  1.
    10030    2    1    2    0    0  0.00000000000E+00  0.00000000000E+00 -0.15342955035E+04  0.26723825302E+04  0.21880506611E+04 0.  0.
        4    1    3    3  502    0  0.88008840678E+03 -0.42428063219E+03 -0.13683713487E+04  0.16813718861E+04  0.12699999809E+01 0.  1.
       -4    1    3    3    0  502 -0.88008840678E+03  0.42428063219E+03 -0.16592415474E+03  0.99101064405E+03  0.12699999809E+01 0. -1.
</event>
<event>
 5   0  0.1252477E-04  0.2173495E+04  0.7818609E-02  0.8529542E-01
       -2   -1    0    0    0  501  0.00000000000E+00  0.00000000000E+00  0.93702527363E+03  0.93702527363E+03  0.25500000920E-02 0.  1.
        2   -1    0    0  501    0  0.00000000000E+00  0.00000000000E+00 -0.12603935504E+04  0.12603935504E+04  0.25500000920E-02 0. -1.
    10030    2    1    2    0    0  0.00000000000E+00  0.00000000000E+00 -0.32336827678E+03  0.21974188240E+04  0.21734954442E+04 0.  0.
        4    1    3    3  502    0 -0.20317005957E+02 -0.28632182943E+03  0.89800637937E+03  0.94276722526E+03  0.12699999809E+01 0.  1.
       -4    1    3    3    0  502  0.20317005957E+02  0.28632182943E+03 -0.12213746562E+04  0.12546515988E+04  0.12699999809E+01 0. -1.
</event>
<event>
 5   0  0.6263616E-05  0.1968279E+04  0.7818609E-02  0.8621596E-01
        1   -1    0    0  501    0  0.00000000000E+00  0.00000000000E+00  0.85974411054E+03  0.85974411055E+03  0.50400001928E-02 0.  1.
       -1   -1    0    0    0  501  0.00000000000E+00  0.00000000000E+00 -0.11265338732E+04  0.11265338733E+04  0.50400001928E-02 0. -1.
    10030    2    1    2    0    0  0.00000000000E+00  0.00000000000E+00 -0.26678976271E+03  0.19862779838E+04  0.19682793124E+04 0.  0.
        4    1    3    3  502    0 -0.71020887786E+03 -0.11698026159E+03  0.54389679398E+03  0.90216759374E+03  0.12699999809E+01 0.  1.
       -4    1    3    3    0  502  0.71020887786E+03  0.11698026159E+03 -0.81068655668E+03  0.10841103901E+04  0.12699999809E+01 0. -1.
</event>
<event>
 5   0  0.1349252E-04  0.2129721E+04  0.7818609E-02  0.8548263E-01
       -2   -1    0    0    0  501  0.00000000000E+00  0.00000000000E+00  0.56594305077E+03  0.56594305078E+03  0.25500000920E-02 0.  1.
        2   -1    0    0  501    0  0.00000000000E+00  0.00000000000E+00 -0.20036073043E+04  0.20036073043E+04  0.25500000920E-02 0. -1.
    10030    2    1    2    0    0  0.00000000000E+00  0.00000000000E+00 -0.14376642535E+04  0.25695503550E+04  0.21297207613E+04 0.  0.
        2    1    3    3  502    0  0.73747687773E+03 -0.70865258739E+03 -0.10764731729E+04  0.14848754584E+04  0.25500000920E-02 0. -1.
       -2    1    3    3    0  502 -0.73747687773E+03  0.70865258739E+03 -0.36119108056E+03  0.10846748967E+04  0.25500000920E-02 0.  1.
</event>
<event>
 5   0  0.1252477E-04  0.2172488E+04  0.7818609E-02  0.8529967E-01
        2   -1    0    0  501    0  0.00000000000E+00  0.00000000000E+00  0.10809942731E+04  0.10809942731E+04  0.25500000920E-02 0. -1.
       -2   -1    0    0    0  501  0.00000000000E+00  0.00000000000E+00 -0.10915187808E+04  0.10915187808E+04  0.25500000920E-02 0.  1.
    10030    2    1    2    0    0  0.00000000000E+00  0.00000000000E+00 -0.10524507640E+02  0.21725130539E+04  0.21724875613E+04 0.  0.
        4    1    3    3  502    0 -0.42730577662E+03  0.92439379316E+03  0.37267051613E+03  0.10844256720E+04  0.12699999809E+01 0. -1.
       -4    1    3    3    0  502  0.42730577662E+03 -0.92439379316E+03 -0.38319502377E+03  0.10880873819E+04  0.12699999809E+01 0.  1.
</event>
<event>
 5   0  0.1325673E-04  0.2030233E+04  0.7818609E-02  0.8592615E-01
        2   -1    0    0  501    0  0.00000000000E+00  0.00000000000E+00  0.13141352566E+04  0.13141352566E+04  0.25500000920E-02 0. -1.
       -2   -1    0    0    0  501  0.00000000000E+00  0.00000000000E+00 -0.78413649133E+03  0.78413649133E+03  0.25500000920E-02 0.  1.
    10030    2    1    2    0    0  0.00000000000E+00  0.00000000000E+00  0.52999876532E+03  0.20982717480E+04  0.20302329022E+04 0.  0.
        5    1    3    3  502    0 -0.44786693773E+03 -0.69951632157E+03 -0.33810777077E+03  0.89679810030E+03  0.46999998093E+01 0.  1.
       -5    1    3    3    0  502  0.44786693773E+03  0.69951632157E+03  0.86810653608E+03  0.12014736477E+04  0.46999998093E+01 0. -1.
</event>
<event>
 5   0  0.4615125E-05  0.2085754E+04  0.7818609E-02  0.8567545E-01
        4   -1    0    0  501    0  0.00000000000E+00  0.00000000000E+00  0.10270040567E+04  0.10270048420E+04  0.12699999809E+01 0. -1.
       -4   -1    0    0    0  501  0.00000000000E+00  0.00000000000E+00 -0.10589941982E+04  0.10589949597E+04  0.12699999809E+01 0.  1.
    10030    2    1    2    0    0  0.00000000000E+00  0.00000000000E+00 -0.31990141472E+02  0.20859998017E+04  0.20857544926E+04 0.  0.
        4    1    3    3  502    0  0.34571182110E+03  0.49565790656E+03  0.83404483962E+03  0.10299639950E+04  0.12699999809E+01 0. -1.
       -4    1    3    3    0  502 -0.34571182110E+03 -0.49565790656E+03 -0.86603498110E+03  0.10560358067E+04  0.12699999809E+01 0.  1.
</event>
<event>
 5   0  0.1281470E-04  0.2093239E+04  0.7818609E-02  0.8564228E-01
       -2   -1    0    0    0  501  0.00000000000E+00  0.00000000000E+00  0.74426794278E+03  0.74426794279E+03  0.25500000920E-02 0. -1.
        2   -1    0    0  501    0  0.00000000000E+00  0.00000000000E+00 -0.14717981193E+04  0.14717981193E+04  0.25500000920E-02 0.  1.
    10030    2    1    2    0    0  0.00000000000E+00  0.00000000000E+00 -0.72753017656E+03  0.22160660621E+04  0.20932387905E+04 0.  0.
        3    1    3    3  502    0 -0.82060975131E+02  0.89400793315E+03  0.20578794675E+03  0.92104987781E+03  0.10100000352E+00 0. -1.
       -3    1    3    3    0  502  0.82060975131E+02 -0.89400793315E+03 -0.93331812331E+03  0.12950161843E+04  0.10100000352E+00 0.  1.
</event>
<event>
 5   0  0.5846187E-05  0.2101220E+04  0.7818609E-02  0.8560706E-01
       -1   -1    0    0    0  501  0.00000000000E+00  0.00000000000E+00  0.11372982113E+04  0.11372982114E+04  0.50400001928E-02 0.  1.
        1   -1    0    0  501    0  0.00000000000E+00  0.00000000000E+00 -0.97052968283E+03  0.97052968284E+03  0.50400001928E-02 0. -1.
    10030    2    1    2    0    0  0.00000000000E+00  0.00000000000E+00  0.16676852851E+03  0.21078278942E+04  0.21012202858E+04 0.  0.
        5    1    3    3  502    0 -0.11315649320E+02  0.41958204406E+03 -0.88275520241E+03  0.97747428253E+03  0.46999998093E+01 0. -1.
       -5    1    3    3    0  502  0.11315649320E+02 -0.41958204406E+03  0.10495237309E+04  0.11303536117E+04  0.46999998093E+01 0.  1.
</event>
<event>
 5   0  0.5933905E-05  0.2102062E+04  0.7818609E-02  0.8560335E-01
        1   -1    0    0  501    0  0.00000000000E+00  0.00000000000E+00  0.11807097649E+04  0.11807097649E+04  0.50400001928E-02 0. -1.
       -1   -1    0    0    0  501  0.00000000000E+00  0.00000000000E+00 -0.93559530935E+03  0.93559530936E+03  0.50400001928E-02 0.  1.
    10030    2    1    2    0    0  0.00000000000E+00  0.00000000000E+00  0.24511445559E+03  0.21163050743E+04  0.21020623376E+04 0.  0.
        2    1    3    3  502    0 -0.19950487345E+03  0.56529995582E+03  0.99171441406E+03  0.11588199660E+04  0.25500000920E-02 0. -1.
       -2    1    3    3    0  502  0.19950487345E+03 -0.56529995582E+03 -0.74659995848E+03  0.95748510828E+03  0.25500000920E-02 0.  1.
</event>
<event>
 5   0  0.1235817E-04  0.2104627E+04  0.7818609E-02  0.8559208E-01
       -2   -1    0    0    0  501  0.00000000000E+00  0.00000000000E+00  0.10985895291E+04  0.10985895291E+04  0.25500000920E-02 0. -1.
        2   -1    0    0  501    0  0.00000000000E+00  0.00000000000E+00 -0.10079871535E+04  0.10079871535E+04  0.25500000920E-02 0.  1.
    10030    2    1    2    0    0  0.00000000000E+00  0.00000000000E+00  0.90602375618E+02  0.21065766826E+04  0.21046274087E+04 0.  0.
        1    1    3    3  502    0  0.74191868529E+03 -0.70091193992E+03  0.30174787056E+03  0.10643179321E+04  0.50400001928E-02 0.  1.
       -1    1    3    3    0  502 -0.74191868529E+03  0.70091193992E+03 -0.21114549494E+03  0.10422587506E+04  0.50400001928E-02 0. -1.
</event>
<event>
 5   0  0.6263616E-05  0.2077432E+04  0.7818609E-02  0.8571251E-01
        1   -1    0    0  501    0  0.00000000000E+00  0.00000000000E+00  0.24076143624E+04  0.24076143624E+04  0.50400001928E-02 0.  1.
       -1   -1    0    0    0  501  0.00000000000E+00  0.00000000000E+00 -0.44813268847E+03  0.44813268850E+03  0.50400001928E-02 0. -1.
    10030    2    1    2    0    0  0.00000000000E+00  0.00000000000E+00  0.19594816739E+04  0.28557470509E+04  0.20774317771E+04 0.  0.
        4    1    3    3  502    0 -0.60187052757E+03 -0.83477860018E+03  0.11732968129E+04  0.15606826927E+04  0.12699999809E+01 0. -1.
       -4    1    3    3    0  502  0.60187052757E+03  0.83477860018E+03  0.78618486105E+03  0.12950643582E+04  0.12699999809E+01 0.  1.
</event>
<event>
 5   0  0.1281470E-04  0.2094328E+04  0.7818609E-02  0.8563746E-01
        2   -1    0    0  501    0  0.00000000000E+00  0.00000000000E+00  0.76204102242E+03  0.76204102243E+03  0.25500000920E-02 0. -1.
       -2   -1    0    0    0  501  0.00000000000E+00  0.00000000000E+00 -0.14389678119E+04  0.14389678119E+04  0.25500000920E-02 0.  1.
    10030    2    1    2    0    0  0.00000000000E+00  0.00000000000E+00 -0.67692678950E+03  0.22010088343E+04  0.20943280570E+04 0.  0.
        3    1    3    3  502    0  0.12879082969E+03  0.30076610881E+03 -0.13838720875E+04  0.14220229586E+04  0.10100000352E+00 0.  1.
       -3    1    3    3    0  502 -0.12879082969E+03 -0.30076610881E+03  0.70694529801E+03  0.77898587574E+03  0.10100000352E+00 0. -1.
</event>
<event>
 5   0  0.5846187E-05  0.2216224E+04  0.7818609E-02  0.8511705E-01
       -1   -1    0    0    0  501  0.00000000000E+00  0.00000000000E+00  0.78606820111E+03  0.78606820113E+03  0.50400001928E-02 0.  1.
        1   -1    0    0  501    0  0.00000000000E+00  0.00000000000E+00 -0.15620938577E+04  0.15620938577E+04  0.50400001928E-02 0. -1.
    10030    2    1    2    0    0  0.00000000000E+00  0.00000000000E+00 -0.77602565660E+03  0.23481620588E+04  0.22162240940E+04 0.  0.
        5    1    3    3  502    0  0.86991521544E+03 -0.64077378840E+03 -0.64872397090E+03  0.12602414096E+04  0.46999998093E+01 0. -1.
       -5    1    3    3    0  502 -0.86991521544E+03  0.64077378840E+03 -0.12730168570E+03  0.10879206493E+04  0.46999998093E+01 0.  1.
</event>
<event>
 5   0  0.6221148E-05  0.2064503E+04  0.7818609E-02  0.8577044E-01
       -1   -1    0    0    0  501  0.00000000000E+00  0.00000000000E+00  0.39445505098E+03  0.39445505101E+03  0.50400001928E-02 0. -1.
        1   -1    0    0  501    0  0.00000000000E+00  0.00000000000E+00 -0.27013032645E+04  0.27013032645E+04  0.50400001928E-02 0.  1.
    10030    2    1    2    0    0  0.00000000000E+00  0.00000000000E+00 -0.23068482136E+04  0.30957583156E+04  0.20645025715E+04 0.  0.
        3    1    3    3  502    0 -0.10250825373E+04 -0.48557146896E+02 -0.98650748885E+03  0.14234988727E+04  0.10100000352E+00 0.  1.
       -3    1    3    3    0  502  0.10250825373E+04  0.48557146896E+02 -0.13203407247E+04  0.16722594429E+04  0.10100000352E+00 0. -1.
</event>
<event>
 5   0  0.4615125E-05  0.2095261E+04  0.7818609E-02  0.8563334E-01
       -3   -1    0    0    0  501  0.00000000000E+00  0.00000000000E+00  0.14469887724E+04  0.14469887760E+04  0.10100000352E+00 0.  1.
        3   -1    0    0  501    0  0.00000000000E+00  0.00000000000E+00 -0.75849244036E+03  0.75849244708E+03  0.10100000352E+00 0. -1.
    10030    2    1    2    0    0  0.00000000000E+00  0.00000000000E+00  0.68849633209E+03  0.22054812231E+04  0.20952613741E+04 0.  0.
        2    1    3    3  502    0  0.44487098197E+02  0.51323701441E+03 -0.61595475636E+03  0.80298916353E+03  0.25500000920E-02 0. -1.
       -2    1    3    3    0  502 -0.44487098197E+02 -0.51323701441E+03  0.13044510884E+04  0.14024920595E+04  0.25500000920E-02 0.  1.
</event>
<event>
 5   0  0.1349252E-04  0.2202712E+04  0.7818609E-02  0.8517300E-01
        2   -1    0    0  501    0  0.00000000000E+00  0.00000000000E+00  0.12391655729E+04  0.12391655729E+04  0.25500000920E-02 0. -1.
       -2   -1    0    0    0  501  0.00000000000E+00  0.00000000000E+00 -0.97887265351E+03  0.97887265351E+03  0.25500000920E-02 0.  1.
    10030    2    1    2    0    0  0.00000000000E+00  0.00000000000E+00  0.26029291944E+03  0.22180382265E+04  0.22027122304E+04 0.  0.
        2    1    3    3  502    0  0.41616116017E+03 -0.28269666499E+03  0.11166967574E+04  0.12247935188E+04  0.25500000920E-02 0. -1.
       -2    1    3    3    0  502 -0.41616116017E+03  0.28269666499E+03 -0.85640383797E+03  0.99324470768E+03  0.25500000920E-02 0.  1.
</event>
<event>
 5   0  0.1325673E-04  0.2105404E+04  0.7818609E-02  0.8558866E-01
        2   -1    0    0  501    0  0.00000000000E+00  0.00000000000E+00  0.74956449859E+03  0.74956449859E+03  0.25500000920E-02 0. -1.
       -2   -1    0    0    0  501  0.00000000000E+00  0.00000000000E+00 -0.14784343775E+04  0.14784343775E+04  0.25500000920E-02 0.  1.
    10030    2    1    2    0    0  0.00000000000E+00  0.00000000000E+00 -0.72886987892E+03  0.22279988761E+04  0.21054044009E+04 0.  0.
        5    1    3    3  502    0 -0.88747477745E+03 -0.16665367637E+03  0.20815849631E+03  0.92668062354E+03  0.46999998093E+01 0. -1.
       -5    1    3    3    0  502  0.88747477745E+03  0.16665367637E+03 -0.93702837522E+03  0.13013182526E+04  0.46999998093E+01 0.  1.
</event>
<event>
 5   0  0.6263616E-05  0.1933356E+04  0.7818609E-02  0.8638429E-01
        1   -1    0    0  501    0  0.00000000000E+00  0.00000000000E+00  0.20487682053E+04  0.20487682053E+04  0.50400001928E-02 0.  1.
       -1   -1    0    0    0  501  0.00000000000E+00  0.00000000000E+00 -0.45611110761E+03  0.45611110764E+03  0.50400001928E-02 0. -1.
    10030    2    1    2    0    0  0.00000000000E+00  0.00000000000E+00  0.15926570977E+04  0.25048793129E+04  0.19333555652E+04 0.  0.
        4    1    3    3  502    0 -0.96082618833E+03  0.10039184322E+03  0.84118810604E+03  0.12809623449E+04  0.12699999809E+01 0. -1.
       -4    1    3    3    0  502  0.96082618833E+03 -0.10039184322E+03  0.75146899165E+03  0.12239169681E+04  0.12699999809E+01 0.  1.
</event>
<event>
 5   0  0.1252477E-04  0.2186733E+04  0.7818609E-02  0.8523971E-01
       -2   -1    0    0    0  501  0.00000000000E+00  0.00000000000E+00  0.82039498489E+03  0.82039498490E+03  0.25500000920E-02 0. -1.
        2   -1    0    0  501    0  0.00000000000E+00  0.00000000000E+00 -0.14571638327E+04  0.14571638327E+04  0.25500000920E-02 0.  1.
    10030    2    1    2    0    0  0.00000000000E+00  0.00000000000E+00 -0.63676884779E+03  0.22775588176E+04  0.21867326316E+04 0.  0.
        4    1    3    3  502    0  0.71756362840E+03 -0.28423607172E+03 -0.11249930745E+04  0.13642942263E+04  0.12699999809E+01 0.  1.
       -4    1    3    3    0  502 -0.71756362840E+03  0.28423607172E+03  0.48822422672E+03  0.91326459130E+03  0.12699999809E+01 0. -1.
</event>
<event>
 5   0  0.5846187E-05  0.2086755E+04  0.7818609E-02  0.8567100E-01
       -1   -1    0    0    0  501  0.00000000000E+00  0.00000000000E+00  0.71308130045E+03  0.71308130047E+03  0.50400001928E-02 0.  1.
        1   -1    0    0  501    0  0.00000000000E+00  0.00000000000E+00 -0.15266654720E+04  0.15266654720E+04  0.50400001928E-02 0. -1.
    10030    2    1    2    0    0  0.00000000000E+00  0.00000000000E+00 -0.81358417150E+03  0.22397467724E+04  0.20867549929E+04 0.  0.
        5    1    3    3  502    0  0.82758394255E+03  0.40119126670E+03 -0.93562734296E+03  0.13119718859E+04  0.46999998093E+01 0. -1.
       -5    1    3    3    0  502 -0.82758394255E+03 -0.40119126670E+03  0.12204317145E+03  0.92777488656E+03  0.46999998093E+01 0.  1.
</event>
<event>
 5   0  0.1349252E-04  0.2104545E+04  0.7818609E-02  0.8559244E-01
        2   -1    0    0  501    0  0.00000000000E+00  0.00000000000E+00  0.24418112338E+04  0.24418112338E+04  0.25500000920E-02 0.  1.
       -2   -1    0    0    0  501  0.00000000000E+00  0.00000000000E+00 -0.45346546404E+03  0.45346546405E+03  0.25500000920E-02 0. -1.
    10030    2    1    2    0    0  0.00000000000E+00  0.00000000000E+00  0.19883457698E+04  0.28952766979E+04  0.21045446674E+04 0.  0.
        2    1    3    3  502    0 -0.93228945331E+03  0.40979105384E+03  0.62971004969E+03  0.11973416719E+04  0.25500000920E-02 0.  1.
       -2    1    3    3    0  502  0.93228945331E+03 -0.40979105384E+03  0.13586357201E+04  0.16979350260E+04  0.25500000920E-02 0. -1.
</event>
<event>
 5   0  0.1281470E-04  0.2122683E+04  0.7818609E-02  0.8551317E-01
        2   -1    0    0  501    0  0.00000000000E+00  0.00000000000E+00  0.77381722138E+03  0.77381722138E+03  0.25500000920E-02 0.  1.
       -2   -1    0    0    0  501  0.00000000000E+00  0.00000000000E+00 -0.14556993995E+04  0.14556993995E+04  0.25500000920E-02 0. -1.
    10030    2    1    2    0    0  0.00000000000E+00  0.00000000000E+00 -0.68188217810E+03  0.22295166209E+04  0.21226825146E+04 0.  0.
        3    1    3    3  502    0 -0.56707344240E+03  0.47534419567E+03 -0.11401039105E+04  0.13591767105E+04  0.10100000352E+00 0. -1.
       -3    1    3    3    0  502  0.56707344240E+03 -0.47534419567E+03  0.45822173235E+03  0.87033991040E+03  0.10100000352E+00 0.  1.
</event>
<event>
 5   0  0.5933905E-05  0.2092433E+04  0.7818609E-02  0.8564584E-01
        1   -1    0    0  501    0  0.00000000000E+00  0.00000000000E+00  0.80161207933E+03  0.80161207934E+03  0.50400001928E-02 0. -1.
       -1   -1    0    0    0  501  0.00000000000E+00  0.00000000000E+00 -0.13654599274E+04  0.13654599274E+04  0.50400001928E-02 0.  1.
    10030    2    1    2    0    0  0.00000000000E+00  0.00000000000E+00 -0.56384784805E+03  0.21670720067E+04  0.20924331976E+04 0.  0.
        2    1    3    3  502    0  0.92981637059E+02  0.10396494072E+04 -0.35554181321E+03  0.11026905530E+04  0.25500000920E-02 0.  1.
       -2    1    3    3    0  502 -0.92981637059E+02 -0.10396494072E+04 -0.20830603484E+03  0.10643814537E+04  0.25500000920E-02 0. -1.
</event>
<event>
 5   0  0.5846187E-05  0.2127168E+04  0.7818609E-02  0.8549369E-01
       -1   -1    0    0    0  501  0.00000000000E+00  0.00000000000E+00  0.58139278045E+03  0.58139278047E+03  0.50400001928E-02 0. -1.
        1   -1    0    0  501    0  0.00000000000E+00  0.00000000000E+00 -0.19456909334E+04  0.19456909334E+04  0.50400001928E-02 0.  1.
    10030    2    1    2    0    0  0.00000000000E+00  0.00000000000E+00 -0.13642981530E+04  0.25270837139E+04  0.21271677524E+04 0.  0.
        5    1    3    3  502    0 -0.72537315981E+03  0.69996301145E+03 -0.27914750027E+03  0.10459731618E+04  0.46999998093E+01 0. -1.
       -5    1    3    3    0  502  0.72537315981E+03 -0.69996301145E+03 -0.10851506527E+04  0.14811105521E+04  0.46999998093E+01 0.  1.
</event>
<event>
 5   0  0.1281470E-04  0.1847545E+04  0.7818609E-02  0.8681417E-01
        2   -1    0    0  501    0  0.00000000000E+00  0.00000000000E+00  0.93547547753E+03  0.93547547753E+03  0.25500000920E-02 0.  1.
       -2   -1    0    0    0  501  0.00000000000E+00  0.00000000000E+00 -0.91221544493E+03  0.91221544493E+03  0.25500000920E-02 0. -1.
    10030    2    1    2    0    0  0.00000000000E+00  0.00000000000E+00  0.23260032600E+02  0.18476909225E+04  0.18475445098E+04 0.  0.
        3    1    3    3  502    0  0.27549883076E+02  0.53191430788E+03 -0.74319024955E+03  0.91434325295E+03  0.10100000352E+00 0. -1.
       -3    1    3    3    0  502 -0.27549883076E+02 -0.53191430788E+03  0.76645028215E+03  0.93334766952E+03  0.10100000352E+00 0.  1.
</event>
<event>
 5   0  0.1281470E-04  0.2122124E+04  0.7818609E-02  0.8551560E-01
       -2   -1    0    0    0  501  0.00000000000E+00  0.00000000000E+00  0.65591532063E+03  0.65591532064E+03  0.25500000920E-02 0.  1.
        2   -1    0    0  501    0  0.00000000000E+00  0.00000000000E+00 -0.17164602337E+04  0.17164602337E+04  0.25500000920E-02 0. -1.
    10030    2    1    2    0    0  0.00000000000E+00  0.00000000000E+00 -0.10605449131E+04  0.23723755544E+04  0.21221239969E+04 0.  0.
        3    1    3    3  502    0 -0.38982393086E+03  0.96834241440E+03 -0.74298050305E+03  0.12812766160E+04  0.10100000352E+00 0.  1.
       -3    1    3    3    0  502  0.38982393086E+03 -0.96834241440E+03 -0.31756441006E+03  0.10910989384E+04  0.10100000352E+00 0. -1.
</event>
<event>
 5   0  0.1349252E-04  0.2128241E+04  0.7818609E-02  0.8548904E-01
       -2   -1    0    0    0  501  0.00000000000E+00  0.00000000000E+00  0.70531807230E+03  0.70531807231E+03  0.25500000920E-02 0.  1.
        2   -1    0    0  501    0  0.00000000000E+00  0.00000000000E+00 -0.16054488444E+04  0.16054488444E+04  0.25500000920E-02 0. -1.
    10030    2    1    2    0    0  0.00000000000E+00  0.00000000000E+00 -0.90013077210E+03  0.23107669167E+04  0.21282406670E+04 0.  0.
        2    1    3    3  502    0  0.92092847831E+02 -0.25560871020E+03  0.66702432411E+03  0.72023492994E+03  0.25500000920E-02 0.  1.
       -2    1    3    3    0  502 -0.92092847831E+02  0.25560871020E+03 -0.15671550962E+04  0.15905319868E+04  0.25500000920E-02 0. -1.
</event>
<event>
 5   0  0.6052292E-05  0.2038972E+04  0.7818609E-02  0.8588614E-01
       -1   -1    0    0    0  501  0.00000000000E+00  0.00000000000E+00  0.70757248672E+03  0.70757248674E+03  0.50400001928E-02 0. -1.
        1   -1    0    0  501    0  0.00000000000E+00  0.00000000000E+00 -0.14688979874E+04  0.14688979874E+04  0.50400001928E-02 0.  1.
    10030    2    1    2    0    0  0.00000000000E+00  0.00000000000E+00 -0.76132550065E+03  0.21764704741E+04  0.20389720956E+04 0.  0.
        1    1    3    3  502    0  0.13027842515E+03 -0.30065311947E+02 -0.14594988144E+04  0.14656101734E+04  0.50400001928E-02 0.  1.
       -1    1    3    3    0  502 -0.13027842515E+03  0.30065311947E+02  0.69817331378E+03  0.71086030072E+03  0.50400001928E-02 0. -1.
</event>
<event>
 5   0  0.1252477E-04  0.2100842E+04  0.7818609E-02  0.8560872E-01
       -2   -1    0    0    0  501  0.00000000000E+00  0.00000000000E+00  0.44214345585E+03  0.44214345585E+03  0.25500000920E-02 0.  1.
        2   -1    0    0  501    0  0.00000000000E+00  0.00000000000E+00 -0.24955353402E+04  0.24955353402E+04  0.25500000920E-02 0. -1.
    10030    2    1    2    0    0  0.00000000000E+00  0.00000000000E+00 -0.20533918843E+04  0.29376787960E+04  0.21008423258E+04 0.  0.
        4    1    3    3  502    0 -0.71806777819E+03 -0.33247374663E+03 -0.19926833803E+04  0.21440496247E+04  0.12699999809E+01 0. -1.
       -4    1    3    3    0  502  0.71806777819E+03  0.33247374663E+03 -0.60708504090E+02  0.79362917136E+03  0.12699999809E+01 0.  1.
</event>
<event>
 5   0  0.1281470E-04  0.2061443E+04  0.7818609E-02  0.8578421E-01
       -2   -1    0    0    0  501  0.00000000000E+00  0.00000000000E+00  0.65574404118E+03  0.65574404119E+03  0.25500000920E-02 0. -1.
        2   -1    0    0  501    0  0.00000000000E+00  0.00000000000E+00 -0.16201243161E+04  0.16201243161E+04  0.25500000920E-02 0.  1.
    10030    2    1    2    0    0  0.00000000000E+00  0.00000000000E+00 -0.96438027490E+03  0.22758683573E+04  0.20614430540E+04 0.  0.
        3    1    3    3  502    0 -0.18715095456E+03 -0.56330599595E+03 -0.14124827397E+04  0.15321379262E+04  0.10100000352E+00 0.  1.
       -3    1    3    3    0  502  0.18715095456E+03  0.56330599595E+03  0.44810246481E+03  0.74373043103E+03  0.10100000352E+00 0. -1.
</event>
<event>
 5   0  0.5933905E-05  0.2113322E+04  0.7818609E-02  0.8555397E-01
       -1   -1    0    0    0  501  0.00000000000E+00  0.00000000000E+00  0.81438492988E+03  0.81438492990E+03  0.50400001928E-02 0.  1.
        1   -1    0    0  501    0  0.00000000000E+00  0.00000000000E+00 -0.13710133990E+04  0.13710133991E+04  0.50400001928E-02 0. -1.
    10030    2    1    2    0    0  0.00000000000E+00  0.00000000000E+00 -0.55662846916E+03  0.21853983290E+04  0.21133221722E+04 0.  0.
        2    1    3    3  502    0  0.64884109305E+03 -0.78767923052E+03 -0.56170317003E+03  0.11648793008E+04  0.25500000920E-02 0. -1.
       -2    1    3    3    0  502 -0.64884109305E+03  0.78767923052E+03  0.50747008623E+01  0.10205190281E+04  0.25500000920E-02 0.  1.
</event>
<event>
 5   0  0.6052292E-05  0.2106388E+04  0.7818609E-02  0.8558435E-01
        1   -1    0    0  501    0  0.00000000000E+00  0.00000000000E+00  0.11115389950E+04  0.11115389950E+04  0.50400001928E-02 0. -1.
       -1   -1    0    0    0  501  0.00000000000E+00  0.00000000000E+00 -0.99791136951E+03  0.99791136953E+03  0.50400001928E-02 0.  1.
    10030    2    1    2    0    0  0.00000000000E+00  0.00000000000E+00  0.11362762551E+03  0.21094503646E+04  0.21063878093E+04 0.  0.
        1    1    3    3  502    0 -0.34980332556E+03 -0.78300025789E+03 -0.55543881800E+03  0.10217455901E+04  0.50400001928E-02 0.  1.
       -1    1    3    3    0  502  0.34980332556E+03  0.78300025789E+03  0.66906644352E+03  0.10877047744E+04  0.50400001928E-02 0. -1.
</event>
<event>
 5   0  0.1235817E-04  0.2132543E+04  0.7818609E-02  0.8547042E-01
        2   -1    0    0  501    0  0.00000000000E+00  0.00000000000E+00  0.74863212946E+03  0.74863212947E+03  0.25500000920E-02 0. -1.
       -2   -1    0    0    0  501  0.00000000000E+00  0.00000000000E+00 -0.15186827392E+04  0.15186827392E+04  0.25500000920E-02 0.  1.
    10030    2    1    2    0    0  0.00000000000E+00  0.00000000000E+00 -0.77005060972E+03  0.22673148687E+04  0.21325427949E+04 0.  0.
        1    1    3    3  502    0 -0.64261254660E+03 -0.38422874902E+03 -0.11921822946E+04  0.14077930388E+04  0.50400001928E-02 0.  1.
       -1    1    3    3    0  502  0.64261254660E+03  0.38422874902E+03  0.42213168484E+03  0.85952182985E+03  0.50400001928E-02 0. -1.
</event>
<event>
 5   0  0.5846187E-05  0.2085046E+04  0.7818609E-02  0.8567860E-01
        1   -1    0    0  501    0  0.00000000000E+00  0.00000000000E+00  0.13290782725E+04  0.13290782725E+04  0.50400001928E-02 0.  1.
       -1   -1    0    0    0  501  0.00000000000E+00  0.00000000000E+00 -0.81775027767E+03  0.81775027769E+03  0.50400001928E-02 0. -1.
    10030    2    1    2    0    0  0.00000000000E+00  0.00000000000E+00  0.51132799486E+03  0.21468285502E+04  0.20850459241E+04 0.  0.
        5    1    3    3  502    0  0.49754445319E+03  0.46584288453E+02 -0.68638475851E+03  0.84903869497E+03  0.46999998093E+01 0. -1.
       -5    1    3    3    0  502 -0.49754445319E+03 -0.46584288453E+02  0.11977127534E+04  0.12977898553E+04  0.46999998093E+01 0.  1.
</event>
<event>
 5   0  0.6263616E-05  0.1948230E+04  0.7818609E-02  0.8631215E-01
       -1   -1    0    0    0  501  0.00000000000E+00  0.00000000000E+00  0.75660479255E+03  0.75660479257E+03  0.50400001928E-02 0.  1.
        1   -1    0    0  501    0  0.00000000000E+00  0.00000000000E+00 -0.12541556945E+04  0.12541556945E+04  0.50400001928E-02 0. -1.
    10030    2    1    2    0    0  0.00000000000E+00  0.00000000000E+00 -0.49755090194E+03  0.20107604871E+04  0.19482301805E+04 0.  0.
        4    1    3    3  502    0  0.68167544512E+03 -0.35591253985E+03  0.36836567339E+03  0.85267228800E+03  0.12699999809E+01 0.  1.
       -4    1    3    3    0  502 -0.68167544512E+03  0.35591253985E+03 -0.86591657533E+03  0.11580881991E+04  0.12699999809E+01 0. -1.
</event>
<event>
 5   0  0.1281470E-04  0.2036203E+04  0.7818609E-02  0.8589879E-01
        2   -1    0    0  501    0  0.00000000000E+00  0.00000000000E+00  0.78436833664E+03  0.78436833664E+03  0.25500000920E-02 0.  1.
       -2   -1    0    0    0  501  0.00000000000E+00  0.00000000000E+00 -0.13214849674E+04  0.13214849674E+04  0.25500000920E-02 0. -1.
    10030    2    1    2    0    0  0.00000000000E+00  0.00000000000E+00 -0.53711663081E+03  0.21058533041E+04  0.20362032962E+04 0.  0.
        3    1    3    3  502    0  0.12007710787E+03 -0.22569232593E+03 -0.12877498762E+04  0.13128805321E+04  0.10100000352E+00 0. -1.
       -3    1    3    3    0  502 -0.12007710787E+03  0.22569232593E+03  0.75063324538E+03  0.79297277197E+03  0.10100000352E+00 0.  1.
</event>
<event>
 5   0  0.6263616E-05  0.2093769E+04  0.7818609E-02  0.8563993E-01
       -1   -1    0    0    0  501  0.00000000000E+00  0.00000000000E+00  0.74679653289E+03  0.74679653291E+03  0.50400001928E-02 0. -1.
        1   -1    0    0  501    0  0.00000000000E+00  0.00000000000E+00 -0.14675584162E+04  0.14675584162E+04  0.50400001928E-02 0.  1.
    10030    2    1    2    0    0  0.00000000000E+00  0.00000000000E+00 -0.72076188332E+03  0.22143549491E+04  0.20937693637E+04 0.  0.
        4    1    3    3  502    0 -0.53833027274E+03  0.89534356484E+03 -0.43153375951E+03  0.11303373745E+04  0.12699999809E+01 0.  1.
       -4    1    3    3    0  502  0.53833027274E+03 -0.89534356484E+03 -0.28922812381E+03  0.10840175747E+04  0.12699999809E+01 0. -1.
</event>
<event>
 5   0  0.6052292E-05  0.2082430E+04  0.7818609E-02  0.8569023E-01
        1   -1    0    0  501    0  0.00000000000E+00  0.00000000000E+00  0.16922820821E+04  0.16922820821E+04  0.50400001928E-02 0.  1.
       -1   -1    0    0    0  501  0.00000000000E+00  0.00000000000E+00 -0.64063112324E+03  0.64063112326E+03  0.50400001928E-02 0. -1.
    10030    2    1    2    0    0  0.00000000000E+00  0.00000000000E+00  0.10516509589E+04  0.23329132054E+04  0.20824298991E+04 0.  0.
        1    1    3    3  502    0  0.97087930112E+03  0.37299141359E+03  0.47095031660E+03  0.11417194982E+04  0.50400001928E-02 0.  1.
       -1    1    3    3    0  502 -0.97087930112E+03 -0.37299141359E+03  0.58070064227E+03  0.11911937071E+04  0.50400001928E-02 0. -1.
</event>
<event>
 5   0  0.5933905E-05  0.2125573E+04  0.7818609E-02  0.8550061E-01
        1   -1    0    0  501    0  0.00000000000E+00  0.00000000000E+00  0.60521269533E+03  0.60521269536E+03  0.50400001928E-02 0.  1.
       -1   -1    0    0    0  501  0.00000000000E+00  0.00000000000E+00 -0.18663115378E+04  0.18663115378E+04  0.50400001928E-02 0. -1.
    10030    2    1    2    0    0  0.00000000000E+00  0.00000000000E+00 -0.12610988425E+04  0.24715242332E+04  0.21255732744E+04 0.  0.
        2    1    3    3  502    0  0.32035575481E+02  0.92731742531E+03 -0.12331350857E+04  0.15432323302E+04  0.25500000920E-02 0. -1.
       -2    1    3    3    0  502 -0.32035575481E+02 -0.92731742531E+03 -0.27963756747E+02  0.92829190295E+03  0.25500000920E-02 0.  1.
</event>
<event>
 5   0  0.1235817E-04  0.1707335E+04  0.7818609E-02  0.8757192E-01
        2   -1    0    0  501    0  0.00000000000E+00  0.00000000000E+00  0.16293882509E+04  0.16293882509E+04  0.25500000920E-02 0.  1.
       -2   -1    0    0    0  501  0.00000000000E+00  0.00000000000E+00 -0.44725262355E+03  0.44725262356E+03  0.25500000920E-02 0. -1.
    10030    2    1    2    0    0  0.00000000000E+00  0.00000000000E+00  0.11821356274E+04  0.20766408745E+04  0.17073349642E+04 0.  0.
        1    1    3    3  502    0  0.14414728705E+03 -0.38356426503E+02 -0.43127909969E+03  0.45634561209E+03  0.50400001928E-02 0. -1.
       -1    1    3    3    0  502 -0.14414728705E+03  0.38356426503E+02  0.16134147271E+04  0.16202952624E+04  0.50400001928E-02 0.  1.
</event>
<event>
 5   0  0.4615125E-05  0.2160894E+04  0.7818609E-02  0.8534884E-01
       -3   -1    0    0    0  501  0.00000000000E+00  0.00000000000E+00  0.77961720710E+03  0.77961721364E+03  0.10100000352E+00 0.  1.
        3   -1    0    0  501    0  0.00000000000E+00  0.00000000000E+00 -0.14973568617E+04  0.14973568651E+04  0.10100000352E+00 0. -1.
    10030    2    1    2    0    0  0.00000000000E+00  0.00000000000E+00 -0.71773965460E+03  0.22769740787E+04  0.21608935058E+04 0.  0.
        2    1    3    3  502    0 -0.10589274681E+04 -0.21238114614E+03 -0.39103936072E+03  0.11486274051E+04  0.25500000920E-02 0. -1.
       -2    1    3    3    0  502  0.10589274681E+04  0.21238114614E+03 -0.32670029388E+03  0.11283466737E+04  0.25500000920E-02 0.  1.
</event>
<event>
 5   0  0.1281470E-04  0.2063484E+04  0.7818609E-02  0.8577502E-01
       -2   -1    0    0    0  501  0.00000000000E+00  0.00000000000E+00  0.84820114079E+03  0.84820114079E+03  0.25500000920E-02 0. -1.
        2   -1    0    0  501    0  0.00000000000E+00  0.00000000000E+00 -0.12549984677E+04  0.12549984677E+04  0.25500000920E-02 0.  1.
    10030    2    1    2    0    0  0.00000000000E+00  0.00000000000E+00 -0.40679732690E+03  0.21031996085E+04  0.20634835904E+04 0.  0.
        3    1    3    3  502    0  0.11416108074E+03  0.85648217523E+03 -0.77807385647E+03  0.11627525124E+04  0.10100000352E+00 0.  1.
       -3    1    3    3    0  502 -0.11416108074E+03 -0.85648217523E+03  0.37127652957E+03  0.94044709604E+03  0.10100000352E+00 0. -1.
</event>
<event>
 5   0  0.1349252E-04  0.2091849E+04  0.7818609E-02  0.8564842E-01
        2   -1    0    0  501    0  0.00000000000E+00  0.00000000000E+00  0.15449076345E+04  0.15449076345E+04  0.25500000920E-02 0.  1.
       -2   -1    0    0    0  501  0.00000000000E+00  0.00000000000E+00 -0.70810597158E+03  0.70810597158E+03  0.25500000920E-02 0. -1.
    10030    2    1    2    0    0  0.00000000000E+00  0.00000000000E+00  0.83680166287E+03  0.22530136060E+04  0.20918492503E+04 0.  0.
        2    1    3    3  502    0 -0.78955643852E+03  0.61275212056E+03  0.86269756965E+02  0.10031485443E+04  0.25500000920E-02 0.  1.
       -2    1    3    3    0  502  0.78955643852E+03 -0.61275212056E+03  0.75053190591E+03  0.12498650618E+04  0.25500000920E-02 0. -1.
</event>
<event>
 5   0  0.1252477E-04  0.2145593E+04  0.7818609E-02  0.8541421E-01
       -2   -1    0    0    0  501  0.00000000000E+00  0.00000000000E+00  0.99709667055E+03  0.99709667056E+03  0.25500000920E-02 0. -1.
        2   -1    0    0  501    0  0.00000000000E+00  0.00000000000E+00 -0.11542429998E+04  0.11542429998E+04  0.25500000920E-02 0.  1.
    10030    2    1    2    0    0  0.00000000000E+00  0.00000000000E+00 -0.15714632928E+03  0.21513396704E+04  0.21455925542E+04 0.  0.
        4    1    3    3  502    0 -0.95058661517E+03  0.30923887828E+03 -0.46903458689E+03  0.11041914025E+04  0.12699999809E+01 0. -1.
       -4    1    3    3    0  502  0.95058661517E+03 -0.30923887828E+03  0.31188825761E+03  0.10471482679E+04  0.12699999809E+01 0.  1.
</event>
<event>
 5   0  0.1281470E-04  0.2076455E+04  0.7818609E-02  0.8571686E-01
        2   -1    0    0  501    0  0.00000000000E+00  0.00000000000E+00  0.11260242734E+04  0.11260242734E+04  0.25500000920E-02 0.  1.
       -2   -1    0    0    0  501  0.00000000000E+00  0.00000000000E+00 -0.95727662344E+03  0.95727662345E+03  0.25500000920E-02 0. -1.
    10030    2    1    2    0    0  0.00000000000E+00  0.00000000000E+00  0.16874764998E+03  0.20833008969E+04  0.20764553589E+04 0.  0.
        3    1    3    3  502    0  0.38529306167E+03 -0.96400581643E+03  0.71732815193E+02  0.10406265250E+04  0.10100000352E+00 0. -1.
       -3    1    3    3    0  502 -0.38529306167E+03  0.96400581643E+03  0.97014834786E+02  0.10426743719E+04  0.10100000352E+00 0.  1.
</event>
<event>
 5   0  0.6052292E-05  0.2108600E+04  0.7818609E-02  0.8557465E-01
       -1   -1    0    0    0  501  0.00000000000E+00  0.00000000000E+00  0.91908971087E+03  0.91908971089E+03  0.50400001928E-02 0.  1.
        1   -1    0    0  501    0  0.00000000000E+00  0.00000000000E+00 -0.12094011276E+04  0.12094011277E+04  0.50400001928E-02 0. -1.
    10030    2    1    2    0    0  0.00000000000E+00  0.00000000000E+00 -0.29031141678E+03  0.21284908385E+04  0.21085996612E+04 0.  0.
        1    1    3    3  502    0  0.33984230664E+03  0.35437229361E+03 -0.10869497925E+04  0.11926996132E+04  0.50400001928E-02 0. -1.
       -1    1    3    3    0  502 -0.33984230664E+03 -0.35437229361E+03  0.79663837569E+03  0.93579122539E+03  0.50400001928E-02 0.  1.
</event>
<event>
 5   0  0.4615125E-05  0.2061060E+04  0.7818609E-02  0.8578593E-01
       -3   -1    0    0    0  501  0.00000000000E+00  0.00000000000E+00  0.56586222998E+03  0.56586223900E+03  0.10100000352E+00 0. -1.
        3   -1    0    0  501    0  0.00000000000E+00  0.00000000000E+00 -0.18767687792E+04  0.18767687820E+04  0.10100000352E+00 0.  1.
    10030    2    1    2    0    0  0.00000000000E+00  0.00000000000E+00 -0.13109065492E+04  0.24426310209E+04  0.20610604852E+04 0.  0.
        2    1    3    3  502    0  0.30904545078E+03 -0.36375583206E+03  0.42696012816E+03  0.64040795361E+03  0.25500000920E-02 0. -1.
       -2    1    3    3    0  502 -0.30904545078E+03  0.36375583206E+03 -0.17378666774E+04  0.18022230673E+04  0.25500000920E-02 0.  1.
</event>
<event>
 5   0  0.4615125E-05  0.2110435E+04  0.7818609E-02  0.8556660E-01
        3   -1    0    0  501    0  0.00000000000E+00  0.00000000000E+00  0.10881114911E+04  0.10881114958E+04  0.10100000352E+00 0. -1.
       -3   -1    0    0    0  501  0.00000000000E+00  0.00000000000E+00 -0.10233182692E+04  0.10233182742E+04  0.10100000352E+00 0.  1.
    10030    2    1    2    0    0  0.00000000000E+00  0.00000000000E+00  0.64793221828E+02  0.21114297700E+04  0.21104353845E+04 0.  0.
        3    1    3    3  502    0 -0.88859165993E+03  0.27289523258E+03  0.53204900597E+03  0.10710476651E+04  0.10100000352E+00 0. -1.
       -3    1    3    3    0  502  0.88859165993E+03 -0.27289523258E+03 -0.46725578415E+03  0.10403821048E+04  0.10100000352E+00 0.  1.
</event>
<event>
 5   0  0.1252477E-04  0.2064285E+04  0.7818609E-02  0.8577141E-01
       -2   -1    0    0    0  501  0.00000000000E+00  0.00000000000E+00  0.87567942284E+03  0.87567942284E+03  0.25500000920E-02 0.  1.
        2   -1    0    0  501    0  0.00000000000E+00  0.00000000000E+00 -0.12165619890E+04  0.12165619890E+04  0.25500000920E-02 0. -1.
    10030    2    1    2    0    0  0.00000000000E+00  0.00000000000E+00 -0.34088256613E+03  0.20922414118E+04  0.20642851551E+04 0.  0.
        4    1    3    3  502    0  0.19800832196E+03 -0.91791836378E+02  0.85202384074E+03  0.87953355529E+03  0.12699999809E+01 0.  1.
       -4    1    3    3    0  502 -0.19800832196E+03  0.91791836378E+02 -0.11929064069E+04  0.12127078565E+04  0.12699999809E+01 0. -1.
</event>
<event>
 5   0  0.1349252E-04  0.2101843E+04  0.7818609E-02  0.8560432E-01
        2   -1    0    0  501    0  0.00000000000E+00  0.00000000000E+00  0.17081943223E+04  0.17081943223E+04  0.25500000920E-02 0.  1.
       -2   -1    0    0    0  501  0.00000000000E+00  0.00000000000E+00 -0.64655192216E+03  0.64655192216E+03  0.25500000920E-02 0. -1.
    10030    2    1    2    0    0  0.00000000000E+00  0.00000000000E+00  0.10616424001E+04  0.23547462445E+04  0.21018433077E+04 0.  0.
        2    1    3    3  502    0 -0.10168735864E+04 -0.64969271041E+02  0.24260499367E+03  0.10474302268E+04  0.25500000920E-02 0.  1.
       -2    1    3    3    0  502  0.10168735864E+04  0.64969271041E+02  0.81903740647E+03  0.13073160177E+04  0.25500000920E-02 0. -1.
</event>
<event>
 5   0  0.5933905E-05  0.2106924E+04  0.7818609E-02  0.8558200E-01
       -1   -1    0    0    0  501  0.00000000000E+00  0.00000000000E+00  0.59324860610E+03  0.59324860612E+03  0.50400001928E-02 0. -1.
        1   -1    0    0  501    0  0.00000000000E+00  0.00000000000E+00 -0.18706861701E+04  0.18706861701E+04  0.50400001928E-02 0.  1.
    10030    2    1    2    0    0  0.00000000000E+00  0.00000000000E+00 -0.12774375640E+04  0.24639347762E+04  0.21069237887E+04 0.  0.
        2    1    3    3  502    0 -0.88707507007E+03  0.65764550453E+02 -0.12987621352E+04  0.15741696986E+04  0.25500000920E-02 0.  1.
       -2    1    3    3    0  502  0.88707507007E+03 -0.65764550453E+02  0.21324571214E+02  0.88976507764E+03  0.25500000920E-02 0. -1.
</event>
<event>
 5   0  0.4615125E-05  0.2087099E+04  0.7818609E-02  0.8566948E-01
       -4   -1    0    0    0  501  0.00000000000E+00  0.00000000000E+00  0.65017654191E+03  0.65017778226E+03  0.12699999809E+01 0. -1.
        4   -1    0    0  501    0  0.00000000000E+00  0.00000000000E+00 -0.16749193806E+04  0.16749198621E+04  0.12699999809E+01 0.  1.
    10030    2    1    2    0    0  0.00000000000E+00  0.00000000000E+00 -0.10247428387E+04  0.23250976443E+04  0.20870987447E+04 0.  0.
        3    1    3    3  502    0  0.22324481221E+03 -0.57379583108E+03  0.42627384188E+03  0.74885866518E+03  0.10100000352E+00 0. -1.
       -3    1    3    3    0  502 -0.22324481221E+03  0.57379583108E+03 -0.14510166805E+04  0.15762389791E+04  0.10100000352E+00 0.  1.
</event>
<event>
 5   0  0.1235817E-04  0.2156737E+04  0.7818609E-02  0.8536654E-01
        2   -1    0    0  501    0  0.00000000000E+00  0.00000000000E+00  0.21464685330E+04  0.21464685330E+04  0.25500000920E-02 0.  1.
       -2   -1    0    0    0  501  0.00000000000E+00  0.00000000000E+00 -0.54176343431E+03  0.54176343432E+03  0.25500000920E-02 0. -1.
    10030    2    1    2    0    0  0.00000000000E+00  0.00000000000E+00  0.16047050987E+04  0.26882319673E+04  0.21567365756E+04 0.  0.
        1    1    3    3  502    0  0.59527494776E+03 -0.60006585850E+03 -0.32337304514E+02  0.84585873481E+03  0.50400001928E-02 0. -1.
       -1    1    3    3    0  502 -0.59527494776E+03  0.60006585850E+03  0.16370424032E+04  0.18423732325E+04  0.50400001928E-02 0.  1.
</event>
<event>
 5   0  0.6263616E-05  0.2065710E+04  0.7818609E-02  0.8576501E-01
        1   -1    0    0  501    0  0.00000000000E+00  0.00000000000E+00  0.20471307818E+04  0.20471307819E+04  0.50400001928E-02 0.  1.
       -1   -1    0    0    0  501  0.00000000000E+00  0.00000000000E+00 -0.52111445073E+03  0.52111445075E+03  0.50400001928E-02 0. -1.
    10030    2    1    2    0    0  0.00000000000E+00  0.00000000000E+00  0.15260163311E+04  0.25682452326E+04  0.20657099825E+04 0.  0.
        4    1    3    3  502    0  0.42133290216E+03 -0.94220279025E+03  0.81148484769E+03  0.13129268004E+04  0.12699999809E+01 0. -1.
       -4    1    3    3    0  502 -0.42133290216E+03  0.94220279025E+03  0.71453148343E+03  0.12553184322E+04  0.12699999809E+01 0.  1.
</event>
<event>
 5   0  0.5846187E-05  0.1775665E+04  0.7818609E-02  0.8719349E-01
       -1   -1    0    0    0  501  0.00000000000E+00  0.00000000000E+00  0.60902128057E+03  0.60902128059E+03  0.50400001928E-02 0.  1.
        1   -1    0    0  501    0  0.00000000000E+00  0.00000000000E+00 -0.12942839797E+04  0.12942839797E+04  0.50400001928E-02 0. -1.
    10030    2    1    2    0    0  0.00000000000E+00  0.00000000000E+00 -0.68526269911E+03  0.19033052603E+04  0.17756649310E+04 0.  0.
        5    1    3    3  502    0  0.65906421731E+02  0.52945933349E+03  0.41799306852E+03  0.67779874416E+03  0.46999998093E+01 0.  1.
       -5    1    3    3    0  502 -0.65906421731E+02 -0.52945933349E+03 -0.11032557676E+04  0.12255065161E+04  0.46999998093E+01 0. -1.
</event>
<event>
 5   0  0.6052292E-05  0.2110795E+04  0.7818609E-02  0.8556503E-01
       -1   -1    0    0    0  501  0.00000000000E+00  0.00000000000E+00  0.12595923799E+04  0.12595923799E+04  0.50400001928E-02 0. -1.
        1   -1    0    0  501    0  0.00000000000E+00  0.00000000000E+00 -0.88430537035E+03  0.88430537037E+03  0.50400001928E-02 0.  1.
    10030    2    1    2    0    0  0.00000000000E+00  0.00000000000E+00  0.37528700953E+03  0.21438977503E+04  0.21107954008E+04 0.  0.
        1    1    3    3  502    0 -0.69291121843E+03  0.40280018839E+03  0.88506340761E+03  0.11940314836E+04  0.50400001928E-02 0. -1.
       -1    1    3    3    0  502  0.69291121843E+03 -0.40280018839E+03 -0.50977639808E+03  0.94986626662E+03  0.50400001928E-02 0.  1.
</event>
<event>
 5   0  0.6221148E-05  0.2093976E+04  0.7818609E-02  0.8563902E-01
        1   -1    0    0  501    0  0.00000000000E+00  0.00000000000E+00  0.10005394042E+04  0.10005394042E+04  0.50400001928E-02 0. -1.
       -1   -1    0    0    0  501  0.00000000000E+00  0.00000000000E+00 -0.10955932305E+04  0.10955932305E+04  0.50400001928E-02 0.  1.
    10030    2    1    2    0    0  0.00000000000E+00  0.00000000000E+00 -0.95053826293E+02  0.20961326348E+04  0.20939763114E+04 0.  0.
        3    1    3    3  502    0 -0.10320999533E+03 -0.92826149500E+03 -0.52115522189E+03  0.10695440532E+04  0.10100000352E+00 0.  1.
       -3    1    3    3    0  502  0.10320999533E+03  0.92826149500E+03  0.42610139560E+03  0.10265885816E+04  0.10100000352E+00 0. -1.
</event>
<event>
 5   0  0.1235817E-04  0.1673193E+04  0.7818609E-02  0.8776803E-01
       -2   -1    0    0    0  501  0.00000000000E+00  0.00000000000E+00  0.52025092110E+03  0.52025092111E+03  0.25500000920E-02 0.  1.
        2   -1    0    0  501    0  0.00000000000E+00  0.00000000000E+00 -0.13453006960E+04  0.13453006960E+04  0.25500000920E-02 0. -1.
    10030    2    1    2    0    0  0.00000000000E+00  0.00000000000E+00 -0.82504977491E+03  0.18655516171E+04  0.16731932659E+04 0.  0.
        1    1    3    3  502    0  0.21445448954E+03  0.18154767870E+03  0.46606712959E+03  0.54421398092E+03  0.50400001928E-02 0.  1.
       -1    1    3    3    0  502 -0.21445448954E+03 -0.18154767870E+03 -0.12911169045E+04  0.13213376362E+04  0.50400001928E-02 0. -1.
</event>
<event>
 5   0  0.1235817E-04  0.2076910E+04  0.7818609E-02  0.8571483E-01
        2   -1    0    0  501    0  0.00000000000E+00  0.00000000000E+00  0.95446022722E+03  0.95446022722E+03  0.25500000920E-02 0.  1.
       -2   -1    0    0    0  501  0.00000000000E+00  0.00000000000E+00 -0.11298418741E+04  0.11298418741E+04  0.25500000920E-02 0. -1.
    10030    2    1    2    0    0  0.00000000000E+00  0.00000000000E+00 -0.17538164691E+03  0.20843021014E+04  0.20769103321E+04 0.  0.
        1    1    3    3  502    0  0.36628283863E+03  0.49153319017E+02  0.88623203760E+03  0.96020122429E+03  0.50400001928E-02 0.  1.
       -1    1    3    3    0  502 -0.36628283863E+03 -0.49153319017E+02 -0.10616136845E+04  0.11241008771E+04  0.50400001928E-02 0. -1.
</event>
<event>
 5   0  0.4615125E-05  0.2128763E+04  0.7818609E-02  0.8548678E-01
       -3   -1    0    0    0  501  0.00000000000E+00  0.00000000000E+00  0.97593787024E+03  0.97593787547E+03  0.10100000352E+00 0.  1.
        3   -1    0    0  501    0  0.00000000000E+00  0.00000000000E+00 -0.11608399520E+04  0.11608399564E+04  0.10100000352E+00 0. -1.
    10030    2    1    2    0    0  0.00000000000E+00  0.00000000000E+00 -0.18490208179E+03  0.21367778319E+04  0.21287627212E+04 0.  0.
        4    1    3    3  502    0 -0.30496496052E+03 -0.70355970128E+03  0.64850592085E+03  0.10042715881E+04  0.12699999809E+01 0.  1.
       -4    1    3    3    0  502  0.30496496052E+03  0.70355970128E+03 -0.83340800264E+03  0.11325062438E+04  0.12699999809E+01 0. -1.
</event>
<event>
 5   0  0.1252477E-04  0.2113736E+04  0.7818609E-02  0.8555217E-01
       -2   -1    0    0    0  501  0.00000000000E+00  0.00000000000E+00  0.46955519744E+03  0.46955519744E+03  0.25500000920E-02 0.  1.
        2   -1    0    0  501    0  0.00000000000E+00  0.00000000000E+00 -0.23787823236E+04  0.23787823236E+04  0.25500000920E-02 0. -1.
    10030    2    1    2    0    0  0.00000000000E+00  0.00000000000E+00 -0.19092271262E+04  0.28483375211E+04  0.21137356539E+04 0.  0.
        4    1    3    3  502    0 -0.47751236995E+03  0.51783086256E+03 -0.20163507424E+04  0.21358461543E+04  0.12699999809E+01 0. -1.
       -4    1    3    3    0  502  0.47751236995E+03 -0.51783086256E+03  0.10712361619E+03  0.71249136677E+03  0.12699999809E+01 0.  1.
</event>
<event>
 5   0  0.5933905E-05  0.2350298E+04  0.7818609E-02  0.8458349E-01
        1   -1    0    0  501    0  0.00000000000E+00  0.00000000000E+00  0.15624645329E+04  0.15624645329E+04  0.50400001928E-02 0. -1.
       -1   -1    0    0    0  501  0.00000000000E+00  0.00000000000E+00 -0.88384394830E+03  0.88384394832E+03  0.50400001928E-02 0.  1.
    10030    2    1    2    0    0  0.00000000000E+00  0.00000000000E+00  0.67862058463E+03  0.24463084813E+04  0.23502977019E+04 0.  0.
        2    1    3    3  502    0 -0.10713014957E+04  0.31009802447E+03  0.72474432413E+03  0.13300759433E+04  0.25500000920E-02 0. -1.
       -2    1    3    3    0  502  0.10713014957E+04 -0.31009802447E+03 -0.46123739493E+02  0.11162325380E+04  0.25500000920E-02 0.  1.
</event>
<event>
 5   0  0.1325673E-04  0.2103285E+04  0.7818609E-02  0.8559798E-01
        2   -1    0    0  501    0  0.00000000000E+00  0.00000000000E+00  0.16394690731E+04  0.16394690731E+04  0.25500000920E-02 0. -1.
       -2   -1    0    0    0  501  0.00000000000E+00  0.00000000000E+00 -0.67457926713E+03  0.67457926714E+03  0.25500000920E-02 0.  1.
    10030    2    1    2    0    0  0.00000000000E+00  0.00000000000E+00  0.96488980595E+03  0.23140483402E+04  0.21032849030E+04 0.  0.
        5    1    3    3  502    0 -0.81446343761E+02  0.78241389955E+03 -0.28543696984E+03  0.83684011070E+03  0.46999998093E+01 0.  1.
       -5    1    3    3    0  502  0.81446343761E+02 -0.78241389955E+03  0.12503267758E+04  0.14772082295E+04  0.46999998093E+01 0. -1.
</event>
<event>
 5   0  0.1325673E-04  0.2072988E+04  0.7818609E-02  0.8573237E-01
       -2   -1    0    0    0  501  0.00000000000E+00  0.00000000000E+00  0.11299038237E+04  0.11299038237E+04  0.25500000920E-02 0. -1.
        2   -1    0    0  501    0  0.00000000000E+00  0.00000000000E+00 -0.95080642564E+03  0.95080642565E+03  0.25500000920E-02 0.  1.
    10030    2    1    2    0    0  0.00000000000E+00  0.00000000000E+00  0.17909739807E+03  0.20807102494E+04  0.20729880038E+04 0.  0.
        5    1    3    3  502    0  0.17175901055E+03 -0.37864121558E+03  0.10425208177E+04  0.11223823204E+04  0.46999998093E+01 0. -1.
       -5    1    3    3    0  502 -0.17175901055E+03  0.37864121558E+03 -0.86342341963E+03  0.95832792895E+03  0.46999998093E+01 0.  1.
</event>
<event>
 5   0  0.1281470E-04  0.2107090E+04  0.7818609E-02  0.8558127E-01
        2   -1    0    0  501    0  0.00000000000E+00  0.00000000000E+00  0.83407751286E+03  0.83407751286E+03  0.25500000920E-02 0. -1.
       -2   -1    0    0    0  501  0.00000000000E+00  0.00000000000E+00 -0.13307600351E+04  0.13307600351E+04  0.25500000920E-02 0.  1.
    10030    2    1    2    0    0  0.00000000000E+00  0.00000000000E+00 -0.49668252224E+03  0.21648375480E+04  0.21070899556E+04 0.  0.
        3    1    3    3  502    0  0.96608392646E+03  0.41688161488E+03 -0.19350647388E+03  0.10698379314E+04  0.10100000352E+00 0. -1.
       -3    1    3    3    0  502 -0.96608392646E+03 -0.41688161488E+03 -0.30317604836E+03  0.10949996166E+04  0.10100000352E+00 0.  1.
</event>
<event>
 5   0  0.1325673E-04  0.2058611E+04  0.7818609E-02  0.8579698E-01
       -2   -1    0    0    0  501  0.00000000000E+00  0.00000000000E+00  0.89113566052E+03  0.89113566052E+03  0.25500000920E-02 0. -1.
        2   -1    0    0  501    0  0.00000000000E+00  0.00000000000E+00 -0.11888985090E+04  0.11888985090E+04  0.25500000920E-02 0.  1.
    10030    2    1    2    0    0  0.00000000000E+00  0.00000000000E+00 -0.29776284847E+03  0.20800341695E+04  0.20586110445E+04 0.  0.
        5    1    3    3  502    0 -0.37305630665E+03 -0.42810786866E+03  0.71853978434E+03  0.91584325450E+03  0.46999998093E+01 0. -1.
       -5    1    3    3    0  502  0.37305630665E+03  0.42810786866E+03 -0.10163026328E+04  0.11641909150E+04  0.46999998093E+01 0.  1.
</event>
<event>
 5   0  0.1349252E-04  0.2089013E+04  0.7818609E-02  0.8566099E-01
        2   -1    0    0  501    0  0.00000000000E+00  0.00000000000E+00  0.70393683359E+03  0.70393683359E+03  0.25500000920E-02 0.  1.
       -2   -1    0    0    0  501  0.00000000000E+00  0.00000000000E+00 -0.15498463068E+04  0.15498463068E+04  0.25500000920E-02 0. -1.
    10030    2    1    2    0    0  0.00000000000E+00  0.00000000000E+00 -0.84590947318E+03  0.22537831404E+04  0.20890130701E+04 0.  0.
        2    1    3    3  502    0  0.75317752438E+03  0.69774821886E+03 -0.63010130521E+03  0.12046396204E+04  0.25500000920E-02 0. -1.
       -2    1    3    3    0  502 -0.75317752438E+03 -0.69774821886E+03 -0.21580816798E+03  0.10491435200E+04  0.25500000920E-02 0.  1.
</event>
<event>
 5   0  0.1325673E-04  0.2282293E+04  0.7818609E-02  0.8484935E-01
       -2   -1    0    0    0  501  0.00000000000E+00  0.00000000000E+00  0.81781485991E+03  0.81781485991E+03  0.25500000920E-02 0.  1.
        2   -1    0    0  501    0  0.00000000000E+00  0.00000000000E+00 -0.15923110952E+04  0.15923110952E+04  0.25500000920E-02 0. -1.
    10030    2    1    2    0    0  0.00000000000E+00  0.00000000000E+00 -0.77449623532E+03  0.24101259551E+04  0.22822932987E+04 0.  0.
        5    1    3    3  502    0 -0.10399396849E+04  0.29838850702E+02  0.10787187219E+03  0.10459557046E+04  0.46999998093E+01 0.  1.
       -5    1    3    3    0  502  0.10399396849E+04 -0.29838850702E+02 -0.88236810751E+03  0.13641702505E+04  0.46999998093E+01 0. -1.
</event>
<event>
 5   0  0.1349252E-04  0.2131715E+04  0.7818609E-02  0.8547400E-01
       -2   -1    0    0    0  501  0.00000000000E+00  0.00000000000E+00  0.12219740914E+04  0.12219740914E+04  0.25500000920E-02 0. -1.
        2   -1    0    0  501    0  0.00000000000E+00  0.00000000000E+00 -0.92968639680E+03  0.92968639681E+03  0.25500000920E-02 0.  1.
    10030    2    1    2    0    0  0.00000000000E+00  0.00000000000E+00  0.29228769460E+03  0.21516604882E+04  0.21317154501E+04 0.  0.
        2    1    3    3  502    0 -0.19405097353E+03  0.87347866573E+03 -0.43843986737E+03  0.99641872579E+03  0.25500000920E-02 0.  1.
       -2    1    3    3    0  502  0.19405097353E+03 -0.87347866573E+03  0.73072756197E+03  0.11552417624E+04  0.25500000920E-02 0. -1.
</event>
<event>
 5   0  0.1252477E-04  0.2114912E+04  0.7818609E-02  0.8554703E-01
       -2   -1    0    0    0  501  0.00000000000E+00  0.00000000000E+00  0.66941499195E+03  0.66941499195E+03  0.25500000920E-02 0.  1.
        2   -1    0    0  501    0  0.00000000000E+00  0.00000000000E+00 -0.16704337029E+04  0.16704337029E+04  0.25500000920E-02 0. -1.
    10030    2    1    2    0    0  0.00000000000E+00  0.00000000000E+00 -0.10010187110E+04  0.23398486949E+04  0.21149121625E+04 0.  0.
        4    1    3    3  502    0 -0.67038607385E+03  0.57637622261E+03 -0.11423727872E+04  0.14445221479E+04  0.12699999809E+01 0. -1.
       -4    1    3    3    0  502  0.67038607385E+03 -0.57637622261E+03  0.14135407618E+03  0.89532654700E+03  0.12699999809E+01 0.  1.
</event>
<event>
 5   0  0.1235817E-04  0.2083691E+04  0.7818609E-02  0.8568462E-01
       -2   -1    0    0    0  501  0.00000000000E+00  0.00000000000E+00  0.54222730474E+03  0.54222730474E+03  0.25500000920E-02 0. -1.
        2   -1    0    0  501    0  0.00000000000E+00  0.00000000000E+00 -0.20018219400E+04  0.20018219400E+04  0.25500000920E-02 0.  1.
    10030    2    1    2    0    0  0.00000000000E+00  0.00000000000E+00 -0.14595946353E+04  0.25440492448E+04  0.20836914504E+04 0.  0.
        1    1    3    3  502    0  0.95526865799E+02  0.91271985184E+02 -0.19915522092E+04  0.19959298984E+04  0.50400001928E-02 0.  1.
       -1    1    3    3    0  502 -0.95526865799E+02 -0.91271985184E+02  0.53195757392E+03  0.54811934635E+03  0.50400001928E-02 0. -1.
</event>
<event>
 5   0  0.6052292E-05  0.2110492E+04  0.7818609E-02  0.8556635E-01
       -1   -1    0    0    0  501  0.00000000000E+00  0.00000000000E+00  0.46057376808E+03  0.46057376811E+03  0.50400001928E-02 0. -1.
        1   -1    0    0  501    0  0.00000000000E+00  0.00000000000E+00 -0.24177331106E+04  0.24177331106E+04  0.50400001928E-02 0.  1.
    10030    2    1    2    0    0  0.00000000000E+00  0.00000000000E+00 -0.19571593425E+04  0.28783068787E+04  0.21104923113E+04 0.  0.
        1    1    3    3  502    0  0.67558272145E+03  0.43422558552E+03 -0.19121466081E+04  0.20739499810E+04  0.50400001928E-02 0.  1.
       -1    1    3    3    0  502 -0.67558272145E+03 -0.43422558552E+03 -0.45012734404E+02  0.80435689773E+03  0.50400001928E-02 0. -1.
</event>
<event>
 5   0  0.5846187E-05  0.2105699E+04  0.7818609E-02  0.8558737E-01
        1   -1    0    0  501    0  0.00000000000E+00  0.00000000000E+00  0.98547168867E+03  0.98547168869E+03  0.50400001928E-02 0. -1.
       -1   -1    0    0    0  501  0.00000000000E+00  0.00000000000E+00 -0.11248345325E+04  0.11248345326E+04  0.50400001928E-02 0.  1.
    10030    2    1    2    0    0  0.00000000000E+00  0.00000000000E+00 -0.13936284388E+03  0.21103062212E+04  0.21056994907E+04 0.  0.
        5    1    3    3  502    0  0.25333546999E+02 -0.37778733179E+03  0.91486561366E+03  0.99013445436E+03  0.46999998093E+01 0. -1.
       -5    1    3    3    0  502 -0.25333546999E+02  0.37778733179E+03 -0.10542284575E+04  0.11201717669E+04  0.46999998093E+01 0.  1.
</event>
<event>
 5   0  0.5933905E-05  0.2105548E+04  0.7818609E-02  0.8558804E-01
       -1   -1    0    0    0  501  0.00000000000E+00  0.00000000000E+00  0.83208271677E+03  0.83208271679E+03  0.50400001928E-02 0. -1.
        1   -1    0    0  501    0  0.00000000000E+00  0.00000000000E+00 -0.13319982001E+04  0.13319982001E+04  0.50400001928E-02 0.  1.
    10030    2    1    2    0    0  0.00000000000E+00  0.00000000000E+00 -0.49991548336E+03  0.21640809169E+04  0.21055476068E+04 0.  0.
        2    1    3    3  502    0 -0.18459522728E+03 -0.88143813264E+03 -0.81039046771E+03  0.12115037308E+04  0.25500000920E-02 0.  1.
       -2    1    3    3    0  502  0.18459522728E+03  0.88143813264E+03  0.31047498434E+03  0.95257718612E+03  0.25500000920E-02 0. -1.
</event>
<event>
 5   0  0.5846187E-05  0.2082565E+04  0.7818609E-02  0.8568963E-01
        1   -1    0    0  501    0  0.00000000000E+00  0.00000000000E+00  0.16730799405E+04  0.16730799405E+04  0.50400001928E-02 0.  1.
       -1   -1    0    0    0  501  0.00000000000E+00  0.00000000000E+00 -0.64806791836E+03  0.64806791838E+03  0.50400001928E-02 0. -1.
    10030    2    1    2    0    0  0.00000000000E+00  0.00000000000E+00  0.10250120221E+04  0.23211478589E+04  0.20825651820E+04 0.  0.
        5    1    3    3  502    0 -0.28040081974E+02  0.95885974605E+03  0.96393673133E+03  0.13599243989E+04  0.46999998093E+01 0. -1.
       -5    1    3    3    0  502  0.28040081974E+02 -0.95885974605E+03  0.61075290806E+02  0.96122345994E+03  0.46999998093E+01 0.  1.
</event>
<event>
 5   0  0.1235817E-04  0.2066945E+04  0.7818609E-02  0.8575946E-01
       -2   -1    0    0    0  501  0.00000000000E+00  0.00000000000E+00  0.13882888840E+04  0.13882888840E+04  0.25500000920E-02 0.  1.
        2   -1    0    0  501    0  0.00000000000E+00  0.00000000000E+00 -0.76933945706E+03  0.76933945706E+03  0.25500000920E-02 0. -1.
    10030    2    1    2    0    0  0.00000000000E+00  0.00000000000E+00  0.61894942697E+03  0.21576283411E+04  0.20669450078E+04 0.  0.
        1    1    3    3  502    0 -0.33075823132E+03  0.23899511782E+03  0.13006297663E+04  0.13631424954E+04  0.50400001928E-02 0.  1.
       -1    1    3    3    0  502  0.33075823132E+03 -0.23899511782E+03 -0.68168033931E+03  0.79448584566E+03  0.50400001928E-02 0. -1.
</event>
<event>
 5   0  0.1252477E-04  0.2075042E+04  0.7818609E-02  0.8572318E-01
       -2   -1    0    0    0  501  0.00000000000E+00  0.00000000000E+00  0.91890094297E+03  0.91890094298E+03  0.25500000920E-02 0.  1.
        2   -1    0    0  501    0  0.00000000000E+00  0.00000000000E+00 -0.11714535778E+04  0.11714535778E+04  0.25500000920E-02 0. -1.
    10030    2    1    2    0    0  0.00000000000E+00  0.00000000000E+00 -0.25255263484E+03  0.20903545208E+04  0.20750419729E+04 0.  0.
        4    1    3    3  502    0 -0.79344891617E+02  0.23510936835E+03 -0.11411210153E+04  0.11677888556E+04  0.12699999809E+01 0. -1.
       -4    1    3    3    0  502  0.79344891617E+02 -0.23510936835E+03  0.88856838044E+03  0.92256566516E+03  0.12699999809E+01 0.  1.
</event>
<event>
 5   0  0.6263616E-05  0.2106900E+04  0.7818609E-02  0.8558210E-01
        1   -1    0    0  501    0  0.00000000000E+00  0.00000000000E+00  0.99673974166E+03  0.99673974167E+03  0.50400001928E-02 0.  1.
       -1   -1    0    0    0  501  0.00000000000E+00  0.00000000000E+00 -0.11133863462E+04  0.11133863462E+04  0.50400001928E-02 0. -1.
    10030    2    1    2    0    0  0.00000000000E+00  0.00000000000E+00 -0.11664660452E+03  0.21101260879E+04  0.21068995411E+04 0.  0.
        4    1    3    3  502    0 -0.48484063615E+03 -0.79938910320E+03 -0.54451644396E+03  0.10819395322E+04  0.12699999809E+01 0. -1.
       -4    1    3    3    0  502  0.48484063615E+03  0.79938910320E+03  0.42786983944E+03  0.10281865556E+04  0.12699999809E+01 0.  1.
</event>
<event>
 5   0  0.5933905E-05  0.2107629E+04  0.7818609E-02  0.8557890E-01
        1   -1    0    0  501    0  0.00000000000E+00  0.00000000000E+00  0.37576001539E+03  0.37576001542E+03  0.50400001928E-02 0. -1.
       -1   -1    0    0    0  501  0.00000000000E+00  0.00000000000E+00 -0.29554097224E+04  0.29554097224E+04  0.50400001928E-02 0.  1.
    10030    2    1    2    0    0  0.00000000000E+00  0.00000000000E+00 -0.25796497070E+04  0.33311697378E+04  0.21076288125E+04 0.  0.
        2    1    3    3  502    0 -0.54067537347E+03  0.55544444646E+03 -0.16145908573E+03  0.79178117491E+03  0.25500000920E-02 0. -1.
       -2    1    3    3    0  502  0.54067537347E+03 -0.55544444646E+03 -0.24181906213E+04  0.25393885629E+04  0.25500000920E-02 0.  1.
</event>
<event>
 5   0  0.5933905E-05  0.2100453E+04  0.7818609E-02  0.8561044E-01
        1   -1    0    0  501    0  0.00000000000E+00  0.00000000000E+00  0.13294087500E+04  0.13294087500E+04  0.50400001928E-02 0. -1.
       -1   -1    0    0    0  501  0.00000000000E+00  0.00000000000E+00 -0.82967374484E+03  0.82967374485E+03  0.50400001928E-02 0.  1.
    10030    2    1    2    0    0  0.00000000000E+00  0.00000000000E+00  0.49973500520E+03  0.21590824949E+04  0.21004528427E+04 0.  0.
        2    1    3    3  502    0  0.99350456822E+03  0.33834001494E+03  0.28901254199E+03  0.10886016453E+04  0.25500000920E-02 0. -1.
       -2    1    3    3    0  502 -0.99350456822E+03 -0.33834001494E+03  0.21072246321E+03  0.10704808496E+04  0.25500000920E-02 0.  1.
</event>
<event>
 5   0  0.1349252E-04  0.2121707E+04  0.7818609E-02  0.8551741E-01
        2   -1    0    0  501    0  0.00000000000E+00  0.00000000000E+00  0.17964987883E+04  0.17964987883E+04  0.25500000920E-02 0.  1.
       -2   -1    0    0    0  501  0.00000000000E+00  0.00000000000E+00 -0.62644649041E+03  0.62644649042E+03  0.25500000920E-02 0. -1.
    10030    2    1    2    0    0  0.00000000000E+00  0.00000000000E+00  0.11700522978E+04  0.24229452787E+04  0.21217072003E+04 0.  0.
        2    1    3    3  502    0 -0.78939147749E+03  0.73436022769E+02 -0.21995054175E+03  0.82274540108E+03  0.25500000920E-02 0. -1.
       -2    1    3    3    0  502  0.78939147749E+03 -0.73436022769E+02  0.13900028396E+04  0.16001998776E+04  0.25500000920E-02 0.  1.
</event>
<event>
 5   0  0.6052292E-05  0.2088015E+04  0.7818609E-02  0.8566541E-01
        1   -1    0    0  501    0  0.00000000000E+00  0.00000000000E+00  0.82938387350E+03  0.82938387351E+03  0.50400001928E-02 0.  1.
       -1   -1    0    0    0  501  0.00000000000E+00  0.00000000000E+00 -0.13141703270E+04  0.13141703270E+04  0.50400001928E-02 0. -1.
    10030    2    1    2    0    0  0.00000000000E+00  0.00000000000E+00 -0.48478645354E+03  0.21435542006E+04  0.20880150156E+04 0.  0.
        1    1    3    3  502    0  0.97754644393E+03 -0.17072681170E+03 -0.57537704814E+03  0.11470847579E+04  0.50400001928E-02 0. -1.
       -1    1    3    3    0  502 -0.97754644393E+03  0.17072681170E+03  0.90590594608E+02  0.99646944265E+03  0.50400001928E-02 0.  1.
</event>
<event>
 5   0  0.5933905E-05  0.2109332E+04  0.7818609E-02  0.8557144E-01
        1   -1    0    0  501    0  0.00000000000E+00  0.00000000000E+00  0.21726914326E+04  0.21726914326E+04  0.50400001928E-02 0.  1.
       -1   -1    0    0    0  501  0.00000000000E+00  0.00000000000E+00 -0.51195505911E+03  0.51195505914E+03  0.50400001928E-02 0. -1.
    10030    2    1    2    0    0  0.00000000000E+00  0.00000000000E+00  0.16607363735E+04  0.26846464917E+04  0.21093319993E+04 0.  0.
        2    1    3    3  502    0  0.12102894550E+03  0.29562463941E+03 -0.44890326352E+03  0.55095922996E+03  0.25500000920E-02 0. -1.
       -2    1    3    3    0  502 -0.12102894550E+03 -0.29562463941E+03  0.21096396370E+04  0.21336872618E+04  0.25500000920E-02 0.  1.
</event>
<event>
 5   0  0.6221148E-05  0.2084365E+04  0.7818609E-02  0.8568162E-01
       -1   -1    0    0    0  501  0.00000000000E+00  0.00000000000E+00  0.12474325625E+04  0.12474325625E+04  0.50400001928E-02 0. -1.
        1   -1    0    0  501    0  0.00000000000E+00  0.00000000000E+00 -0.87070423128E+03  0.87070423130E+03  0.50400001928E-02 0.  1.
    10030    2    1    2    0    0  0.00000000000E+00  0.00000000000E+00  0.37672833124E+03  0.21181367938E+04  0.20843654290E+04 0.  0.
        3    1    3    3  502    0 -0.46261004490E+03  0.17252781122E+03  0.11210423551E+04  0.12249530078E+04  0.10100000352E+00 0. -1.
       -3    1    3    3    0  502  0.46261004490E+03 -0.17252781122E+03 -0.74431402384E+03  0.89318378600E+03  0.10100000352E+00 0.  1.
</event>
<event>
 5   0  0.6263616E-05  0.2089075E+04  0.7818609E-02  0.8566071E-01
        1   -1    0    0  501    0  0.00000000000E+00  0.00000000000E+00  0.12526137166E+04  0.12526137166E+04  0.50400001928E-02 0. -1.
       -1   -1    0    0    0  501  0.00000000000E+00  0.00000000000E+00 -0.87102591535E+03  0.87102591537E+03  0.50400001928E-02 0.  1.
    10030    2    1    2    0    0  0.00000000000E+00  0.00000000000E+00  0.38158780126E+03  0.21236396320E+04  0.20890754023E+04 0.  0.
        4    1    3    3  502    0  0.92000029398E+03 -0.19192964426E+03  0.65420906100E+03  0.11450889213E+04  0.12699999809E+01 0. -1.
       -4    1    3    3    0  502 -0.92000029398E+03  0.19192964426E+03 -0.27262125974E+03  0.97855071071E+03  0.12699999809E+01 0.  1.
</event>
<event>
 5   0  0.1252477E-04  0.2131226E+04  0.7818609E-02  0.8547611E-01
        2   -1    0    0  501    0  0.00000000000E+00  0.00000000000E+00  0.15301419492E+04  0.15301419492E+04  0.25500000920E-02 0. -1.
       -2   -1    0    0    0  501  0.00000000000E+00  0.00000000000E+00 -0.74210845061E+03  0.74210845062E+03  0.25500000920E-02 0.  1.
    10030    2    1    2    0    0  0.00000000000E+00  0.00000000000E+00  0.78803349862E+03  0.22722503999E+04  0.21312261928E+04 0.  0.
        4    1    3    3  502    0  0.18986500455E+03  0.99645872732E+03  0.74203762263E+03  0.12568214517E+04  0.12699999809E+01 0. -1.
       -4    1    3    3    0  502 -0.18986500455E+03 -0.99645872732E+03  0.45995875998E+02  0.10154289481E+04  0.12699999809E+01 0.  1.
</event>
<event>
 5   0  0.1349252E-04  0.2041317E+04  0.7818609E-02  0.8587544E-01
        2   -1    0    0  501    0  0.00000000000E+00  0.00000000000E+00  0.14580971172E+04  0.14580971172E+04  0.25500000920E-02 0. -1.
       -2   -1    0    0    0  501  0.00000000000E+00  0.00000000000E+00 -0.71445434503E+03  0.71445434503E+03  0.25500000920E-02 0.  1.
    10030    2    1    2    0    0  0.00000000000E+00  0.00000000000E+00  0.74364277218E+03  0.21725514622E+04  0.20413170463E+04 0.  0.
        2    1    3    3  502    0 -0.10866149381E+03  0.35961118843E+03  0.13818403086E+04  0.14319951696E+04  0.25500000920E-02 0. -1.
       -2    1    3    3    0  502  0.10866149381E+03 -0.35961118843E+03 -0.63819753645E+03  0.74055629268E+03  0.25500000920E-02 0.  1.
</event>
<event>
 5   0  0.1325673E-04  0.2070899E+04  0.7818609E-02  0.8574172E-01
       -2   -1    0    0    0  501  0.00000000000E+00  0.00000000000E+00  0.98458521296E+03  0.98458521296E+03  0.25500000920E-02 0.  1.
        2   -1    0    0  501    0  0.00000000000E+00  0.00000000000E+00 -0.10889418719E+04  0.10889418719E+04  0.25500000920E-02 0. -1.
    10030    2    1    2    0    0  0.00000000000E+00  0.00000000000E+00 -0.10435665892E+03  0.20735270848E+04  0.20708993842E+04 0.  0.
        5    1    3    3  502    0  0.86978057936E+03  0.14316592277E+03 -0.59611642133E+03  0.10641389080E+04  0.46999998093E+01 0. -1.
       -5    1    3    3    0  502 -0.86978057936E+03 -0.14316592277E+03  0.49175976241E+03  0.10093881769E+04  0.46999998093E+01 0.  1.
</event>
<event>
 5   0  0.1281470E-04  0.2029819E+04  0.7818609E-02  0.8592805E-01
        2   -1    0    0  501    0  0.00000000000E+00  0.00000000000E+00  0.90400446918E+03  0.90400446919E+03  0.25500000920E-02 0. -1.
       -2   -1    0    0    0  501  0.00000000000E+00  0.00000000000E+00 -0.11394202174E+04  0.11394202174E+04  0.25500000920E-02 0.  1.
    10030    2    1    2    0    0  0.00000000000E+00  0.00000000000E+00 -0.23541574822E+03  0.20434246866E+04  0.20298186804E+04 0.  0.
        3    1    3    3  502    0 -0.81251331567E+02  0.84151213537E+03  0.44756867609E+03  0.95658882644E+03  0.10100000352E+00 0. -1.
       -3    1    3    3    0  502  0.81251331567E+02 -0.84151213537E+03 -0.68298442432E+03  0.10868358602E+04  0.10100000352E+00 0.  1.
</event>
<event>
 5   0  0.1235817E-04  0.2137550E+04  0.7818609E-02  0.8544880E-01
        2   -1    0    0  501    0  0.00000000000E+00  0.00000000000E+00  0.76057534393E+03  0.76057534393E+03  0.25500000920E-02 0.  1.
       -2   -1    0    0    0  501  0.00000000000E+00  0.00000000000E+00 -0.15018628432E+04  0.15018628433E+04  0.25500000920E-02 0. -1.
    10030    2    1    2    0    0  0.00000000000E+00  0.00000000000E+00 -0.74128749932E+03  0.22624381872E+04  0.21375498577E+04 0.  0.
        1    1    3    3  502    0 -0.43921220501E+03  0.90798860545E+02 -0.13974413122E+04  0.14676491458E+04  0.50400001928E-02 0. -1.
       -1    1    3    3    0  502  0.43921220501E+03 -0.90798860545E+02  0.65615381288E+03  0.79478904138E+03  0.50400001928E-02 0.  1.
</event>
<event>
 5   0  0.6221148E-05  0.2080767E+04  0.7818609E-02  0.8569763E-01
        1   -1    0    0  501    0  0.00000000000E+00  0.00000000000E+00  0.15969830868E+04  0.15969830868E+04  0.50400001928E-02 0. -1.
       -1   -1    0    0    0  501  0.00000000000E+00  0.00000000000E+00 -0.67777653579E+03  0.67777653580E+03  0.50400001928E-02 0.  1.
    10030    2    1    2    0    0  0.00000000000E+00  0.00000000000E+00  0.91920655097E+03  0.22747596226E+04  0.20807668435E+04 0.  0.
        3    1    3    3  502    0 -0.13407329112E+02  0.20429712734E+03 -0.65553592189E+03  0.68676373506E+03  0.10100000352E+00 0.  1.
       -3    1    3    3    0  502  0.13407329112E+02 -0.20429712734E+03  0.15747424729E+04  0.15879958875E+04  0.10100000352E+00 0. -1.
</event>
<event>
 5   0  0.6221148E-05  0.2099518E+04  0.7818609E-02  0.8561456E-01
       -1   -1    0    0    0  501  0.00000000000E+00  0.00000000000E+00  0.76024730045E+03  0.76024730046E+03  0.50400001928E-02 0. -1.
        1   -1    0    0  501    0  0.00000000000E+00  0.00000000000E+00 -0.14495202948E+04  0.14495202948E+04  0.50400001928E-02 0.  1.
    10030    2    1    2    0    0  0.00000000000E+00  0.00000000000E+00 -0.68927299436E+03  0.22097675953E+04  0.20995179362E+04 0.  0.
        3    1    3    3  502    0  0.66481283193E+03 -0.15775035143E+03 -0.11834380309E+04  0.13665236398E+04  0.10100000352E+00 0.  1.
       -3    1    3    3    0  502 -0.66481283193E+03  0.15775035143E+03  0.49416503657E+03  0.84324395548E+03  0.10100000352E+00 0. -1.
</event>
<event>
 5   0  0.1281470E-04  0.1989977E+04  0.7818609E-02  0.8611321E-01
        2   -1    0    0  501    0  0.00000000000E+00  0.00000000000E+00  0.12609147579E+04  0.12609147579E+04  0.25500000920E-02 0.  1.
       -2   -1    0    0    0  501  0.00000000000E+00  0.00000000000E+00 -0.78514590042E+03  0.78514590043E+03  0.25500000920E-02 0. -1.
    10030    2    1    2    0    0  0.00000000000E+00  0.00000000000E+00  0.47576885745E+03  0.20460606583E+04  0.19899769375E+04 0.  0.
        3    1    3    3  502    0 -0.46385727856E+03  0.24588279414E+02 -0.66681965095E+03  0.81266020910E+03  0.10100000352E+00 0. -1.
       -3    1    3    3    0  502  0.46385727856E+03 -0.24588279414E+02  0.11425885084E+04  0.12334004492E+04  0.10100000352E+00 0.  1.
</event>
<event>
 5   0  0.6263616E-05  0.2057667E+04  0.7818609E-02  0.8580124E-01
       -1   -1    0    0    0  501  0.00000000000E+00  0.00000000000E+00  0.10996402014E+04  0.10996402014E+04  0.50400001928E-02 0. -1.
        1   -1    0    0  501    0  0.00000000000E+00  0.00000000000E+00 -0.96258617534E+03  0.96258617535E+03  0.50400001928E-02 0.  1.
    10030    2    1    2    0    0  0.00000000000E+00  0.00000000000E+00  0.13705402607E+03  0.20622263768E+04  0.20576670826E+04 0.  0.
        4    1    3    3  502    0  0.24574854470E+02 -0.56492416355E+03 -0.79288522018E+03  0.97386437419E+03  0.12699999809E+01 0.  1.
       -4    1    3    3    0  502 -0.24574854470E+02  0.56492416355E+03  0.92993924625E+03  0.10883620026E+04  0.12699999809E+01 0. -1.
</event>
<event>
 5   0  0.1235817E-04  0.2111853E+04  0.7818609E-02  0.8556040E-01
        2   -1    0    0  501    0  0.00000000000E+00  0.00000000000E+00  0.10277941748E+04  0.10277941748E+04  0.25500000920E-02 0. -1.
       -2   -1    0    0    0  501  0.00000000000E+00  0.00000000000E+00 -0.10848287025E+04  0.10848287025E+04  0.25500000920E-02 0.  1.
    10030    2    1    2    0    0  0.00000000000E+00  0.00000000000E+00 -0.57034527644E+02  0.21126228773E+04  0.21118528558E+04 0.  0.
        1    1    3    3  502    0  0.83463008976E+03 -0.12453447339E+03  0.60643016458E+03  0.10391697486E+04  0.50400001928E-02 0. -1.
       -1    1    3    3    0  502 -0.83463008976E+03  0.12453447339E+03 -0.66346469222E+03  0.10734531288E+04  0.50400001928E-02 0.  1.
</event>
<event>
 5   0  0.1281470E-04  0.2086169E+04  0.7818609E-02  0.8567361E-01
        2   -1    0    0  501    0  0.00000000000E+00  0.00000000000E+00  0.99373699961E+03  0.99373699961E+03  0.25500000920E-02 0.  1.
       -2   -1    0    0    0  501  0.00000000000E+00  0.00000000000E+00 -0.10948821203E+04  0.10948821203E+04  0.25500000920E-02 0. -1.
    10030    2    1    2    0    0  0.00000000000E+00  0.00000000000E+00 -0.10114512073E+03  0.20886191200E+04  0.20861686156E+04 0.  0.
        3    1    3    3  502    0 -0.95239445758E+03 -0.42535952869E+03 -0.56819403161E+02  0.10446120745E+04  0.10100000352E+00 0.  1.
       -3    1    3    3    0  502  0.95239445758E+03  0.42535952869E+03 -0.44325717567E+02  0.10440070454E+04  0.10100000352E+00 0. -1.
</event>
<event>
 5   0  0.6052292E-05  0.2070063E+04  0.7818609E-02  0.8574547E-01
       -1   -1    0    0    0  501  0.00000000000E+00  0.00000000000E+00  0.57676140494E+03  0.57676140496E+03  0.50400001928E-02 0.  1.
        1   -1    0    0  501    0  0.00000000000E+00  0.00000000000E+00 -0.18574232983E+04  0.18574232983E+04  0.50400001928E-02 0. -1.
    10030    2    1    2    0    0  0.00000000000E+00  0.00000000000E+00 -0.12806618934E+04  0.24341847033E+04  0.20700628697E+04 0.  0.
        1    1    3    3  502    0  0.62087422875E+03  0.28849584784E+03  0.27246918791E+03  0.73685420575E+03  0.50400001928E-02 0.  1.
       -1    1    3    3    0  502 -0.62087422875E+03 -0.28849584784E+03 -0.15531310813E+04  0.16973304975E+04  0.50400001928E-02 0. -1.
</event>
<event>
 5   0  0.1281470E-04  0.2070003E+04  0.7818609E-02  0.8574574E-01
       -2   -1    0    0    0  501  0.00000000000E+00  0.00000000000E+00  0.58561243703E+03  0.58561243704E+03  0.25500000920E-02 0. -1.
        2   -1    0    0  501    0  0.00000000000E+00  0.00000000000E+00 -0.18292434218E+04  0.18292434218E+04  0.25500000920E-02 0.  1.
    10030    2    1    2    0    0  0.00000000000E+00  0.00000000000E+00 -0.12436309847E+04  0.24148558588E+04  0.20700026069E+04 0.  0.
        3    1    3    3  502    0  0.74269727400E+03 -0.22160854869E+02  0.21873045000E+03  0.77455365485E+03  0.10100000352E+00 0. -1.
       -3    1    3    3    0  502 -0.74269727400E+03  0.22160854869E+02 -0.14623614347E+04  0.16403022040E+04  0.10100000352E+00 0.  1.
</event>
<event>
 5   0  0.1235817E-04  0.2098337E+04  0.7818609E-02  0.8561976E-01
        2   -1    0    0  501    0  0.00000000000E+00  0.00000000000E+00  0.10965798904E+04  0.10965798904E+04  0.25500000920E-02 0.  1.
       -2   -1    0    0    0  501  0.00000000000E+00  0.00000000000E+00 -0.10038067983E+04  0.10038067983E+04  0.25500000920E-02 0. -1.
    10030    2    1    2    0    0  0.00000000000E+00  0.00000000000E+00  0.92773092056E+02  0.21003866888E+04  0.20983368165E+04 0.  0.
        1    1    3    3  502    0  0.64627221087E+03 -0.67535582212E+03 -0.43050420211E+03  0.10291293044E+04  0.50400001928E-02 0. -1.
       -1    1    3    3    0  502 -0.64627221087E+03  0.67535582212E+03  0.52327729416E+03  0.10712573844E+04  0.50400001928E-02 0.  1.
</event>
<event>
 5   0  0.5933905E-05  0.2104454E+04  0.7818609E-02  0.8559284E-01
       -1   -1    0    0    0  501  0.00000000000E+00  0.00000000000E+00  0.70813267655E+03  0.70813267657E+03  0.50400001928E-02 0.  1.
        1   -1    0    0  501    0  0.00000000000E+00  0.00000000000E+00 -0.15635223526E+04  0.15635223526E+04  0.50400001928E-02 0. -1.
    10030    2    1    2    0    0  0.00000000000E+00  0.00000000000E+00 -0.85538967605E+03  0.22716550292E+04  0.21044536283E+04 0.  0.
        2    1    3    3  502    0 -0.79980396662E+02 -0.74693815906E+03  0.36764009430E+03  0.83634485486E+03  0.25500000920E-02 0.  1.
       -2    1    3    3    0  502  0.79980396662E+02  0.74693815906E+03 -0.12230297703E+04  0.14353101743E+04  0.25500000920E-02 0. -1.
</event>
<event>
 5   0  0.1252477E-04  0.2118996E+04  0.7818609E-02  0.8552921E-01
       -2   -1    0    0    0  501  0.00000000000E+00  0.00000000000E+00  0.62270212314E+03  0.62270212315E+03  0.25500000920E-02 0. -1.
        2   -1    0    0  501    0  0.00000000000E+00  0.00000000000E+00 -0.18026853091E+04  0.18026853091E+04  0.25500000920E-02 0.  1.
    10030    2    1    2    0    0  0.00000000000E+00  0.00000000000E+00 -0.11799831859E+04  0.24253874322E+04  0.21189959597E+04 0.  0.
        4    1    3    3  502    0  0.97348993264E+03  0.14314080480E+03 -0.10396904460E+04  0.14314781784E+04  0.12699999809E+01 0.  1.
       -4    1    3    3    0  502 -0.97348993264E+03 -0.14314080480E+03 -0.14029273992E+03  0.99390925377E+03  0.12699999809E+01 0. -1.
</event>
<event>
 5   0  0.1349252E-04  0.2094103E+04  0.7818609E-02  0.8563846E-01
       -2   -1    0    0    0  501  0.00000000000E+00  0.00000000000E+00  0.62320000423E+03  0.62320000423E+03  0.25500000920E-02 0. -1.
        2   -1    0    0  501    0  0.00000000000E+00  0.00000000000E+00 -0.17591732126E+04  0.17591732126E+04  0.25500000920E-02 0.  1.
    10030    2    1    2    0    0  0.00000000000E+00  0.00000000000E+00 -0.11359732084E+04  0.23823732169E+04  0.20941029140E+04 0.  0.
        2    1    3    3  502    0  0.80102636820E+03  0.11314724599E+03 -0.13242265797E+04  0.15517801314E+04  0.25500000920E-02 0.  1.
       -2    1    3    3    0  502 -0.80102636820E+03 -0.11314724599E+03  0.18825337129E+03  0.83059308547E+03  0.25500000920E-02 0. -1.
</event>
<event>
 5   0  0.6221148E-05  0.1590515E+04  0.7818609E-02  0.8826396E-01
       -1   -1    0    0    0  501  0.00000000000E+00  0.00000000000E+00  0.53090172748E+03  0.53090172751E+03  0.50400001928E-02 0.  1.
        1   -1    0    0  501    0  0.00000000000E+00  0.00000000000E+00 -0.11912456102E+04  0.11912456102E+04  0.50400001928E-02 0. -1.
    10030    2    1    2    0    0  0.00000000000E+00  0.00000000000E+00 -0.66034388275E+03  0.17221473377E+04  0.15905148253E+04 0.  0.
        3    1    3    3  502    0 -0.75254537476E+03  0.19911107183E+03 -0.15402905694E+03  0.79353306205E+03  0.10100000352E+00 0.  1.
       -3    1    3    3    0  502  0.75254537476E+03 -0.19911107183E+03 -0.50631482581E+03  0.92861427570E+03  0.10100000352E+00 0. -1.
</event>
<event>
 5   0  0.6263616E-05  0.2219750E+04  0.7818609E-02  0.8510252E-01
       -1   -1    0    0    0  501  0.00000000000E+00  0.00000000000E+00  0.12622144238E+04  0.12622144238E+04  0.50400001928E-02 0.  1.
        1   -1    0    0  501    0  0.00000000000E+00  0.00000000000E+00 -0.97592219110E+03  0.97592219111E+03  0.50400001928E-02 0. -1.
    10030    2    1    2    0    0  0.00000000000E+00  0.00000000000E+00  0.28629223273E+03  0.22381366149E+04  0.22197504960E+04 0.  0.
        4    1    3    3  502    0  0.41212886265E+03 -0.11796782244E+03 -0.88907903226E+03  0.98703077209E+03  0.12699999809E+01 0. -1.
       -4    1    3    3    0  502 -0.41212886265E+03  0.11796782244E+03  0.11753712650E+04  0.12511058429E+04  0.12699999809E+01 0.  1.
</event>
<event>
 5   0  0.5846187E-05  0.2010608E+04  0.7818609E-02  0.8601677E-01
        1   -1    0    0  501    0  0.00000000000E+00  0.00000000000E+00  0.52700976444E+03  0.52700976446E+03  0.50400001928E-02 0.  1.
       -1   -1    0    0    0  501  0.00000000000E+00  0.00000000000E+00 -0.19176799189E+04  0.19176799189E+04  0.50400001928E-02 0. -1.
    10030    2    1    2    0    0  0.00000000000E+00  0.00000000000E+00 -0.13906701545E+04  0.24446896834E+04  0.20106079104E+04 0.  0.
        5    1    3    3  502    0 -0.40682796853E+02 -0.75112851909E+03  0.11555420862E+03  0.76106767588E+03  0.46999998093E+01 0.  1.
       -5    1    3    3    0  502  0.40682796853E+02  0.75112851909E+03 -0.15062243631E+04  0.16836220075E+04  0.46999998093E+01 0. -1.
</event>
<event>
 5   0  0.6263616E-05  0.2067778E+04  0.7818609E-02  0.8575572E-01
        1   -1    0    0  501    0  0.00000000000E+00  0.00000000000E+00  0.15097720276E+04  0.15097720276E+04  0.50400001928E-02 0. -1.
       -1   -1    0    0    0  501  0.00000000000E+00  0.00000000000E+00 -0.70800521953E+03  0.70800521955E+03  0.50400001928E-02 0.  1.
    10030    2    1    2    0    0  0.00000000000E+00  0.00000000000E+00  0.80176680807E+03  0.22177772472E+04  0.20677780112E+04 0.  0.
        4    1    3    3  502    0 -0.58098564075E+03  0.40217549785E+03 -0.40860848727E+03  0.81624258318E+03  0.12699999809E+01 0.  1.
       -4    1    3    3    0  502  0.58098564075E+03 -0.40217549785E+03  0.12103752953E+04  0.14015346640E+04  0.12699999809E+01 0. -1.
</event>
<event>
 5   0  0.6052292E-05  0.2124662E+04  0.7818609E-02  0.8550457E-01
       -1   -1    0    0    0  501  0.00000000000E+00  0.00000000000E+00  0.79462513091E+03  0.79462513093E+03  0.50400001928E-02 0.  1.
        1   -1    0    0  501    0  0.00000000000E+00  0.00000000000E+00 -0.14202264769E+04  0.14202264770E+04  0.50400001928E-02 0. -1.
    10030    2    1    2    0    0  0.00000000000E+00  0.00000000000E+00 -0.62560134604E+03  0.22148516079E+04  0.21246624675E+04 0.  0.
        1    1    3    3  502    0  0.61440012687E+03  0.62916965848E+03  0.30848971721E+03  0.93193770215E+03  0.50400001928E-02 0.  1.
       -1    1    3    3    0  502 -0.61440012687E+03 -0.62916965848E+03 -0.93409106325E+03  0.12829139057E+04  0.50400001928E-02 0. -1.
</event>
<event>
 5   0  0.1325673E-04  0.2146094E+04  0.7818609E-02  0.8541206E-01
        2   -1    0    0  501    0  0.00000000000E+00  0.00000000000E+00  0.18060795425E+04  0.18060795425E+04  0.25500000920E-02 0. -1.
       -2   -1    0    0    0  501  0.00000000000E+00  0.00000000000E+00 -0.63752981508E+03  0.63752981509E+03  0.25500000920E-02 0.  1.
    10030    2    1    2    0    0  0.00000000000E+00  0.00000000000E+00  0.11685497274E+04  0.24436093576E+04  0.21460937135E+04 0.  0.
        5    1    3    3  502    0  0.41978026771E+02 -0.17430103271E+03 -0.62034343073E+03  0.64574845473E+03  0.46999998093E+01 0.  1.
       -5    1    3    3    0  502 -0.41978026771E+02  0.17430103271E+03  0.17888931581E+04  0.17978609028E+04  0.46999998093E+01 0. -1.
</event>
<event>
 5   0  0.6263616E-05  0.2105781E+04  0.7818609E-02  0.8558701E-01
       -1   -1    0    0    0  501  0.00000000000E+00  0.00000000000E+00  0.92771058752E+03  0.92771058753E+03  0.50400001928E-02 0. -1.
        1   -1    0    0  501    0  0.00000000000E+00  0.00000000000E+00 -0.11949611579E+04  0.11949611579E+04  0.50400001928E-02 0.  1.
    10030    2    1    2    0    0  0.00000000000E+00  0.00000000000E+00 -0.26725057035E+03  0.21226717454E+04  0.21057807273E+04 0.  0.
        4    1    3    3  502    0 -0.54232020871E+03  0.33044488307E+03  0.71291543274E+03  0.95475392466E+03  0.12699999809E+01 0. -1.
       -4    1    3    3    0  502  0.54232020871E+03 -0.33044488307E+03 -0.98016600309E+03  0.11679178207E+04  0.12699999809E+01 0.  1.
</event>
<event>
 5   0  0.1325673E-04  0.2090922E+04  0.7818609E-02  0.8565253E-01
        2   -1    0    0  501    0  0.00000000000E+00  0.00000000000E+00  0.11231228022E+04  0.11231228022E+04  0.25500000920E-02 0. -1.
       -2   -1    0    0    0  501  0.00000000000E+00  0.00000000000E+00 -0.97316917017E+03  0.97316917017E+03  0.25500000920E-02 0.  1.
    10030    2    1    2    0    0  0.00000000000E+00  0.00000000000E+00  0.14995363203E+03  0.20962919724E+04  0.20909217923E+04 0.  0.
        5    1    3    3  502    0 -0.86354776098E+03  0.58274757972E+03 -0.12751741337E+02  0.10418705169E+04  0.46999998093E+01 0. -1.
       -5    1    3    3    0  502  0.86354776098E+03 -0.58274757972E+03  0.16270537337E+03  0.10544214554E+04  0.46999998093E+01 0.  1.
</event>
<event>
 5   0  0.1281470E-04  0.2120536E+04  0.7818609E-02  0.8552251E-01
        2   -1    0    0  501    0  0.00000000000E+00  0.00000000000E+00  0.18843717816E+04  0.18843717816E+04  0.25500000920E-02 0.  1.
       -2   -1    0    0    0  501  0.00000000000E+00  0.00000000000E+00 -0.59657434331E+03  0.59657434332E+03  0.25500000920E-02 0. -1.
    10030    2    1    2    0    0  0.00000000000E+00  0.00000000000E+00  0.12877974383E+04  0.24809461250E+04  0.21205356476E+04 0.  0.
        3    1    3    3  502    0 -0.15076225507E+03  0.16172499969E+03  0.18571011445E+04  0.18702162721E+04  0.10100000352E+00 0.  1.
       -3    1    3    3    0  502  0.15076225507E+03 -0.16172499969E+03 -0.56930370622E+03  0.61072985288E+03  0.10100000352E+00 0. -1.
</event>
<event>
 5   0  0.1281470E-04  0.2105637E+04  0.7818609E-02  0.8558764E-01
       -2   -1    0    0    0  501  0.00000000000E+00  0.00000000000E+00  0.83177849745E+03  0.83177849745E+03  0.25500000920E-02 0. -1.
        2   -1    0    0  501    0  0.00000000000E+00  0.00000000000E+00 -0.13325984496E+04  0.13325984496E+04  0.25500000920E-02 0.  1.
    10030    2    1    2    0    0  0.00000000000E+00  0.00000000000E+00 -0.50081995220E+03  0.21643769471E+04  0.21056369451E+04 0.  0.
        3    1    3    3  502    0 -0.37564035976E+03 -0.32717366966E+03 -0.12037963180E+04  0.13027946405E+04  0.10100000352E+00 0.  1.
       -3    1    3    3    0  502  0.37564035976E+03  0.32717366966E+03  0.70297636576E+03  0.86158230659E+03  0.10100000352E+00 0. -1.
</event>
<event>
 5   0  0.5846187E-05  0.2017994E+04  0.7818609E-02  0.8598254E-01
        1   -1    0    0  501    0  0.00000000000E+00  0.00000000000E+00  0.15853472635E+04  0.15853472635E+04  0.50400001928E-02 0.  1.
       -1   -1    0    0    0  501  0.00000000000E+00  0.00000000000E+00 -0.64217810369E+03  0.64217810371E+03  0.50400001928E-02 0. -1.
    10030    2    1    2    0    0  0.00000000000E+00  0.00000000000E+00  0.94316915980E+03  0.22275253672E+04  0.20179943502E+04 0.  0.
        5    1    3    3  502    0 -0.74025724048E+03  0.60973636049E+03  0.12551277942E+03  0.96723045816E+03  0.46999998093E+01 0.  1.
       -5    1    3    3    0  502  0.74025724048E+03 -0.60973636049E+03  0.81765638038E+03  0.12602949090E+04  0.46999998093E+01 0. -1.
</event>
<event>
 5   0  0.1325673E-04  0.2088414E+04  0.7818609E-02  0.8566364E-01
       -2   -1    0    0    0  501  0.00000000000E+00  0.00000000000E+00  0.82067441465E+03  0.82067441465E+03  0.25500000920E-02 0.  1.
        2   -1    0    0  501    0  0.00000000000E+00  0.00000000000E+00 -0.13286242455E+04  0.13286242455E+04  0.25500000920E-02 0. -1.
    10030    2    1    2    0    0  0.00000000000E+00  0.00000000000E+00 -0.50794983083E+03  0.21492986601E+04  0.20884136802E+04 0.  0.
        5    1    3    3  502    0  0.29732013019E+02 -0.26598759421E+03 -0.12927129731E+04  0.13201372329E+04  0.46999998093E+01 0. -1.
       -5    1    3    3    0  502 -0.29732013019E+02  0.26598759421E+03  0.78476314229E+03  0.82916142721E+03  0.46999998093E+01 0.  1.
</event>
<event>
 5   0  0.1281470E-04  0.1883741E+04  0.7818609E-02  0.8662992E-01
       -2   -1    0    0    0  501  0.00000000000E+00  0.00000000000E+00  0.57863933732E+03  0.57863933733E+03  0.25500000920E-02 0.  1.
        2   -1    0    0  501    0  0.00000000000E+00  0.00000000000E+00 -0.15331134280E+04  0.15331134280E+04  0.25500000920E-02 0. -1.
    10030    2    1    2    0    0  0.00000000000E+00  0.00000000000E+00 -0.95447409063E+03  0.21117527653E+04  0.18837406807E+04 0.  0.
        3    1    3    3  502    0 -0.81367551552E+03  0.46450851763E+03 -0.58525177390E+03  0.11046970881E+04  0.10100000352E+00 0. -1.
       -3    1    3    3    0  502  0.81367551552E+03 -0.46450851763E+03 -0.36922231673E+03  0.10070556771E+04  0.10100000352E+00 0.  1.
</event>
<event>
 5   0  0.6221148E-05  0.2101845E+04  0.7818609E-02  0.8560431E-01
       -1   -1    0    0    0  501  0.00000000000E+00  0.00000000000E+00  0.11604920634E+04  0.11604920634E+04  0.50400001928E-02 0. -1.
        1   -1    0    0  501    0  0.00000000000E+00  0.00000000000E+00 -0.95169780711E+03  0.95169780713E+03  0.50400001928E-02 0.  1.
    10030    2    1    2    0    0  0.00000000000E+00  0.00000000000E+00  0.20879425631E+03  0.21121898706E+04  0.21018446679E+04 0.  0.
        3    1    3    3  502    0 -0.78276973542E+02  0.55416790620E+03  0.99827416337E+03  0.11444564947E+04  0.10100000352E+00 0. -1.
       -3    1    3    3    0  502  0.78276973542E+02 -0.55416790620E+03 -0.78947990706E+03  0.96773337584E+03  0.10100000352E+00 0.  1.
</event>
<event>
 5   0  0.6221148E-05  0.2129276E+04  0.7818609E-02  0.8548456E-01
       -1   -1    0    0    0  501  0.00000000000E+00  0.00000000000E+00  0.13220723694E+04  0.13220723694E+04  0.50400001928E-02 0. -1.
        1   -1    0    0  501    0  0.00000000000E+00  0.00000000000E+00 -0.85733112264E+03  0.85733112265E+03  0.50400001928E-02 0.  1.
    10030    2    1    2    0    0  0.00000000000E+00  0.00000000000E+00  0.46474124678E+03  0.21794034921E+04  0.21292757348E+04 0.  0.
        3    1    3    3  502    0  0.34951601360E+03 -0.57326511734E+03 -0.61331274103E+03  0.90936618973E+03  0.10100000352E+00 0.  1.
       -3    1    3    3    0  502 -0.34951601360E+03  0.57326511734E+03  0.10780539878E+04  0.12700373023E+04  0.10100000352E+00 0. -1.
</event>
<event>
 5   0  0.6263616E-05  0.2096557E+04  0.7818609E-02  0.8562761E-01
       -1   -1    0    0    0  501  0.00000000000E+00  0.00000000000E+00  0.90767681739E+03  0.90767681740E+03  0.50400001928E-02 0. -1.
        1   -1    0    0  501    0  0.00000000000E+00  0.00000000000E+00 -0.12106603443E+04  0.12106603443E+04  0.50400001928E-02 0.  1.
    10030    2    1    2    0    0  0.00000000000E+00  0.00000000000E+00 -0.30298352695E+03  0.21183371617E+04  0.20965574910E+04 0.  0.
        4    1    3    3  502    0 -0.42459474661E+03 -0.60972550099E+03 -0.89866064520E+03  0.11660353569E+04  0.12699999809E+01 0.  1.
       -4    1    3    3    0  502  0.42459474661E+03  0.60972550099E+03  0.59567711825E+03  0.95230180485E+03  0.12699999809E+01 0. -1.
</event>
<event>
 5   0  0.1235817E-04  0.2106909E+04  0.7818609E-02  0.8558206E-01
        2   -1    0    0  501    0  0.00000000000E+00  0.00000000000E+00  0.12616829312E+04  0.12616829312E+04  0.25500000920E-02 0. -1.
       -2   -1    0    0    0  501  0.00000000000E+00  0.00000000000E+00 -0.87959240254E+03  0.87959240254E+03  0.25500000920E-02 0.  1.
    10030    2    1    2    0    0  0.00000000000E+00  0.00000000000E+00  0.38209052863E+03  0.21412753337E+04  0.21069093200E+04 0.  0.
        1    1    3    3  502    0  0.67711388766E+03  0.70561482333E+03  0.58908545687E+03  0.11416642113E+04  0.50400001928E-02 0. -1.
       -1    1    3    3    0  502 -0.67711388766E+03 -0.70561482333E+03 -0.20699492824E+03  0.99961112245E+03  0.50400001928E-02 0.  1.
</event>
<event>
 5   0  0.1325673E-04  0.2056561E+04  0.7818609E-02  0.8580624E-01
       -2   -1    0    0    0  501  0.00000000000E+00  0.00000000000E+00  0.10284640753E+04  0.10284640753E+04  0.25500000920E-02 0. -1.
        2   -1    0    0  501    0  0.00000000000E+00  0.00000000000E+00 -0.10280969154E+04  0.10280969154E+04  0.25500000920E-02 0.  1.
    10030    2    1    2    0    0  0.00000000000E+00  0.00000000000E+00  0.36715988952E+00  0.20565609907E+04  0.20565609580E+04 0.  0.
        5    1    3    3  502    0 -0.43576661107E+03  0.33789057706E+03  0.86809837765E+03  0.10284354451E+04  0.46999998093E+01 0. -1.
       -5    1    3    3    0  502  0.43576661107E+03 -0.33789057706E+03 -0.86773121776E+03  0.10281255457E+04  0.46999998093E+01 0.  1.
</event>
<event>
 5   0  0.1349252E-04  0.2132022E+04  0.7818609E-02  0.8547267E-01
       -2   -1    0    0    0  501  0.00000000000E+00  0.00000000000E+00  0.11442331798E+04  0.11442331798E+04  0.25500000920E-02 0.  1.
        2   -1    0    0  501    0  0.00000000000E+00  0.00000000000E+00 -0.99313671396E+03  0.99313671396E+03  0.25500000920E-02 0. -1.
    10030    2    1    2    0    0  0.00000000000E+00  0.00000000000E+00  0.15109646583E+03  0.21373698938E+04  0.21320224954E+04 0.  0.
        2    1    3    3  502    0  0.45809925932E+03  0.59869062397E+03  0.83115916066E+03  0.11221011296E+04  0.25500000920E-02 0.  1.
       -2    1    3    3    0  502 -0.45809925932E+03 -0.59869062397E+03 -0.68006269484E+03  0.10152687642E+04  0.25500000920E-02 0. -1.
</event>
<event>
 5   0  0.1281470E-04  0.2112455E+04  0.7818609E-02  0.8555777E-01
       -2   -1    0    0    0  501  0.00000000000E+00  0.00000000000E+00  0.77766550463E+03  0.77766550463E+03  0.25500000920E-02 0.  1.
        2   -1    0    0  501    0  0.00000000000E+00  0.00000000000E+00 -0.14345705653E+04  0.14345705653E+04  0.25500000920E-02 0. -1.
    10030    2    1    2    0    0  0.00000000000E+00  0.00000000000E+00 -0.65690506071E+03  0.22122360700E+04  0.21124545369E+04 0.  0.
        3    1    3    3  502    0  0.92552216812E+01 -0.88529781754E+03 -0.93166177253E+03  0.12852359913E+04  0.10100000352E+00 0. -1.
       -3    1    3    3    0  502 -0.92552216812E+01  0.88529781754E+03  0.27475671181E+03  0.92700007862E+03  0.10100000352E+00 0.  1.
</event>
<event>
 5   0  0.5933905E-05  0.2121303E+04  0.7818609E-02  0.8551917E-01
       -1   -1    0    0    0  501  0.00000000000E+00  0.00000000000E+00  0.83934578392E+03  0.83934578394E+03  0.50400001928E-02 0.  1.
        1   -1    0    0  501    0  0.00000000000E+00  0.00000000000E+00 -0.13403077603E+04  0.13403077603E+04  0.50400001928E-02 0. -1.
    10030    2    1    2    0    0  0.00000000000E+00  0.00000000000E+00 -0.50096197641E+03  0.21796535443E+04  0.21213030597E+04 0.  0.
        2    1    3    3  502    0  0.89742203816E+03  0.51720627819E+03 -0.15918874547E+02  0.10359160484E+04  0.25500000920E-02 0.  1.
       -2    1    3    3    0  502 -0.89742203816E+03 -0.51720627819E+03 -0.48504310186E+03  0.11437374959E+04  0.25500000920E-02 0. -1.
</event>
<event>
 5   0  0.6052292E-05  0.2088652E+04  0.7818609E-02  0.8566259E-01
        1   -1    0    0  501    0  0.00000000000E+00  0.00000000000E+00  0.17663457144E+04  0.17663457144E+04  0.50400001928E-02 0. -1.
       -1   -1    0    0    0  501  0.00000000000E+00  0.00000000000E+00 -0.61744256367E+03  0.61744256369E+03  0.50400001928E-02 0.  1.
    10030    2    1    2    0    0  0.00000000000E+00  0.00000000000E+00  0.11489031507E+04  0.23837882781E+04  0.20886522222E+04 0.  0.
        1    1    3    3  502    0 -0.10136295252E+03  0.50404131445E+03  0.16118998766E+04  0.16919081852E+04  0.50400001928E-02 0. -1.
       -1    1    3    3    0  502  0.10136295252E+03 -0.50404131445E+03 -0.46299672587E+03  0.69188009294E+03  0.50400001928E-02 0.  1.
</event>
<event>
 5   0  0.1281470E-04  0.2163708E+04  0.7818609E-02  0.8533687E-01
       -2   -1    0    0    0  501  0.00000000000E+00  0.00000000000E+00  0.19018604092E+04  0.19018604092E+04  0.25500000920E-02 0.  1.
        2   -1    0    0  501    0  0.00000000000E+00  0.00000000000E+00 -0.61540149333E+03  0.61540149334E+03  0.25500000920E-02 0. -1.
    10030    2    1    2    0    0  0.00000000000E+00  0.00000000000E+00  0.12864589159E+04  0.25172619026E+04  0.21637076845E+04 0.  0.
        3    1    3    3  502    0  0.47886962493E+03  0.65872352082E+03 -0.18530143250E+03  0.83520621744E+03  0.10100000352E+00 0. -1.
       -3    1    3    3    0  502 -0.47886962493E+03 -0.65872352082E+03  0.14717603484E+04  0.16820556851E+04  0.10100000352E+00 0.  1.
</event>
<event>
 5   0  0.1325673E-04  0.2031550E+04  0.7818609E-02  0.8592010E-01
        2   -1    0    0  501    0  0.00000000000E+00  0.00000000000E+00  0.12879395844E+04  0.12879395844E+04  0.25500000920E-02 0.  1.
       -2   -1    0    0    0  501  0.00000000000E+00  0.00000000000E+00 -0.80112360559E+03  0.80112360559E+03  0.25500000920E-02 0. -1.
    10030    2    1    2    0    0  0.00000000000E+00  0.00000000000E+00  0.48681597881E+03  0.20890631900E+04  0.20315499537E+04 0.  0.
        5    1    3    3  502    0 -0.49514384733E+03 -0.81288048622E+03  0.60818218313E+03  0.11295352019E+04  0.46999998093E+01 0.  1.
       -5    1    3    3    0  502  0.49514384733E+03  0.81288048622E+03 -0.12136620432E+03  0.95952798811E+03  0.46999998093E+01 0. -1.
</event>
<event>
 5   0  0.6221148E-05  0.2122894E+04  0.7818609E-02  0.8551225E-01
        1   -1    0    0  501    0  0.00000000000E+00  0.00000000000E+00  0.19248587508E+04  0.19248587508E+04  0.50400001928E-02 0. -1.
       -1   -1    0    0    0  501  0.00000000000E+00  0.00000000000E+00 -0.58532617799E+03  0.58532617801E+03  0.50400001928E-02 0.  1.
    10030    2    1    2    0    0  0.00000000000E+00  0.00000000000E+00  0.13395325728E+04  0.25101849288E+04  0.21228944541E+04 0.  0.
        3    1    3    3  502    0  0.44955370799E+03 -0.91395923568E+03  0.10230160477E+04  0.14436003134E+04  0.10100000352E+00 0.  1.
       -3    1    3    3    0  502 -0.44955370799E+03  0.91395923568E+03  0.31651652506E+03  0.10665846153E+04  0.10100000352E+00 0. -1.
</event>
<event>
 5   0  0.5933905E-05  0.2086165E+04  0.7818609E-02  0.8567362E-01
        1   -1    0    0  501    0  0.00000000000E+00  0.00000000000E+00  0.15666064900E+04  0.15666064900E+04  0.50400001928E-02 0. -1.
       -1   -1    0    0    0  501  0.00000000000E+00  0.00000000000E+00 -0.69450839650E+03  0.69450839652E+03  0.50400001928E-02 0.  1.
    10030    2    1    2    0    0  0.00000000000E+00  0.00000000000E+00  0.87209809347E+03  0.22611148865E+04  0.20861652488E+04 0.  0.
        2    1    3    3  502    0 -0.92554984458E+03  0.42063767973E+03  0.68894629556E+03  0.12280983554E+04  0.25500000920E-02 0.  1.
       -2    1    3    3    0  502  0.92554984458E+03 -0.42063767973E+03  0.18315179791E+03  0.10330165311E+04  0.25500000920E-02 0. -1.
</event>
<event>
 5   0  0.5933905E-05  0.2110037E+04  0.7818609E-02  0.8556835E-01
        1   -1    0    0  501    0  0.00000000000E+00  0.00000000000E+00  0.15358955291E+04  0.15358955291E+04  0.50400001928E-02 0. -1.
       -1   -1    0    0    0  501  0.00000000000E+00  0.00000000000E+00 -0.72470010667E+03  0.72470010668E+03  0.50400001928E-02 0.  1.
    10030    2    1    2    0    0  0.00000000000E+00  0.00000000000E+00  0.81119542240E+03  0.22605956358E+04  0.21100366383E+04 0.  0.
        2    1    3    3  502    0  0.87275123931E+03 -0.21174281305E+03 -0.18756269007E+03  0.91744727767E+03  0.25500000920E-02 0.  1.
       -2    1    3    3    0  502 -0.87275123931E+03  0.21174281305E+03  0.99875811247E+03  0.13431483581E+04  0.25500000920E-02 0. -1.
</event>
<event>
 5   0  0.1252477E-04  0.1979966E+04  0.7818609E-02  0.8616045E-01
       -2   -1    0    0    0  501  0.00000000000E+00  0.00000000000E+00  0.12572444160E+04  0.12572444160E+04  0.25500000920E-02 0.  1.
        2   -1    0    0  501    0  0.00000000000E+00  0.00000000000E+00 -0.77953543825E+03  0.77953543826E+03  0.25500000920E-02 0. -1.
    10030    2    1    2    0    0  0.00000000000E+00  0.00000000000E+00  0.47770897777E+03  0.20367798543E+04  0.19799662389E+04 0.  0.
        4    1    3    3  502    0 -0.14019503197E+03 -0.31654205012E+03 -0.71523456784E+03  0.79461664746E+03  0.12699999809E+01 0. -1.
       -4    1    3    3    0  502  0.14019503197E+03  0.31654205012E+03  0.11929435456E+04  0.12421632068E+04  0.12699999809E+01 0.  1.
</event>
<event>
 5   0  0.5846187E-05  0.1748345E+04  0.7818609E-02  0.8734262E-01
        1   -1    0    0  501    0  0.00000000000E+00  0.00000000000E+00  0.76599119899E+03  0.76599119901E+03  0.50400001928E-02 0. -1.
       -1   -1    0    0    0  501  0.00000000000E+00  0.00000000000E+00 -0.99763225223E+03  0.99763225224E+03  0.50400001928E-02 0.  1.
    10030    2    1    2    0    0  0.00000000000E+00  0.00000000000E+00 -0.23164105324E+03  0.17636234513E+04  0.17483449603E+04 0.  0.
        5    1    3    3  502    0 -0.13819022316E+03 -0.47315314578E+03  0.61241974587E+03  0.78616186136E+03  0.46999998093E+01 0. -1.
       -5    1    3    3    0  502  0.13819022316E+03  0.47315314578E+03 -0.84406079910E+03  0.97746158989E+03  0.46999998093E+01 0.  1.
</event>
<event>
 5   0  0.1325673E-04  0.2115816E+04  0.7818609E-02  0.8554308E-01
       -2   -1    0    0    0  501  0.00000000000E+00  0.00000000000E+00  0.82885673942E+03  0.82885673942E+03  0.25500000920E-02 0.  1.
        2   -1    0    0  501    0  0.00000000000E+00  0.00000000000E+00 -0.13502564906E+04  0.13502564906E+04  0.25500000920E-02 0. -1.
    10030    2    1    2    0    0  0.00000000000E+00  0.00000000000E+00 -0.52139975116E+03  0.21791132300E+04  0.21158158636E+04 0.  0.
        5    1    3    3  502    0 -0.98052729477E+03  0.27324333527E+03  0.36108001966E+02  0.10185389408E+04  0.46999998093E+01 0. -1.
       -5    1    3    3    0  502  0.98052729477E+03 -0.27324333527E+03 -0.55750775313E+03  0.11605742892E+04  0.46999998093E+01 0.  1.
</event>
<event>
 5   0  0.5933905E-05  0.2105833E+04  0.7818609E-02  0.8558678E-01
       -1   -1    0    0    0  501  0.00000000000E+00  0.00000000000E+00  0.10600586748E+04  0.10600586748E+04  0.50400001928E-02 0. -1.
        1   -1    0    0  501    0  0.00000000000E+00  0.00000000000E+00 -0.10458224943E+04  0.10458224943E+04  0.50400001928E-02 0.  1.
    10030    2    1    2    0    0  0.00000000000E+00  0.00000000000E+00  0.14236180481E+02  0.21058811691E+04  0.21058330488E+04 0.  0.
        2    1    3    3  502    0 -0.53102534950E+03 -0.91376880129E+02 -0.89749948054E+03  0.10468251877E+04  0.25500000920E-02 0.  1.
       -2    1    3    3    0  502  0.53102534950E+03  0.91376880129E+02  0.91173566102E+03  0.10590559813E+04  0.25500000920E-02 0. -1.
</event>
<event>
 5   0  0.1235817E-04  0.1506323E+04  0.7818609E-02  0.8880259E-01
       -2   -1    0    0    0  501  0.00000000000E+00  0.00000000000E+00  0.62146990463E+03  0.62146990464E+03  0.25500000920E-02 0.  1.
        2   -1    0    0  501    0  0.00000000000E+00  0.00000000000E+00 -0.91275872606E+03  0.91275872607E+03  0.25500000920E-02 0. -1.
    10030    2    1    2    0    0  0.00000000000E+00  0.00000000000E+00 -0.29128882143E+03  0.15342286307E+04  0.15063227788E+04 0.  0.
        1    1    3    3  502    0 -0.24239508253E+03  0.53705020319E+03 -0.62345546441E+03  0.85783157607E+03  0.50400001928E-02 0. -1.
       -1    1    3    3    0  502  0.24239508253E+03 -0.53705020319E+03  0.33216664298E+03  0.67639705463E+03  0.50400001928E-02 0.  1.
</event>
<event>
 5   0  0.5846187E-05  0.2123199E+04  0.7818609E-02  0.8551092E-01
       -1   -1    0    0    0  501  0.00000000000E+00  0.00000000000E+00  0.12370519790E+04  0.12370519790E+04  0.50400001928E-02 0.  1.
        1   -1    0    0  501    0  0.00000000000E+00  0.00000000000E+00 -0.91103165268E+03  0.91103165269E+03  0.50400001928E-02 0. -1.
    10030    2    1    2    0    0  0.00000000000E+00  0.00000000000E+00  0.32602032632E+03  0.21480836317E+04  0.21231990099E+04 0.  0.
        5    1    3    3  502    0  0.52744646093E+03  0.34945973200E+03 -0.69941811059E+03  0.94314879889E+03  0.46999998093E+01 0. -1.
       -5    1    3    3    0  502 -0.52744646093E+03 -0.34945973200E+03  0.10254384369E+04  0.12049348328E+04  0.46999998093E+01 0.  1.
</event>
<event>
 5   0  0.5933905E-05  0.2117452E+04  0.7818609E-02  0.8553594E-01
        1   -1    0    0  501    0  0.00000000000E+00  0.00000000000E+00  0.97511240259E+03  0.97511240261E+03  0.50400001928E-02 0. -1.
       -1   -1    0    0    0  501  0.00000000000E+00  0.00000000000E+00 -0.11495089915E+04  0.11495089916E+04  0.50400001928E-02 0.  1.
    10030    2    1    2    0    0  0.00000000000E+00  0.00000000000E+00 -0.17439658895E+03  0.21246213942E+04  0.21174517464E+04 0.  0.
        2    1    3    3  502    0  0.19405241387E+03  0.15820872877E+03  0.94498020169E+03  0.97758576236E+03  0.25500000920E-02 0. -1.
       -2    1    3    3    0  502 -0.19405241387E+03 -0.15820872877E+03 -0.11193767906E+04  0.11470356318E+04  0.25500000920E-02 0.  1.
</event>
<event>
 5   0  0.1349252E-04  0.2098831E+04  0.7818609E-02  0.8561758E-01
       -2   -1    0    0    0  501  0.00000000000E+00  0.00000000000E+00  0.53857002625E+03  0.53857002626E+03  0.25500000920E-02 0. -1.
        2   -1    0    0  501    0  0.00000000000E+00  0.00000000000E+00 -0.20448097247E+04  0.20448097247E+04  0.25500000920E-02 0.  1.
    10030    2    1    2    0    0  0.00000000000E+00  0.00000000000E+00 -0.15062396984E+04  0.25833797509E+04  0.20988313197E+04 0.  0.
        2    1    3    3  502    0  0.47473383641E+03  0.37147770373E+03  0.30421132659E+03  0.67521287831E+03  0.25500000920E-02 0. -1.
       -2    1    3    3    0  502 -0.47473383641E+03 -0.37147770373E+03 -0.18104510250E+04  0.19081668726E+04  0.25500000920E-02 0.  1.
</event>
<event>
 5   0  0.1349252E-04  0.2087665E+04  0.7818609E-02  0.8566697E-01
        2   -1    0    0  501    0  0.00000000000E+00  0.00000000000E+00  0.23189995836E+04  0.23189995836E+04  0.25500000920E-02 0.  1.
       -2   -1    0    0    0  501  0.00000000000E+00  0.00000000000E+00 -0.46985188084E+03  0.46985188085E+03  0.25500000920E-02 0. -1.
    10030    2    1    2    0    0  0.00000000000E+00  0.00000000000E+00  0.18491477027E+04  0.27888514644E+04  0.20876650268E+04 0.  0.
        2    1    3    3  502    0 -0.43206350773E+03  0.45741732977E+03  0.20371843711E+04  0.21321420333E+04  0.25500000920E-02 0.  1.
       -2    1    3    3    0  502  0.43206350773E+03 -0.45741732977E+03 -0.18803666836E+03  0.65670943113E+03  0.25500000920E-02 0. -1.
</event>
<event>
 5   0  0.1252477E-04  0.1893392E+04  0.7818609E-02  0.8658152E-01
        2   -1    0    0  501    0  0.00000000000E+00  0.00000000000E+00  0.32841616758E+03  0.32841616759E+03  0.25500000920E-02 0.  1.
       -2   -1    0    0    0  501  0.00000000000E+00  0.00000000000E+00 -0.27289568666E+04  0.27289568666E+04  0.25500000920E-02 0. -1.
    10030    2    1    2    0    0  0.00000000000E+00  0.00000000000E+00 -0.24005406990E+04  0.30573730342E+04  0.18933922527E+04 0.  0.
        4    1    3    3  502    0 -0.82438743500E+02 -0.91350516492E+03 -0.15787725480E+04  0.18258729978E+04  0.12699999809E+01 0. -1.
       -4    1    3    3    0  502  0.82438743500E+02  0.91350516492E+03 -0.82176815099E+03  0.12315000364E+04  0.12699999809E+01 0.  1.
</event>
<event>
 5   0  0.1349252E-04  0.2074476E+04  0.7818609E-02  0.8572571E-01
       -2   -1    0    0    0  501  0.00000000000E+00  0.00000000000E+00  0.84741238871E+03  0.84741238871E+03  0.25500000920E-02 0. -1.
        2   -1    0    0  501    0  0.00000000000E+00  0.00000000000E+00 -0.12695859708E+04  0.12695859708E+04  0.25500000920E-02 0.  1.
    10030    2    1    2    0    0  0.00000000000E+00  0.00000000000E+00 -0.42217358209E+03  0.21169983595E+04  0.20744762039E+04 0.  0.
        2    1    3    3  502    0 -0.94441836255E+03  0.33175235348E+03  0.66288208556E+02  0.10031848255E+04  0.25500000920E-02 0. -1.
       -2    1    3    3    0  502  0.94441836255E+03 -0.33175235348E+03 -0.48846179064E+03  0.11138135340E+04  0.25500000920E-02 0.  1.
</event>
<event>
 5   0  0.1349252E-04  0.2117717E+04  0.7818609E-02  0.8553479E-01
        2   -1    0    0  501    0  0.00000000000E+00  0.00000000000E+00  0.14445002105E+04  0.14445002105E+04  0.25500000920E-02 0.  1.
       -2   -1    0    0    0  501  0.00000000000E+00  0.00000000000E+00 -0.77617228039E+03  0.77617228039E+03  0.25500000920E-02 0. -1.
    10030    2    1    2    0    0  0.00000000000E+00  0.00000000000E+00  0.66832793009E+03  0.22206724909E+04  0.21177167161E+04 0.  0.
        2    1    3    3  502    0  0.75760975036E+03 -0.44639030566E+03 -0.28438123123E+03  0.92418046047E+03  0.25500000920E-02 0. -1.
       -2    1    3    3    0  502 -0.75760975036E+03  0.44639030566E+03  0.95270916132E+03  0.12964920304E+04  0.25500000920E-02 0.  1.
</event>
<event>
 5   0  0.1281470E-04  0.2085425E+04  0.7818609E-02  0.8567691E-01
       -2   -1    0    0    0  501  0.00000000000E+00  0.00000000000E+00  0.37197480159E+03  0.37197480160E+03  0.25500000920E-02 0.  1.
        2   -1    0    0  501    0  0.00000000000E+00  0.00000000000E+00 -0.29229110169E+04  0.29229110169E+04  0.25500000920E-02 0. -1.
    10030    2    1    2    0    0  0.00000000000E+00  0.00000000000E+00 -0.25509362153E+04  0.32948858185E+04  0.20854248925E+04 0.  0.
        3    1    3    3  502    0  0.96386923252E+03  0.34773017019E+03 -0.97037206603E+03  0.14112342560E+04  0.10100000352E+00 0.  1.
       -3    1    3    3    0  502 -0.96386923252E+03 -0.34773017019E+03 -0.15805641493E+04  0.18836515625E+04  0.10100000352E+00 0. -1.
</event>
<event>
 5   0  0.6263616E-05  0.2118820E+04  0.7818609E-02  0.8552998E-01
       -1   -1    0    0    0  501  0.00000000000E+00  0.00000000000E+00  0.21016225727E+04  0.21016225727E+04  0.50400001928E-02 0. -1.
        1   -1    0    0  501    0  0.00000000000E+00  0.00000000000E+00 -0.53403933955E+03  0.53403933958E+03  0.50400001928E-02 0.  1.
    10030    2    1    2    0    0  0.00000000000E+00  0.00000000000E+00  0.15675832331E+04  0.26356619123E+04  0.21188196061E+04 0.  0.
        4    1    3    3  502    0 -0.11299546674E+02 -0.77067352444E+03 -0.12033382220E+03  0.78009435499E+03  0.12699999809E+01 0. -1.
       -4    1    3    3    0  502  0.11299546674E+02  0.77067352444E+03  0.16879170553E+04  0.18555675573E+04  0.12699999809E+01 0.  1.
</event>
<event>
 5   0  0.6052292E-05  0.2416451E+04  0.7818609E-02  0.8433370E-01
       -1   -1    0    0    0  501  0.00000000000E+00  0.00000000000E+00  0.13419548980E+04  0.13419548980E+04  0.50400001928E-02 0. -1.
        1   -1    0    0  501    0  0.00000000000E+00  0.00000000000E+00 -0.10878228953E+04  0.10878228954E+04  0.50400001928E-02 0.  1.
    10030    2    1    2    0    0  0.00000000000E+00  0.00000000000E+00  0.25413200261E+03  0.24297777933E+04  0.24164513341E+04 0.  0.
        1    1    3    3  502    0  0.63594893962E+03 -0.28563215583E+02  0.11596482072E+04  0.13228873254E+04  0.50400001928E-02 0. -1.
       -1    1    3    3    0  502 -0.63594893962E+03  0.28563215583E+02 -0.90551620464E+03  0.11068904679E+04  0.50400001928E-02 0.  1.
</event>
<event>
 5   0  0.6221148E-05  0.1946769E+04  0.7818609E-02  0.8631920E-01
        1   -1    0    0  501    0  0.00000000000E+00  0.00000000000E+00  0.81639313231E+03  0.81639313232E+03  0.50400001928E-02 0. -1.
       -1   -1    0    0    0  501  0.00000000000E+00  0.00000000000E+00 -0.11605653199E+04  0.11605653199E+04  0.50400001928E-02 0.  1.
    10030    2    1    2    0    0  0.00000000000E+00  0.00000000000E+00 -0.34417218758E+03  0.19769584522E+04  0.19467691766E+04 0.  0.
        3    1    3    3  502    0 -0.45195045015E+03  0.46570971422E+03 -0.90882447953E+03  0.11167393125E+04  0.10100000352E+00 0.  1.
       -3    1    3    3    0  502  0.45195045015E+03 -0.46570971422E+03  0.56465229195E+03  0.86021913971E+03  0.10100000352E+00 0. -1.
</event>
<event>
 5   0  0.5933905E-05  0.2092051E+04  0.7818609E-02  0.8564753E-01
        1   -1    0    0  501    0  0.00000000000E+00  0.00000000000E+00  0.10258389114E+04  0.10258389114E+04  0.50400001928E-02 0. -1.
       -1   -1    0    0    0  501  0.00000000000E+00  0.00000000000E+00 -0.10666094275E+04  0.10666094276E+04  0.50400001928E-02 0.  1.
    10030    2    1    2    0    0  0.00000000000E+00  0.00000000000E+00 -0.40770516189E+02  0.20924483389E+04  0.20920511026E+04 0.  0.
        2    1    3    3  502    0  0.77979403379E+03 -0.69518810319E+03 -0.73350199962E+02  0.10472561701E+04  0.25500000920E-02 0.  1.
       -2    1    3    3    0  502 -0.77979403379E+03  0.69518810319E+03  0.32579683773E+02  0.10451921688E+04  0.25500000920E-02 0. -1.
</event>
<event>
 5   0  0.6052292E-05  0.2107366E+04  0.7818609E-02  0.8558005E-01
        1   -1    0    0  501    0  0.00000000000E+00  0.00000000000E+00  0.24646513937E+04  0.24646513937E+04  0.50400001928E-02 0. -1.
       -1   -1    0    0    0  501  0.00000000000E+00  0.00000000000E+00 -0.45046861783E+03  0.45046861785E+03  0.50400001928E-02 0.  1.
    10030    2    1    2    0    0  0.00000000000E+00  0.00000000000E+00  0.20141827759E+04  0.29151200116E+04  0.21073662300E+04 0.  0.
        1    1    3    3  502    0 -0.76644495805E+03 -0.64951944061E+03  0.14465689775E+04  0.17612141222E+04  0.50400001928E-02 0. -1.
       -1    1    3    3    0  502  0.76644495805E+03  0.64951944061E+03  0.56761379838E+03  0.11539058894E+04  0.50400001928E-02 0.  1.
</event>
<event>
 5   0  0.1252477E-04  0.1995218E+04  0.7818609E-02  0.8608860E-01
        2   -1    0    0  501    0  0.00000000000E+00  0.00000000000E+00  0.11166814925E+04  0.11166814925E+04  0.25500000920E-02 0. -1.
       -2   -1    0    0    0  501  0.00000000000E+00  0.00000000000E+00 -0.89123311215E+03  0.89123311215E+03  0.25500000920E-02 0.  1.
    10030    2    1    2    0    0  0.00000000000E+00  0.00000000000E+00  0.22544838037E+03  0.20079146047E+04  0.19952178045E+04 0.  0.
        4    1    3    3  502    0 -0.76717416903E+03 -0.18584263957E+03 -0.50118089078E+03  0.93502812284E+03  0.12699999809E+01 0.  1.
       -4    1    3    3    0  502  0.76717416903E+03  0.18584263957E+03  0.72662927115E+03  0.10728864818E+04  0.12699999809E+01 0. -1.
</event>
<event>
 5   0  0.1252477E-04  0.1937760E+04  0.7818609E-02  0.8636286E-01
        2   -1    0    0  501    0  0.00000000000E+00  0.00000000000E+00  0.12567072272E+04  0.12567072272E+04  0.25500000920E-02 0. -1.
       -2   -1    0    0    0  501  0.00000000000E+00  0.00000000000E+00 -0.74697501990E+03  0.74697501990E+03  0.25500000920E-02 0.  1.
    10030    2    1    2    0    0  0.00000000000E+00  0.00000000000E+00  0.50973220726E+03  0.20036822471E+04  0.19377604661E+04 0.  0.
        4    1    3    3  502    0 -0.23819652917E+03 -0.83858987086E+03 -0.18231357450E+03  0.89062360757E+03  0.12699999809E+01 0.  1.
       -4    1    3    3    0  502  0.23819652917E+03  0.83858987086E+03  0.69204578176E+03  0.11130586395E+04  0.12699999809E+01 0. -1.
</event>
<event>
 5   0  0.1349252E-04  0.2030166E+04  0.7818609E-02  0.8592645E-01
       -2   -1    0    0    0  501  0.00000000000E+00  0.00000000000E+00  0.59341201584E+03  0.59341201585E+03  0.25500000920E-02 0.  1.
        2   -1    0    0  501    0  0.00000000000E+00  0.00000000000E+00 -0.17363887085E+04  0.17363887085E+04  0.25500000920E-02 0. -1.
    10030    2    1    2    0    0  0.00000000000E+00  0.00000000000E+00 -0.11429766927E+04  0.23298007244E+04  0.20301664206E+04 0.  0.
        2    1    3    3  502    0 -0.65057454690E+03 -0.69816322627E+03 -0.96855283140E+03  0.13596961862E+04  0.25500000920E-02 0. -1.
       -2    1    3    3    0  502  0.65057454690E+03  0.69816322627E+03 -0.17442386129E+03  0.97010453817E+03  0.25500000920E-02 0.  1.
</event>
<event>
 5   0  0.5846187E-05  0.2074623E+04  0.7818609E-02  0.8572505E-01
       -1   -1    0    0    0  501  0.00000000000E+00  0.00000000000E+00  0.72505838843E+03  0.72505838845E+03  0.50400001928E-02 0.  1.
        1   -1    0    0  501    0  0.00000000000E+00  0.00000000000E+00 -0.14840398531E+04  0.14840398531E+04  0.50400001928E-02 0. -1.
    10030    2    1    2    0    0  0.00000000000E+00  0.00000000000E+00 -0.75898146464E+03  0.22090982415E+04  0.20746233820E+04 0.  0.
        5    1    3    3  502    0  0.90618766442E+03 -0.48486764539E+03 -0.22995763175E+03  0.10531739263E+04  0.46999998093E+01 0.  1.
       -5    1    3    3    0  502 -0.90618766442E+03  0.48486764539E+03 -0.52902383289E+03  0.11559243152E+04  0.46999998093E+01 0. -1.
</event>
<event>
 5   0  0.6263616E-05  0.2181077E+04  0.7818609E-02  0.8526346E-01
        1   -1    0    0  501    0  0.00000000000E+00  0.00000000000E+00  0.66202320678E+03  0.66202320680E+03  0.50400001928E-02 0.  1.
       -1   -1    0    0    0  501  0.00000000000E+00  0.00000000000E+00 -0.17964240882E+04  0.17964240882E+04  0.50400001928E-02 0. -1.
    10030    2    1    2    0    0  0.00000000000E+00  0.00000000000E+00 -0.11344008814E+04  0.24584472950E+04  0.21810771977E+04 0.  0.
        4    1    3    3  502    0  0.56567306632E+03 -0.42488302211E+03  0.36825737706E+03  0.79757551936E+03  0.12699999809E+01 0.  1.
       -4    1    3    3    0  502 -0.56567306632E+03  0.42488302211E+03 -0.15026582585E+04  0.16608717756E+04  0.12699999809E+01 0. -1.
</event>
<event>
 5   0  0.6221148E-05  0.2218778E+04  0.7818609E-02  0.8510653E-01
        1   -1    0    0  501    0  0.00000000000E+00  0.00000000000E+00  0.90837411894E+03  0.90837411895E+03  0.50400001928E-02 0.  1.
       -1   -1    0    0    0  501  0.00000000000E+00  0.00000000000E+00 -0.13548866681E+04  0.13548866681E+04  0.50400001928E-02 0. -1.
    10030    2    1    2    0    0  0.00000000000E+00  0.00000000000E+00 -0.44651254912E+03  0.22632607870E+04  0.22187780271E+04 0.  0.
        3    1    3    3  502    0 -0.62800624244E+03 -0.31190581784E+02 -0.11555711042E+04  0.13155642440E+04  0.10100000352E+00 0. -1.
       -3    1    3    3    0  502  0.62800624244E+03  0.31190581784E+02  0.70905855509E+03  0.94769654304E+03  0.10100000352E+00 0.  1.
</event>
<event>
 5   0  0.6263616E-05  0.2084942E+04  0.7818609E-02  0.8567906E-01
       -1   -1    0    0    0  501  0.00000000000E+00  0.00000000000E+00  0.12137264036E+04  0.12137264036E+04  0.50400001928E-02 0.  1.
        1   -1    0    0  501    0  0.00000000000E+00  0.00000000000E+00 -0.89537979713E+03  0.89537979714E+03  0.50400001928E-02 0. -1.
    10030    2    1    2    0    0  0.00000000000E+00  0.00000000000E+00  0.31834660649E+03  0.21091062008E+04  0.20849423024E+04 0.  0.
        4    1    3    3  502    0 -0.21390980570E+02 -0.37316081166E+03  0.11436106755E+04  0.12031431982E+04  0.12699999809E+01 0.  1.
       -4    1    3    3    0  502  0.21390980570E+02  0.37316081166E+03 -0.82526406903E+03  0.90596300253E+03  0.12699999809E+01 0. -1.
</event>
<event>
 5   0  0.6263616E-05  0.2119613E+04  0.7818609E-02  0.8552653E-01
        1   -1    0    0  501    0  0.00000000000E+00  0.00000000000E+00  0.94963801566E+03  0.94963801568E+03  0.50400001928E-02 0. -1.
       -1   -1    0    0    0  501  0.00000000000E+00  0.00000000000E+00 -0.11827553039E+04  0.11827553039E+04  0.50400001928E-02 0.  1.
    10030    2    1    2    0    0  0.00000000000E+00  0.00000000000E+00 -0.23311728819E+03  0.21323933195E+04  0.21196126059E+04 0.  0.
        4    1    3    3  502    0 -0.82740143392E+03 -0.56517012134E+03 -0.46386101727E+03  0.11041644149E+04  0.12699999809E+01 0.  1.
       -4    1    3    3    0  502  0.82740143392E+03  0.56517012134E+03  0.23074372908E+03  0.10282289046E+04  0.12699999809E+01 0. -1.
</event>
<event>
 5   0  0.1235817E-04  0.2136247E+04  0.7818609E-02  0.8545442E-01
        2   -1    0    0  501    0  0.00000000000E+00  0.00000000000E+00  0.26088917207E+04  0.26088917207E+04  0.25500000920E-02 0. -1.
       -2   -1    0    0    0  501  0.00000000000E+00  0.00000000000E+00 -0.43730732502E+03  0.43730732503E+03  0.25500000920E-02 0.  1.
    10030    2    1    2    0    0  0.00000000000E+00  0.00000000000E+00  0.21715843956E+04  0.30461990457E+04  0.21362466708E+04 0.  0.
        1    1    3    3  502    0 -0.72496620927E+03  0.48326750743E+03  0.20473450261E+03  0.89500821499E+03  0.50400001928E-02 0.  1.
       -1    1    3    3    0  502  0.72496620927E+03 -0.48326750743E+03  0.19668498930E+04  0.21511908307E+04  0.50400001928E-02 0. -1.
</event>
<event>
 5   0  0.1349252E-04  0.2201537E+04  0.7818609E-02  0.8517789E-01
        2   -1    0    0  501    0  0.00000000000E+00  0.00000000000E+00  0.13975922758E+04  0.13975922758E+04  0.25500000920E-02 0.  1.
       -2   -1    0    0    0  501  0.00000000000E+00  0.00000000000E+00 -0.86698479123E+03  0.86698479123E+03  0.25500000920E-02 0. -1.
    10030    2    1    2    0    0  0.00000000000E+00  0.00000000000E+00  0.53060748459E+03  0.22645770670E+04  0.22015369608E+04 0.  0.
        2    1    3    3  502    0  0.67652929950E+03  0.12952366327E+03 -0.61789929626E+03  0.92534740112E+03  0.25500000920E-02 0. -1.
       -2    1    3    3    0  502 -0.67652929950E+03 -0.12952366327E+03  0.11485067809E+04  0.13392296659E+04  0.25500000920E-02 0.  1.
</event>
<event>
 5   0  0.1281470E-04  0.2072944E+04  0.7818609E-02  0.8573256E-01
       -2   -1    0    0    0  501  0.00000000000E+00  0.00000000000E+00  0.63557383083E+03  0.63557383083E+03  0.25500000920E-02 0. -1.
        2   -1    0    0  501    0  0.00000000000E+00  0.00000000000E+00 -0.16902437725E+04  0.16902437725E+04  0.25500000920E-02 0.  1.
    10030    2    1    2    0    0  0.00000000000E+00  0.00000000000E+00 -0.10546699417E+04  0.23258176034E+04  0.20729444851E+04 0.  0.
        3    1    3    3  502    0  0.66195935930E+03 -0.18289741583E+03 -0.13983275433E+04  0.15578708504E+04  0.10100000352E+00 0.  1.
       -3    1    3    3    0  502 -0.66195935930E+03  0.18289741583E+03  0.34365760156E+03  0.76794675297E+03  0.10100000352E+00 0. -1.
</event>
<event>
 5   0  0.1325673E-04  0.2040240E+04  0.7818609E-02  0.8588035E-01
       -2   -1    0    0    0  501  0.00000000000E+00  0.00000000000E+00  0.50092179597E+03  0.50092179598E+03  0.25500000920E-02 0. -1.
        2   -1    0    0  501    0  0.00000000000E+00  0.00000000000E+00 -0.20774606151E+04  0.20774606151E+04  0.25500000920E-02 0.  1.
    10030    2    1    2    0    0  0.00000000000E+00  0.00000000000E+00 -0.15765388191E+04  0.25783824111E+04  0.20402404784E+04 0.  0.
        5    1    3    3  502    0 -0.73432778866E+03  0.50739219143E+03 -0.16409399735E+03  0.90754232248E+03  0.46999998093E+01 0. -1.
       -5    1    3    3    0  502  0.73432778866E+03 -0.50739219143E+03 -0.14124448218E+04  0.16708400886E+04  0.46999998093E+01 0.  1.
</event>
<event>
 5   0  0.5846187E-05  0.2093824E+04  0.7818609E-02  0.8563969E-01
       -1   -1    0    0    0  501  0.00000000000E+00  0.00000000000E+00  0.67586169597E+03  0.67586169598E+03  0.50400001928E-02 0. -1.
        1   -1    0    0  501    0  0.00000000000E+00  0.00000000000E+00 -0.16216709045E+04  0.16216709045E+04  0.50400001928E-02 0.  1.
    10030    2    1    2    0    0  0.00000000000E+00  0.00000000000E+00 -0.94580920852E+03  0.22975326005E+04  0.20938244891E+04 0.  0.
        5    1    3    3  502    0 -0.45113309909E+03 -0.47736913405E+03  0.42163966039E+03  0.78051550686E+03  0.46999998093E+01 0. -1.
       -5    1    3    3    0  502  0.45113309909E+03  0.47736913405E+03 -0.13674488689E+04  0.15170170936E+04  0.46999998093E+01 0.  1.
</event>
<event>
 5   0  0.5933905E-05  0.2074801E+04  0.7818609E-02  0.8572426E-01
       -1   -1    0    0    0  501  0.00000000000E+00  0.00000000000E+00  0.11439634294E+04  0.11439634294E+04  0.50400001928E-02 0.  1.
        1   -1    0    0  501    0  0.00000000000E+00  0.00000000000E+00 -0.94076434913E+03  0.94076434914E+03  0.50400001928E-02 0. -1.
    10030    2    1    2    0    0  0.00000000000E+00  0.00000000000E+00  0.20319908027E+03  0.20847277785E+04  0.20748012060E+04 0.  0.
        2    1    3    3  502    0 -0.84051221117E+02  0.42202167004E+03 -0.84686212772E+03  0.94991702855E+03  0.25500000920E-02 0. -1.
       -2    1    3    3    0  502  0.84051221117E+02 -0.42202167004E+03  0.10500612080E+04  0.11348107500E+04  0.25500000920E-02 0.  1.
</event>
<event>
 5   0  0.5846187E-05  0.2111645E+04  0.7818609E-02  0.8556131E-01
        1   -1    0    0  501    0  0.00000000000E+00  0.00000000000E+00  0.13320611017E+04  0.13320611017E+04  0.50400001928E-02 0.  1.
       -1   -1    0    0    0  501  0.00000000000E+00  0.00000000000E+00 -0.83686900072E+03  0.83686900074E+03  0.50400001928E-02 0. -1.
    10030    2    1    2    0    0  0.00000000000E+00  0.00000000000E+00  0.49519210099E+03  0.21689301025E+04  0.21116445185E+04 0.  0.
        5    1    3    3  502    0 -0.51081031371E+03 -0.63920726267E+03  0.93294971406E+03  0.12409393056E+04  0.46999998093E+01 0.  1.
       -5    1    3    3    0  502  0.51081031371E+03  0.63920726267E+03 -0.43775761307E+03  0.92799079685E+03  0.46999998093E+01 0. -1.
</event>
<event>
 5   0  0.1349252E-04  0.2080611E+04  0.7818609E-02  0.8569833E-01
        2   -1    0    0  501    0  0.00000000000E+00  0.00000000000E+00  0.13881735702E+04  0.13881735702E+04  0.25500000920E-02 0. -1.
       -2   -1    0    0    0  501  0.00000000000E+00  0.00000000000E+00 -0.77961104858E+03  0.77961104859E+03  0.25500000920E-02 0.  1.
    10030    2    1    2    0    0  0.00000000000E+00  0.00000000000E+00  0.60856252165E+03  0.21677846188E+04  0.20806109225E+04 0.  0.
        2    1    3    3  502    0 -0.59307065006E+03  0.72547323745E+03  0.77508923295E+03  0.12160623065E+04  0.25500000920E-02 0. -1.
       -2    1    3    3    0  502  0.59307065006E+03 -0.72547323745E+03 -0.16652671130E+03  0.95172231234E+03  0.25500000920E-02 0.  1.
</event>
<event>
 5   0  0.1235817E-04  0.2027219E+04  0.7818609E-02  0.8594000E-01
        2   -1    0    0  501    0  0.00000000000E+00  0.00000000000E+00  0.84838121047E+03  0.84838121047E+03  0.25500000920E-02 0. -1.
       -2   -1    0    0    0  501  0.00000000000E+00  0.00000000000E+00 -0.12110170610E+04  0.12110170611E+04  0.25500000920E-02 0.  1.
    10030    2    1    2    0    0  0.00000000000E+00  0.00000000000E+00 -0.36263585058E+03  0.20593982715E+04  0.20272189030E+04 0.  0.
        1    1    3    3  502    0  0.43854571417E+03 -0.87635545111E+03 -0.44443292752E+03  0.10760305977E+04  0.50400001928E-02 0.  1.
       -1    1    3    3    0  502 -0.43854571417E+03  0.87635545111E+03  0.81797076946E+02  0.98336767382E+03  0.50400001928E-02 0. -1.
</event>
<event>
 5   0  0.1235817E-04  0.1976609E+04  0.7818609E-02  0.8617635E-01
       -2   -1    0    0    0  501  0.00000000000E+00  0.00000000000E+00  0.64954610933E+03  0.64954610934E+03  0.25500000920E-02 0.  1.
        2   -1    0    0  501    0  0.00000000000E+00  0.00000000000E+00 -0.15037358904E+04  0.15037358904E+04  0.25500000920E-02 0. -1.
    10030    2    1    2    0    0  0.00000000000E+00  0.00000000000E+00 -0.85418978107E+03  0.21532819997E+04  0.19766090125E+04 0.  0.
        1    1    3    3  502    0 -0.98463946389E+03 -0.21347833643E+02 -0.51676361268E+03  0.11122118662E+04  0.50400001928E-02 0. -1.
       -1    1    3    3    0  502  0.98463946389E+03  0.21347833643E+02 -0.33742616839E+03  0.10410701336E+04  0.50400001928E-02 0.  1.
</event>
<event>
 5   0  0.1281470E-04  0.2127074E+04  0.7818609E-02  0.8549410E-01
       -2   -1    0    0    0  501  0.00000000000E+00  0.00000000000E+00  0.10599153889E+04  0.10599153889E+04  0.25500000920E-02 0.  1.
        2   -1    0    0  501    0  0.00000000000E+00  0.00000000000E+00 -0.10671712568E+04  0.10671712568E+04  0.25500000920E-02 0. -1.
    10030    2    1    2    0    0  0.00000000000E+00  0.00000000000E+00 -0.72558679226E+01  0.21270866456E+04  0.21270742701E+04 0.  0.
        3    1    3    3  502    0 -0.52356218197E+03  0.50241418999E+03  0.77392006179E+03  0.10608909694E+04  0.10100000352E+00 0.  1.
       -3    1    3    3    0  502  0.52356218197E+03 -0.50241418999E+03 -0.78117592972E+03  0.10661956763E+04  0.10100000352E+00 0. -1.
</event>
<event>
 5   0  0.6263616E-05  0.2075987E+04  0.7818609E-02  0.8571896E-01
        1   -1    0    0  501    0  0.00000000000E+00  0.00000000000E+00  0.19269692143E+04  0.19269692143E+04  0.50400001928E-02 0.  1.
       -1   -1    0    0    0  501  0.00000000000E+00  0.00000000000E+00 -0.55913194432E+03  0.55913194434E+03  0.50400001928E-02 0. -1.
    10030    2    1    2    0    0  0.00000000000E+00  0.00000000000E+00  0.13678372700E+04  0.24861011586E+04  0.20759865543E+04 0.  0.
        4    1    3    3  502    0 -0.31857256184E+03  0.68307252289E+03  0.15385979969E+04  0.17132898055E+04  0.12699999809E+01 0.  1.
       -4    1    3    3    0  502  0.31857256184E+03 -0.68307252289E+03 -0.17076072698E+03  0.77281135309E+03  0.12699999809E+01 0. -1.
</event>
<event>
 5   0  0.1235817E-04  0.2110935E+04  0.7818609E-02  0.8556441E-01
       -2   -1    0    0    0  501  0.00000000000E+00  0.00000000000E+00  0.11208287764E+04  0.11208287764E+04  0.25500000920E-02 0. -1.
        2   -1    0    0  501    0  0.00000000000E+00  0.00000000000E+00 -0.99391822999E+03  0.99391822999E+03  0.25500000920E-02 0.  1.
    10030    2    1    2    0    0  0.00000000000E+00  0.00000000000E+00  0.12691054637E+03  0.21147470063E+04  0.21109354832E+04 0.  0.
        1    1    3    3  502    0  0.44927171313E+03  0.23633665996E+03  0.99049744320E+03  0.11130073109E+04  0.50400001928E-02 0. -1.
       -1    1    3    3    0  502 -0.44927171313E+03 -0.23633665996E+03 -0.86358689684E+03  0.10017396955E+04  0.50400001928E-02 0.  1.
</event>
<event>
 5   0  0.5933905E-05  0.2135825E+04  0.7818609E-02  0.8545624E-01
        1   -1    0    0  501    0  0.00000000000E+00  0.00000000000E+00  0.68386186296E+03  0.68386186298E+03  0.50400001928E-02 0. -1.
       -1   -1    0    0    0  501  0.00000000000E+00  0.00000000000E+00 -0.16676418685E+04  0.16676418685E+04  0.50400001928E-02 0.  1.
    10030    2    1    2    0    0  0.00000000000E+00  0.00000000000E+00 -0.98378000558E+03  0.23515037315E+04  0.21358245949E+04 0.  0.
        2    1    3    3  502    0  0.57351678274E+03  0.87959742692E+03 -0.27776805570E+03  0.10861713614E+04  0.25500000920E-02 0. -1.
       -2    1    3    3    0  502 -0.57351678274E+03 -0.87959742692E+03 -0.70601194988E+03  0.12653323701E+04  0.25500000920E-02 0.  1.
</event>
<event>
 5   0  0.1325673E-04  0.1949987E+04  0.7818609E-02  0.8630367E-01
        2   -1    0    0  501    0  0.00000000000E+00  0.00000000000E+00  0.24477360139E+04  0.24477360139E+04  0.25500000920E-02 0.  1.
       -2   -1    0    0    0  501  0.00000000000E+00  0.00000000000E+00 -0.38836397357E+03  0.38836397358E+03  0.25500000920E-02 0. -1.
    10030    2    1    2    0    0  0.00000000000E+00  0.00000000000E+00  0.20593720403E+04  0.28360999874E+04  0.19499871637E+04 0.  0.
        5    1    3    3  502    0 -0.18857499362E+03  0.34068475371E+01  0.24209343815E+04  0.24282745941E+04  0.46999998093E+01 0.  1.
       -5    1    3    3    0  502  0.18857499362E+03 -0.34068475371E+01 -0.36156234123E+03  0.40782539331E+03  0.46999998093E+01 0. -1.
</event>
<event>
 5   0  0.1281470E-04  0.2018677E+04  0.7818609E-02  0.8597938E-01
        2   -1    0    0  501    0  0.00000000000E+00  0.00000000000E+00  0.15605175603E+04  0.15605175603E+04  0.25500000920E-02 0.  1.
       -2   -1    0    0    0  501  0.00000000000E+00  0.00000000000E+00 -0.65283725605E+03  0.65283725606E+03  0.25500000920E-02 0. -1.
    10030    2    1    2    0    0  0.00000000000E+00  0.00000000000E+00  0.90768030423E+03  0.22133548163E+04  0.20186767964E+04 0.  0.
        3    1    3    3  502    0  0.36153251166E+03 -0.17289971670E+02 -0.57923487228E+03  0.68302104475E+03  0.10100000352E+00 0. -1.
       -3    1    3    3    0  502 -0.36153251166E+03  0.17289971670E+02  0.14869151765E+04  0.15303337716E+04  0.10100000352E+00 0.  1.
</event>
<event>
 5   0  0.5933905E-05  0.2131563E+04  0.7818609E-02  0.8547465E-01
       -1   -1    0    0    0  501  0.00000000000E+00  0.00000000000E+00  0.14082265397E+04  0.14082265397E+04  0.50400001928E-02 0. -1.
        1   -1    0    0  501    0  0.00000000000E+00  0.00000000000E+00 -0.80661074691E+03  0.80661074693E+03  0.50400001928E-02 0.  1.
    10030    2    1    2    0    0  0.00000000000E+00  0.00000000000E+00  0.60161579279E+03  0.22148372866E+04  0.21315634272E+04 0.  0.
        2    1    3    3  502    0 -0.10231646158E+04 -0.22755983509E+03  0.10028854885E+03  0.10529516145E+04  0.25500000920E-02 0.  1.
       -2    1    3    3    0  502  0.10231646158E+04  0.22755983509E+03  0.50132724394E+03  0.11618856721E+04  0.25500000920E-02 0. -1.
</event>
<event>
 5   0  0.5933905E-05  0.2076520E+04  0.7818609E-02  0.8571658E-01
        1   -1    0    0  501    0  0.00000000000E+00  0.00000000000E+00  0.11241991105E+04  0.11241991105E+04  0.50400001928E-02 0.  1.
       -1   -1    0    0    0  501  0.00000000000E+00  0.00000000000E+00 -0.95889058945E+03  0.95889058947E+03  0.50400001928E-02 0. -1.
    10030    2    1    2    0    0  0.00000000000E+00  0.00000000000E+00  0.16530852104E+03  0.20830897000E+04  0.20765201157E+04 0.  0.
        2    1    3    3  502    0 -0.64155406305E+03  0.77989037134E+03 -0.15927951344E+03  0.10223456219E+04  0.25500000920E-02 0. -1.
       -2    1    3    3    0  502  0.64155406305E+03 -0.77989037134E+03  0.32458803448E+03  0.10607440781E+04  0.25500000920E-02 0.  1.
</event>
<event>
 5   0  0.5846187E-05  0.2089343E+04  0.7818609E-02  0.8565953E-01
       -1   -1    0    0    0  501  0.00000000000E+00  0.00000000000E+00  0.13088374779E+04  0.13088374780E+04  0.50400001928E-02 0.  1.
        1   -1    0    0  501    0  0.00000000000E+00  0.00000000000E+00 -0.83382263884E+03  0.83382263885E+03  0.50400001928E-02 0. -1.
    10030    2    1    2    0    0  0.00000000000E+00  0.00000000000E+00  0.47501483911E+03  0.21426601168E+04  0.20893427863E+04 0.  0.
        5    1    3    3  502    0 -0.39527389631E+03  0.25702406410E+02  0.12288261089E+04  0.12910994395E+04  0.46999998093E+01 0.  1.
       -5    1    3    3    0  502  0.39527389631E+03 -0.25702406410E+02 -0.75381126974E+03  0.85156067734E+03  0.46999998093E+01 0. -1.
</event>
<event>
 5   0  0.1349252E-04  0.1985678E+04  0.7818609E-02  0.8613346E-01
        2   -1    0    0  501    0  0.00000000000E+00  0.00000000000E+00  0.16052735488E+04  0.16052735488E+04  0.25500000920E-02 0.  1.
       -2   -1    0    0    0  501  0.00000000000E+00  0.00000000000E+00 -0.61405665086E+03  0.61405665087E+03  0.25500000920E-02 0. -1.
    10030    2    1    2    0    0  0.00000000000E+00  0.00000000000E+00  0.99121689797E+03  0.22193301997E+04  0.19856776164E+04 0.  0.
        2    1    3    3  502    0 -0.47485200989E+03 -0.87099809789E+03  0.54040984680E+03  0.11296746967E+04  0.25500000920E-02 0. -1.
       -2    1    3    3    0  502  0.47485200989E+03  0.87099809789E+03  0.45080705117E+03  0.10896555030E+04  0.25500000920E-02 0.  1.
</event>
<event>
 5   0  0.1349252E-04  0.2063963E+04  0.7818609E-02  0.8577286E-01
        2   -1    0    0  501    0  0.00000000000E+00  0.00000000000E+00  0.84612871974E+03  0.84612871975E+03  0.25500000920E-02 0.  1.
       -2   -1    0    0    0  501  0.00000000000E+00  0.00000000000E+00 -0.12586566887E+04  0.12586566887E+04  0.25500000920E-02 0. -1.
    10030    2    1    2    0    0  0.00000000000E+00  0.00000000000E+00 -0.41252796898E+03  0.21047854085E+04  0.20639627638E+04 0.  0.
        2    1    3    3  502    0 -0.83177751463E+03 -0.59542584523E+03 -0.67185444626E+02  0.10251339693E+04  0.25500000920E-02 0.  1.
       -2    1    3    3    0  502  0.83177751463E+03  0.59542584523E+03 -0.34534252436E+03  0.10796514392E+04  0.25500000920E-02 0. -1.
</event>
<event>
 5   0  0.6221148E-05  0.2030608E+04  0.7818609E-02  0.8592443E-01
        1   -1    0    0  501    0  0.00000000000E+00  0.00000000000E+00  0.11084344307E+04  0.11084344307E+04  0.50400001928E-02 0. -1.
       -1   -1    0    0    0  501  0.00000000000E+00  0.00000000000E+00 -0.92999837102E+03  0.92999837104E+03  0.50400001928E-02 0.  1.
    10030    2    1    2    0    0  0.00000000000E+00  0.00000000000E+00  0.17843605970E+03  0.20384328018E+04  0.20306080025E+04 0.  0.
        3    1    3    3  502    0 -0.24794554052E+03 -0.95460210021E+03 -0.15275030535E+03  0.99803548373E+03  0.10100000352E+00 0.  1.
       -3    1    3    3    0  502  0.24794554052E+03  0.95460210021E+03  0.33118636505E+03  0.10403973180E+04  0.10100000352E+00 0. -1.
</event>
<event>
 5   0  0.1252477E-04  0.2068391E+04  0.7818609E-02  0.8575297E-01
        2   -1    0    0  501    0  0.00000000000E+00  0.00000000000E+00  0.78965247270E+03  0.78965247270E+03  0.25500000920E-02 0. -1.
       -2   -1    0    0    0  501  0.00000000000E+00  0.00000000000E+00 -0.13544699449E+04  0.13544699449E+04  0.25500000920E-02 0.  1.
    10030    2    1    2    0    0  0.00000000000E+00  0.00000000000E+00 -0.56481747220E+03  0.21441224176E+04  0.20683912021E+04 0.  0.
        4    1    3    3  502    0 -0.56943773366E+03 -0.62625867352E+03 -0.89838723247E+03  0.12343259258E+04  0.12699999809E+01 0.  1.
       -4    1    3    3    0  502  0.56943773366E+03  0.62625867352E+03  0.33356976028E+03  0.90979649183E+03  0.12699999809E+01 0. -1.
</event>
<event>
 5   0  0.6052292E-05  0.2087231E+04  0.7818609E-02  0.8566889E-01
        1   -1    0    0  501    0  0.00000000000E+00  0.00000000000E+00  0.15433647544E+04  0.15433647544E+04  0.50400001928E-02 0.  1.
       -1   -1    0    0    0  501  0.00000000000E+00  0.00000000000E+00 -0.70568763274E+03  0.70568763275E+03  0.50400001928E-02 0. -1.
    10030    2    1    2    0    0  0.00000000000E+00  0.00000000000E+00  0.83767712161E+03  0.22490523871E+04  0.20872311036E+04 0.  0.
        1    1    3    3  502    0  0.52377920791E+03 -0.21155758628E+03 -0.52670918226E+03  0.77234955405E+03  0.50400001928E-02 0. -1.
       -1    1    3    3    0  502 -0.52377920791E+03  0.21155758628E+03  0.13643863039E+04  0.14767028331E+04  0.50400001928E-02 0.  1.
</event>
<event>
 5   0  0.1349252E-04  0.2097450E+04  0.7818609E-02  0.8562367E-01
        2   -1    0    0  501    0  0.00000000000E+00  0.00000000000E+00  0.17446395918E+04  0.17446395918E+04  0.25500000920E-02 0.  1.
       -2   -1    0    0    0  501  0.00000000000E+00  0.00000000000E+00 -0.63040192107E+03  0.63040192107E+03  0.25500000920E-02 0. -1.
    10030    2    1    2    0    0  0.00000000000E+00  0.00000000000E+00  0.11142376707E+04  0.23750415129E+04  0.20974500235E+04 0.  0.
        2    1    3    3  502    0 -0.49800217067E+03 -0.88186307068E+03  0.86543247024E+03  0.13321644035E+04  0.25500000920E-02 0.  1.
       -2    1    3    3    0  502  0.49800217067E+03  0.88186307068E+03  0.24880520049E+03  0.10428771094E+04  0.25500000920E-02 0. -1.
</event>
<event>
 5   0  0.6221148E-05  0.2207821E+04  0.7818609E-02  0.8515180E-01
        1   -1    0    0  501    0  0.00000000000E+00  0.00000000000E+00  0.20370798679E+04  0.20370798679E+04  0.50400001928E-02 0. -1.
       -1   -1    0    0    0  501  0.00000000000E+00  0.00000000000E+00 -0.59821815772E+03  0.59821815775E+03  0.50400001928E-02 0.  1.
    10030    2    1    2    0    0  0.00000000000E+00  0.00000000000E+00  0.14388617102E+04  0.26352980257E+04  0.22078207950E+04 0.  0.
        3    1    3    3  502    0 -0.13423539851E+03 -0.36994430621E+03  0.19505035759E+04  0.19898095742E+04  0.10100000352E+00 0. -1.
       -3    1    3    3    0  502  0.13423539851E+03  0.36994430621E+03 -0.51164186574E+03  0.64548845140E+03  0.10100000352E+00 0.  1.
</event>
<event>
 5   0  0.1235817E-04  0.2169190E+04  0.7818609E-02  0.8531362E-01
       -2   -1    0    0    0  501  0.00000000000E+00  0.00000000000E+00  0.51578183719E+03  0.51578183720E+03  0.25500000920E-02 0.  1.
        2   -1    0    0  501    0  0.00000000000E+00  0.00000000000E+00 -0.22807060400E+04  0.22807060400E+04  0.25500000920E-02 0. -1.
    10030    2    1    2    0    0  0.00000000000E+00  0.00000000000E+00 -0.17649242028E+04  0.27964878772E+04  0.21691904033E+04 0.  0.
        1    1    3    3  502    0 -0.24225976925E+03  0.68681054955E+03 -0.19185917976E+04  0.20521678812E+04  0.50400001928E-02 0. -1.
       -1    1    3    3    0  502  0.24225976925E+03 -0.68681054955E+03  0.15366759478E+03  0.74431999603E+03  0.50400001928E-02 0.  1.
</event>
<event>
 5   0  0.1325673E-04  0.2132353E+04  0.7818609E-02  0.8547124E-01
       -2   -1    0    0    0  501  0.00000000000E+00  0.00000000000E+00  0.10766506390E+04  0.10766506390E+04  0.25500000920E-02 0. -1.
        2   -1    0    0  501    0  0.00000000000E+00  0.00000000000E+00 -0.10558041051E+04  0.10558041051E+04  0.25500000920E-02 0.  1.
    10030    2    1    2    0    0  0.00000000000E+00  0.00000000000E+00  0.20846533814E+02  0.21324547441E+04  0.21323528455E+04 0.  0.
        5    1    3    3  502    0  0.58086441697E+03  0.52561987401E+03  0.73366620036E+03  0.10732976784E+04  0.46999998093E+01 0. -1.
       -5    1    3    3    0  502 -0.58086441697E+03 -0.52561987401E+03 -0.71281966655E+03  0.10591570657E+04  0.46999998093E+01 0.  1.
</event>
<event>
 5   0  0.6052292E-05  0.2083119E+04  0.7818609E-02  0.8568716E-01
       -1   -1    0    0    0  501  0.00000000000E+00  0.00000000000E+00  0.78642293999E+03  0.78642294001E+03  0.50400001928E-02 0. -1.
        1   -1    0    0  501    0  0.00000000000E+00  0.00000000000E+00 -0.13794688063E+04  0.13794688063E+04  0.50400001928E-02 0.  1.
    10030    2    1    2    0    0  0.00000000000E+00  0.00000000000E+00 -0.59304586626E+03  0.21658917463E+04  0.20831187333E+04 0.  0.
        1    1    3    3  502    0  0.24610582075E+03  0.64048291131E+03  0.51823376947E+03  0.85985619410E+03  0.50400001928E-02 0. -1.
       -1    1    3    3    0  502 -0.24610582075E+03 -0.64048291131E+03 -0.11112796357E+04  0.13060355522E+04  0.50400001928E-02 0.  1.
</event>
<event>
 5   0  0.6263616E-05  0.2116908E+04  0.7818609E-02  0.8553832E-01
        1   -1    0    0  501    0  0.00000000000E+00  0.00000000000E+00  0.10229391184E+04  0.10229391184E+04  0.50400001928E-02 0.  1.
       -1   -1    0    0    0  501  0.00000000000E+00  0.00000000000E+00 -0.10952020560E+04  0.10952020560E+04  0.50400001928E-02 0. -1.
    10030    2    1    2    0    0  0.00000000000E+00  0.00000000000E+00 -0.72262937624E+02  0.21181411744E+04  0.21169081470E+04 0.  0.
        4    1    3    3  502    0  0.80980072052E+03  0.44070848193E+03  0.48409659523E+03  0.10413223802E+04  0.12699999809E+01 0.  1.
       -4    1    3    3    0  502 -0.80980072052E+03 -0.44070848193E+03 -0.55635953285E+03  0.10768187943E+04  0.12699999809E+01 0. -1.
</event>
<event>
 5   0  0.6263616E-05  0.2110193E+04  0.7818609E-02  0.8556767E-01
        1   -1    0    0  501    0  0.00000000000E+00  0.00000000000E+00  0.78184520768E+03  0.78184520770E+03  0.50400001928E-02 0.  1.
       -1   -1    0    0    0  501  0.00000000000E+00  0.00000000000E+00 -0.14238474317E+04  0.14238474317E+04  0.50400001928E-02 0. -1.
    10030    2    1    2    0    0  0.00000000000E+00  0.00000000000E+00 -0.64200222401E+03  0.22056926394E+04  0.21101926841E+04 0.  0.
        4    1    3    3  502    0 -0.52219762905E+03 -0.91553595877E+03 -0.27054409462E+03  0.10881599954E+04  0.12699999809E+01 0.  1.
       -4    1    3    3    0  502  0.52219762905E+03  0.91553595877E+03 -0.37145812939E+03  0.11175326440E+04  0.12699999809E+01 0. -1.
</event>
<event>
 5   0  0.1349252E-04  0.2092276E+04  0.7818609E-02  0.8564653E-01
       -2   -1    0    0    0  501  0.00000000000E+00  0.00000000000E+00  0.61439450303E+03  0.61439450303E+03  0.25500000920E-02 0.  1.
        2   -1    0    0  501    0  0.00000000000E+00  0.00000000000E+00 -0.17812741720E+04  0.17812741720E+04  0.25500000920E-02 0. -1.
    10030    2    1    2    0    0  0.00000000000E+00  0.00000000000E+00 -0.11668796690E+04  0.23956686750E+04  0.20922763294E+04 0.  0.
        2    1    3    3  502    0  0.10875170961E+03 -0.68689419179E+03 -0.14782708904E+04  0.16336876662E+04  0.25500000920E-02 0. -1.
       -2    1    3    3    0  502 -0.10875170961E+03  0.68689419179E+03  0.31139122147E+03  0.76198100886E+03  0.25500000920E-02 0.  1.
</event>
<event>
 5   0  0.1349252E-04  0.2092701E+04  0.7818609E-02  0.8564465E-01
       -2   -1    0    0    0  501  0.00000000000E+00  0.00000000000E+00  0.10361474719E+04  0.10361474719E+04  0.25500000920E-02 0.  1.
        2   -1    0    0  501    0  0.00000000000E+00  0.00000000000E+00 -0.10566544857E+04  0.10566544857E+04  0.25500000920E-02 0. -1.
    10030    2    1    2    0    0  0.00000000000E+00  0.00000000000E+00 -0.20507013726E+02  0.20928019576E+04  0.20927014828E+04 0.  0.
        2    1    3    3  502    0  0.31024743136E+03 -0.24618811260E+01 -0.10095964087E+04  0.10561933715E+04  0.25500000920E-02 0. -1.
       -2    1    3    3    0  502 -0.31024743136E+03  0.24618811260E+01  0.98908939499E+03  0.10366085861E+04  0.25500000920E-02 0.  1.
</event>
<event>
 5   0  0.1252477E-04  0.2103189E+04  0.7818609E-02  0.8559840E-01
       -2   -1    0    0    0  501  0.00000000000E+00  0.00000000000E+00  0.78360202710E+03  0.78360202710E+03  0.25500000920E-02 0.  1.
        2   -1    0    0  501    0  0.00000000000E+00  0.00000000000E+00 -0.14112405728E+04  0.14112405728E+04  0.25500000920E-02 0. -1.
    10030    2    1    2    0    0  0.00000000000E+00  0.00000000000E+00 -0.62763854570E+03  0.21948425999E+04  0.21031889821E+04 0.  0.
        4    1    3    3  502    0 -0.27650498235E+03 -0.13124336195E+03 -0.13637284061E+04  0.13976539643E+04  0.12699999809E+01 0. -1.
       -4    1    3    3    0  502  0.27650498235E+03  0.13124336195E+03  0.73608986040E+03  0.79718863564E+03  0.12699999809E+01 0.  1.
</event>
<event>
 5   0  0.1325673E-04  0.2124061E+04  0.7818609E-02  0.8550718E-01
        2   -1    0    0  501    0  0.00000000000E+00  0.00000000000E+00  0.12973010534E+04  0.12973010534E+04  0.25500000920E-02 0.  1.
       -2   -1    0    0    0  501  0.00000000000E+00  0.00000000000E+00 -0.86942746431E+03  0.86942746432E+03  0.25500000920E-02 0. -1.
    10030    2    1    2    0    0  0.00000000000E+00  0.00000000000E+00  0.42787358904E+03  0.21667285177E+04  0.21240613600E+04 0.  0.
        5    1    3    3  502    0 -0.68730985824E+03 -0.61682414857E+03 -0.32102127212E+03  0.97772369238E+03  0.46999998093E+01 0. -1.
       -5    1    3    3    0  502  0.68730985824E+03  0.61682414857E+03  0.74889486116E+03  0.11890048253E+04  0.46999998093E+01 0.  1.
</event>
<event>
 5   0  0.1349252E-04  0.2105301E+04  0.7818609E-02  0.8558912E-01
        2   -1    0    0  501    0  0.00000000000E+00  0.00000000000E+00  0.12963908639E+04  0.12963908639E+04  0.25500000920E-02 0. -1.
       -2   -1    0    0    0  501  0.00000000000E+00  0.00000000000E+00 -0.85473673810E+03  0.85473673810E+03  0.25500000920E-02 0.  1.
    10030    2    1    2    0    0  0.00000000000E+00  0.00000000000E+00  0.44165412578E+03  0.21511276020E+04  0.21053008320E+04 0.  0.
        2    1    3    3  502    0 -0.89491789855E+03 -0.55180241617E+02 -0.34267552773E+03  0.95986948150E+03  0.25500000920E-02 0.  1.
       -2    1    3    3    0  502  0.89491789855E+03  0.55180241617E+02  0.78432965351E+03  0.11912581205E+04  0.25500000920E-02 0. -1.
</event>
<event>
 5   0  0.1235817E-04  0.1859707E+04  0.7818609E-02  0.8675177E-01
        2   -1    0    0  501    0  0.00000000000E+00  0.00000000000E+00  0.78635777420E+03  0.78635777420E+03  0.25500000920E-02 0.  1.
       -2   -1    0    0    0  501  0.00000000000E+00  0.00000000000E+00 -0.10995341519E+04  0.10995341519E+04  0.25500000920E-02 0. -1.
    10030    2    1    2    0    0  0.00000000000E+00  0.00000000000E+00 -0.31317637767E+03  0.18858919261E+04  0.18597066740E+04 0.  0.
        1    1    3    3  502    0 -0.28111071138E+02  0.82383073856E+03 -0.59292552497E+03  0.10154053360E+04  0.50400001928E-02 0. -1.
       -1    1    3    3    0  502  0.28111071138E+02 -0.82383073856E+03  0.27974914730E+03  0.87048659011E+03  0.50400001928E-02 0.  1.
</event>
<event>
 5   0  0.1252477E-04  0.2112205E+04  0.7818609E-02  0.8555886E-01
       -2   -1    0    0    0  501  0.00000000000E+00  0.00000000000E+00  0.89994993181E+03  0.89994993181E+03  0.25500000920E-02 0. -1.
        2   -1    0    0  501    0  0.00000000000E+00  0.00000000000E+00 -0.12393500091E+04  0.12393500091E+04  0.25500000920E-02 0.  1.
    10030    2    1    2    0    0  0.00000000000E+00  0.00000000000E+00 -0.33940007727E+03  0.21392999409E+04  0.21122054409E+04 0.  0.
        4    1    3    3  502    0  0.30782662747E+03 -0.43875853660E+03 -0.10913648275E+04  0.12158721502E+04  0.12699999809E+01 0.  1.
       -4    1    3    3    0  502 -0.30782662747E+03  0.43875853660E+03  0.75196475027E+03  0.92342779066E+03  0.12699999809E+01 0. -1.
</event>
<event>
 5   0  0.1252477E-04  0.2085696E+04  0.7818609E-02  0.8567571E-01
       -2   -1    0    0    0  501  0.00000000000E+00  0.00000000000E+00  0.62149721300E+03  0.62149721301E+03  0.25500000920E-02 0.  1.
        2   -1    0    0  501    0  0.00000000000E+00  0.00000000000E+00 -0.17498587154E+04  0.17498587154E+04  0.25500000920E-02 0. -1.
    10030    2    1    2    0    0  0.00000000000E+00  0.00000000000E+00 -0.11283615024E+04  0.23713559284E+04  0.20856963487E+04 0.  0.
        4    1    3    3  502    0  0.94301189544E+01  0.63801866044E+03  0.37363928339E+03  0.73943536919E+03  0.12699999809E+01 0.  1.
       -4    1    3    3    0  502 -0.94301189544E+01 -0.63801866044E+03 -0.15020007858E+04  0.16319205592E+04  0.12699999809E+01 0. -1.
</event>
<event>
 5   0  0.1325673E-04  0.2104085E+04  0.7818609E-02  0.8559446E-01
       -2   -1    0    0    0  501  0.00000000000E+00  0.00000000000E+00  0.17418121100E+04  0.17418121100E+04  0.25500000920E-02 0.  1.
        2   -1    0    0  501    0  0.00000000000E+00  0.00000000000E+00 -0.63542619813E+03  0.63542619814E+03  0.25500000920E-02 0. -1.
    10030    2    1    2    0    0  0.00000000000E+00  0.00000000000E+00  0.11063859118E+04  0.23772383081E+04  0.21040846437E+04 0.  0.
        5    1    3    3  502    0 -0.73408896375E+03  0.68880982853E+03  0.89852901406E+03  0.13493413451E+04  0.46999998093E+01 0.  1.
       -5    1    3    3    0  502  0.73408896375E+03 -0.68880982853E+03  0.20785689779E+03  0.10278969630E+04  0.46999998093E+01 0. -1.
</event>
<event>
 5   0  0.6263616E-05  0.2130651E+04  0.7818609E-02  0.8547860E-01
       -1   -1    0    0    0  501  0.00000000000E+00  0.00000000000E+00  0.12577119919E+04  0.12577119919E+04  0.50400001928E-02 0.  1.
        1   -1    0    0  501    0  0.00000000000E+00  0.00000000000E+00 -0.90236775130E+03  0.90236775131E+03  0.50400001928E-02 0. -1.
    10030    2    1    2    0    0  0.00000000000E+00  0.00000000000E+00  0.35534424061E+03  0.21600797432E+04  0.21306513013E+04 0.  0.
        4    1    3    3  502    0 -0.49210737387E+03 -0.22941876363E+02  0.11352931111E+04  0.12375734557E+04  0.12699999809E+01 0.  1.
       -4    1    3    3    0  502  0.49210737387E+03  0.22941876363E+02 -0.77994887051E+03  0.92250628757E+03  0.12699999809E+01 0. -1.
</event>
<event>
 5   0  0.1325673E-04  0.2253815E+04  0.7818609E-02  0.8496357E-01
       -2   -1    0    0    0  501  0.00000000000E+00  0.00000000000E+00  0.59529455922E+03  0.59529455922E+03  0.25500000920E-02 0. -1.
        2   -1    0    0  501    0  0.00000000000E+00  0.00000000000E+00 -0.21332640922E+04  0.21332640922E+04  0.25500000920E-02 0.  1.
    10030    2    1    2    0    0  0.00000000000E+00  0.00000000000E+00 -0.15379695330E+04  0.27285586514E+04  0.22538149946E+04 0.  0.
        5    1    3    3  502    0  0.10449331238E+04  0.41746671523E+03 -0.69499964346E+03  0.13225771380E+04  0.46999998093E+01 0. -1.
       -5    1    3    3    0  502 -0.10449331238E+04 -0.41746671523E+03 -0.84296988951E+03  0.14059815134E+04  0.46999998093E+01 0.  1.
</event>
<event>
 5   0  0.1281470E-04  0.2079474E+04  0.7818609E-02  0.8570339E-01
       -2   -1    0    0    0  501  0.00000000000E+00  0.00000000000E+00  0.15906280464E+04  0.15906280464E+04  0.25500000920E-02 0.  1.
        2   -1    0    0  501    0  0.00000000000E+00  0.00000000000E+00 -0.67963919553E+03  0.67963919553E+03  0.25500000920E-02 0. -1.
    10030    2    1    2    0    0  0.00000000000E+00  0.00000000000E+00  0.91098885089E+03  0.22702672419E+04  0.20794741315E+04 0.  0.
        3    1    3    3  502    0 -0.35942223804E+03 -0.55357651576E+03 -0.42159786381E+03  0.78318329462E+03  0.10100000352E+00 0. -1.
       -3    1    3    3    0  502  0.35942223804E+03  0.55357651576E+03  0.13325867147E+04  0.14870839473E+04  0.10100000352E+00 0.  1.
</event>
<event>
 5   0  0.1325673E-04  0.2050016E+04  0.7818609E-02  0.8583587E-01
       -2   -1    0    0    0  501  0.00000000000E+00  0.00000000000E+00  0.56107617729E+03  0.56107617730E+03  0.25500000920E-02 0. -1.
        2   -1    0    0  501    0  0.00000000000E+00  0.00000000000E+00 -0.18725475310E+04  0.18725475310E+04  0.25500000920E-02 0.  1.
    10030    2    1    2    0    0  0.00000000000E+00  0.00000000000E+00 -0.13114713537E+04  0.24336237083E+04  0.20500164004E+04 0.  0.
        5    1    3    3  502    0 -0.80051181571E+03  0.63342485733E+03 -0.76565530678E+03  0.12760471605E+04  0.46999998093E+01 0.  1.
       -5    1    3    3    0  502  0.80051181571E+03 -0.63342485733E+03 -0.54581604693E+03  0.11575765478E+04  0.46999998093E+01 0. -1.
</event>
<event>
 5   0  0.6052292E-05  0.2130761E+04  0.7818609E-02  0.8547813E-01
        1   -1    0    0  501    0  0.00000000000E+00  0.00000000000E+00  0.15452234509E+04  0.15452234510E+04  0.50400001928E-02 0. -1.
       -1   -1    0    0    0  501  0.00000000000E+00  0.00000000000E+00 -0.73454468583E+03  0.73454468585E+03  0.50400001928E-02 0.  1.
    10030    2    1    2    0    0  0.00000000000E+00  0.00000000000E+00  0.81067876512E+03  0.22797681368E+04  0.21307610606E+04 0.  0.
        1    1    3    3  502    0 -0.91011550378E+03  0.10727347081E+03 -0.17599663602E+03  0.93316271018E+03  0.50400001928E-02 0.  1.
       -1    1    3    3    0  502  0.91011550378E+03 -0.10727347081E+03  0.98667540113E+03  0.13466054266E+04  0.50400001928E-02 0. -1.
</event>
<event>
 5   0  0.5846187E-05  0.2105001E+04  0.7818609E-02  0.8559043E-01
        1   -1    0    0  501    0  0.00000000000E+00  0.00000000000E+00  0.10919381669E+04  0.10919381669E+04  0.50400001928E-02 0.  1.
       -1   -1    0    0    0  501  0.00000000000E+00  0.00000000000E+00 -0.10144875158E+04  0.10144875158E+04  0.50400001928E-02 0. -1.
    10030    2    1    2    0    0  0.00000000000E+00  0.00000000000E+00  0.77450651086E+02  0.21064256827E+04  0.21050013191E+04 0.  0.
        5    1    3    3  502    0  0.45150383865E+03 -0.41748568970E+03  0.89346108767E+03  0.10846404117E+04  0.46999998093E+01 0.  1.
       -5    1    3    3    0  502 -0.45150383865E+03  0.41748568970E+03 -0.81601043659E+03  0.10217852710E+04  0.46999998093E+01 0. -1.
</event>
<event>
 5   0  0.5846187E-05  0.2207903E+04  0.7818609E-02  0.8515146E-01
        1   -1    0    0  501    0  0.00000000000E+00  0.00000000000E+00  0.67728360966E+03  0.67728360968E+03  0.50400001928E-02 0. -1.
       -1   -1    0    0    0  501  0.00000000000E+00  0.00000000000E+00 -0.17994067753E+04  0.17994067753E+04  0.50400001928E-02 0.  1.
    10030    2    1    2    0    0  0.00000000000E+00  0.00000000000E+00 -0.11221231656E+04  0.24766903850E+04  0.22079028204E+04 0.  0.
        5    1    3    3  502    0 -0.97363818455E+03  0.41196956325E+03 -0.20457376736E+03  0.10768299549E+04  0.46999998093E+01 0. -1.
       -5    1    3    3    0  502  0.97363818455E+03 -0.41196956325E+03 -0.91754939828E+03  0.13998604301E+04  0.46999998093E+01 0.  1.
</event>
<event>
 5   0  0.1235817E-04  0.2090490E+04  0.7818609E-02  0.8565444E-01
       -2   -1    0    0    0  501  0.00000000000E+00  0.00000000000E+00  0.12880032390E+04  0.12880032390E+04  0.25500000920E-02 0.  1.
        2   -1    0    0  501    0  0.00000000000E+00  0.00000000000E+00 -0.84824128606E+03  0.84824128606E+03  0.25500000920E-02 0. -1.
    10030    2    1    2    0    0  0.00000000000E+00  0.00000000000E+00  0.43976195291E+03  0.21362445250E+04  0.20904903959E+04 0.  0.
        1    1    3    3  502    0 -0.45050170828E+03 -0.17468449085E+03 -0.72726589994E+03  0.87314497636E+03  0.50400001928E-02 0. -1.
       -1    1    3    3    0  502  0.45050170828E+03  0.17468449085E+03  0.11670278528E+04  0.12630995487E+04  0.50400001928E-02 0.  1.
</event>
<event>
 5   0  0.1235817E-04  0.2072446E+04  0.7818609E-02  0.8573479E-01
        2   -1    0    0  501    0  0.00000000000E+00  0.00000000000E+00  0.10455604783E+04  0.10455604783E+04  0.25500000920E-02 0.  1.
       -2   -1    0    0    0  501  0.00000000000E+00  0.00000000000E+00 -0.10269686397E+04  0.10269686397E+04  0.25500000920E-02 0. -1.
    10030    2    1    2    0    0  0.00000000000E+00  0.00000000000E+00  0.18591838591E+02  0.20725291180E+04  0.20724457263E+04 0.  0.
        1    1    3    3  502    0  0.96569817766E+02  0.72472344784E+03 -0.72504147665E+03  0.10296771088E+04  0.50400001928E-02 0. -1.
       -1    1    3    3    0  502 -0.96569817766E+02 -0.72472344784E+03  0.74363331524E+03  0.10428520092E+04  0.50400001928E-02 0.  1.
</event>
<event>
 5   0  0.6263616E-05  0.2084903E+04  0.7818609E-02  0.8567923E-01
        1   -1    0    0  501    0  0.00000000000E+00  0.00000000000E+00  0.12845692790E+04  0.12845692790E+04  0.50400001928E-02 0.  1.
       -1   -1    0    0    0  501  0.00000000000E+00  0.00000000000E+00 -0.84596824289E+03  0.84596824290E+03  0.50400001928E-02 0. -1.
    10030    2    1    2    0    0  0.00000000000E+00  0.00000000000E+00  0.43860103612E+03  0.21305375219E+04  0.20849026988E+04 0.  0.
        4    1    3    3  502    0 -0.37637467345E+03  0.14377479500E+03  0.12017885839E+04  0.12675277117E+04  0.12699999809E+01 0.  1.
       -4    1    3    3    0  502  0.37637467345E+03 -0.14377479500E+03 -0.76318754783E+03  0.86300981023E+03  0.12699999809E+01 0. -1.
</event>
<event>
 5   0  0.1349252E-04  0.2085174E+04  0.7818609E-02  0.8567803E-01
        2   -1    0    0  501    0  0.00000000000E+00  0.00000000000E+00  0.12676838363E+04  0.12676838363E+04  0.25500000920E-02 0.  1.
       -2   -1    0    0    0  501  0.00000000000E+00  0.00000000000E+00 -0.85745957289E+03  0.85745957290E+03  0.25500000920E-02 0. -1.
    10030    2    1    2    0    0  0.00000000000E+00  0.00000000000E+00  0.41022426341E+03  0.21251434092E+04  0.20851739888E+04 0.  0.
        2    1    3    3  502    0  0.22989828871E+03  0.10153200324E+04  0.14692440409E+03  0.10513395131E+04  0.25500000920E-02 0.  1.
       -2    1    3    3    0  502 -0.22989828871E+03 -0.10153200324E+04  0.26329985932E+03  0.10738038961E+04  0.25500000920E-02 0. -1.
</event>
<event>
 5   0  0.4615125E-05  0.2095832E+04  0.7818609E-02  0.8563082E-01
       -3   -1    0    0    0  501  0.00000000000E+00  0.00000000000E+00  0.65408625473E+03  0.65408626253E+03  0.10100000352E+00 0. -1.
        3   -1    0    0  501    0  0.00000000000E+00  0.00000000000E+00 -0.16788733660E+04  0.16788733690E+04  0.10100000352E+00 0.  1.
    10030    2    1    2    0    0  0.00000000000E+00  0.00000000000E+00 -0.10247871113E+04  0.23329596315E+04  0.20958320589E+04 0.  0.
        4    1    3    3  502    0  0.34974090987E+03 -0.24697952975E+02  0.58685797421E+03  0.68361728161E+03  0.12699999809E+01 0. -1.
       -4    1    3    3    0  502 -0.34974090987E+03  0.24697952975E+02 -0.16116450855E+04  0.16493423499E+04  0.12699999809E+01 0.  1.
</event>
<event>
 5   0  0.1325673E-04  0.2073579E+04  0.7818609E-02  0.8572972E-01
       -2   -1    0    0    0  501  0.00000000000E+00  0.00000000000E+00  0.86392201298E+03  0.86392201298E+03  0.25500000920E-02 0.  1.
        2   -1    0    0  501    0  0.00000000000E+00  0.00000000000E+00 -0.12442470001E+04  0.12442470001E+04  0.25500000920E-02 0. -1.
    10030    2    1    2    0    0  0.00000000000E+00  0.00000000000E+00 -0.38032498710E+03  0.21081690131E+04  0.20735789090E+04 0.  0.
        5    1    3    3  502    0 -0.88476915018E+03 -0.54042230672E+03 -0.19639370049E+03  0.10552086497E+04  0.46999998093E+01 0.  1.
       -5    1    3    3    0  502  0.88476915018E+03  0.54042230672E+03 -0.18393128661E+03  0.10529603634E+04  0.46999998093E+01 0. -1.
</event>
<event>
 5   0  0.1325673E-04  0.2114757E+04  0.7818609E-02  0.8554770E-01
       -2   -1    0    0    0  501  0.00000000000E+00  0.00000000000E+00  0.56216174760E+03  0.56216174761E+03  0.25500000920E-02 0.  1.
        2   -1    0    0  501    0  0.00000000000E+00  0.00000000000E+00 -0.19888396901E+04  0.19888396901E+04  0.25500000920E-02 0. -1.
    10030    2    1    2    0    0  0.00000000000E+00  0.00000000000E+00 -0.14266779425E+04  0.25510014377E+04  0.21147572871E+04 0.  0.
        5    1    3    3  502    0  0.47327258749E+02 -0.93068825096E+03 -0.13160075751E+04  0.16125503148E+04  0.46999998093E+01 0. -1.
       -5    1    3    3    0  502 -0.47327258749E+02  0.93068825096E+03 -0.11067036735E+03  0.93845112292E+03  0.46999998093E+01 0.  1.
</event>
<event>
 5   0  0.6052292E-05  0.2130953E+04  0.7818609E-02  0.8547730E-01
       -1   -1    0    0    0  501  0.00000000000E+00  0.00000000000E+00  0.54676698132E+03  0.54676698134E+03  0.50400001928E-02 0.  1.
        1   -1    0    0  501    0  0.00000000000E+00  0.00000000000E+00 -0.20762776008E+04  0.20762776008E+04  0.50400001928E-02 0. -1.
    10030    2    1    2    0    0  0.00000000000E+00  0.00000000000E+00 -0.15295106195E+04  0.26230445822E+04  0.21309528725E+04 0.  0.
        1    1    3    3  502    0 -0.45468706085E+03  0.96113947886E+02  0.41543335426E+03  0.62334828638E+03  0.50400001928E-02 0.  1.
       -1    1    3    3    0  502  0.45468706085E+03 -0.96113947886E+02 -0.19449439738E+04  0.19996962958E+04  0.50400001928E-02 0. -1.
</event>
<event>
 5   0  0.6263616E-05  0.2116440E+04  0.7818609E-02  0.8554036E-01
       -1   -1    0    0    0  501  0.00000000000E+00  0.00000000000E+00  0.85410645188E+03  0.85410645190E+03  0.50400001928E-02 0. -1.
        1   -1    0    0  501    0  0.00000000000E+00  0.00000000000E+00 -0.13111120881E+04  0.13111120881E+04  0.50400001928E-02 0.  1.
    10030    2    1    2    0    0  0.00000000000E+00  0.00000000000E+00 -0.45700563619E+03  0.21652185400E+04  0.21164397403E+04 0.  0.
        4    1    3    3  502    0 -0.98433321211E+03  0.10544506700E+03 -0.61101474589E+03  0.11633448187E+04  0.12699999809E+01 0.  1.
       -4    1    3    3    0  502  0.98433321211E+03 -0.10544506700E+03  0.15400910970E+03  0.10018737213E+04  0.12699999809E+01 0. -1.
</event>
<event>
 5   0  0.1281470E-04  0.2094161E+04  0.7818609E-02  0.8563820E-01
        2   -1    0    0  501    0  0.00000000000E+00  0.00000000000E+00  0.27023055968E+04  0.27023055968E+04  0.25500000920E-02 0.  1.
       -2   -1    0    0    0  501  0.00000000000E+00  0.00000000000E+00 -0.40571942344E+03  0.40571942345E+03  0.25500000920E-02 0. -1.
    10030    2    1    2    0    0  0.00000000000E+00  0.00000000000E+00  0.22965861733E+04  0.31080250202E+04  0.20941612819E+04 0.  0.
        3    1    3    3  502    0 -0.45183373790E+03  0.46537684965E+03  0.23682227603E+04  0.24554446423E+04  0.10100000352E+00 0.  1.
       -3    1    3    3    0  502  0.45183373790E+03 -0.46537684965E+03 -0.71636586923E+02  0.65258037795E+03  0.10100000352E+00 0. -1.
</event>
<event>
 5   0  0.1235817E-04  0.2052065E+04  0.7818609E-02  0.8582658E-01
       -2   -1    0    0    0  501  0.00000000000E+00  0.00000000000E+00  0.70273346343E+03  0.70273346344E+03  0.25500000920E-02 0. -1.
        2   -1    0    0  501    0  0.00000000000E+00  0.00000000000E+00 -0.14980683248E+04  0.14980683248E+04  0.25500000920E-02 0.  1.
    10030    2    1    2    0    0  0.00000000000E+00  0.00000000000E+00 -0.79533486136E+03  0.22008017882E+04  0.20520650500E+04 0.  0.
        1    1    3    3  502    0 -0.69119694167E+03 -0.55109673383E+03  0.16093166966E+03  0.89853203868E+03  0.50400001928E-02 0. -1.
       -1    1    3    3    0  502  0.69119694167E+03  0.55109673383E+03 -0.95626653102E+03  0.13022697495E+04  0.50400001928E-02 0.  1.
</event>
<event>
 5   0  0.1325673E-04  0.2116572E+04  0.7818609E-02  0.8553978E-01
       -2   -1    0    0    0  501  0.00000000000E+00  0.00000000000E+00  0.22257611508E+04  0.22257611508E+04  0.25500000920E-02 0.  1.
        2   -1    0    0  501    0  0.00000000000E+00  0.00000000000E+00 -0.50318502075E+03  0.50318502075E+03  0.25500000920E-02 0. -1.
    10030    2    1    2    0    0  0.00000000000E+00  0.00000000000E+00  0.17225761301E+04  0.27289461716E+04  0.21165723903E+04 0.  0.
        5    1    3    3  502    0 -0.90779006959E+03  0.19838209924E+03  0.20828771887E+03  0.95228364030E+03  0.46999998093E+01 0. -1.
       -5    1    3    3    0  502  0.90779006959E+03 -0.19838209924E+03  0.15142884112E+04  0.17766625313E+04  0.46999998093E+01 0.  1.
</event>
<event>
 5   0  0.4615125E-05  0.2116540E+04  0.7818609E-02  0.8553992E-01
       -4   -1    0    0    0  501  0.00000000000E+00  0.00000000000E+00  0.11960617393E+04  0.11960624135E+04  0.12699999809E+01 0. -1.
        4   -1    0    0  501    0  0.00000000000E+00  0.00000000000E+00 -0.93635130525E+03  0.93635216652E+03  0.12699999809E+01 0.  1.
    10030    2    1    2    0    0  0.00000000000E+00  0.00000000000E+00  0.25971043403E+03  0.21324145801E+04  0.21165402032E+04 0.  0.
        4    1    3    3  502    0 -0.10220393216E+04  0.19872782622E+03  0.32068774429E+03  0.10894491113E+04  0.12699999809E+01 0. -1.
       -4    1    3    3    0  502  0.10220393216E+04 -0.19872782622E+03 -0.60977310256E+02  0.10429654688E+04  0.12699999809E+01 0.  1.
</event>
<event>
 5   0  0.1281470E-04  0.2077927E+04  0.7818609E-02  0.8571029E-01
       -2   -1    0    0    0  501  0.00000000000E+00  0.00000000000E+00  0.14857841149E+04  0.14857841149E+04  0.25500000920E-02 0.  1.
        2   -1    0    0  501    0  0.00000000000E+00  0.00000000000E+00 -0.72651579035E+03  0.72651579035E+03  0.25500000920E-02 0. -1.
    10030    2    1    2    0    0  0.00000000000E+00  0.00000000000E+00  0.75926832458E+03  0.22122999053E+04  0.20779274487E+04 0.  0.
        3    1    3    3  502    0 -0.90380990907E+03 -0.18466663948E+02 -0.16556686301E+03  0.91903523639E+03  0.10100000352E+00 0. -1.
       -3    1    3    3    0  502  0.90380990907E+03  0.18466663948E+02  0.92483518758E+03  0.12932646689E+04  0.10100000352E+00 0.  1.
</event>
<event>
 5   0  0.1252477E-04  0.2133973E+04  0.7818609E-02  0.8546424E-01
       -2   -1    0    0    0  501  0.00000000000E+00  0.00000000000E+00  0.14554935083E+04  0.14554935083E+04  0.25500000920E-02 0. -1.
        2   -1    0    0  501    0  0.00000000000E+00  0.00000000000E+00 -0.78218136335E+03  0.78218136336E+03  0.25500000920E-02 0.  1.
    10030    2    1    2    0    0  0.00000000000E+00  0.00000000000E+00  0.67331214498E+03  0.22376748717E+04  0.21339727240E+04 0.  0.
        4    1    3    3  502    0  0.93635615372E+02 -0.59050500408E+03  0.12633410172E+04  0.13976751865E+04  0.12699999809E+01 0. -1.
       -4    1    3    3    0  502 -0.93635615372E+02  0.59050500408E+03 -0.59002887217E+03  0.83999968524E+03  0.12699999809E+01 0.  1.
</event>
<event>
 5   0  0.5846187E-05  0.2106740E+04  0.7818609E-02  0.8558280E-01
       -1   -1    0    0    0  501  0.00000000000E+00  0.00000000000E+00  0.54085426115E+03  0.54085426117E+03  0.50400001928E-02 0.  1.
        1   -1    0    0  501    0  0.00000000000E+00  0.00000000000E+00 -0.20515483028E+04  0.20515483028E+04  0.50400001928E-02 0. -1.
    10030    2    1    2    0    0  0.00000000000E+00  0.00000000000E+00 -0.15106940416E+04  0.25924025640E+04  0.21067402702E+04 0.  0.
        5    1    3    3  502    0 -0.53049876950E+03  0.90868688615E+03 -0.81595286000E+03  0.13315186673E+04  0.46999998093E+01 0. -1.
       -5    1    3    3    0  502  0.53049876950E+03 -0.90868688615E+03 -0.69474118162E+03  0.12608838967E+04  0.46999998093E+01 0.  1.
</event>
<event>
 5   0  0.1281470E-04  0.2083410E+04  0.7818609E-02  0.8568587E-01
       -2   -1    0    0    0  501  0.00000000000E+00  0.00000000000E+00  0.87948744457E+03  0.87948744457E+03  0.25500000920E-02 0.  1.
        2   -1    0    0  501    0  0.00000000000E+00  0.00000000000E+00 -0.12338429330E+04  0.12338429330E+04  0.25500000920E-02 0. -1.
    10030    2    1    2    0    0  0.00000000000E+00  0.00000000000E+00 -0.35435548840E+03  0.21133303775E+04  0.20834100586E+04 0.  0.
        3    1    3    3  502    0  0.94176860293E+02 -0.70977895428E+03  0.59032171097E+03  0.92797369445E+03  0.10100000352E+00 0.  1.
       -3    1    3    3    0  502 -0.94176860293E+02  0.70977895428E+03 -0.94467719936E+03  0.11853566831E+04  0.10100000352E+00 0. -1.
</event>
<event>
 5   0  0.1252477E-04  0.2106768E+04  0.7818609E-02  0.8558268E-01
        2   -1    0    0  501    0  0.00000000000E+00  0.00000000000E+00  0.14832331596E+04  0.14832331596E+04  0.25500000920E-02 0. -1.
       -2   -1    0    0    0  501  0.00000000000E+00  0.00000000000E+00 -0.74810746634E+03  0.74810746634E+03  0.25500000920E-02 0.  1.
    10030    2    1    2    0    0  0.00000000000E+00  0.00000000000E+00  0.73512569326E+03  0.22313406259E+04  0.21067679521E+04 0.  0.
        4    1    3    3  502    0 -0.14977168952E+03 -0.64208687679E+03  0.12376681230E+04  0.14023306001E+04  0.12699999809E+01 0. -1.
       -4    1    3    3    0  502  0.14977168952E+03  0.64208687679E+03 -0.50254242977E+03  0.82901002584E+03  0.12699999809E+01 0.  1.
</event>
<event>
 5   0  0.1235817E-04  0.2117483E+04  0.7818609E-02  0.8553581E-01
       -2   -1    0    0    0  501  0.00000000000E+00  0.00000000000E+00  0.52572075519E+03  0.52572075520E+03  0.25500000920E-02 0.  1.
        2   -1    0    0  501    0  0.00000000000E+00  0.00000000000E+00 -0.21321844986E+04  0.21321844986E+04  0.25500000920E-02 0. -1.
    10030    2    1    2    0    0  0.00000000000E+00  0.00000000000E+00 -0.16064637434E+04  0.26579052538E+04  0.21174830765E+04 0.  0.
        1    1    3    3  502    0 -0.41182448682E+03 -0.72334880902E+03  0.18050565116E+02  0.83256154751E+03  0.50400001928E-02 0. -1.
       -1    1    3    3    0  502  0.41182448682E+03  0.72334880902E+03 -0.16245143085E+04  0.18253437063E+04  0.50400001928E-02 0.  1.
</event>
<event>
 5   0  0.6263616E-05  0.2102962E+04  0.7818609E-02  0.8559940E-01
       -1   -1    0    0    0  501  0.00000000000E+00  0.00000000000E+00  0.60556162056E+03  0.60556162059E+03  0.50400001928E-02 0. -1.
        1   -1    0    0  501    0  0.00000000000E+00  0.00000000000E+00 -0.18257626160E+04  0.18257626160E+04  0.50400001928E-02 0.  1.
    10030    2    1    2    0    0  0.00000000000E+00  0.00000000000E+00 -0.12202009955E+04  0.24313242366E+04  0.21029615009E+04 0.  0.
        4    1    3    3  502    0 -0.74232301698E+03  0.14158929793E+03  0.23516510834E+03  0.79145134526E+03  0.12699999809E+01 0. -1.
       -4    1    3    3    0  502  0.74232301698E+03 -0.14158929793E+03 -0.14553661038E+04  0.16398728914E+04  0.12699999809E+01 0.  1.
</event>
<event>
 5   0  0.1281470E-04  0.2117105E+04  0.7818609E-02  0.8553746E-01
       -2   -1    0    0    0  501  0.00000000000E+00  0.00000000000E+00  0.15521272337E+04  0.15521272337E+04  0.25500000920E-02 0.  1.
        2   -1    0    0  501    0  0.00000000000E+00  0.00000000000E+00 -0.72193407020E+03  0.72193407020E+03  0.25500000920E-02 0. -1.
    10030    2    1    2    0    0  0.00000000000E+00  0.00000000000E+00  0.83019316353E+03  0.22740613039E+04  0.21171051285E+04 0.  0.
        3    1    3    3  502    0  0.48193385767E+03 -0.39236728835E+03  0.13355520328E+04  0.14730619724E+04  0.10100000352E+00 0.  1.
       -3    1    3    3    0  502 -0.48193385767E+03  0.39236728835E+03 -0.50535886925E+03  0.80099933151E+03  0.10100000352E+00 0. -1.
</event>
<event>
 5   0  0.1325673E-04  0.2125711E+04  0.7818609E-02  0.8550001E-01
       -2   -1    0    0    0  501  0.00000000000E+00  0.00000000000E+00  0.37898662609E+03  0.37898662610E+03  0.25500000920E-02 0. -1.
        2   -1    0    0  501    0  0.00000000000E+00  0.00000000000E+00 -0.29807434958E+04  0.29807434958E+04  0.25500000920E-02 0.  1.
    10030    2    1    2    0    0  0.00000000000E+00  0.00000000000E+00 -0.26017568697E+04  0.33597301219E+04  0.21257111005E+04 0.  0.
        5    1    3    3  502    0 -0.19288931493E+03  0.47353521699E+03  0.17180542954E+03  0.53942662630E+03  0.46999998093E+01 0. -1.
       -5    1    3    3    0  502  0.19288931493E+03 -0.47353521699E+03 -0.27735622992E+04  0.28203034956E+04  0.46999998093E+01 0.  1.
</event>
<event>
 5   0  0.6221148E-05  0.2081142E+04  0.7818609E-02  0.8569596E-01
        1   -1    0    0  501    0  0.00000000000E+00  0.00000000000E+00  0.93798144257E+03  0.93798144258E+03  0.50400001928E-02 0.  1.
       -1   -1    0    0    0  501  0.00000000000E+00  0.00000000000E+00 -0.11543812258E+04  0.11543812258E+04  0.50400001928E-02 0. -1.
    10030    2    1    2    0    0  0.00000000000E+00  0.00000000000E+00 -0.21639978319E+03  0.20923626683E+04  0.20811421551E+04 0.  0.
        3    1    3    3  502    0  0.88740789391E+03 -0.48074714205E+03  0.14649888531E+03  0.10198394571E+04  0.10100000352E+00 0. -1.
       -3    1    3    3    0  502 -0.88740789391E+03  0.48074714205E+03 -0.36289866850E+03  0.10725232112E+04  0.10100000352E+00 0.  1.
</event>
<event>
 5   0  0.6263616E-05  0.2179752E+04  0.7818609E-02  0.8526903E-01
       -1   -1    0    0    0  501  0.00000000000E+00  0.00000000000E+00  0.10753387426E+04  0.10753387426E+04  0.50400001928E-02 0. -1.
        1   -1    0    0  501    0  0.00000000000E+00  0.00000000000E+00 -0.11046099847E+04  0.11046099847E+04  0.50400001928E-02 0.  1.
    10030    2    1    2    0    0  0.00000000000E+00  0.00000000000E+00 -0.29271242115E+02  0.21799487273E+04  0.21797521988E+04 0.  0.
        4    1    3    3  502    0  0.14864956058E+03 -0.14511987110E+03 -0.10846254570E+04  0.11043416427E+04  0.12699999809E+01 0.  1.
       -4    1    3    3    0  502 -0.14864956058E+03  0.14511987110E+03  0.10553542149E+04  0.10756070847E+04  0.12699999809E+01 0. -1.
</event>
<event>
 5   0  0.1252477E-04  0.2109115E+04  0.7818609E-02  0.8557239E-01
       -2   -1    0    0    0  501  0.00000000000E+00  0.00000000000E+00  0.65577265127E+03  0.65577265127E+03  0.25500000920E-02 0. -1.
        2   -1    0    0  501    0  0.00000000000E+00  0.00000000000E+00 -0.16958497411E+04  0.16958497411E+04  0.25500000920E-02 0.  1.
    10030    2    1    2    0    0  0.00000000000E+00  0.00000000000E+00 -0.10400770898E+04  0.23516223924E+04  0.21091153414E+04 0.  0.
        4    1    3    3  502    0  0.75718441329E+02  0.10166558040E+04 -0.21926657388E+03  0.10427855721E+04  0.12699999809E+01 0.  1.
       -4    1    3    3    0  502 -0.75718441329E+02 -0.10166558040E+04 -0.82081051594E+03  0.13088368203E+04  0.12699999809E+01 0. -1.
</event>
<event>
 5   0  0.6221148E-05  0.2089476E+04  0.7818609E-02  0.8565893E-01
       -1   -1    0    0    0  501  0.00000000000E+00  0.00000000000E+00  0.85203284347E+03  0.85203284348E+03  0.50400001928E-02 0.  1.
        1   -1    0    0  501    0  0.00000000000E+00  0.00000000000E+00 -0.12810277020E+04  0.12810277020E+04  0.50400001928E-02 0. -1.
    10030    2    1    2    0    0  0.00000000000E+00  0.00000000000E+00 -0.42899485853E+03  0.21330605455E+04  0.20894761789E+04 0.  0.
        3    1    3    3  502    0 -0.68599956133E+03  0.77346313510E+02  0.58601474231E+03  0.90553362100E+03  0.10100000352E+00 0.  1.
       -3    1    3    3    0  502  0.68599956133E+03 -0.77346313510E+02 -0.10150096008E+04  0.12275269245E+04  0.10100000352E+00 0. -1.
</event>
<event>
 5   0  0.1325673E-04  0.2089766E+04  0.7818609E-02  0.8565765E-01
       -2   -1    0    0    0  501  0.00000000000E+00  0.00000000000E+00  0.13257265961E+04  0.13257265961E+04  0.25500000920E-02 0. -1.
        2   -1    0    0  501    0  0.00000000000E+00  0.00000000000E+00 -0.82353364061E+03  0.82353364061E+03  0.25500000920E-02 0.  1.
    10030    2    1    2    0    0  0.00000000000E+00  0.00000000000E+00  0.50219295544E+03  0.21492602367E+04  0.20897659679E+04 0.  0.
        5    1    3    3  502    0 -0.40570144825E+03 -0.22485545113E+03  0.12140232336E+04  0.12996261543E+04  0.46999998093E+01 0. -1.
       -5    1    3    3    0  502  0.40570144825E+03  0.22485545113E+03 -0.71183027821E+03  0.84963408240E+03  0.46999998093E+01 0.  1.
</event>
<event>
 5   0  0.1349252E-04  0.1982902E+04  0.7818609E-02  0.8614657E-01
       -2   -1    0    0    0  501  0.00000000000E+00  0.00000000000E+00  0.11635875979E+04  0.11635875979E+04  0.25500000920E-02 0. -1.
        2   -1    0    0  501    0  0.00000000000E+00  0.00000000000E+00 -0.84477935035E+03  0.84477935035E+03  0.25500000920E-02 0.  1.
    10030    2    1    2    0    0  0.00000000000E+00  0.00000000000E+00  0.31880824756E+03  0.20083669483E+04  0.19829016870E+04 0.  0.
        2    1    3    3  502    0 -0.18595992925E+03 -0.89937712456E+03  0.53771733379E+03  0.10642369278E+04  0.25500000920E-02 0. -1.
       -2    1    3    3    0  502  0.18595992925E+03  0.89937712456E+03 -0.21890908623E+03  0.94413002045E+03  0.25500000920E-02 0.  1.
</event>
<event>
 5   0  0.1325673E-04  0.1608674E+04  0.7818609E-02  0.8815237E-01
       -2   -1    0    0    0  501  0.00000000000E+00  0.00000000000E+00  0.38287928981E+03  0.38287928982E+03  0.25500000920E-02 0.  1.
        2   -1    0    0  501    0  0.00000000000E+00  0.00000000000E+00 -0.16897183337E+04  0.16897183337E+04  0.25500000920E-02 0. -1.
    10030    2    1    2    0    0  0.00000000000E+00  0.00000000000E+00 -0.13068390439E+04  0.20725976235E+04  0.16086741815E+04 0.  0.
        5    1    3    3  502    0 -0.36378466724E+02 -0.15133446780E+03  0.36327390681E+03  0.39524111040E+03  0.46999998093E+01 0.  1.
       -5    1    3    3    0  502  0.36378466724E+02  0.15133446780E+03 -0.16701129507E+04  0.16773565131E+04  0.46999998093E+01 0. -1.
</event>
<event>
 5   0  0.5846187E-05  0.2098237E+04  0.7818609E-02  0.8562020E-01
        1   -1    0    0  501    0  0.00000000000E+00  0.00000000000E+00  0.33526871538E+04  0.33526871538E+04  0.50400001928E-02 0. -1.
       -1   -1    0    0    0  501  0.00000000000E+00  0.00000000000E+00 -0.32828891930E+03  0.32828891934E+03  0.50400001928E-02 0.  1.
    10030    2    1    2    0    0  0.00000000000E+00  0.00000000000E+00  0.30243982345E+04  0.36809760731E+04  0.20982373960E+04 0.  0.
        5    1    3    3  502    0 -0.28571561434E+03  0.55591184180E+03  0.29903686991E+04  0.30549956522E+04  0.46999998093E+01 0. -1.
       -5    1    3    3    0  502  0.28571561434E+03 -0.55591184180E+03  0.34029535362E+02  0.62598042095E+03  0.46999998093E+01 0.  1.
</event>
<event>
 5   0  0.6263616E-05  0.2052076E+04  0.7818609E-02  0.8582653E-01
       -1   -1    0    0    0  501  0.00000000000E+00  0.00000000000E+00  0.71537753706E+03  0.71537753708E+03  0.50400001928E-02 0.  1.
        1   -1    0    0  501    0  0.00000000000E+00  0.00000000000E+00 -0.14716067634E+04  0.14716067634E+04  0.50400001928E-02 0. -1.
    10030    2    1    2    0    0  0.00000000000E+00  0.00000000000E+00 -0.75622922634E+03  0.21869843005E+04  0.20520764332E+04 0.  0.
        4    1    3    3  502    0  0.47767031893E+03  0.33068173423E+03  0.52319923989E+03  0.78183016088E+03  0.12699999809E+01 0.  1.
       -4    1    3    3    0  502 -0.47767031893E+03 -0.33068173423E+03 -0.12794284662E+04  0.14051541396E+04  0.12699999809E+01 0. -1.
</event>
<event>
 5   0  0.1281470E-04  0.2068607E+04  0.7818609E-02  0.8575200E-01
       -2   -1    0    0    0  501  0.00000000000E+00  0.00000000000E+00  0.56601558472E+03  0.56601558472E+03  0.25500000920E-02 0. -1.
        2   -1    0    0  501    0  0.00000000000E+00  0.00000000000E+00 -0.18900251671E+04  0.18900251671E+04  0.25500000920E-02 0.  1.
    10030    2    1    2    0    0  0.00000000000E+00  0.00000000000E+00 -0.13240095824E+04  0.24560407518E+04  0.20686069710E+04 0.  0.
        3    1    3    3  502    0  0.16624773896E+02 -0.10994416586E+03 -0.18829080701E+04  0.18861884618E+04  0.10100000352E+00 0.  1.
       -3    1    3    3    0  502 -0.16624773896E+02  0.10994416586E+03  0.55889848771E+03  0.56985229005E+03  0.10100000352E+00 0. -1.
</event>
<event>
 5   0  0.5933905E-05  0.2073874E+04  0.7818609E-02  0.8572840E-01
        1   -1    0    0  501    0  0.00000000000E+00  0.00000000000E+00  0.13565379276E+04  0.13565379276E+04  0.50400001928E-02 0.  1.
       -1   -1    0    0    0  501  0.00000000000E+00  0.00000000000E+00 -0.79263420419E+03  0.79263420421E+03  0.50400001928E-02 0. -1.
    10030    2    1    2    0    0  0.00000000000E+00  0.00000000000E+00  0.56390372337E+03  0.21491721318E+04  0.20738740181E+04 0.  0.
        2    1    3    3  502    0  0.45756917062E+03  0.43404658979E+03  0.11349235658E+04  0.12983903451E+04  0.25500000920E-02 0.  1.
       -2    1    3    3    0  502 -0.45756917062E+03 -0.43404658979E+03 -0.57101984247E+03  0.85078178666E+03  0.25500000920E-02 0. -1.
</event>
<event>
 5   0  0.1252477E-04  0.2099521E+04  0.7818609E-02  0.8561454E-01
        2   -1    0    0  501    0  0.00000000000E+00  0.00000000000E+00  0.12373525354E+04  0.12373525354E+04  0.25500000920E-02 0.  1.
       -2   -1    0    0    0  501  0.00000000000E+00  0.00000000000E+00 -0.89060904509E+03  0.89060904509E+03  0.25500000920E-02 0. -1.
    10030    2    1    2    0    0  0.00000000000E+00  0.00000000000E+00  0.34674349027E+03  0.21279615805E+04  0.20995212406E+04 0.  0.
        4    1    3    3  502    0 -0.66359905323E+03  0.55310812057E+03  0.77785955747E+03  0.11624798495E+04  0.12699999809E+01 0.  1.
       -4    1    3    3    0  502  0.66359905323E+03 -0.55310812057E+03 -0.43111606720E+03  0.96548173094E+03  0.12699999809E+01 0. -1.
</event>
<event>
 5   0  0.6263616E-05  0.2089623E+04  0.7818609E-02  0.8565828E-01
       -1   -1    0    0    0  501  0.00000000000E+00  0.00000000000E+00  0.59762297607E+03  0.59762297609E+03  0.50400001928E-02 0. -1.
        1   -1    0    0  501    0  0.00000000000E+00  0.00000000000E+00 -0.18266224972E+04  0.18266224972E+04  0.50400001928E-02 0.  1.
    10030    2    1    2    0    0  0.00000000000E+00  0.00000000000E+00 -0.12289995212E+04  0.24242454733E+04  0.20896234809E+04 0.  0.
        4    1    3    3  502    0 -0.75601260067E+03  0.60706136717E+03 -0.10661357435E+04  0.14410848665E+04  0.12699999809E+01 0.  1.
       -4    1    3    3    0  502  0.75601260067E+03 -0.60706136717E+03 -0.16286377766E+03  0.98316060685E+03  0.12699999809E+01 0. -1.
</event>
<event>
 5   0  0.6052292E-05  0.2134473E+04  0.7818609E-02  0.8546208E-01
        1   -1    0    0  501    0  0.00000000000E+00  0.00000000000E+00  0.12356326081E+04  0.12356326081E+04  0.50400001928E-02 0. -1.
       -1   -1    0    0    0  501  0.00000000000E+00  0.00000000000E+00 -0.92179033049E+03  0.92179033050E+03  0.50400001928E-02 0.  1.
    10030    2    1    2    0    0  0.00000000000E+00  0.00000000000E+00  0.31384227761E+03  0.21574229386E+04  0.21344734153E+04 0.  0.
        1    1    3    3  502    0  0.65409933417E+03  0.78477596897E+03 -0.15506396647E+03  0.10333267122E+04  0.50400001928E-02 0.  1.
       -1    1    3    3    0  502 -0.65409933417E+03 -0.78477596897E+03  0.46890624407E+03  0.11240962264E+04  0.50400001928E-02 0. -1.
</event>
<event>
 5   0  0.5846187E-05  0.2196928E+04  0.7818609E-02  0.8519708E-01
        1   -1    0    0  501    0  0.00000000000E+00  0.00000000000E+00  0.18108144471E+04  0.18108144471E+04  0.50400001928E-02 0. -1.
       -1   -1    0    0    0  501  0.00000000000E+00  0.00000000000E+00 -0.66634252962E+03  0.66634252964E+03  0.50400001928E-02 0.  1.
    10030    2    1    2    0    0  0.00000000000E+00  0.00000000000E+00  0.11444719175E+04  0.24771569768E+04  0.21969275631E+04 0.  0.
        5    1    3    3  502    0  0.67441682565E+03 -0.12750030165E+03 -0.39477403461E+03  0.79180995828E+03  0.46999998093E+01 0.  1.
       -5    1    3    3    0  502 -0.67441682565E+03  0.12750030165E+03  0.15392459521E+04  0.16853470185E+04  0.46999998093E+01 0. -1.
</event>
<event>
 5   0  0.6221148E-05  0.2090331E+04  0.7818609E-02  0.8565514E-01
        1   -1    0    0  501    0  0.00000000000E+00  0.00000000000E+00  0.97659311711E+03  0.97659311712E+03  0.50400001928E-02 0. -1.
       -1   -1    0    0    0  501  0.00000000000E+00  0.00000000000E+00 -0.11185531706E+04  0.11185531706E+04  0.50400001928E-02 0.  1.
    10030    2    1    2    0    0  0.00000000000E+00  0.00000000000E+00 -0.14196005344E+03  0.20951462877E+04  0.20903313876E+04 0.  0.
        3    1    3    3  502    0 -0.51851710354E+03  0.88624795523E+03 -0.26655994300E+03  0.10608249800E+04  0.10100000352E+00 0.  1.
       -3    1    3    3    0  502  0.51851710354E+03 -0.88624795523E+03  0.12459988956E+03  0.10343213077E+04  0.10100000352E+00 0. -1.
</event>
<event>
 5   0  0.1349252E-04  0.2116048E+04  0.7818609E-02  0.8554207E-01
       -2   -1    0    0    0  501  0.00000000000E+00  0.00000000000E+00  0.57100292270E+03  0.57100292270E+03  0.25500000920E-02 0.  1.
        2   -1    0    0  501    0  0.00000000000E+00  0.00000000000E+00 -0.19604367422E+04  0.19604367422E+04  0.25500000920E-02 0. -1.
    10030    2    1    2    0    0  0.00000000000E+00  0.00000000000E+00 -0.13894338195E+04  0.25314396649E+04  0.21160483072E+04 0.  0.
        2    1    3    3  502    0  0.10038914938E+04  0.33191243937E+03 -0.64914551861E+03  0.12407070174E+04  0.25500000920E-02 0.  1.
       -2    1    3    3    0  502 -0.10038914938E+04 -0.33191243937E+03 -0.74028830088E+03  0.12907326475E+04  0.25500000920E-02 0. -1.
</event>
<event>
 5   0  0.6263616E-05  0.2201596E+04  0.7818609E-02  0.8517764E-01
        1   -1    0    0  501    0  0.00000000000E+00  0.00000000000E+00  0.15614027627E+04  0.15614027627E+04  0.50400001928E-02 0. -1.
       -1   -1    0    0    0  501  0.00000000000E+00  0.00000000000E+00 -0.77606865388E+03  0.77606865389E+03  0.50400001928E-02 0.  1.
    10030    2    1    2    0    0  0.00000000000E+00  0.00000000000E+00  0.78533410879E+03  0.23374714166E+04  0.22015955489E+04 0.  0.
        4    1    3    3  502    0  0.55190947368E+03  0.60771908495E+03 -0.38596145719E+03  0.90713527805E+03  0.12699999809E+01 0.  1.
       -4    1    3    3    0  502 -0.55190947368E+03 -0.60771908495E+03  0.11712955660E+04  0.14303361385E+04  0.12699999809E+01 0. -1.
</event>
<event>
 5   0  0.1281470E-04  0.2098102E+04  0.7818609E-02  0.8562080E-01
        2   -1    0    0  501    0  0.00000000000E+00  0.00000000000E+00  0.12532857080E+04  0.12532857080E+04  0.25500000920E-02 0.  1.
       -2   -1    0    0    0  501  0.00000000000E+00  0.00000000000E+00 -0.87809859066E+03  0.87809859066E+03  0.25500000920E-02 0. -1.
    10030    2    1    2    0    0  0.00000000000E+00  0.00000000000E+00  0.37518711730E+03  0.21313842986E+04  0.20981023939E+04 0.  0.
        3    1    3    3  502    0 -0.49060297706E+03  0.90323652596E+03 -0.25449379289E+02  0.10281902470E+04  0.10100000352E+00 0. -1.
       -3    1    3    3    0  502  0.49060297706E+03 -0.90323652596E+03  0.40063649659E+03  0.11031940516E+04  0.10100000352E+00 0.  1.
</event>
<event>
 5   0  0.1252477E-04  0.2090453E+04  0.7818609E-02  0.8565461E-01
       -2   -1    0    0    0  501  0.00000000000E+00  0.00000000000E+00  0.70220435026E+03  0.70220435026E+03  0.25500000920E-02 0.  1.
        2   -1    0    0  501    0  0.00000000000E+00  0.00000000000E+00 -0.15558127922E+04  0.15558127922E+04  0.25500000920E-02 0. -1.
    10030    2    1    2    0    0  0.00000000000E+00  0.00000000000E+00 -0.85360844195E+03  0.22580171425E+04  0.20904530714E+04 0.  0.
        4    1    3    3  502    0 -0.25199219420E+03  0.61253725896E+03 -0.13001929623E+04  0.14591796708E+04  0.12699999809E+01 0. -1.
       -4    1    3    3    0  502  0.25199219420E+03 -0.61253725896E+03  0.44658452030E+03  0.79883747172E+03  0.12699999809E+01 0.  1.
</event>
<event>
 5   0  0.6052292E-05  0.2184183E+04  0.7818609E-02  0.8525040E-01
        1   -1    0    0  501    0  0.00000000000E+00  0.00000000000E+00  0.90956478351E+03  0.90956478352E+03  0.50400001928E-02 0. -1.
       -1   -1    0    0    0  501  0.00000000000E+00  0.00000000000E+00 -0.13112466373E+04  0.13112466373E+04  0.50400001928E-02 0.  1.
    10030    2    1    2    0    0  0.00000000000E+00  0.00000000000E+00 -0.40168185377E+03  0.22208114208E+04  0.21841829262E+04 0.  0.
        1    1    3    3  502    0 -0.85497297670E+03 -0.60228641613E+02 -0.88899021629E+03  0.12348724164E+04  0.50400001928E-02 0.  1.
       -1    1    3    3    0  502  0.85497297670E+03  0.60228641613E+02  0.48730836252E+03  0.98593900439E+03  0.50400001928E-02 0. -1.
</event>
<event>
 5   0  0.1325673E-04  0.2084848E+04  0.7818609E-02  0.8567947E-01
       -2   -1    0    0    0  501  0.00000000000E+00  0.00000000000E+00  0.48875929615E+03  0.48875929615E+03  0.25500000920E-02 0. -1.
        2   -1    0    0  501    0  0.00000000000E+00  0.00000000000E+00 -0.22232779254E+04  0.22232779254E+04  0.25500000920E-02 0.  1.
    10030    2    1    2    0    0  0.00000000000E+00  0.00000000000E+00 -0.17345186293E+04  0.27120372216E+04  0.20848479599E+04 0.  0.
        5    1    3    3  502    0  0.69433533659E+03  0.76513310622E+03 -0.10470164029E+04  0.14709845913E+04  0.46999998093E+01 0.  1.
       -5    1    3    3    0  502 -0.69433533659E+03 -0.76513310622E+03 -0.68750222637E+03  0.12410526303E+04  0.46999998093E+01 0. -1.
</event>
<event>
 5   0  0.4615125E-05  0.2092656E+04  0.7818609E-02  0.8564485E-01
       -3   -1    0    0    0  501  0.00000000000E+00  0.00000000000E+00  0.13543454857E+04  0.13543454895E+04  0.10100000352E+00 0.  1.
        3   -1    0    0  501    0  0.00000000000E+00  0.00000000000E+00 -0.80836253848E+03  0.80836254479E+03  0.10100000352E+00 0. -1.
    10030    2    1    2    0    0  0.00000000000E+00  0.00000000000E+00  0.54598294721E+03  0.21627080343E+04  0.20926558873E+04 0.  0.
        5    1    3    3  502    0 -0.23581389202E+03 -0.42010448474E+03  0.12328914309E+04  0.13236840032E+04  0.46999998093E+01 0.  1.
       -5    1    3    3    0  502  0.23581389202E+03  0.42010448474E+03 -0.68690848371E+03  0.83902403110E+03  0.46999998093E+01 0. -1.
</event>
<event>
 5   0  0.1235817E-04  0.2091231E+04  0.7818609E-02  0.8565116E-01
        2   -1    0    0  501    0  0.00000000000E+00  0.00000000000E+00  0.81012471788E+03  0.81012471788E+03  0.25500000920E-02 0. -1.
       -2   -1    0    0    0  501  0.00000000000E+00  0.00000000000E+00 -0.13495596599E+04  0.13495596599E+04  0.25500000920E-02 0.  1.
    10030    2    1    2    0    0  0.00000000000E+00  0.00000000000E+00 -0.53943494206E+03  0.21596843778E+04  0.20912308708E+04 0.  0.
        1    1    3    3  502    0  0.23411096926E+03  0.16714855534E+03 -0.13078921764E+04  0.13391521685E+04  0.50400001928E-02 0.  1.
       -1    1    3    3    0  502 -0.23411096926E+03 -0.16714855534E+03  0.76845723430E+03  0.82053220928E+03  0.50400001928E-02 0. -1.
</event>
<event>
 5   0  0.1281470E-04  0.1971348E+04  0.7818609E-02  0.8620135E-01
       -2   -1    0    0    0  501  0.00000000000E+00  0.00000000000E+00  0.71192829260E+03  0.71192829260E+03  0.25500000920E-02 0.  1.
        2   -1    0    0  501    0  0.00000000000E+00  0.00000000000E+00 -0.13646785240E+04  0.13646785240E+04  0.25500000920E-02 0. -1.
    10030    2    1    2    0    0  0.00000000000E+00  0.00000000000E+00 -0.65275023141E+03  0.20766068166E+04  0.19713480175E+04 0.  0.
        3    1    3    3  502    0  0.78387805675E+03 -0.16304667373E+03 -0.93196620532E+03  0.12286618915E+04  0.10100000352E+00 0. -1.
       -3    1    3    3    0  502 -0.78387805675E+03  0.16304667373E+03  0.27921597391E+03  0.84794492507E+03  0.10100000352E+00 0.  1.
</event>
<event>
 5   0  0.6052292E-05  0.2085096E+04  0.7818609E-02  0.8567837E-01
        1   -1    0    0  501    0  0.00000000000E+00  0.00000000000E+00  0.93755213465E+03  0.93755213466E+03  0.50400001928E-02 0.  1.
       -1   -1    0    0    0  501  0.00000000000E+00  0.00000000000E+00 -0.11593018225E+04  0.11593018225E+04  0.50400001928E-02 0. -1.
    10030    2    1    2    0    0  0.00000000000E+00  0.00000000000E+00 -0.22174968784E+03  0.20968539572E+04  0.20850955838E+04 0.  0.
        1    1    3    3  502    0  0.69986139658E+03 -0.76760655908E+03 -0.21604352555E+02  0.10389863098E+04  0.50400001928E-02 0.  1.
       -1    1    3    3    0  502 -0.69986139658E+03  0.76760655908E+03 -0.20014533528E+03  0.10578676473E+04  0.50400001928E-02 0. -1.
</event>
<event>
 5   0  0.5933905E-05  0.2109459E+04  0.7818609E-02  0.8557088E-01
        1   -1    0    0  501    0  0.00000000000E+00  0.00000000000E+00  0.87728074546E+03  0.87728074548E+03  0.50400001928E-02 0. -1.
       -1   -1    0    0    0  501  0.00000000000E+00  0.00000000000E+00 -0.12680709104E+04  0.12680709104E+04  0.50400001928E-02 0.  1.
    10030    2    1    2    0    0  0.00000000000E+00  0.00000000000E+00 -0.39079016496E+03  0.21453516559E+04  0.21094588819E+04 0.  0.
        2    1    3    3  502    0  0.53253549736E+03  0.87050734576E+03 -0.46653425809E+03  0.11220656438E+04  0.25500000920E-02 0.  1.
       -2    1    3    3    0  502 -0.53253549736E+03 -0.87050734576E+03  0.75744093128E+02  0.10232860121E+04  0.25500000920E-02 0. -1.
</event>
<event>
 5   0  0.1235817E-04  0.2082392E+04  0.7818609E-02  0.8569040E-01
       -2   -1    0    0    0  501  0.00000000000E+00  0.00000000000E+00  0.11384991773E+04  0.11384991773E+04  0.25500000920E-02 0. -1.
        2   -1    0    0  501    0  0.00000000000E+00  0.00000000000E+00 -0.95220879998E+03  0.95220879999E+03  0.25500000920E-02 0.  1.
    10030    2    1    2    0    0  0.00000000000E+00  0.00000000000E+00  0.18629037735E+03  0.20907079773E+04  0.20823918319E+04 0.  0.
        1    1    3    3  502    0 -0.65886739307E+03 -0.54133196837E+03  0.69297768554E+03  0.10988014444E+04  0.50400001928E-02 0.  1.
       -1    1    3    3    0  502  0.65886739307E+03  0.54133196837E+03 -0.50668730820E+03  0.99190653287E+03  0.50400001928E-02 0. -1.
</event>
<event>
 5   0  0.1281470E-04  0.2102050E+04  0.7818609E-02  0.8560341E-01
        2   -1    0    0  501    0  0.00000000000E+00  0.00000000000E+00  0.11062203391E+04  0.11062203391E+04  0.25500000920E-02 0. -1.
       -2   -1    0    0    0  501  0.00000000000E+00  0.00000000000E+00 -0.99858320535E+03  0.99858320535E+03  0.25500000920E-02 0.  1.
    10030    2    1    2    0    0  0.00000000000E+00  0.00000000000E+00  0.10763713376E+03  0.21048035445E+04  0.21020495256E+04 0.  0.
        3    1    3    3  502    0 -0.52643360107E+03 -0.59853294256E+03 -0.63211837472E+03  0.10173237781E+04  0.10100000352E+00 0.  1.
       -3    1    3    3    0  502  0.52643360107E+03  0.59853294256E+03  0.73975550849E+03  0.10874797663E+04  0.10100000352E+00 0. -1.
</event>
<event>
 5   0  0.5846187E-05  0.2078298E+04  0.7818609E-02  0.8570864E-01
        1   -1    0    0  501    0  0.00000000000E+00  0.00000000000E+00  0.14244722045E+04  0.14244722045E+04  0.50400001928E-02 0.  1.
       -1   -1    0    0    0  501  0.00000000000E+00  0.00000000000E+00 -0.75805635238E+03  0.75805635240E+03  0.50400001928E-02 0. -1.
    10030    2    1    2    0    0  0.00000000000E+00  0.00000000000E+00  0.66641585211E+03  0.21825285569E+04  0.20782975758E+04 0.  0.
        5    1    3    3  502    0 -0.24964371626E+03 -0.72159841128E+03  0.10733840451E+04  0.13172705305E+04  0.46999998093E+01 0.  1.
       -5    1    3    3    0  502  0.24964371626E+03  0.72159841128E+03 -0.40696819296E+03  0.86525802643E+03  0.46999998093E+01 0. -1.
</event>
<event>
 5   0  0.1281470E-04  0.2096198E+04  0.7818609E-02  0.8562920E-01
        2   -1    0    0  501    0  0.00000000000E+00  0.00000000000E+00  0.20861246405E+04  0.20861246405E+04  0.25500000920E-02 0.  1.
       -2   -1    0    0    0  501  0.00000000000E+00  0.00000000000E+00 -0.52657993959E+03  0.52657993959E+03  0.25500000920E-02 0. -1.
    10030    2    1    2    0    0  0.00000000000E+00  0.00000000000E+00  0.15595447009E+04  0.26127045801E+04  0.20961978792E+04 0.  0.
        3    1    3    3  502    0 -0.76653406809E+03 -0.29459113177E+03 -0.31972014943E+02  0.82181544911E+03  0.10100000352E+00 0. -1.
       -3    1    3    3    0  502  0.76653406809E+03  0.29459113177E+03  0.15915167159E+04  0.17908891310E+04  0.10100000352E+00 0.  1.
</event>
<event>
 5   0  0.5933905E-05  0.2156620E+04  0.7818609E-02  0.8536704E-01
       -1   -1    0    0    0  501  0.00000000000E+00  0.00000000000E+00  0.11280962097E+04  0.11280962097E+04  0.50400001928E-02 0.  1.
        1   -1    0    0  501    0  0.00000000000E+00  0.00000000000E+00 -0.10307209300E+04  0.10307209300E+04  0.50400001928E-02 0. -1.
    10030    2    1    2    0    0  0.00000000000E+00  0.00000000000E+00  0.97375279659E+02  0.21588171397E+04  0.21566199242E+04 0.  0.
        2    1    3    3  502    0  0.30883289162E+03 -0.10055215289E+04 -0.18883257926E+03  0.10686950187E+04  0.25500000920E-02 0. -1.
       -2    1    3    3    0  502 -0.30883289162E+03  0.10055215289E+04  0.28620785892E+03  0.10901221210E+04  0.25500000920E-02 0.  1.
</event>
<event>
 5   0  0.6263616E-05  0.2095410E+04  0.7818609E-02  0.8563268E-01
       -1   -1    0    0    0  501  0.00000000000E+00  0.00000000000E+00  0.11541977703E+04  0.11541977703E+04  0.50400001928E-02 0.  1.
        1   -1    0    0  501    0  0.00000000000E+00  0.00000000000E+00 -0.95103823061E+03  0.95103823062E+03  0.50400001928E-02 0. -1.
    10030    2    1    2    0    0  0.00000000000E+00  0.00000000000E+00  0.20315953964E+03  0.21052360009E+04  0.20954104182E+04 0.  0.
        4    1    3    3  502    0 -0.39795316341E+02 -0.85157704456E+02 -0.94679252552E+03  0.95144794977E+03  0.12699999809E+01 0. -1.
       -4    1    3    3    0  502  0.39795316341E+02  0.85157704456E+02  0.11499520652E+04  0.11537880511E+04  0.12699999809E+01 0.  1.
</event>
<event>
 5   0  0.1281470E-04  0.2124101E+04  0.7818609E-02  0.8550700E-01
       -2   -1    0    0    0  501  0.00000000000E+00  0.00000000000E+00  0.76066415451E+03  0.76066415451E+03  0.25500000920E-02 0. -1.
        2   -1    0    0  501    0  0.00000000000E+00  0.00000000000E+00 -0.14828510505E+04  0.14828510506E+04  0.25500000920E-02 0.  1.
    10030    2    1    2    0    0  0.00000000000E+00  0.00000000000E+00 -0.72218689604E+03  0.22435152051E+04  0.21241013541E+04 0.  0.
        3    1    3    3  502    0  0.94560966298E+03 -0.33658863055E+03  0.55256012455E+01  0.10037430365E+04  0.10100000352E+00 0. -1.
       -3    1    3    3    0  502 -0.94560966298E+03  0.33658863055E+03 -0.72771249729E+03  0.12397721685E+04  0.10100000352E+00 0.  1.
</event>
<event>
 5   0  0.6221148E-05  0.2108211E+04  0.7818609E-02  0.8557635E-01
        1   -1    0    0  501    0  0.00000000000E+00  0.00000000000E+00  0.13605640122E+04  0.13605640123E+04  0.50400001928E-02 0. -1.
       -1   -1    0    0    0  501  0.00000000000E+00  0.00000000000E+00 -0.81667487932E+03  0.81667487934E+03  0.50400001928E-02 0.  1.
    10030    2    1    2    0    0  0.00000000000E+00  0.00000000000E+00  0.54388913292E+03  0.21772388916E+04  0.21082110431E+04 0.  0.
        3    1    3    3  502    0  0.94840153292E+03  0.30100594206E+03  0.63128608025E+03  0.11783854081E+04  0.10100000352E+00 0. -1.
       -3    1    3    3    0  502 -0.94840153292E+03 -0.30100594206E+03 -0.87396947328E+02  0.99885348345E+03  0.10100000352E+00 0.  1.
</event>
<event>
 5   0  0.6052292E-05  0.2106767E+04  0.7818609E-02  0.8558268E-01
        1   -1    0    0  501    0  0.00000000000E+00  0.00000000000E+00  0.14539360189E+04  0.14539360189E+04  0.50400001928E-02 0. -1.
       -1   -1    0    0    0  501  0.00000000000E+00  0.00000000000E+00 -0.76318119681E+03  0.76318119682E+03  0.50400001928E-02 0.  1.
    10030    2    1    2    0    0  0.00000000000E+00  0.00000000000E+00  0.69075482208E+03  0.22171172157E+04  0.21067668414E+04 0.  0.
        1    1    3    3  502    0 -0.69486330328E+03 -0.13546486989E+03 -0.47549905954E+03  0.85281011772E+03  0.50400001928E-02 0.  1.
       -1    1    3    3    0  502  0.69486330328E+03  0.13546486989E+03  0.11662538816E+04  0.13643070980E+04  0.50400001928E-02 0. -1.
</event>
<event>
 5   0  0.6263616E-05  0.2084226E+04  0.7818609E-02  0.8568224E-01
        1   -1    0    0  501    0  0.00000000000E+00  0.00000000000E+00  0.21914566063E+04  0.21914566063E+04  0.50400001928E-02 0.  1.
       -1   -1    0    0    0  501  0.00000000000E+00  0.00000000000E+00 -0.49556040182E+03  0.49556040184E+03  0.50400001928E-02 0. -1.
    10030    2    1    2    0    0  0.00000000000E+00  0.00000000000E+00  0.16958962044E+04  0.26870170081E+04  0.20842256273E+04 0.  0.
        4    1    3    3  502    0 -0.35532114221E+03  0.16152415183E+03  0.20936632442E+04  0.21297348565E+04  0.12699999809E+01 0.  1.
       -4    1    3    3    0  502  0.35532114221E+03 -0.16152415183E+03 -0.39776703977E+03  0.55728215165E+03  0.12699999809E+01 0. -1.
</event>
<event>
 5   0  0.1349252E-04  0.1992396E+04  0.7818609E-02  0.8610184E-01
       -2   -1    0    0    0  501  0.00000000000E+00  0.00000000000E+00  0.54661472363E+03  0.54661472364E+03  0.25500000920E-02 0.  1.
        2   -1    0    0  501    0  0.00000000000E+00  0.00000000000E+00 -0.18155572845E+04  0.18155572845E+04  0.25500000920E-02 0. -1.
    10030    2    1    2    0    0  0.00000000000E+00  0.00000000000E+00 -0.12689425609E+04  0.23621720081E+04  0.19923958877E+04 0.  0.
        2    1    3    3  502    0 -0.88879167436E+03 -0.41868088392E+03 -0.43906033186E+03  0.10761125861E+04  0.25500000920E-02 0.  1.
       -2    1    3    3    0  502  0.88879167436E+03  0.41868088392E+03 -0.82988222902E+03  0.12860594220E+04  0.25500000920E-02 0. -1.
</event>
<event>
 5   0  0.1349252E-04  0.2089006E+04  0.7818609E-02  0.8566102E-01
       -2   -1    0    0    0  501  0.00000000000E+00  0.00000000000E+00  0.50705421110E+03  0.50705421111E+03  0.25500000920E-02 0. -1.
        2   -1    0    0  501    0  0.00000000000E+00  0.00000000000E+00 -0.21516178313E+04  0.21516178313E+04  0.25500000920E-02 0.  1.
    10030    2    1    2    0    0  0.00000000000E+00  0.00000000000E+00 -0.16445636202E+04  0.26586720424E+04  0.20890063495E+04 0.  0.
        2    1    3    3  502    0  0.63019651125E+03 -0.69258373220E+03 -0.14112628285E+04  0.16936595408E+04  0.25500000920E-02 0.  1.
       -2    1    3    3    0  502 -0.63019651125E+03  0.69258373220E+03 -0.23330079167E+03  0.96501250163E+03  0.25500000920E-02 0. -1.
</event>
<event>
 5   0  0.1349252E-04  0.2103992E+04  0.7818609E-02  0.8559487E-01
        2   -1    0    0  501    0  0.00000000000E+00  0.00000000000E+00  0.15081294642E+04  0.15081294642E+04  0.25500000920E-02 0. -1.
       -2   -1    0    0    0  501  0.00000000000E+00  0.00000000000E+00 -0.73381971326E+03  0.73381971326E+03  0.25500000920E-02 0.  1.
    10030    2    1    2    0    0  0.00000000000E+00  0.00000000000E+00  0.77430975093E+03  0.22419491775E+04  0.21039915693E+04 0.  0.
        2    1    3    3  502    0 -0.32831036602E+03 -0.66119435089E+03  0.11857844165E+04  0.13968000388E+04  0.25500000920E-02 0. -1.
       -2    1    3    3    0  502  0.32831036602E+03  0.66119435089E+03 -0.41147466557E+03  0.84514913861E+03  0.25500000920E-02 0.  1.
</event>
<event>
 5   0  0.5933905E-05  0.2107608E+04  0.7818609E-02  0.8557899E-01
       -1   -1    0    0    0  501  0.00000000000E+00  0.00000000000E+00  0.13181538758E+04  0.13181538758E+04  0.50400001928E-02 0.  1.
        1   -1    0    0  501    0  0.00000000000E+00  0.00000000000E+00 -0.84246860666E+03  0.84246860668E+03  0.50400001928E-02 0. -1.
    10030    2    1    2    0    0  0.00000000000E+00  0.00000000000E+00  0.47568526914E+03  0.21606224825E+04  0.21076083689E+04 0.  0.
        2    1    3    3  502    0 -0.52884508599E+02  0.84907662541E+03 -0.39971343226E+03  0.93994612346E+03  0.25500000920E-02 0. -1.
       -2    1    3    3    0  502  0.52884508599E+02 -0.84907662541E+03  0.87539870140E+03  0.12206763590E+04  0.25500000920E-02 0.  1.
</event>
<event>
 5   0  0.6263616E-05  0.2128171E+04  0.7818609E-02  0.8548935E-01
       -1   -1    0    0    0  501  0.00000000000E+00  0.00000000000E+00  0.76195300044E+03  0.76195300046E+03  0.50400001928E-02 0.  1.
        1   -1    0    0  501    0  0.00000000000E+00  0.00000000000E+00 -0.14860202635E+04  0.14860202635E+04  0.50400001928E-02 0. -1.
    10030    2    1    2    0    0  0.00000000000E+00  0.00000000000E+00 -0.72406726303E+03  0.22479732639E+04  0.21281706684E+04 0.  0.
        4    1    3    3  502    0 -0.97341483015E+03 -0.31145583339E+02  0.90782002722E+02  0.97813570829E+03  0.12699999809E+01 0.  1.
       -4    1    3    3    0  502  0.97341483015E+03  0.31145583339E+02 -0.81484926575E+03  0.12698375556E+04  0.12699999809E+01 0. -1.
</event>
<event>
 5   0  0.6221148E-05  0.2093079E+04  0.7818609E-02  0.8564298E-01
       -1   -1    0    0    0  501  0.00000000000E+00  0.00000000000E+00  0.75033663334E+03  0.75033663336E+03  0.50400001928E-02 0.  1.
        1   -1    0    0  501    0  0.00000000000E+00  0.00000000000E+00 -0.14596707215E+04  0.14596707215E+04  0.50400001928E-02 0. -1.
    10030    2    1    2    0    0  0.00000000000E+00  0.00000000000E+00 -0.70933408815E+03  0.22100073549E+04  0.20930785126E+04 0.  0.
        3    1    3    3  502    0 -0.87781483480E+03  0.44399001040E+03  0.22438325555E+02  0.98396620988E+03  0.10100000352E+00 0.  1.
       -3    1    3    3    0  502  0.87781483480E+03 -0.44399001040E+03 -0.73177241370E+03  0.12260411450E+04  0.10100000352E+00 0. -1.
</event>
<event>
 5   0  0.1325673E-04  0.2100568E+04  0.7818609E-02  0.8560993E-01
       -2   -1    0    0    0  501  0.00000000000E+00  0.00000000000E+00  0.60569460861E+03  0.60569460861E+03  0.25500000920E-02 0.  1.
        2   -1    0    0  501    0  0.00000000000E+00  0.00000000000E+00 -0.18212084012E+04  0.18212084012E+04  0.25500000920E-02 0. -1.
    10030    2    1    2    0    0  0.00000000000E+00  0.00000000000E+00 -0.12155137926E+04  0.24269030098E+04  0.21005676469E+04 0.  0.
        5    1    3    3  502    0 -0.98162205745E+03 -0.14097327679E+03 -0.10073475039E+04  0.14135863653E+04  0.46999998093E+01 0. -1.
       -5    1    3    3    0  502  0.98162205745E+03  0.14097327679E+03 -0.20816628873E+03  0.10133166446E+04  0.46999998093E+01 0.  1.
</event>
<event>
 5   0  0.6263616E-05  0.2104240E+04  0.7818609E-02  0.8559378E-01
       -1   -1    0    0    0  501  0.00000000000E+00  0.00000000000E+00  0.78819980691E+03  0.78819980692E+03  0.50400001928E-02 0.  1.
        1   -1    0    0  501    0  0.00000000000E+00  0.00000000000E+00 -0.14044112339E+04  0.14044112340E+04  0.50400001928E-02 0. -1.
    10030    2    1    2    0    0  0.00000000000E+00  0.00000000000E+00 -0.61621142704E+03  0.21926110409E+04  0.21042401607E+04 0.  0.
        4    1    3    3  502    0 -0.53643425144E+03 -0.84117165755E+03 -0.65623798090E+03  0.11941446161E+04  0.12699999809E+01 0. -1.
       -4    1    3    3    0  502  0.53643425144E+03  0.84117165755E+03  0.40026553860E+02  0.99846642482E+03  0.12699999809E+01 0.  1.
</event>
<event>
 5   0  0.1325673E-04  0.2320395E+04  0.7818609E-02  0.8469923E-01
        2   -1    0    0  501    0  0.00000000000E+00  0.00000000000E+00  0.14204284158E+04  0.14204284158E+04  0.25500000920E-02 0.  1.
       -2   -1    0    0    0  501  0.00000000000E+00  0.00000000000E+00 -0.94764264963E+03  0.94764264963E+03  0.25500000920E-02 0. -1.
    10030    2    1    2    0    0  0.00000000000E+00  0.00000000000E+00  0.47278576617E+03  0.23680710654E+04  0.23203952660E+04 0.  0.
        5    1    3    3  502    0  0.11061930928E+04  0.21618899952E+03  0.51706284339E+03  0.12400713351E+04  0.46999998093E+01 0.  1.
       -5    1    3    3    0  502 -0.11061930928E+04 -0.21618899952E+03 -0.44277077221E+02  0.11279997303E+04  0.46999998093E+01 0. -1.
</event>
<event>
 5   0  0.6263616E-05  0.2074034E+04  0.7818609E-02  0.8572768E-01
       -1   -1    0    0    0  501  0.00000000000E+00  0.00000000000E+00  0.58281673913E+03  0.58281673916E+03  0.50400001928E-02 0.  1.
        1   -1    0    0  501    0  0.00000000000E+00  0.00000000000E+00 -0.18451848553E+04  0.18451848553E+04  0.50400001928E-02 0. -1.
    10030    2    1    2    0    0  0.00000000000E+00  0.00000000000E+00 -0.12623681162E+04  0.24280015945E+04  0.20740343493E+04 0.  0.
        4    1    3    3  502    0 -0.36366915821E+02  0.29981170055E+03  0.53019301119E+03  0.61017690089E+03  0.12699999809E+01 0.  1.
       -4    1    3    3    0  502  0.36366915821E+02 -0.29981170055E+03 -0.17925611274E+04  0.18178246936E+04  0.12699999809E+01 0. -1.
</event>
<event>
 5   0  0.5846187E-05  0.2130552E+04  0.7818609E-02  0.8547903E-01
       -1   -1    0    0    0  501  0.00000000000E+00  0.00000000000E+00  0.83144585700E+03  0.83144585701E+03  0.50400001928E-02 0. -1.
        1   -1    0    0  501    0  0.00000000000E+00  0.00000000000E+00 -0.13648668006E+04  0.13648668006E+04  0.50400001928E-02 0.  1.
    10030    2    1    2    0    0  0.00000000000E+00  0.00000000000E+00 -0.53342094364E+03  0.21963126577E+04  0.21305518973E+04 0.  0.
        5    1    3    3  502    0 -0.16454025207E+02  0.64444023339E+03 -0.11409530638E+04  0.13104846177E+04  0.46999998093E+01 0.  1.
       -5    1    3    3    0  502  0.16454025207E+02 -0.64444023339E+03  0.60753212018E+03  0.88582803998E+03  0.46999998093E+01 0. -1.
</event>
<event>
 5   0  0.6221148E-05  0.2106547E+04  0.7818609E-02  0.8558365E-01
       -1   -1    0    0    0  501  0.00000000000E+00  0.00000000000E+00  0.12640281789E+04  0.12640281789E+04  0.50400001928E-02 0. -1.
        1   -1    0    0  501    0  0.00000000000E+00  0.00000000000E+00 -0.87765829671E+03  0.87765829673E+03  0.50400001928E-02 0.  1.
    10030    2    1    2    0    0  0.00000000000E+00  0.00000000000E+00  0.38636988215E+03  0.21416864756E+04  0.21065467652E+04 0.  0.
        3    1    3    3  502    0  0.24974045151E+03  0.94321378424E+03 -0.21012144470E+03  0.99808495010E+03  0.10100000352E+00 0.  1.
       -3    1    3    3    0  502 -0.24974045151E+03 -0.94321378424E+03  0.59649132685E+03  0.11436015255E+04  0.10100000352E+00 0. -1.
</event>
<event>
 5   0  0.6052292E-05  0.2077830E+04  0.7818609E-02  0.8571073E-01
        1   -1    0    0  501    0  0.00000000000E+00  0.00000000000E+00  0.76119707400E+03  0.76119707401E+03  0.50400001928E-02 0.  1.
       -1   -1    0    0    0  501  0.00000000000E+00  0.00000000000E+00 -0.14179566432E+04  0.14179566432E+04  0.50400001928E-02 0. -1.
    10030    2    1    2    0    0  0.00000000000E+00  0.00000000000E+00 -0.65675956918E+03  0.21791537172E+04  0.20778300680E+04 0.  0.
        1    1    3    3  502    0 -0.78249147491E+03 -0.52835496273E+03  0.12622358087E+03  0.95256719834E+03  0.50400001928E-02 0.  1.
       -1    1    3    3    0  502  0.78249147491E+03  0.52835496273E+03 -0.78298315005E+03  0.12265865189E+04  0.50400001928E-02 0. -1.
</event>
<event>
 5   0  0.1252477E-04  0.1854096E+04  0.7818609E-02  0.8678049E-01
       -2   -1    0    0    0  501  0.00000000000E+00  0.00000000000E+00  0.57923648710E+03  0.57923648711E+03  0.25500000920E-02 0. -1.
        2   -1    0    0  501    0  0.00000000000E+00  0.00000000000E+00 -0.14837089476E+04  0.14837089476E+04  0.25500000920E-02 0.  1.
    10030    2    1    2    0    0  0.00000000000E+00  0.00000000000E+00 -0.90447246047E+03  0.20629454347E+04  0.18540963931E+04 0.  0.
        4    1    3    3  502    0 -0.32905629365E+03  0.35418081742E+03 -0.13323456164E+04  0.14173456002E+04  0.12699999809E+01 0.  1.
       -4    1    3    3    0  502  0.32905629365E+03 -0.35418081742E+03  0.42787315596E+03  0.64559983451E+03  0.12699999809E+01 0. -1.
</event>
<event>
 5   0  0.1349252E-04  0.2099339E+04  0.7818609E-02  0.8561535E-01
       -2   -1    0    0    0  501  0.00000000000E+00  0.00000000000E+00  0.12926816823E+04  0.12926816823E+04  0.25500000920E-02 0.  1.
        2   -1    0    0  501    0  0.00000000000E+00  0.00000000000E+00 -0.85234106742E+03  0.85234106743E+03  0.25500000920E-02 0. -1.
    10030    2    1    2    0    0  0.00000000000E+00  0.00000000000E+00  0.44034061486E+03  0.21450227497E+04  0.20993386434E+04 0.  0.
        2    1    3    3  502    0 -0.23582660094E+03  0.10176967095E+04  0.32479439561E+03  0.10939891122E+04  0.25500000920E-02 0. -1.
       -2    1    3    3    0  502  0.23582660094E+03 -0.10176967095E+04  0.11554621926E+03  0.10510336375E+04  0.25500000920E-02 0.  1.
</event>
<event>
 5   0  0.6221148E-05  0.2095083E+04  0.7818609E-02  0.8563412E-01
        1   -1    0    0  501    0  0.00000000000E+00  0.00000000000E+00  0.10636893150E+04  0.10636893151E+04  0.50400001928E-02 0. -1.
       -1   -1    0    0    0  501  0.00000000000E+00  0.00000000000E+00 -0.10316390034E+04  0.10316390034E+04  0.50400001928E-02 0.  1.
    10030    2    1    2    0    0  0.00000000000E+00  0.00000000000E+00  0.32050311619E+02  0.20953283185E+04  0.20950831821E+04 0.  0.
        3    1    3    3  502    0  0.79423524344E+03  0.20890996551E+03  0.66640146687E+03  0.10576123680E+04  0.10100000352E+00 0. -1.
       -3    1    3    3    0  502 -0.79423524344E+03 -0.20890996551E+03 -0.63435115525E+03  0.10377159505E+04  0.10100000352E+00 0.  1.
</event>
<event>
 5   0  0.1281470E-04  0.2078153E+04  0.7818609E-02  0.8570929E-01
       -2   -1    0    0    0  501  0.00000000000E+00  0.00000000000E+00  0.61388277397E+03  0.61388277398E+03  0.25500000920E-02 0. -1.
        2   -1    0    0  501    0  0.00000000000E+00  0.00000000000E+00 -0.17587716081E+04  0.17587716081E+04  0.25500000920E-02 0.  1.
    10030    2    1    2    0    0  0.00000000000E+00  0.00000000000E+00 -0.11448888341E+04  0.23726543820E+04  0.20781526350E+04 0.  0.
        3    1    3    3  502    0  0.10296345075E+02 -0.17612270501E+03 -0.17415467137E+04  0.17504599933E+04  0.10100000352E+00 0.  1.
       -3    1    3    3    0  502 -0.10296345075E+02  0.17612270501E+03  0.59665787959E+03  0.62219438877E+03  0.10100000352E+00 0. -1.
</event>
<event>
 5   0  0.6052292E-05  0.1517593E+04  0.7818609E-02  0.8872837E-01
       -1   -1    0    0    0  501  0.00000000000E+00  0.00000000000E+00  0.91982967117E+03  0.91982967118E+03  0.50400001928E-02 0. -1.
        1   -1    0    0  501    0  0.00000000000E+00  0.00000000000E+00 -0.62595526908E+03  0.62595526910E+03  0.50400001928E-02 0.  1.
    10030    2    1    2    0    0  0.00000000000E+00  0.00000000000E+00  0.29387440209E+03  0.15457849403E+04  0.15175931330E+04 0.  0.
        1    1    3    3  502    0  0.18379439105E+03 -0.68498330894E+03 -0.12787039716E+03  0.72064786838E+03  0.50400001928E-02 0.  1.
       -1    1    3    3    0  502 -0.18379439105E+03  0.68498330894E+03  0.42174479925E+03  0.82513707190E+03  0.50400001928E-02 0. -1.
</event>
<event>
 5   0  0.6263616E-05  0.2096654E+04  0.7818609E-02  0.8562719E-01
        1   -1    0    0  501    0  0.00000000000E+00  0.00000000000E+00  0.82657147742E+03  0.82657147744E+03  0.50400001928E-02 0. -1.
       -1   -1    0    0    0  501  0.00000000000E+00  0.00000000000E+00 -0.13295759606E+04  0.13295759606E+04  0.50400001928E-02 0.  1.
    10030    2    1    2    0    0  0.00000000000E+00  0.00000000000E+00 -0.50300448322E+03  0.21561474381E+04  0.20966540641E+04 0.  0.
        4    1    3    3  502    0 -0.59953216167E+03  0.57115492851E+03  0.40964891590E+03  0.92383473221E+03  0.12699999809E+01 0. -1.
       -4    1    3    3    0  502  0.59953216167E+03 -0.57115492851E+03 -0.91265339912E+03  0.12323127059E+04  0.12699999809E+01 0.  1.
</event>
<event>
 5   0  0.5846187E-05  0.2061828E+04  0.7818609E-02  0.8578247E-01
        1   -1    0    0  501    0  0.00000000000E+00  0.00000000000E+00  0.77707404157E+03  0.77707404158E+03  0.50400001928E-02 0.  1.
       -1   -1    0    0    0  501  0.00000000000E+00  0.00000000000E+00 -0.13676736473E+04  0.13676736473E+04  0.50400001928E-02 0. -1.
    10030    2    1    2    0    0  0.00000000000E+00  0.00000000000E+00 -0.59059960572E+03  0.21447476889E+04  0.20618280129E+04 0.  0.
        5    1    3    3  502    0  0.31373803562E+03  0.75190574427E+03  0.36174153353E+03  0.89144423849E+03  0.46999998093E+01 0.  1.
       -5    1    3    3    0  502 -0.31373803562E+03 -0.75190574427E+03 -0.95234113925E+03  0.12533034504E+04  0.46999998093E+01 0. -1.
</event>
<event>
 5   0  0.1281470E-04  0.2087782E+04  0.7818609E-02  0.8566645E-01
        2   -1    0    0  501    0  0.00000000000E+00  0.00000000000E+00  0.24919828545E+04  0.24919828545E+04  0.25500000920E-02 0.  1.
       -2   -1    0    0    0  501  0.00000000000E+00  0.00000000000E+00 -0.43728571264E+03  0.43728571264E+03  0.25500000920E-02 0. -1.
    10030    2    1    2    0    0  0.00000000000E+00  0.00000000000E+00  0.20546971419E+04  0.29292685672E+04  0.20877820753E+04 0.  0.
        3    1    3    3  502    0  0.75775947040E+03 -0.15919089994E+03  0.20096532392E+04  0.21536590514E+04  0.10100000352E+00 0.  1.
       -3    1    3    3    0  502 -0.75775947040E+03  0.15919089994E+03  0.45043902689E+02  0.77560951578E+03  0.10100000352E+00 0. -1.
</event>
<event>
 5   0  0.6052292E-05  0.2121683E+04  0.7818609E-02  0.8551751E-01
        1   -1    0    0  501    0  0.00000000000E+00  0.00000000000E+00  0.12412319730E+04  0.12412319730E+04  0.50400001928E-02 0.  1.
       -1   -1    0    0    0  501  0.00000000000E+00  0.00000000000E+00 -0.90666769863E+03  0.90666769864E+03  0.50400001928E-02 0. -1.
    10030    2    1    2    0    0  0.00000000000E+00  0.00000000000E+00  0.33456427440E+03  0.21478996717E+04  0.21216832341E+04 0.  0.
        1    1    3    3  502    0 -0.88636399624E+03 -0.17292459350E+03  0.73079367313E+03  0.11617243398E+04  0.50400001928E-02 0.  1.
       -1    1    3    3    0  502  0.88636399624E+03  0.17292459350E+03 -0.39622939872E+03  0.98617533193E+03  0.50400001928E-02 0. -1.
</event>
<event>
 5   0  0.1235817E-04  0.2117889E+04  0.7818609E-02  0.8553404E-01
       -2   -1    0    0    0  501  0.00000000000E+00  0.00000000000E+00  0.65098541611E+03  0.65098541611E+03  0.25500000920E-02 0.  1.
        2   -1    0    0  501    0  0.00000000000E+00  0.00000000000E+00 -0.17225634027E+04  0.17225634027E+04  0.25500000920E-02 0. -1.
    10030    2    1    2    0    0  0.00000000000E+00  0.00000000000E+00 -0.10715779866E+04  0.23735488188E+04  0.21178891883E+04 0.  0.
        1    1    3    3  502    0  0.42171233570E+03  0.70494518510E+03  0.21314228078E+03  0.84865696248E+03  0.50400001928E-02 0.  1.
       -1    1    3    3    0  502 -0.42171233570E+03 -0.70494518510E+03 -0.12847202673E+04  0.15248918563E+04  0.50400001928E-02 0. -1.
</event>
<event>
 5   0  0.6263616E-05  0.2364439E+04  0.7818609E-02  0.8452938E-01
       -1   -1    0    0    0  501  0.00000000000E+00  0.00000000000E+00  0.55188339125E+03  0.55188339128E+03  0.50400001928E-02 0.  1.
        1   -1    0    0  501    0  0.00000000000E+00  0.00000000000E+00 -0.25324971901E+04  0.25324971901E+04  0.50400001928E-02 0. -1.
    10030    2    1    2    0    0  0.00000000000E+00  0.00000000000E+00 -0.19806137989E+04  0.30843805814E+04  0.23644391620E+04 0.  0.
        4    1    3    3  502    0  0.77634458012E+03  0.23536840785E+03  0.13150075437E+03  0.82182921328E+03  0.12699999809E+01 0.  1.
       -4    1    3    3    0  502 -0.77634458012E+03 -0.23536840785E+03 -0.21121145532E+04  0.22625513681E+04  0.12699999809E+01 0. -1.
</event>
<event>
 5   0  0.5846187E-05  0.1787906E+04  0.7818609E-02  0.8712757E-01
        1   -1    0    0  501    0  0.00000000000E+00  0.00000000000E+00  0.55366623501E+03  0.55366623503E+03  0.50400001928E-02 0.  1.
       -1   -1    0    0    0  501  0.00000000000E+00  0.00000000000E+00 -0.14433825892E+04  0.14433825892E+04  0.50400001928E-02 0. -1.
    10030    2    1    2    0    0  0.00000000000E+00  0.00000000000E+00 -0.88971635421E+03  0.19970488243E+04  0.17879062659E+04 0.  0.
        5    1    3    3  502    0  0.53723438534E+03  0.97992798096E+02 -0.12353954920E+04  0.13507210981E+04  0.46999998093E+01 0. -1.
       -5    1    3    3    0  502 -0.53723438534E+03 -0.97992798096E+02  0.34567913778E+03  0.64632772613E+03  0.46999998093E+01 0.  1.
</event>
<event>
 5   0  0.5933905E-05  0.2134291E+04  0.7818609E-02  0.8546287E-01
        1   -1    0    0  501    0  0.00000000000E+00  0.00000000000E+00  0.18964973018E+04  0.18964973018E+04  0.50400001928E-02 0. -1.
       -1   -1    0    0    0  501  0.00000000000E+00  0.00000000000E+00 -0.60047495580E+03  0.60047495583E+03  0.50400001928E-02 0.  1.
    10030    2    1    2    0    0  0.00000000000E+00  0.00000000000E+00  0.12960223460E+04  0.24969722576E+04  0.21342906395E+04 0.  0.
        2    1    3    3  502    0 -0.29313842171E+02  0.10656239612E+04  0.59087103869E+03  0.12188282539E+04  0.25500000920E-02 0. -1.
       -2    1    3    3    0  502  0.29313842171E+02 -0.10656239612E+04  0.70515130727E+03  0.12781440037E+04  0.25500000920E-02 0.  1.
</event>
<event>
 5   0  0.5933905E-05  0.2097352E+04  0.7818609E-02  0.8562411E-01
        1   -1    0    0  501    0  0.00000000000E+00  0.00000000000E+00  0.11138407114E+04  0.11138407114E+04  0.50400001928E-02 0.  1.
       -1   -1    0    0    0  501  0.00000000000E+00  0.00000000000E+00 -0.98732365540E+03  0.98732365541E+03  0.50400001928E-02 0. -1.
    10030    2    1    2    0    0  0.00000000000E+00  0.00000000000E+00  0.12651705603E+03  0.21011643668E+04  0.20973519330E+04 0.  0.
        2    1    3    3  502    0  0.12194782990E+03 -0.62943759175E+03  0.89462138637E+03  0.11006408951E+04  0.25500000920E-02 0.  1.
       -2    1    3    3    0  502 -0.12194782990E+03  0.62943759175E+03 -0.76810433034E+03  0.10005234717E+04  0.25500000920E-02 0. -1.
</event>
<event>
 5   0  0.5846187E-05  0.1961766E+04  0.7818609E-02  0.8624708E-01
       -1   -1    0    0    0  501  0.00000000000E+00  0.00000000000E+00  0.76418692326E+03  0.76418692328E+03  0.50400001928E-02 0.  1.
        1   -1    0    0  501    0  0.00000000000E+00  0.00000000000E+00 -0.12590265271E+04  0.12590265271E+04  0.50400001928E-02 0. -1.
    10030    2    1    2    0    0  0.00000000000E+00  0.00000000000E+00 -0.49483960383E+03  0.20232134504E+04  0.19617661513E+04 0.  0.
        5    1    3    3  502    0  0.30154686147E+03  0.57257423492E+03 -0.10076225028E+04  0.11975378751E+04  0.46999998093E+01 0. -1.
       -5    1    3    3    0  502 -0.30154686147E+03 -0.57257423492E+03  0.51278289896E+03  0.82567557529E+03  0.46999998093E+01 0.  1.
</event>
<event>
 5   0  0.1349252E-04  0.2162154E+04  0.7818609E-02  0.8534347E-01
        2   -1    0    0  501    0  0.00000000000E+00  0.00000000000E+00  0.11830629346E+04  0.11830629347E+04  0.25500000920E-02 0.  1.
       -2   -1    0    0    0  501  0.00000000000E+00  0.00000000000E+00 -0.98788310641E+03  0.98788310641E+03  0.25500000920E-02 0. -1.
    10030    2    1    2    0    0  0.00000000000E+00  0.00000000000E+00  0.19517982824E+03  0.21709460411E+04  0.21621543765E+04 0.  0.
        2    1    3    3  502    0  0.37665521808E+03  0.34264213424E+03  0.10551211758E+04  0.11715602763E+04  0.25500000920E-02 0.  1.
       -2    1    3    3    0  502 -0.37665521808E+03 -0.34264213424E+03 -0.85994134757E+03  0.99938576472E+03  0.25500000920E-02 0. -1.
</event>
<event>
 5   0  0.6052292E-05  0.2113420E+04  0.7818609E-02  0.8555355E-01
       -1   -1    0    0    0  501  0.00000000000E+00  0.00000000000E+00  0.46502347533E+03  0.46502347536E+03  0.50400001928E-02 0.  1.
        1   -1    0    0  501    0  0.00000000000E+00  0.00000000000E+00 -0.24012463082E+04  0.24012463082E+04  0.50400001928E-02 0. -1.
    10030    2    1    2    0    0  0.00000000000E+00  0.00000000000E+00 -0.19362228329E+04  0.28662697836E+04  0.21134198858E+04 0.  0.
        1    1    3    3  502    0  0.68575613116E+02  0.95791828358E+03 -0.37025545437E+03  0.10292711762E+04  0.50400001928E-02 0.  1.
       -1    1    3    3    0  502 -0.68575613116E+02 -0.95791828358E+03 -0.15659673785E+04  0.18369986073E+04  0.50400001928E-02 0. -1.
</event>
<event>
 5   0  0.6052292E-05  0.2094575E+04  0.7818609E-02  0.8563637E-01
        1   -1    0    0  501    0  0.00000000000E+00  0.00000000000E+00  0.96804146464E+03  0.96804146465E+03  0.50400001928E-02 0.  1.
       -1   -1    0    0    0  501  0.00000000000E+00  0.00000000000E+00 -0.11330204632E+04  0.11330204632E+04  0.50400001928E-02 0. -1.
    10030    2    1    2    0    0  0.00000000000E+00  0.00000000000E+00 -0.16497899858E+03  0.21010619279E+04  0.20945746954E+04 0.  0.
        1    1    3    3  502    0  0.10395432360E+04  0.86346074189E+02  0.11100081712E+02  0.10431821490E+04  0.50400001928E-02 0. -1.
       -1    1    3    3    0  502 -0.10395432360E+04 -0.86346074189E+02 -0.17607908029E+03  0.10578797789E+04  0.50400001928E-02 0.  1.
</event>
<event>
 5   0  0.6052292E-05  0.2079896E+04  0.7818609E-02  0.8570151E-01
        1   -1    0    0  501    0  0.00000000000E+00  0.00000000000E+00  0.80288294185E+03  0.80288294187E+03  0.50400001928E-02 0.  1.
       -1   -1    0    0    0  501  0.00000000000E+00  0.00000000000E+00 -0.13470105329E+04  0.13470105329E+04  0.50400001928E-02 0. -1.
    10030    2    1    2    0    0  0.00000000000E+00  0.00000000000E+00 -0.54412759103E+03  0.21498934748E+04  0.20798959391E+04 0.  0.
        1    1    3    3  502    0  0.30590200556E+03 -0.73960560792E+03  0.41428524812E+03  0.90123512976E+03  0.50400001928E-02 0.  1.
       -1    1    3    3    0  502 -0.30590200556E+03  0.73960560792E+03 -0.95841283915E+03  0.12486583450E+04  0.50400001928E-02 0. -1.
</event>
<event>
 5   0  0.1252477E-04  0.2097931E+04  0.7818609E-02  0.8562155E-01
        2   -1    0    0  501    0  0.00000000000E+00  0.00000000000E+00  0.80021649543E+03  0.80021649544E+03  0.25500000920E-02 0. -1.
       -2   -1    0    0    0  501  0.00000000000E+00  0.00000000000E+00 -0.13750392500E+04  0.13750392500E+04  0.25500000920E-02 0.  1.
    10030    2    1    2    0    0  0.00000000000E+00  0.00000000000E+00 -0.57482275456E+03  0.21752557454E+04  0.20979314476E+04 0.  0.
        4    1    3    3  502    0  0.18533868759E+03 -0.55544130600E+03 -0.11898121478E+04  0.13260920155E+04  0.12699999809E+01 0.  1.
       -4    1    3    3    0  502 -0.18533868759E+03  0.55544130600E+03  0.61498939326E+03  0.84916372995E+03  0.12699999809E+01 0. -1.
</event>
<event>
 5   0  0.6221148E-05  0.2094352E+04  0.7818609E-02  0.8563735E-01
       -1   -1    0    0    0  501  0.00000000000E+00  0.00000000000E+00  0.14269216015E+04  0.14269216015E+04  0.50400001928E-02 0.  1.
        1   -1    0    0  501    0  0.00000000000E+00  0.00000000000E+00 -0.76849206272E+03  0.76849206274E+03  0.50400001928E-02 0. -1.
    10030    2    1    2    0    0  0.00000000000E+00  0.00000000000E+00  0.65842953879E+03  0.21954136643E+04  0.20943523342E+04 0.  0.
        3    1    3    3  502    0  0.31434512473E+03  0.98945257872E+03  0.18568181017E+03  0.10546596644E+04  0.10100000352E+00 0. -1.
       -3    1    3    3    0  502 -0.31434512473E+03 -0.98945257872E+03  0.47274772863E+03  0.11407539998E+04  0.10100000352E+00 0.  1.
</event>
<event>
 5   0  0.1252477E-04  0.2117866E+04  0.7818609E-02  0.8553414E-01
       -2   -1    0    0    0  501  0.00000000000E+00  0.00000000000E+00  0.81744596906E+03  0.81744596906E+03  0.25500000920E-02 0.  1.
        2   -1    0    0  501    0  0.00000000000E+00  0.00000000000E+00 -0.13717588793E+04  0.13717588793E+04  0.25500000920E-02 0. -1.
    10030    2    1    2    0    0  0.00000000000E+00  0.00000000000E+00 -0.55431291022E+03  0.21892048483E+04  0.21178656864E+04 0.  0.
        4    1    3    3  502    0  0.62547153548E+03 -0.47621679116E+03  0.45620612122E+03  0.90891292863E+03  0.12699999809E+01 0.  1.
       -4    1    3    3    0  502 -0.62547153548E+03  0.47621679116E+03 -0.10105190314E+04  0.12802919197E+04  0.12699999809E+01 0. -1.
</event>
<event>
 5   0  0.1281470E-04  0.1915861E+04  0.7818609E-02  0.8647002E-01
        2   -1    0    0  501    0  0.00000000000E+00  0.00000000000E+00  0.13665495213E+04  0.13665495213E+04  0.25500000920E-02 0.  1.
       -2   -1    0    0    0  501  0.00000000000E+00  0.00000000000E+00 -0.67149445163E+03  0.67149445164E+03  0.25500000920E-02 0. -1.
    10030    2    1    2    0    0  0.00000000000E+00  0.00000000000E+00  0.69505506965E+03  0.20380439729E+04  0.19158605601E+04 0.  0.
        3    1    3    3  502    0  0.74802284792E+03 -0.47523820996E+03 -0.39313475122E+02  0.88709362344E+03  0.10100000352E+00 0.  1.
       -3    1    3    3    0  502 -0.74802284792E+03  0.47523820996E+03  0.73436854478E+03  0.11509503495E+04  0.10100000352E+00 0. -1.
</event>
<event>
 5   0  0.1235817E-04  0.2133074E+04  0.7818609E-02  0.8546812E-01
        2   -1    0    0  501    0  0.00000000000E+00  0.00000000000E+00  0.87462062183E+03  0.87462062183E+03  0.25500000920E-02 0.  1.
       -2   -1    0    0    0  501  0.00000000000E+00  0.00000000000E+00 -0.13005654322E+04  0.13005654322E+04  0.25500000920E-02 0. -1.
    10030    2    1    2    0    0  0.00000000000E+00  0.00000000000E+00 -0.42594481032E+03  0.21751860540E+04  0.21330741637E+04 0.  0.
        1    1    3    3  502    0 -0.72043382887E+02 -0.11104812877E+03 -0.12921563463E+04  0.12989187654E+04  0.50400001928E-02 0. -1.
       -1    1    3    3    0  502  0.72043382887E+02  0.11104812877E+03  0.86621153596E+03  0.87626728855E+03  0.50400001928E-02 0.  1.
</event>
<event>
 5   0  0.1252477E-04  0.2132945E+04  0.7818609E-02  0.8546868E-01
       -2   -1    0    0    0  501  0.00000000000E+00  0.00000000000E+00  0.68483226605E+03  0.68483226605E+03  0.25500000920E-02 0.  1.
        2   -1    0    0  501    0  0.00000000000E+00  0.00000000000E+00 -0.16607920429E+04  0.16607920429E+04  0.25500000920E-02 0. -1.
    10030    2    1    2    0    0  0.00000000000E+00  0.00000000000E+00 -0.97595977684E+03  0.23456243089E+04  0.21329453609E+04 0.  0.
        4    1    3    3  502    0 -0.54665623556E+03  0.81585601172E+03 -0.94526455149E+03  0.13630776782E+04  0.12699999809E+01 0. -1.
       -4    1    3    3    0  502  0.54665623556E+03 -0.81585601172E+03 -0.30695225353E+02  0.98254663070E+03  0.12699999809E+01 0.  1.
</event>
<event>
 5   0  0.6221148E-05  0.2101619E+04  0.7818609E-02  0.8560531E-01
        1   -1    0    0  501    0  0.00000000000E+00  0.00000000000E+00  0.12584137618E+04  0.12584137618E+04  0.50400001928E-02 0. -1.
       -1   -1    0    0    0  501  0.00000000000E+00  0.00000000000E+00 -0.87745428850E+03  0.87745428852E+03  0.50400001928E-02 0.  1.
    10030    2    1    2    0    0  0.00000000000E+00  0.00000000000E+00  0.38095947328E+03  0.21358680503E+04  0.21016189493E+04 0.  0.
        3    1    3    3  502    0 -0.62980141146E+03  0.57408199838E+03 -0.43434064678E+03  0.95648929236E+03  0.10100000352E+00 0.  1.
       -3    1    3    3    0  502  0.62980141146E+03 -0.57408199838E+03  0.81530012006E+03  0.11793787580E+04  0.10100000352E+00 0. -1.
</event>
<event>
 5   0  0.1281470E-04  0.2113311E+04  0.7818609E-02  0.8555403E-01
       -2   -1    0    0    0  501  0.00000000000E+00  0.00000000000E+00  0.64393665869E+03  0.64393665869E+03  0.25500000920E-02 0. -1.
        2   -1    0    0  501    0  0.00000000000E+00  0.00000000000E+00 -0.17338977967E+04  0.17338977967E+04  0.25500000920E-02 0.  1.
    10030    2    1    2    0    0  0.00000000000E+00  0.00000000000E+00 -0.10899611380E+04  0.23778344554E+04  0.21133105344E+04 0.  0.
        3    1    3    3  502    0 -0.34371706995E+02 -0.78743563602E+03 -0.13368352135E+04  0.15518906834E+04  0.10100000352E+00 0.  1.
       -3    1    3    3    0  502  0.34371706995E+02  0.78743563602E+03  0.24687407546E+03  0.82594377197E+03  0.10100000352E+00 0. -1.
</event>
<event>
 5   0  0.6221148E-05  0.2122508E+04  0.7818609E-02  0.8551393E-01
       -1   -1    0    0    0  501  0.00000000000E+00  0.00000000000E+00  0.14292237381E+04  0.14292237381E+04  0.50400001928E-02 0.  1.
        1   -1    0    0  501    0  0.00000000000E+00  0.00000000000E+00 -0.78802216990E+03  0.78802216992E+03  0.50400001928E-02 0. -1.
    10030    2    1    2    0    0  0.00000000000E+00  0.00000000000E+00  0.64120156821E+03  0.22172459080E+04  0.21225079424E+04 0.  0.
        3    1    3    3  502    0  0.27754092340E+03 -0.10072415407E+04  0.51518207796E+03  0.11648935870E+04  0.10100000352E+00 0.  1.
       -3    1    3    3    0  502 -0.27754092340E+03  0.10072415407E+04  0.12601949025E+03  0.10523523210E+04  0.10100000352E+00 0. -1.
</event>
<event>
 5   0  0.1252477E-04  0.2099293E+04  0.7818609E-02  0.8561555E-01
       -2   -1    0    0    0  501  0.00000000000E+00  0.00000000000E+00  0.66794731832E+03  0.66794731832E+03  0.25500000920E-02 0.  1.
        2   -1    0    0  501    0  0.00000000000E+00  0.00000000000E+00 -0.16494680766E+04  0.16494680766E+04  0.25500000920E-02 0. -1.
    10030    2    1    2    0    0  0.00000000000E+00  0.00000000000E+00 -0.98152075831E+03  0.23174153950E+04  0.20992930033E+04 0.  0.
        4    1    3    3  502    0  0.99556938404E+02  0.10088276712E+04 -0.79128017017E+03  0.12859901924E+04  0.12699999809E+01 0. -1.
       -4    1    3    3    0  502 -0.99556938404E+02 -0.10088276712E+04 -0.19024058814E+03  0.10314252026E+04  0.12699999809E+01 0.  1.
</event>
<event>
 5   0  0.1349252E-04  0.2127606E+04  0.7818609E-02  0.8549179E-01
       -2   -1    0    0    0  501  0.00000000000E+00  0.00000000000E+00  0.33891357036E+03  0.33891357037E+03  0.25500000920E-02 0.  1.
        2   -1    0    0  501    0  0.00000000000E+00  0.00000000000E+00 -0.33391311172E+04  0.33391311172E+04  0.25500000920E-02 0. -1.
    10030    2    1    2    0    0  0.00000000000E+00  0.00000000000E+00 -0.30002175469E+04  0.36780446876E+04  0.21276060245E+04 0.  0.
        2    1    3    3  502    0 -0.20824960459E+03  0.98724895856E+03 -0.91732488231E+03  0.13636397412E+04  0.25500000920E-02 0.  1.
       -2    1    3    3    0  502  0.20824960459E+03 -0.98724895856E+03 -0.20828926645E+04  0.23144049464E+04  0.25500000920E-02 0. -1.
</event>
<event>
 5   0  0.1235817E-04  0.1981153E+04  0.7818609E-02  0.8615483E-01
       -2   -1    0    0    0  501  0.00000000000E+00  0.00000000000E+00  0.81439666924E+03  0.81439666924E+03  0.25500000920E-02 0.  1.
        2   -1    0    0  501    0  0.00000000000E+00  0.00000000000E+00 -0.12048697951E+04  0.12048697951E+04  0.25500000920E-02 0. -1.
    10030    2    1    2    0    0  0.00000000000E+00  0.00000000000E+00 -0.39047312583E+03  0.20192664643E+04  0.19811531470E+04 0.  0.
        1    1    3    3  502    0 -0.90137132649E+03  0.35069538190E+03 -0.41332592614E+03  0.10518059899E+04  0.50400001928E-02 0.  1.
       -1    1    3    3    0  502  0.90137132649E+03 -0.35069538190E+03  0.22852800302E+02  0.96746047444E+03  0.50400001928E-02 0. -1.
</event>
<event>
 5   0  0.1281470E-04  0.2053683E+04  0.7818609E-02  0.8581925E-01
        2   -1    0    0  501    0  0.00000000000E+00  0.00000000000E+00  0.94204729209E+03  0.94204729210E+03  0.25500000920E-02 0. -1.
       -2   -1    0    0    0  501  0.00000000000E+00  0.00000000000E+00 -0.11192678716E+04  0.11192678716E+04  0.25500000920E-02 0.  1.
    10030    2    1    2    0    0  0.00000000000E+00  0.00000000000E+00 -0.17722057952E+03  0.20613151637E+04  0.20536828067E+04 0.  0.
        3    1    3    3  502    0  0.39666139741E+03  0.51991524963E+03  0.70600806481E+03  0.96234065111E+03  0.10100000352E+00 0. -1.
       -3    1    3    3    0  502 -0.39666139741E+03 -0.51991524963E+03 -0.88322864433E+03  0.10989745126E+04  0.10100000352E+00 0.  1.
</event>
<event>
 5   0  0.1349252E-04  0.2099205E+04  0.7818609E-02  0.8561594E-01
       -2   -1    0    0    0  501  0.00000000000E+00  0.00000000000E+00  0.79816855806E+03  0.79816855806E+03  0.25500000920E-02 0. -1.
        2   -1    0    0  501    0  0.00000000000E+00  0.00000000000E+00 -0.13802409264E+04  0.13802409264E+04  0.25500000920E-02 0.  1.
    10030    2    1    2    0    0  0.00000000000E+00  0.00000000000E+00 -0.58207236838E+03  0.21784094845E+04  0.20992045256E+04 0.  0.
        2    1    3    3  502    0 -0.17364345798E+03  0.84226312961E+03 -0.91549303401E+03  0.12560600007E+04  0.25500000920E-02 0.  1.
       -2    1    3    3    0  502  0.17364345798E+03 -0.84226312961E+03  0.33342066564E+03  0.92234948381E+03  0.25500000920E-02 0. -1.
</event>
<event>
 5   0  0.5933905E-05  0.2091788E+04  0.7818609E-02  0.8564870E-01
        1   -1    0    0  501    0  0.00000000000E+00  0.00000000000E+00  0.91685677657E+03  0.91685677658E+03  0.50400001928E-02 0.  1.
       -1   -1    0    0    0  501  0.00000000000E+00  0.00000000000E+00 -0.11930914218E+04  0.11930914218E+04  0.50400001928E-02 0. -1.
    10030    2    1    2    0    0  0.00000000000E+00  0.00000000000E+00 -0.27623464520E+03  0.21099481984E+04  0.20917877092E+04 0.  0.
        2    1    3    3  502    0  0.45935821634E+03  0.90519220421E+03  0.11608461622E+03  0.10216939540E+04  0.25500000920E-02 0.  1.
       -2    1    3    3    0  502 -0.45935821634E+03 -0.90519220421E+03 -0.39231926142E+03  0.10882542444E+04  0.25500000920E-02 0. -1.
</event>
<event>
 5   0  0.5933905E-05  0.2041355E+04  0.7818609E-02  0.8587526E-01
       -1   -1    0    0    0  501  0.00000000000E+00  0.00000000000E+00  0.71512565623E+03  0.71512565624E+03  0.50400001928E-02 0. -1.
        1   -1    0    0  501    0  0.00000000000E+00  0.00000000000E+00 -0.14567826133E+04  0.14567826133E+04  0.50400001928E-02 0.  1.
    10030    2    1    2    0    0  0.00000000000E+00  0.00000000000E+00 -0.74165695703E+03  0.21719082695E+04  0.20413550620E+04 0.  0.
        2    1    3    3  502    0 -0.53029603589E+03 -0.56090832611E+03  0.33967514715E+03  0.84333341068E+03  0.25500000920E-02 0. -1.
       -2    1    3    3    0  502  0.53029603589E+03  0.56090832611E+03 -0.10813321042E+04  0.13285748588E+04  0.25500000920E-02 0.  1.
</event>
<event>
 5   0  0.6263616E-05  0.2077587E+04  0.7818609E-02  0.8571181E-01
       -1   -1    0    0    0  501  0.00000000000E+00  0.00000000000E+00  0.52689690147E+03  0.52689690150E+03  0.50400001928E-02 0.  1.
        1   -1    0    0  501    0  0.00000000000E+00  0.00000000000E+00 -0.20480139512E+04  0.20480139512E+04  0.50400001928E-02 0. -1.
    10030    2    1    2    0    0  0.00000000000E+00  0.00000000000E+00 -0.15211170497E+04  0.25749108527E+04  0.20775872594E+04 0.  0.
        4    1    3    3  502    0 -0.33142466405E+03  0.83017916144E+03 -0.14164339631E+04  0.16749109029E+04  0.12699999809E+01 0. -1.
       -4    1    3    3    0  502  0.33142466405E+03 -0.83017916144E+03 -0.10468308660E+03  0.89999994975E+03  0.12699999809E+01 0.  1.
</event>
<event>
 5   0  0.5846187E-05  0.2096397E+04  0.7818609E-02  0.8562832E-01
        1   -1    0    0  501    0  0.00000000000E+00  0.00000000000E+00  0.77922479639E+03  0.77922479641E+03  0.50400001928E-02 0.  1.
       -1   -1    0    0    0  501  0.00000000000E+00  0.00000000000E+00 -0.14100167082E+04  0.14100167082E+04  0.50400001928E-02 0. -1.
    10030    2    1    2    0    0  0.00000000000E+00  0.00000000000E+00 -0.63079191180E+03  0.21892415046E+04  0.20963968922E+04 0.  0.
        5    1    3    3  502    0  0.24739503400E+03  0.71025702391E+03 -0.10778179239E+04  0.13142993989E+04  0.46999998093E+01 0. -1.
       -5    1    3    3    0  502 -0.24739503400E+03 -0.71025702391E+03  0.44702601209E+03  0.87494210572E+03  0.46999998093E+01 0.  1.
</event>
<event>
 5   0  0.5846187E-05  0.2108689E+04  0.7818609E-02  0.8557425E-01
       -1   -1    0    0    0  501  0.00000000000E+00  0.00000000000E+00  0.96115128254E+03  0.96115128255E+03  0.50400001928E-02 0.  1.
        1   -1    0    0  501    0  0.00000000000E+00  0.00000000000E+00 -0.11565739420E+04  0.11565739420E+04  0.50400001928E-02 0. -1.
    10030    2    1    2    0    0  0.00000000000E+00  0.00000000000E+00 -0.19542265943E+03  0.21177252245E+04  0.21086891925E+04 0.  0.
        5    1    3    3  502    0  0.20551722779E+02  0.77055510372E+02 -0.11535300660E+04  0.11562930546E+04  0.46999998093E+01 0. -1.
       -5    1    3    3    0  502 -0.20551722779E+02 -0.77055510372E+02  0.95810740653E+03  0.96143216996E+03  0.46999998093E+01 0.  1.
</event>
<event>
 5   0  0.1281470E-04  0.1746434E+04  0.7818609E-02  0.8735316E-01
        2   -1    0    0  501    0  0.00000000000E+00  0.00000000000E+00  0.72147349809E+03  0.72147349810E+03  0.25500000920E-02 0. -1.
       -2   -1    0    0    0  501  0.00000000000E+00  0.00000000000E+00 -0.10568761451E+04  0.10568761452E+04  0.25500000920E-02 0.  1.
    10030    2    1    2    0    0  0.00000000000E+00  0.00000000000E+00 -0.33540264706E+03  0.17783496432E+04  0.17464342295E+04 0.  0.
        3    1    3    3  502    0  0.78114253498E+03  0.38890848896E+03 -0.13432044639E+03  0.88287907737E+03  0.10100000352E+00 0. -1.
       -3    1    3    3    0  502 -0.78114253498E+03 -0.38890848896E+03 -0.20108220067E+03  0.89547056588E+03  0.10100000352E+00 0.  1.
</event>
<event>
 5   0  0.1281470E-04  0.1989866E+04  0.7818609E-02  0.8611373E-01
        2   -1    0    0  501    0  0.00000000000E+00  0.00000000000E+00  0.61917758563E+03  0.61917758564E+03  0.25500000920E-02 0. -1.
       -2   -1    0    0    0  501  0.00000000000E+00  0.00000000000E+00 -0.15987198929E+04  0.15987198929E+04  0.25500000920E-02 0.  1.
    10030    2    1    2    0    0  0.00000000000E+00  0.00000000000E+00 -0.97954230729E+03  0.22178974786E+04  0.19898658482E+04 0.  0.
        3    1    3    3  502    0  0.28008757953E+03  0.65604190529E+03 -0.12628315876E+04  0.14503736286E+04  0.10100000352E+00 0. -1.
       -3    1    3    3    0  502 -0.28008757953E+03 -0.65604190529E+03  0.28328928032E+03  0.76752384996E+03  0.10100000352E+00 0.  1.
</event>
<event>
 5   0  0.5846187E-05  0.2130042E+04  0.7818609E-02  0.8548124E-01
        1   -1    0    0  501    0  0.00000000000E+00  0.00000000000E+00  0.14009265968E+04  0.14009265968E+04  0.50400001928E-02 0.  1.
       -1   -1    0    0    0  501  0.00000000000E+00  0.00000000000E+00 -0.80965662703E+03  0.80965662705E+03  0.50400001928E-02 0. -1.
    10030    2    1    2    0    0  0.00000000000E+00  0.00000000000E+00  0.59126996973E+03  0.22105832238E+04  0.21300417865E+04 0.  0.
        5    1    3    3  502    0 -0.15375311073E+03  0.24234131337E+03 -0.76875664161E+03  0.82059624374E+03  0.46999998093E+01 0. -1.
       -5    1    3    3    0  502  0.15375311073E+03 -0.24234131337E+03  0.13600266113E+04  0.13899869801E+04  0.46999998093E+01 0.  1.
</event>
<event>
 5   0  0.1235817E-04  0.2096560E+04  0.7818609E-02  0.8562760E-01
        2   -1    0    0  501    0  0.00000000000E+00  0.00000000000E+00  0.64346314940E+03  0.64346314940E+03  0.25500000920E-02 0. -1.
       -2   -1    0    0    0  501  0.00000000000E+00  0.00000000000E+00 -0.17077767058E+04  0.17077767058E+04  0.25500000920E-02 0.  1.
    10030    2    1    2    0    0  0.00000000000E+00  0.00000000000E+00 -0.10643135564E+04  0.23512398552E+04  0.20965603999E+04 0.  0.
        1    1    3    3  502    0 -0.43846810422E+03 -0.92599836537E+02  0.53062183349E+03  0.69454196298E+03  0.50400001928E-02 0. -1.
       -1    1    3    3    0  502  0.43846810422E+03  0.92599836537E+02 -0.15949353899E+04  0.16566978922E+04  0.50400001928E-02 0.  1.
</event>
<event>
 5   0  0.5933905E-05  0.2154736E+04  0.7818609E-02  0.8537508E-01
       -1   -1    0    0    0  501  0.00000000000E+00  0.00000000000E+00  0.10393037731E+04  0.10393037731E+04  0.50400001928E-02 0.  1.
        1   -1    0    0  501    0  0.00000000000E+00  0.00000000000E+00 -0.11168267812E+04  0.11168267812E+04  0.50400001928E-02 0. -1.
    10030    2    1    2    0    0  0.00000000000E+00  0.00000000000E+00 -0.77523008144E+02  0.21561305543E+04  0.21547364457E+04 0.  0.
        2    1    3    3  502    0 -0.34373690156E+03 -0.65052069188E+03 -0.82628407913E+03  0.11063804081E+04  0.25500000920E-02 0. -1.
       -2    1    3    3    0  502  0.34373690156E+03  0.65052069188E+03  0.74876107099E+03  0.10497501462E+04  0.25500000920E-02 0.  1.
</event>
<event>
 5   0  0.1281470E-04  0.1893675E+04  0.7818609E-02  0.8658011E-01
        2   -1    0    0  501    0  0.00000000000E+00  0.00000000000E+00  0.56376302266E+03  0.56376302266E+03  0.25500000920E-02 0. -1.
       -2   -1    0    0    0  501  0.00000000000E+00  0.00000000000E+00 -0.15902086053E+04  0.15902086053E+04  0.25500000920E-02 0.  1.
    10030    2    1    2    0    0  0.00000000000E+00  0.00000000000E+00 -0.10264455827E+04  0.21539716280E+04  0.18936745338E+04 0.  0.
        3    1    3    3  502    0  0.56675512606E+03 -0.15136715436E+03 -0.13586040097E+04  0.14798406176E+04  0.10100000352E+00 0.  1.
       -3    1    3    3    0  502 -0.56675512606E+03  0.15136715436E+03  0.33215842698E+03  0.67413101037E+03  0.10100000352E+00 0. -1.
</event>
<event>
 5   0  0.1252477E-04  0.2169943E+04  0.7818609E-02  0.8531044E-01
       -2   -1    0    0    0  501  0.00000000000E+00  0.00000000000E+00  0.78205406624E+03  0.78205406624E+03  0.25500000920E-02 0. -1.
        2   -1    0    0  501    0  0.00000000000E+00  0.00000000000E+00 -0.15052197477E+04  0.15052197477E+04  0.25500000920E-02 0.  1.
    10030    2    1    2    0    0  0.00000000000E+00  0.00000000000E+00 -0.72316568145E+03  0.22872738139E+04  0.21699430631E+04 0.  0.
        4    1    3    3  502    0 -0.95303682381E+03  0.18864578753E+02 -0.90779760702E+03  0.13163332284E+04  0.12699999809E+01 0.  1.
       -4    1    3    3    0  502  0.95303682381E+03 -0.18864578753E+02  0.18463192558E+03  0.97094058557E+03  0.12699999809E+01 0. -1.
</event>
<event>
 5   0  0.1325673E-04  0.2083976E+04  0.7818609E-02  0.8568335E-01
        2   -1    0    0  501    0  0.00000000000E+00  0.00000000000E+00  0.21800096900E+04  0.21800096900E+04  0.25500000920E-02 0.  1.
       -2   -1    0    0    0  501  0.00000000000E+00  0.00000000000E+00 -0.49804321629E+03  0.49804321629E+03  0.25500000920E-02 0. -1.
    10030    2    1    2    0    0  0.00000000000E+00  0.00000000000E+00  0.16819664737E+04  0.26780529063E+04  0.20839760436E+04 0.  0.
        5    1    3    3  502    0 -0.39777980458E+03 -0.34127710896E+03  0.19982719197E+04  0.20658682420E+04  0.46999998093E+01 0.  1.
       -5    1    3    3    0  502  0.39777980458E+03  0.34127710896E+03 -0.31630544602E+03  0.61218466431E+03  0.46999998093E+01 0. -1.
</event>
<event>
 5   0  0.6052292E-05  0.1853280E+04  0.7818609E-02  0.8678468E-01
        1   -1    0    0  501    0  0.00000000000E+00  0.00000000000E+00  0.17433648078E+04  0.17433648078E+04  0.50400001928E-02 0. -1.
       -1   -1    0    0    0  501  0.00000000000E+00  0.00000000000E+00 -0.49253143052E+03  0.49253143055E+03  0.50400001928E-02 0.  1.
    10030    2    1    2    0    0  0.00000000000E+00  0.00000000000E+00  0.12508333773E+04  0.22358962384E+04  0.18532802948E+04 0.  0.
        1    1    3    3  502    0  0.71310498723E+03  0.11758236953E+03  0.13250739597E+04  0.15093592465E+04  0.50400001928E-02 0. -1.
       -1    1    3    3    0  502 -0.71310498723E+03 -0.11758236953E+03 -0.74240582379E+02  0.72653699185E+03  0.50400001928E-02 0.  1.
</event>
<event>
 5   0  0.6221148E-05  0.2138650E+04  0.7818609E-02  0.8544406E-01
        1   -1    0    0  501    0  0.00000000000E+00  0.00000000000E+00  0.86025801322E+03  0.86025801324E+03  0.50400001928E-02 0. -1.
       -1   -1    0    0    0  501  0.00000000000E+00  0.00000000000E+00 -0.13292008126E+04  0.13292008126E+04  0.50400001928E-02 0.  1.
    10030    2    1    2    0    0  0.00000000000E+00  0.00000000000E+00 -0.46894279934E+03  0.21894588258E+04  0.21386497144E+04 0.  0.
        3    1    3    3  502    0  0.24870465153E+03  0.79053676531E+03  0.45734428668E+03  0.94655490477E+03  0.10100000352E+00 0. -1.
       -3    1    3    3    0  502 -0.24870465153E+03 -0.79053676531E+03 -0.92628708602E+03  0.12429039210E+04  0.10100000352E+00 0.  1.
</event>
<event>
 5   0  0.6263616E-05  0.2152960E+04  0.7818609E-02  0.8538266E-01
       -1   -1    0    0    0  501  0.00000000000E+00  0.00000000000E+00  0.60995474396E+03  0.60995474398E+03  0.50400001928E-02 0.  1.
        1   -1    0    0  501    0  0.00000000000E+00  0.00000000000E+00 -0.18998284315E+04  0.18998284315E+04  0.50400001928E-02 0. -1.
    10030    2    1    2    0    0  0.00000000000E+00  0.00000000000E+00 -0.12898736875E+04  0.25097831755E+04  0.21529601618E+04 0.  0.
        4    1    3    3  502    0 -0.30616830981E+03 -0.10299325392E+04 -0.72144752217E+03  0.12942133554E+04  0.12699999809E+01 0.  1.
       -4    1    3    3    0  502  0.30616830981E+03  0.10299325392E+04 -0.56842616537E+03  0.12155698201E+04  0.12699999809E+01 0. -1.
</event>
<event>
 5   0  0.5846187E-05  0.2079133E+04  0.7818609E-02  0.8570492E-01
       -1   -1    0    0    0  501  0.00000000000E+00  0.00000000000E+00  0.14573287516E+04  0.14573287516E+04  0.50400001928E-02 0. -1.
        1   -1    0    0  501    0  0.00000000000E+00  0.00000000000E+00 -0.74156123186E+03  0.74156123188E+03  0.50400001928E-02 0.  1.
    10030    2    1    2    0    0  0.00000000000E+00  0.00000000000E+00  0.71576751974E+03  0.21988899835E+04  0.20791329965E+04 0.  0.
        5    1    3    3  502    0  0.50438036941E+03  0.76576577786E+03 -0.16010211368E+03  0.93083379848E+03  0.46999998093E+01 0.  1.
       -5    1    3    3    0  502 -0.50438036941E+03 -0.76576577786E+03  0.87586963342E+03  0.12680561850E+04  0.46999998093E+01 0. -1.
</event>
<event>
 5   0  0.1281470E-04  0.2101400E+04  0.7818609E-02  0.8560627E-01
        2   -1    0    0  501    0  0.00000000000E+00  0.00000000000E+00  0.11098065272E+04  0.11098065273E+04  0.25500000920E-02 0.  1.
       -2   -1    0    0    0  501  0.00000000000E+00  0.00000000000E+00 -0.99474146822E+03  0.99474146823E+03  0.25500000920E-02 0. -1.
    10030    2    1    2    0    0  0.00000000000E+00  0.00000000000E+00  0.11506505903E+03  0.21045479955E+04  0.21014000803E+04 0.  0.
        3    1    3    3  502    0 -0.81519625904E+03 -0.57094622821E+03  0.39485458439E+03  0.10707169044E+04  0.10100000352E+00 0.  1.
       -3    1    3    3    0  502  0.81519625904E+03  0.57094622821E+03 -0.27978952537E+03  0.10338310911E+04  0.10100000352E+00 0. -1.
</event>
<event>
 5   0  0.5933905E-05  0.2082466E+04  0.7818609E-02  0.8569007E-01
       -1   -1    0    0    0  501  0.00000000000E+00  0.00000000000E+00  0.58859400313E+03  0.58859400315E+03  0.50400001928E-02 0.  1.
        1   -1    0    0  501    0  0.00000000000E+00  0.00000000000E+00 -0.18419600891E+04  0.18419600891E+04  0.50400001928E-02 0. -1.
    10030    2    1    2    0    0  0.00000000000E+00  0.00000000000E+00 -0.12533660860E+04  0.24305540923E+04  0.20824664823E+04 0.  0.
        2    1    3    3  502    0 -0.66840405989E+03  0.75632819976E+03 -0.92509595286E+03  0.13691599085E+04  0.25500000920E-02 0. -1.
       -2    1    3    3    0  502  0.66840405989E+03 -0.75632819976E+03 -0.32827013312E+03  0.10613941838E+04  0.25500000920E-02 0.  1.
</event>
<event>
 5   0  0.6263616E-05  0.2010107E+04  0.7818609E-02  0.8601910E-01
       -1   -1    0    0    0  501  0.00000000000E+00  0.00000000000E+00  0.67820686913E+03  0.67820686915E+03  0.50400001928E-02 0.  1.
        1   -1    0    0  501    0  0.00000000000E+00  0.00000000000E+00 -0.14894172295E+04  0.14894172295E+04  0.50400001928E-02 0. -1.
    10030    2    1    2    0    0  0.00000000000E+00  0.00000000000E+00 -0.81121036040E+03  0.21676240987E+04  0.20101074559E+04 0.  0.
        4    1    3    3  502    0  0.23749339184E+02  0.95396962233E+03 -0.65434751428E+02  0.95650686931E+03  0.12699999809E+01 0.  1.
       -4    1    3    3    0  502 -0.23749339184E+02 -0.95396962233E+03 -0.74577560897E+03  0.12111172294E+04  0.12699999809E+01 0. -1.
</event>
<event>
 5   0  0.6221148E-05  0.2063749E+04  0.7818609E-02  0.8577383E-01
        1   -1    0    0  501    0  0.00000000000E+00  0.00000000000E+00  0.14860569791E+04  0.14860569791E+04  0.50400001928E-02 0.  1.
       -1   -1    0    0    0  501  0.00000000000E+00  0.00000000000E+00 -0.71650325052E+03  0.71650325054E+03  0.50400001928E-02 0. -1.
    10030    2    1    2    0    0  0.00000000000E+00  0.00000000000E+00  0.76955372854E+03  0.22025602296E+04  0.20637486824E+04 0.  0.
        3    1    3    3  502    0  0.43287725482E+03 -0.84039941733E+03 -0.56701706873E+02  0.94703167432E+03  0.10100000352E+00 0. -1.
       -3    1    3    3    0  502 -0.43287725482E+03  0.84039941733E+03  0.82625543541E+03  0.12555285553E+04  0.10100000352E+00 0.  1.
</event>
<event>
 5   0  0.6263616E-05  0.2088903E+04  0.7818609E-02  0.8566147E-01
        1   -1    0    0  501    0  0.00000000000E+00  0.00000000000E+00  0.24281286082E+04  0.24281286082E+04  0.50400001928E-02 0.  1.
       -1   -1    0    0    0  501  0.00000000000E+00  0.00000000000E+00 -0.44926755301E+03  0.44926755304E+03  0.50400001928E-02 0. -1.
    10030    2    1    2    0    0  0.00000000000E+00  0.00000000000E+00  0.19788610552E+04  0.28773961613E+04  0.20889034427E+04 0.  0.
        4    1    3    3  502    0  0.80425261628E+03 -0.10145832799E+03  0.82222454006E+02  0.81478721636E+03  0.12699999809E+01 0. -1.
       -4    1    3    3    0  502 -0.80425261628E+03  0.10145832799E+03  0.18966386012E+04  0.20626089449E+04  0.12699999809E+01 0.  1.
</event>
<event>
 5   0  0.1349252E-04  0.2070345E+04  0.7818609E-02  0.8574420E-01
        2   -1    0    0  501    0  0.00000000000E+00  0.00000000000E+00  0.19345432146E+04  0.19345432146E+04  0.25500000920E-02 0. -1.
       -2   -1    0    0    0  501  0.00000000000E+00  0.00000000000E+00 -0.55392016892E+03  0.55392016892E+03  0.25500000920E-02 0.  1.
    10030    2    1    2    0    0  0.00000000000E+00  0.00000000000E+00  0.13806230457E+04  0.24884633836E+04  0.20703453859E+04 0.  0.
        2    1    3    3  502    0 -0.49652343125E+03  0.88141466646E+03  0.42655092288E+03  0.10978948137E+04  0.25500000920E-02 0.  1.
       -2    1    3    3    0  502  0.49652343125E+03 -0.88141466646E+03  0.95407212284E+03  0.13905685699E+04  0.25500000920E-02 0. -1.
</event>
<event>
 5   0  0.1325673E-04  0.2089479E+04  0.7818609E-02  0.8565892E-01
        2   -1    0    0  501    0  0.00000000000E+00  0.00000000000E+00  0.11813382491E+04  0.11813382491E+04  0.25500000920E-02 0.  1.
       -2   -1    0    0    0  501  0.00000000000E+00  0.00000000000E+00 -0.92393606347E+03  0.92393606347E+03  0.25500000920E-02 0. -1.
    10030    2    1    2    0    0  0.00000000000E+00  0.00000000000E+00  0.25740218560E+03  0.21052743125E+04  0.20894793720E+04 0.  0.
        5    1    3    3  502    0  0.60984213586E+03 -0.79159978022E+03 -0.17843311687E+03  0.10150852722E+04  0.46999998093E+01 0. -1.
       -5    1    3    3    0  502 -0.60984213586E+03  0.79159978022E+03  0.43583530247E+03  0.10901890403E+04  0.46999998093E+01 0.  1.
</event>
<event>
 5   0  0.1281470E-04  0.2099630E+04  0.7818609E-02  0.8561406E-01
        2   -1    0    0  501    0  0.00000000000E+00  0.00000000000E+00  0.95028495855E+03  0.95028495855E+03  0.25500000920E-02 0. -1.
       -2   -1    0    0    0  501  0.00000000000E+00  0.00000000000E+00 -0.11597693456E+04  0.11597693456E+04  0.25500000920E-02 0.  1.
    10030    2    1    2    0    0  0.00000000000E+00  0.00000000000E+00 -0.20948438704E+03  0.21100543041E+04  0.20996298383E+04 0.  0.
        3    1    3    3  502    0 -0.44910683456E+03 -0.13981104553E+03  0.83846289445E+03  0.96138655746E+03  0.10100000352E+00 0. -1.
       -3    1    3    3    0  502  0.44910683456E+03  0.13981104553E+03 -0.10479472815E+04  0.11486677467E+04  0.10100000352E+00 0.  1.
</event>
<event>
 5   0  0.1325673E-04  0.2086516E+04  0.7818609E-02  0.8567207E-01
        2   -1    0    0  501    0  0.00000000000E+00  0.00000000000E+00  0.18688804600E+04  0.18688804600E+04  0.25500000920E-02 0.  1.
       -2   -1    0    0    0  501  0.00000000000E+00  0.00000000000E+00 -0.58237397788E+03  0.58237397788E+03  0.25500000920E-02 0. -1.
    10030    2    1    2    0    0  0.00000000000E+00  0.00000000000E+00  0.12865064822E+04  0.24512544379E+04  0.20865160893E+04 0.  0.
        5    1    3    3  502    0 -0.59648292125E+03 -0.64049353323E+03 -0.23745032586E+02  0.87556253804E+03  0.46999998093E+01 0. -1.
       -5    1    3    3    0  502  0.59648292125E+03  0.64049353323E+03  0.13102515147E+04  0.15756918999E+04  0.46999998093E+01 0.  1.
</event>
<event>
 5   0  0.6263616E-05  0.2048516E+04  0.7818609E-02  0.8584268E-01
       -1   -1    0    0    0  501  0.00000000000E+00  0.00000000000E+00  0.92087661097E+03  0.92087661099E+03  0.50400001928E-02 0. -1.
        1   -1    0    0  501    0  0.00000000000E+00  0.00000000000E+00 -0.11392455189E+04  0.11392455190E+04  0.50400001928E-02 0.  1.
    10030    2    1    2    0    0  0.00000000000E+00  0.00000000000E+00 -0.21836890797E+03  0.20601221299E+04  0.20485160996E+04 0.  0.
        4    1    3    3  502    0  0.56279331232E+03 -0.52582267653E+03  0.56982761467E+03  0.95808711655E+03  0.12699999809E+01 0. -1.
       -4    1    3    3    0  502 -0.56279331232E+03  0.52582267653E+03 -0.78819652265E+03  0.11020350134E+04  0.12699999809E+01 0.  1.
</event>
<event>
 5   0  0.6221148E-05  0.2085704E+04  0.7818609E-02  0.8567567E-01
       -1   -1    0    0    0  501  0.00000000000E+00  0.00000000000E+00  0.16318045500E+04  0.16318045500E+04  0.50400001928E-02 0. -1.
        1   -1    0    0  501    0  0.00000000000E+00  0.00000000000E+00 -0.66646466518E+03  0.66646466520E+03  0.50400001928E-02 0.  1.
    10030    2    1    2    0    0  0.00000000000E+00  0.00000000000E+00  0.96533988478E+03  0.22982692152E+04  0.20857037882E+04 0.  0.
        3    1    3    3  502    0  0.45130988222E+03  0.36496490043E+03  0.14373765507E+04  0.15501391379E+04  0.10100000352E+00 0. -1.
       -3    1    3    3    0  502 -0.45130988222E+03 -0.36496490043E+03 -0.47203666588E+03  0.74813007724E+03  0.10100000352E+00 0.  1.
</event>
<event>
 5   0  0.6221148E-05  0.2115838E+04  0.7818609E-02  0.8554299E-01
       -1   -1    0    0    0  501  0.00000000000E+00  0.00000000000E+00  0.68154263351E+03  0.68154263353E+03  0.50400001928E-02 0. -1.
        1   -1    0    0  501    0  0.00000000000E+00  0.00000000000E+00 -0.16421459317E+04  0.16421459317E+04  0.50400001928E-02 0.  1.
    10030    2    1    2    0    0  0.00000000000E+00  0.00000000000E+00 -0.96060329823E+03  0.23236885653E+04  0.21158378605E+04 0.  0.
        3    1    3    3  502    0  0.67738495208E+02 -0.51767297319E+02  0.67776380805E+03  0.68310478443E+03  0.10100000352E+00 0. -1.
       -3    1    3    3    0  502 -0.67738495208E+02  0.51767297319E+02 -0.16383671063E+04  0.16405837808E+04  0.10100000352E+00 0.  1.
</event>
<event>
 5   0  0.5846187E-05  0.2110214E+04  0.7818609E-02  0.8556757E-01
        1   -1    0    0  501    0  0.00000000000E+00  0.00000000000E+00  0.13944016969E+04  0.13944016969E+04  0.50400001928E-02 0.  1.
       -1   -1    0    0    0  501  0.00000000000E+00  0.00000000000E+00 -0.79837149248E+03  0.79837149249E+03  0.50400001928E-02 0. -1.
    10030    2    1    2    0    0  0.00000000000E+00  0.00000000000E+00  0.59603020446E+03  0.21927731894E+04  0.21102137938E+04 0.  0.
        5    1    3    3  502    0 -0.88480508176E+03 -0.15547583240E+03  0.87299494462E+03  0.12526751496E+04  0.46999998093E+01 0. -1.
       -5    1    3    3    0  502  0.88480508176E+03  0.15547583240E+03 -0.27696474016E+03  0.94009803981E+03  0.46999998093E+01 0.  1.
</event>
<event>
 5   0  0.1349252E-04  0.2083232E+04  0.7818609E-02  0.8568666E-01
        2   -1    0    0  501    0  0.00000000000E+00  0.00000000000E+00  0.10402383414E+04  0.10402383414E+04  0.25500000920E-02 0.  1.
       -2   -1    0    0    0  501  0.00000000000E+00  0.00000000000E+00 -0.10429951649E+04  0.10429951649E+04  0.25500000920E-02 0. -1.
    10030    2    1    2    0    0  0.00000000000E+00  0.00000000000E+00 -0.27568235261E+01  0.20832335064E+04  0.20832316823E+04 0.  0.
        2    1    3    3  502    0 -0.31016350291E+03  0.73539942390E+03 -0.67066955449E+03  0.10425024521E+04  0.25500000920E-02 0. -1.
       -2    1    3    3    0  502  0.31016350291E+03 -0.73539942390E+03  0.66791273096E+03  0.10407310543E+04  0.25500000920E-02 0.  1.
</event>
<event>
 5   0  0.1281470E-04  0.2577371E+04  0.7818609E-02  0.8375929E-01
       -2   -1    0    0    0  501  0.00000000000E+00  0.00000000000E+00  0.14926600107E+04  0.14926600107E+04  0.25500000920E-02 0.  1.
        2   -1    0    0  501    0  0.00000000000E+00  0.00000000000E+00 -0.11125842834E+04  0.11125842834E+04  0.25500000920E-02 0. -1.
    10030    2    1    2    0    0  0.00000000000E+00  0.00000000000E+00  0.38007572725E+03  0.26052442941E+04  0.25773708063E+04 0.  0.
        3    1    3    3  502    0  0.87440018935E+03  0.38282670659E+03 -0.68510707878E+03  0.11749483810E+04  0.10100000352E+00 0. -1.
       -3    1    3    3    0  502 -0.87440018935E+03 -0.38282670659E+03  0.10651828060E+04  0.14302959131E+04  0.10100000352E+00 0.  1.
</event>
<event>
 5   0  0.1281470E-04  0.2083420E+04  0.7818609E-02  0.8568583E-01
        2   -1    0    0  501    0  0.00000000000E+00  0.00000000000E+00  0.25648325895E+04  0.25648325895E+04  0.25500000920E-02 0. -1.
       -2   -1    0    0    0  501  0.00000000000E+00  0.00000000000E+00 -0.42309165624E+03  0.42309165625E+03  0.25500000920E-02 0.  1.
    10030    2    1    2    0    0  0.00000000000E+00  0.00000000000E+00  0.21417409332E+04  0.29879242457E+04  0.20834195624E+04 0.  0.
        3    1    3    3  502    0  0.78304737086E+03 -0.30962146467E+03  0.19131710943E+03  0.86349920843E+03  0.10100000352E+00 0.  1.
       -3    1    3    3    0  502 -0.78304737086E+03  0.30962146467E+03  0.19504238238E+04  0.21244250373E+04  0.10100000352E+00 0. -1.
</event>
<event>
 5   0  0.5933905E-05  0.2102462E+04  0.7818609E-02  0.8560160E-01
       -1   -1    0    0    0  501  0.00000000000E+00  0.00000000000E+00  0.53830860647E+03  0.53830860649E+03  0.50400001928E-02 0. -1.
        1   -1    0    0  501    0  0.00000000000E+00  0.00000000000E+00 -0.20528868360E+04  0.20528868360E+04  0.50400001928E-02 0.  1.
    10030    2    1    2    0    0  0.00000000000E+00  0.00000000000E+00 -0.15145782295E+04  0.25911954425E+04  0.21024620348E+04 0.  0.
        2    1    3    3  502    0 -0.51317778302E+03 -0.19163140066E+03 -0.18630808855E+04  0.19419434638E+04  0.25500000920E-02 0.  1.
       -2    1    3    3    0  502  0.51317778302E+03  0.19163140066E+03  0.34850265592E+03  0.64925197874E+03  0.25500000920E-02 0. -1.
</event>
<event>
 5   0  0.1252477E-04  0.2120803E+04  0.7818609E-02  0.8552134E-01
       -2   -1    0    0    0  501  0.00000000000E+00  0.00000000000E+00  0.15234676440E+04  0.15234676440E+04  0.25500000920E-02 0.  1.
        2   -1    0    0  501    0  0.00000000000E+00  0.00000000000E+00 -0.73808679943E+03  0.73808679944E+03  0.25500000920E-02 0. -1.
    10030    2    1    2    0    0  0.00000000000E+00  0.00000000000E+00  0.78538084460E+03  0.22615544435E+04  0.21208030153E+04 0.  0.
        4    1    3    3  502    0 -0.59638300220E+03 -0.50179231595E+03 -0.37404270749E+03  0.86451013504E+03  0.12699999809E+01 0. -1.
       -4    1    3    3    0  502  0.59638300220E+03  0.50179231595E+03  0.11594235521E+04  0.13970443084E+04  0.12699999809E+01 0.  1.
</event>
<event>
 5   0  0.1281470E-04  0.2081406E+04  0.7818609E-02  0.8569479E-01
       -2   -1    0    0    0  501  0.00000000000E+00  0.00000000000E+00  0.45074222499E+03  0.45074222500E+03  0.25500000920E-02 0. -1.
        2   -1    0    0  501    0  0.00000000000E+00  0.00000000000E+00 -0.24028433955E+04  0.24028433955E+04  0.25500000920E-02 0.  1.
    10030    2    1    2    0    0  0.00000000000E+00  0.00000000000E+00 -0.19521011705E+04  0.28535856205E+04  0.20814062347E+04 0.  0.
        3    1    3    3  502    0 -0.15818027886E+02 -0.55646691159E+02  0.44853605211E+03  0.45225143945E+03  0.10100000352E+00 0. -1.
       -3    1    3    3    0  502  0.15818027886E+02  0.55646691159E+02 -0.24006372227E+04  0.24013341811E+04  0.10100000352E+00 0.  1.
</event>
<event>
 5   0  0.1281470E-04  0.2059601E+04  0.7818609E-02  0.8579251E-01
        2   -1    0    0  501    0  0.00000000000E+00  0.00000000000E+00  0.90959288777E+03  0.90959288778E+03  0.25500000920E-02 0.  1.
       -2   -1    0    0    0  501  0.00000000000E+00  0.00000000000E+00 -0.11658945503E+04  0.11658945503E+04  0.25500000920E-02 0. -1.
    10030    2    1    2    0    0  0.00000000000E+00  0.00000000000E+00 -0.25630166257E+03  0.20754874381E+04  0.20596013118E+04 0.  0.
        3    1    3    3  502    0  0.43123958218E+03  0.78503689616E+03 -0.64024255863E+03  0.11009818571E+04  0.10100000352E+00 0. -1.
       -3    1    3    3    0  502 -0.43123958218E+03 -0.78503689616E+03  0.38394089606E+03  0.97450558102E+03  0.10100000352E+00 0.  1.
</event>
<event>
 5   0  0.1281470E-04  0.2096704E+04  0.7818609E-02  0.8562697E-01
       -2   -1    0    0    0  501  0.00000000000E+00  0.00000000000E+00  0.91627942393E+03  0.91627942394E+03  0.25500000920E-02 0.  1.
        2   -1    0    0  501    0  0.00000000000E+00  0.00000000000E+00 -0.11994616993E+04  0.11994616993E+04  0.25500000920E-02 0. -1.
    10030    2    1    2    0    0  0.00000000000E+00  0.00000000000E+00 -0.28318227536E+03  0.21157411232E+04  0.20967041516E+04 0.  0.
        3    1    3    3  502    0 -0.51435648535E+03 -0.49909451359E+02  0.77882460570E+03  0.93467712286E+03  0.10100000352E+00 0.  1.
       -3    1    3    3    0  502  0.51435648535E+03  0.49909451359E+02 -0.10620068811E+04  0.11810640004E+04  0.10100000352E+00 0. -1.
</event>
<event>
 5   0  0.1325673E-04  0.2088647E+04  0.7818609E-02  0.8566261E-01
       -2   -1    0    0    0  501  0.00000000000E+00  0.00000000000E+00  0.13444595551E+04  0.13444595551E+04  0.25500000920E-02 0. -1.
        2   -1    0    0  501    0  0.00000000000E+00  0.00000000000E+00 -0.81118941074E+03  0.81118941074E+03  0.25500000920E-02 0.  1.
    10030    2    1    2    0    0  0.00000000000E+00  0.00000000000E+00  0.53327014436E+03  0.21556489658E+04  0.20886467909E+04 0.  0.
        5    1    3    3  502    0 -0.41699374746E+03 -0.65063591414E+03  0.99157679745E+03  0.12571624849E+04  0.46999998093E+01 0. -1.
       -5    1    3    3    0  502  0.41699374746E+03  0.65063591414E+03 -0.45830665309E+03  0.89848648095E+03  0.46999998093E+01 0.  1.
</event>
<event>
 5   0  0.6221148E-05  0.1941042E+04  0.7818609E-02  0.8634693E-01
        1   -1    0    0  501    0  0.00000000000E+00  0.00000000000E+00  0.61856859100E+03  0.61856859102E+03  0.50400001928E-02 0. -1.
       -1   -1    0    0    0  501  0.00000000000E+00  0.00000000000E+00 -0.15227271563E+04  0.15227271564E+04  0.50400001928E-02 0.  1.
    10030    2    1    2    0    0  0.00000000000E+00  0.00000000000E+00 -0.90415856535E+03  0.21412957474E+04  0.19410421856E+04 0.  0.
        3    1    3    3  502    0  0.13000950240E+03 -0.20307535522E+03  0.58499792421E+03  0.63274374919E+03  0.10100000352E+00 0. -1.
       -3    1    3    3    0  502 -0.13000950240E+03  0.20307535522E+03 -0.14891564896E+04  0.15085519982E+04  0.10100000352E+00 0.  1.
</event>
<event>
 5   0  0.5933905E-05  0.2014641E+04  0.7818609E-02  0.8599806E-01
        1   -1    0    0  501    0  0.00000000000E+00  0.00000000000E+00  0.22204492045E+04  0.22204492045E+04  0.50400001928E-02 0.  1.
       -1   -1    0    0    0  501  0.00000000000E+00  0.00000000000E+00 -0.45697706048E+03  0.45697706051E+03  0.50400001928E-02 0. -1.
    10030    2    1    2    0    0  0.00000000000E+00  0.00000000000E+00  0.17634721440E+04  0.26774262650E+04  0.20146407625E+04 0.  0.
        2    1    3    3  502    0  0.59766518560E+03  0.48907278991E+03  0.17412700457E+04  0.19048404762E+04  0.25500000920E-02 0.  1.
       -2    1    3    3    0  502 -0.59766518560E+03 -0.48907278991E+03  0.22202098372E+02  0.77258578882E+03  0.25500000920E-02 0. -1.
</event>
<event>
 5   0  0.6263616E-05  0.2145883E+04  0.7818609E-02  0.8541297E-01
       -1   -1    0    0    0  501  0.00000000000E+00  0.00000000000E+00  0.12383661096E+04  0.12383661096E+04  0.50400001928E-02 0.  1.
        1   -1    0    0  501    0  0.00000000000E+00  0.00000000000E+00 -0.92961437239E+03  0.92961437240E+03  0.50400001928E-02 0. -1.
    10030    2    1    2    0    0  0.00000000000E+00  0.00000000000E+00  0.30875173721E+03  0.21679804820E+04  0.21458825073E+04 0.  0.
        4    1    3    3  502    0  0.78358910231E+03 -0.59398741662E+01 -0.58607952205E+03  0.97853869747E+03  0.12699999809E+01 0. -1.
       -4    1    3    3    0  502 -0.78358910231E+03  0.59398741662E+01  0.89483125927E+03  0.11894417845E+04  0.12699999809E+01 0.  1.
</event>
<event>
 5   0  0.1281470E-04  0.2100166E+04  0.7818609E-02  0.8561170E-01
       -2   -1    0    0    0  501  0.00000000000E+00  0.00000000000E+00  0.84809912130E+03  0.84809912131E+03  0.25500000920E-02 0. -1.
        2   -1    0    0  501    0  0.00000000000E+00  0.00000000000E+00 -0.13001720546E+04  0.13001720546E+04  0.25500000920E-02 0.  1.
    10030    2    1    2    0    0  0.00000000000E+00  0.00000000000E+00 -0.45207293331E+03  0.21482711759E+04  0.21001664478E+04 0.  0.
        3    1    3    3  502    0 -0.15937370777E+03  0.17226389233E+03  0.82093083407E+03  0.85381629865E+03  0.10100000352E+00 0. -1.
       -3    1    3    3    0  502  0.15937370777E+03 -0.17226389233E+03 -0.12730037674E+04  0.12944548773E+04  0.10100000352E+00 0.  1.
</event>
<event>
 5   0  0.1281470E-04  0.2101800E+04  0.7818609E-02  0.8560451E-01
       -2   -1    0    0    0  501  0.00000000000E+00  0.00000000000E+00  0.78860427903E+03  0.78860427903E+03  0.25500000920E-02 0. -1.
        2   -1    0    0  501    0  0.00000000000E+00  0.00000000000E+00 -0.14004369478E+04  0.14004369478E+04  0.25500000920E-02 0.  1.
    10030    2    1    2    0    0  0.00000000000E+00  0.00000000000E+00 -0.61183266876E+03  0.21890412268E+04  0.21017997712E+04 0.  0.
        3    1    3    3  502    0  0.47280999835E+03 -0.64016365175E+03 -0.10207215253E+04  0.12943072425E+04  0.10100000352E+00 0.  1.
       -3    1    3    3    0  502 -0.47280999835E+03  0.64016365175E+03  0.40888885652E+03  0.89473398434E+03  0.10100000352E+00 0. -1.
</event>
<event>
 5   0  0.1235817E-04  0.2115042E+04  0.7818609E-02  0.8554646E-01
        2   -1    0    0  501    0  0.00000000000E+00  0.00000000000E+00  0.70489210914E+03  0.70489210915E+03  0.25500000920E-02 0. -1.
       -2   -1    0    0    0  501  0.00000000000E+00  0.00000000000E+00 -0.15865556975E+04  0.15865556975E+04  0.25500000920E-02 0.  1.
    10030    2    1    2    0    0  0.00000000000E+00  0.00000000000E+00 -0.88166358839E+03  0.22914478067E+04  0.21150419305E+04 0.  0.
        1    1    3    3  502    0  0.10171391320E+04  0.22845624947E+03 -0.63338045556E+03  0.12198094414E+04  0.50400001928E-02 0.  1.
       -1    1    3    3    0  502 -0.10171391320E+04 -0.22845624947E+03 -0.24828313284E+03  0.10716383653E+04  0.50400001928E-02 0. -1.
</event>
<event>
 5   0  0.6052292E-05  0.2076054E+04  0.7818609E-02  0.8571866E-01
       -1   -1    0    0    0  501  0.00000000000E+00  0.00000000000E+00  0.80228840684E+03  0.80228840686E+03  0.50400001928E-02 0.  1.
        1   -1    0    0  501    0  0.00000000000E+00  0.00000000000E+00 -0.13430328293E+04  0.13430328293E+04  0.50400001928E-02 0. -1.
    10030    2    1    2    0    0  0.00000000000E+00  0.00000000000E+00 -0.54074442243E+03  0.21453212361E+04  0.20760536303E+04 0.  0.
        1    1    3    3  502    0 -0.46102426694E+03  0.58515978709E+03 -0.10173631405E+04  0.12609453242E+04  0.50400001928E-02 0. -1.
       -1    1    3    3    0  502  0.46102426694E+03 -0.58515978709E+03  0.47661871804E+03  0.88437591190E+03  0.50400001928E-02 0.  1.
</event>
<event>
 5   0  0.1349252E-04  0.2092302E+04  0.7818609E-02  0.8564642E-01
       -2   -1    0    0    0  501  0.00000000000E+00  0.00000000000E+00  0.10647902332E+04  0.10647902332E+04  0.25500000920E-02 0. -1.
        2   -1    0    0  501    0  0.00000000000E+00  0.00000000000E+00 -0.10278384724E+04  0.10278384724E+04  0.25500000920E-02 0.  1.
    10030    2    1    2    0    0  0.00000000000E+00  0.00000000000E+00  0.36951760763E+02  0.20926287057E+04  0.20923024320E+04 0.  0.
        2    1    3    3  502    0  0.10232458564E+04  0.16700055843E+03  0.15817979296E+03  0.10487812527E+04  0.25500000920E-02 0.  1.
       -2    1    3    3    0  502 -0.10232458564E+04 -0.16700055843E+03 -0.12122803219E+03  0.10438474529E+04  0.25500000920E-02 0. -1.
</event>
<event>
 5   0  0.1281470E-04  0.2113388E+04  0.7818609E-02  0.8555369E-01
        2   -1    0    0  501    0  0.00000000000E+00  0.00000000000E+00  0.75423272414E+03  0.75423272415E+03  0.25500000920E-02 0.  1.
       -2   -1    0    0    0  501  0.00000000000E+00  0.00000000000E+00 -0.14804471505E+04  0.14804471505E+04  0.25500000920E-02 0. -1.
    10030    2    1    2    0    0  0.00000000000E+00  0.00000000000E+00 -0.72621442631E+03  0.22346798746E+04  0.21133875056E+04 0.  0.
        3    1    3    3  502    0  0.78910188547E+03 -0.34006616155E+03 -0.10134464292E+04  0.13286837302E+04  0.10100000352E+00 0. -1.
       -3    1    3    3    0  502 -0.78910188547E+03  0.34006616155E+03  0.28723200292E+03  0.90599614436E+03  0.10100000352E+00 0.  1.
</event>
<event>
 5   0  0.6052292E-05  0.2070314E+04  0.7818609E-02  0.8574434E-01
       -1   -1    0    0    0  501  0.00000000000E+00  0.00000000000E+00  0.43815337541E+03  0.43815337544E+03  0.50400001928E-02 0. -1.
        1   -1    0    0  501    0  0.00000000000E+00  0.00000000000E+00 -0.24456045371E+04  0.24456045372E+04  0.50400001928E-02 0.  1.
    10030    2    1    2    0    0  0.00000000000E+00  0.00000000000E+00 -0.20074511617E+04  0.28837579126E+04  0.20703138727E+04 0.  0.
        1    1    3    3  502    0 -0.60965275719E+03  0.23591862953E+03  0.11426538084E+03  0.66361936485E+03  0.50400001928E-02 0. -1.
       -1    1    3    3    0  502  0.60965275719E+03 -0.23591862953E+03 -0.21217165426E+04  0.22201385477E+04  0.50400001928E-02 0.  1.
</event>
<event>
 5   0  0.1252477E-04  0.2100196E+04  0.7818609E-02  0.8561157E-01
        2   -1    0    0  501    0  0.00000000000E+00  0.00000000000E+00  0.24162204828E+04  0.24162204828E+04  0.25500000920E-02 0.  1.
       -2   -1    0    0    0  501  0.00000000000E+00  0.00000000000E+00 -0.45637650779E+03  0.45637650780E+03  0.25500000920E-02 0. -1.
    10030    2    1    2    0    0  0.00000000000E+00  0.00000000000E+00  0.19598439750E+04  0.28725969906E+04  0.21001964346E+04 0.  0.
        4    1    3    3  502    0 -0.78902813625E+03 -0.41694800596E+03  0.17369008543E+04  0.19527511951E+04  0.12699999809E+01 0.  1.
       -4    1    3    3    0  502  0.78902813625E+03  0.41694800596E+03  0.22294312069E+03  0.91984579546E+03  0.12699999809E+01 0. -1.
</event>
<event>
 5   0  0.5846187E-05  0.1992481E+04  0.7818609E-02  0.8610144E-01
       -1   -1    0    0    0  501  0.00000000000E+00  0.00000000000E+00  0.16010975502E+04  0.16010975503E+04  0.50400001928E-02 0. -1.
        1   -1    0    0  501    0  0.00000000000E+00  0.00000000000E+00 -0.61988405487E+03  0.61988405489E+03  0.50400001928E-02 0.  1.
    10030    2    1    2    0    0  0.00000000000E+00  0.00000000000E+00  0.98121349538E+03  0.22209816052E+04  0.19924807068E+04 0.  0.
        5    1    3    3  502    0 -0.56542077718E+01  0.79621448244E+03 -0.17679184854E+03  0.81563896414E+03  0.46999998093E+01 0.  1.
       -5    1    3    3    0  502  0.56542077718E+01 -0.79621448244E+03  0.11580053439E+04  0.14053426410E+04  0.46999998093E+01 0. -1.
</event>
<event>
 5   0  0.1325673E-04  0.2107484E+04  0.7818609E-02  0.8557954E-01
       -2   -1    0    0    0  501  0.00000000000E+00  0.00000000000E+00  0.85012979054E+03  0.85012979055E+03  0.25500000920E-02 0. -1.
        2   -1    0    0  501    0  0.00000000000E+00  0.00000000000E+00 -0.13061213376E+04  0.13061213376E+04  0.25500000920E-02 0.  1.
    10030    2    1    2    0    0  0.00000000000E+00  0.00000000000E+00 -0.45599154703E+03  0.21562511281E+04  0.21074844333E+04 0.  0.
        5    1    3    3  502    0  0.11514298782E+03 -0.76612905037E+03  0.50277168843E+03  0.92358707773E+03  0.46999998093E+01 0. -1.
       -5    1    3    3    0  502 -0.11514298782E+03  0.76612905037E+03 -0.95876323546E+03  0.12326640504E+04  0.46999998093E+01 0.  1.
</event>
<event>
 5   0  0.1252477E-04  0.2088525E+04  0.7818609E-02  0.8566315E-01
       -2   -1    0    0    0  501  0.00000000000E+00  0.00000000000E+00  0.71947450043E+03  0.71947450044E+03  0.25500000920E-02 0. -1.
        2   -1    0    0  501    0  0.00000000000E+00  0.00000000000E+00 -0.15156668818E+04  0.15156668818E+04  0.25500000920E-02 0.  1.
    10030    2    1    2    0    0  0.00000000000E+00  0.00000000000E+00 -0.79619238138E+03  0.22351413823E+04  0.20885245248E+04 0.  0.
        4    1    3    3  502    0  0.81730069431E+03  0.58299860684E+03 -0.90491519344E+02  0.10079970875E+04  0.12699999809E+01 0. -1.
       -4    1    3    3    0  502 -0.81730069431E+03 -0.58299860684E+03 -0.70570086204E+03  0.12271442947E+04  0.12699999809E+01 0.  1.
</event>
<event>
 5   0  0.1281470E-04  0.1529446E+04  0.7818609E-02  0.8865105E-01
       -2   -1    0    0    0  501  0.00000000000E+00  0.00000000000E+00  0.24542041835E+03  0.24542041837E+03  0.25500000920E-02 0.  1.
        2   -1    0    0  501    0  0.00000000000E+00  0.00000000000E+00 -0.23828542692E+04  0.23828542692E+04  0.25500000920E-02 0. -1.
    10030    2    1    2    0    0  0.00000000000E+00  0.00000000000E+00 -0.21374338508E+04  0.26282746875E+04  0.15294457710E+04 0.  0.
        3    1    3    3  502    0  0.45021954448E+03 -0.22128219565E+03 -0.20605726800E+04  0.21207600591E+04  0.10100000352E+00 0. -1.
       -3    1    3    3    0  502 -0.45021954448E+03  0.22128219565E+03 -0.76861170818E+02  0.50751462848E+03  0.10100000352E+00 0.  1.
</event>
<event>
 5   0  0.1281470E-04  0.2124216E+04  0.7818609E-02  0.8550650E-01
       -2   -1    0    0    0  501  0.00000000000E+00  0.00000000000E+00  0.67980142157E+03  0.67980142158E+03  0.25500000920E-02 0. -1.
        2   -1    0    0  501    0  0.00000000000E+00  0.00000000000E+00 -0.16594160576E+04  0.16594160576E+04  0.25500000920E-02 0.  1.
    10030    2    1    2    0    0  0.00000000000E+00  0.00000000000E+00 -0.97961463602E+03  0.23392174792E+04  0.21242159918E+04 0.  0.
        3    1    3    3  502    0 -0.34534482563E+03 -0.12856289807E+02  0.61615698002E+03  0.70645436300E+03  0.10100000352E+00 0. -1.
       -3    1    3    3    0  502  0.34534482563E+03  0.12856289807E+02 -0.15957716160E+04  0.16327631162E+04  0.10100000352E+00 0.  1.
</event>
<event>
 5   0  0.1252477E-04  0.2118256E+04  0.7818609E-02  0.8553244E-01
        2   -1    0    0  501    0  0.00000000000E+00  0.00000000000E+00  0.79299470014E+03  0.79299470015E+03  0.25500000920E-02 0. -1.
       -2   -1    0    0    0  501  0.00000000000E+00  0.00000000000E+00 -0.14145777120E+04  0.14145777120E+04  0.25500000920E-02 0.  1.
    10030    2    1    2    0    0  0.00000000000E+00  0.00000000000E+00 -0.62158301185E+03  0.22075724121E+04  0.21182564798E+04 0.  0.
        4    1    3    3  502    0  0.35696489040E+03 -0.51118852359E+03 -0.12030534378E+04  0.13550191242E+04  0.12699999809E+01 0.  1.
       -4    1    3    3    0  502 -0.35696489040E+03  0.51118852359E+03  0.58147042600E+03  0.85255328798E+03  0.12699999809E+01 0. -1.
</event>
<event>
 5   0  0.1281470E-04  0.2091103E+04  0.7818609E-02  0.8565173E-01
       -2   -1    0    0    0  501  0.00000000000E+00  0.00000000000E+00  0.87003981285E+03  0.87003981285E+03  0.25500000920E-02 0. -1.
        2   -1    0    0  501    0  0.00000000000E+00  0.00000000000E+00 -0.12564694214E+04  0.12564694214E+04  0.25500000920E-02 0.  1.
    10030    2    1    2    0    0  0.00000000000E+00  0.00000000000E+00 -0.38642960860E+03  0.21265092343E+04  0.20911034602E+04 0.  0.
        3    1    3    3  502    0 -0.21370462053E+03  0.63139082847E+03  0.62593884104E+03  0.91439788169E+03  0.10100000352E+00 0. -1.
       -3    1    3    3    0  502  0.21370462053E+03 -0.63139082847E+03 -0.10123684496E+04  0.12121113526E+04  0.10100000352E+00 0.  1.
</event>
<event>
 5   0  0.5846187E-05  0.2109103E+04  0.7818609E-02  0.8557244E-01
        1   -1    0    0  501    0  0.00000000000E+00  0.00000000000E+00  0.16717886629E+04  0.16717886629E+04  0.50400001928E-02 0.  1.
       -1   -1    0    0    0  501  0.00000000000E+00  0.00000000000E+00 -0.66520304856E+03  0.66520304858E+03  0.50400001928E-02 0. -1.
    10030    2    1    2    0    0  0.00000000000E+00  0.00000000000E+00  0.10065856143E+04  0.23369917115E+04  0.21091030465E+04 0.  0.
        5    1    3    3  502    0  0.23379454141E+03  0.94840977810E+03  0.62968959469E+02  0.97884021915E+03  0.46999998093E+01 0. -1.
       -5    1    3    3    0  502 -0.23379454141E+03 -0.94840977810E+03  0.94361665487E+03  0.13581514923E+04  0.46999998093E+01 0.  1.
</event>
<event>
 5   0  0.1235817E-04  0.1959027E+04  0.7818609E-02  0.8626020E-01
        2   -1    0    0  501    0  0.00000000000E+00  0.00000000000E+00  0.14409320601E+04  0.14409320601E+04  0.25500000920E-02 0. -1.
       -2   -1    0    0    0  501  0.00000000000E+00  0.00000000000E+00 -0.66585165952E+03  0.66585165953E+03  0.25500000920E-02 0.  1.
    10030    2    1    2    0    0  0.00000000000E+00  0.00000000000E+00  0.77508040059E+03  0.21067837196E+04  0.19590273132E+04 0.  0.
        1    1    3    3  502    0 -0.17167794861E+03 -0.72924041243E+03 -0.29106992043E+03  0.80373291320E+03  0.50400001928E-02 0. -1.
       -1    1    3    3    0  502  0.17167794861E+03  0.72924041243E+03  0.10661503210E+04  0.13030508065E+04  0.50400001928E-02 0.  1.
</event>
<event>
 5   0  0.6221148E-05  0.2104316E+04  0.7818609E-02  0.8559344E-01
        1   -1    0    0  501    0  0.00000000000E+00  0.00000000000E+00  0.81777709416E+03  0.81777709418E+03  0.50400001928E-02 0.  1.
       -1   -1    0    0    0  501  0.00000000000E+00  0.00000000000E+00 -0.13537143746E+04  0.13537143746E+04  0.50400001928E-02 0. -1.
    10030    2    1    2    0    0  0.00000000000E+00  0.00000000000E+00 -0.53593728041E+03  0.21714914688E+04  0.21043161432E+04 0.  0.
        3    1    3    3  502    0  0.41646958097E+03 -0.79237233852E+03  0.30261624328E+03  0.94492192038E+03  0.10100000352E+00 0.  1.
       -3    1    3    3    0  502 -0.41646958097E+03  0.79237233852E+03 -0.83855352369E+03  0.12265695484E+04  0.10100000352E+00 0. -1.
</event>
<event>
 5   0  0.1252477E-04  0.2096646E+04  0.7818609E-02  0.8562722E-01
        2   -1    0    0  501    0  0.00000000000E+00  0.00000000000E+00  0.10592247022E+04  0.10592247022E+04  0.25500000920E-02 0.  1.
       -2   -1    0    0    0  501  0.00000000000E+00  0.00000000000E+00 -0.10375336275E+04  0.10375336275E+04  0.25500000920E-02 0. -1.
    10030    2    1    2    0    0  0.00000000000E+00  0.00000000000E+00  0.21691074739E+02  0.20967583298E+04  0.20966461291E+04 0.  0.
        4    1    3    3  502    0 -0.83620614777E+02  0.47906030730E+03 -0.91790672400E+03  0.10387711741E+04  0.12699999809E+01 0. -1.
       -4    1    3    3    0  502  0.83620614777E+02 -0.47906030730E+03  0.93959779874E+03  0.10579871557E+04  0.12699999809E+01 0.  1.
</event>
<event>
 5   0  0.1252477E-04  0.2043407E+04  0.7818609E-02  0.8586591E-01
       -2   -1    0    0    0  501  0.00000000000E+00  0.00000000000E+00  0.77657976010E+03  0.77657976010E+03  0.25500000920E-02 0. -1.
        2   -1    0    0  501    0  0.00000000000E+00  0.00000000000E+00 -0.13441991906E+04  0.13441991906E+04  0.25500000920E-02 0.  1.
    10030    2    1    2    0    0  0.00000000000E+00  0.00000000000E+00 -0.56761943048E+03  0.21207789507E+04  0.20434068464E+04 0.  0.
        4    1    3    3  502    0  0.35662642777E+03 -0.18599504707E+03 -0.12585735295E+04  0.13212817672E+04  0.12699999809E+01 0.  1.
       -4    1    3    3    0  502 -0.35662642777E+03  0.18599504707E+03  0.69095409898E+03  0.79949718343E+03  0.12699999809E+01 0. -1.
</event>
<event>
 5   0  0.4615125E-05  0.2107568E+04  0.7818609E-02  0.8557917E-01
       -3   -1    0    0    0  501  0.00000000000E+00  0.00000000000E+00  0.97536091139E+03  0.97536091662E+03  0.10100000352E+00 0. -1.
        3   -1    0    0  501    0  0.00000000000E+00  0.00000000000E+00 -0.11385123430E+04  0.11385123475E+04  0.10100000352E+00 0.  1.
    10030    2    1    2    0    0  0.00000000000E+00  0.00000000000E+00 -0.16315143161E+03  0.21138732641E+04  0.21075677420E+04 0.  0.
        1    1    3    3  502    0  0.64410803465E+02  0.94754105769E+03 -0.53953529047E+03  0.10922825355E+04  0.50400001928E-02 0.  1.
       -1    1    3    3    0  502 -0.64410803465E+02 -0.94754105769E+03  0.37638385886E+03  0.10215907286E+04  0.50400001928E-02 0. -1.
</event>
<event>
 5   0  0.1252477E-04  0.2096091E+04  0.7818609E-02  0.8562967E-01
       -2   -1    0    0    0  501  0.00000000000E+00  0.00000000000E+00  0.45594509941E+03  0.45594509942E+03  0.25500000920E-02 0. -1.
        2   -1    0    0  501    0  0.00000000000E+00  0.00000000000E+00 -0.24090599912E+04  0.24090599912E+04  0.25500000920E-02 0.  1.
    10030    2    1    2    0    0  0.00000000000E+00  0.00000000000E+00 -0.19531148918E+04  0.28650050906E+04  0.20960907396E+04 0.  0.
        4    1    3    3  502    0 -0.30757417331E+03  0.52683711237E+03 -0.21413668918E+04  0.22265697818E+04  0.12699999809E+01 0.  1.
       -4    1    3    3    0  502  0.30757417331E+03 -0.52683711237E+03  0.18825200006E+03  0.63843530877E+03  0.12699999809E+01 0. -1.
</event>
<event>
 5   0  0.1235817E-04  0.1897497E+04  0.7818609E-02  0.8656103E-01
       -2   -1    0    0    0  501  0.00000000000E+00  0.00000000000E+00  0.54998860534E+03  0.54998860535E+03  0.25500000920E-02 0. -1.
        2   -1    0    0  501    0  0.00000000000E+00  0.00000000000E+00 -0.16366223074E+04  0.16366223074E+04  0.25500000920E-02 0.  1.
    10030    2    1    2    0    0  0.00000000000E+00  0.00000000000E+00 -0.10866337020E+04  0.21866109127E+04  0.18974968989E+04 0.  0.
        1    1    3    3  502    0 -0.65708750691E+03  0.15576105210E+03 -0.13112614765E+04  0.14749346280E+04  0.50400001928E-02 0.  1.
       -1    1    3    3    0  502  0.65708750691E+03 -0.15576105210E+03  0.22462777450E+03  0.71167628469E+03  0.50400001928E-02 0. -1.
</event>
<event>
 5   0  0.6263616E-05  0.2212210E+04  0.7818609E-02  0.8513363E-01
       -1   -1    0    0    0  501  0.00000000000E+00  0.00000000000E+00  0.92849391427E+03  0.92849391428E+03  0.50400001928E-02 0.  1.
        1   -1    0    0  501    0  0.00000000000E+00  0.00000000000E+00 -0.13176913276E+04  0.13176913277E+04  0.50400001928E-02 0. -1.
    10030    2    1    2    0    0  0.00000000000E+00  0.00000000000E+00 -0.38919741337E+03  0.22461852419E+04  0.22122100973E+04 0.  0.
        4    1    3    3  502    0  0.44767330744E+02  0.36351131375E+03 -0.12543339354E+04  0.13067133670E+04  0.12699999809E+01 0. -1.
       -4    1    3    3    0  502 -0.44767330744E+02 -0.36351131375E+03  0.86513652203E+03  0.93947187492E+03  0.12699999809E+01 0.  1.
</event>
<event>
 5   0  0.4615125E-05  0.2101424E+04  0.7818609E-02  0.8560616E-01
       -3   -1    0    0    0  501  0.00000000000E+00  0.00000000000E+00  0.10074051752E+04  0.10074051803E+04  0.10100000352E+00 0. -1.
        3   -1    0    0  501    0  0.00000000000E+00  0.00000000000E+00 -0.10958803452E+04  0.10958803499E+04  0.10100000352E+00 0.  1.
    10030    2    1    2    0    0  0.00000000000E+00  0.00000000000E+00 -0.88475170017E+02  0.21032855301E+04  0.21014238424E+04 0.  0.
        3    1    3    3  502    0 -0.39215788512E+03  0.47139827689E+03  0.80974241506E+03  0.10157199079E+04  0.10100000352E+00 0. -1.
       -3    1    3    3    0  502  0.39215788512E+03 -0.47139827689E+03 -0.89821758508E+03  0.10875656222E+04  0.10100000352E+00 0.  1.
</event>
<event>
 5   0  0.5846187E-05  0.2105212E+04  0.7818609E-02  0.8558951E-01
        1   -1    0    0  501    0  0.00000000000E+00  0.00000000000E+00  0.85574560983E+03  0.85574560984E+03  0.50400001928E-02 0. -1.
       -1   -1    0    0    0  501  0.00000000000E+00  0.00000000000E+00 -0.12947528605E+04  0.12947528606E+04  0.50400001928E-02 0.  1.
    10030    2    1    2    0    0  0.00000000000E+00  0.00000000000E+00 -0.43900725072E+03  0.21504984704E+04  0.21052117008E+04 0.  0.
        5    1    3    3  502    0 -0.85484701029E+03 -0.12679438829E+03  0.39435333482E+03  0.94993519284E+03  0.46999998093E+01 0. -1.
       -5    1    3    3    0  502  0.85484701029E+03  0.12679438829E+03 -0.83336058554E+03  0.12005632776E+04  0.46999998093E+01 0.  1.
</event>
<event>
 5   0  0.1252477E-04  0.2171480E+04  0.7818609E-02  0.8530393E-01
        2   -1    0    0  501    0  0.00000000000E+00  0.00000000000E+00  0.16146847482E+04  0.16146847482E+04  0.25500000920E-02 0.  1.
       -2   -1    0    0    0  501  0.00000000000E+00  0.00000000000E+00 -0.73006885761E+03  0.73006885761E+03  0.25500000920E-02 0. -1.
    10030    2    1    2    0    0  0.00000000000E+00  0.00000000000E+00  0.88461589057E+03  0.23447536058E+04  0.21714797254E+04 0.  0.
        4    1    3    3  502    0  0.30915855101E+03 -0.20608591008E+02 -0.68131529580E+03  0.74846233631E+03  0.12699999809E+01 0. -1.
       -4    1    3    3    0  502 -0.30915855101E+03  0.20608591008E+02  0.15659311864E+04  0.15962912695E+04  0.12699999809E+01 0.  1.
</event>
<event>
 5   0  0.1235817E-04  0.2106416E+04  0.7818609E-02  0.8558422E-01
       -2   -1    0    0    0  501  0.00000000000E+00  0.00000000000E+00  0.73716918079E+03  0.73716918080E+03  0.25500000920E-02 0.  1.
        2   -1    0    0  501    0  0.00000000000E+00  0.00000000000E+00 -0.15047392148E+04  0.15047392148E+04  0.25500000920E-02 0. -1.
    10030    2    1    2    0    0  0.00000000000E+00  0.00000000000E+00 -0.76757003399E+03  0.22419083956E+04  0.21064162687E+04 0.  0.
        1    1    3    3  502    0 -0.60954756719E+03  0.82911104427E+03 -0.14514380653E+03  0.10392497703E+04  0.50400001928E-02 0.  1.
       -1    1    3    3    0  502  0.60954756719E+03 -0.82911104427E+03 -0.62242622746E+03  0.12026586253E+04  0.50400001928E-02 0. -1.
</event>
<event>
 5   0  0.1252477E-04  0.2085722E+04  0.7818609E-02  0.8567559E-01
        2   -1    0    0  501    0  0.00000000000E+00  0.00000000000E+00  0.11741728452E+04  0.11741728452E+04  0.25500000920E-02 0. -1.
       -2   -1    0    0    0  501  0.00000000000E+00  0.00000000000E+00 -0.92623397067E+03  0.92623397067E+03  0.25500000920E-02 0.  1.
    10030    2    1    2    0    0  0.00000000000E+00  0.00000000000E+00  0.24793887455E+03  0.21004068159E+04  0.20857217232E+04 0.  0.
        4    1    3    3  502    0 -0.19734930820E+03 -0.64298184230E+03  0.92656562195E+03  0.11449444806E+04  0.12699999809E+01 0. -1.
       -4    1    3    3    0  502  0.19734930820E+03  0.64298184230E+03 -0.67862674740E+03  0.95546233530E+03  0.12699999809E+01 0.  1.
</event>
<event>
 5   0  0.1325673E-04  0.2085523E+04  0.7818609E-02  0.8567647E-01
       -2   -1    0    0    0  501  0.00000000000E+00  0.00000000000E+00  0.12917673607E+04  0.12917673607E+04  0.25500000920E-02 0.  1.
        2   -1    0    0  501    0  0.00000000000E+00  0.00000000000E+00 -0.84175533018E+03  0.84175533018E+03  0.25500000920E-02 0. -1.
    10030    2    1    2    0    0  0.00000000000E+00  0.00000000000E+00  0.45001203056E+03  0.21335226909E+04  0.20855234942E+04 0.  0.
        5    1    3    3  502    0 -0.34727068138E+03  0.60710010336E+03  0.10162160274E+04  0.12336468563E+04  0.46999998093E+01 0.  1.
       -5    1    3    3    0  502  0.34727068138E+03 -0.60710010336E+03 -0.56620399688E+03  0.89987583461E+03  0.46999998093E+01 0. -1.
</event>
<event>
 5   0  0.1349252E-04  0.2045990E+04  0.7818609E-02  0.8585415E-01
        2   -1    0    0  501    0  0.00000000000E+00  0.00000000000E+00  0.22797806273E+04  0.22797806273E+04  0.25500000920E-02 0.  1.
       -2   -1    0    0    0  501  0.00000000000E+00  0.00000000000E+00 -0.45904382689E+03  0.45904382690E+03  0.25500000920E-02 0. -1.
    10030    2    1    2    0    0  0.00000000000E+00  0.00000000000E+00  0.18207368004E+04  0.27388244542E+04  0.20459904434E+04 0.  0.
        2    1    3    3  502    0  0.88984278590E+03 -0.21900617023E+00  0.15859443947E+04  0.18185268364E+04  0.25500000920E-02 0.  1.
       -2    1    3    3    0  502 -0.88984278590E+03  0.21900617023E+00  0.23479240572E+03  0.92029761783E+03  0.25500000920E-02 0. -1.
</event>
<event>
 5   0  0.6221148E-05  0.2065995E+04  0.7818609E-02  0.8576373E-01
       -1   -1    0    0    0  501  0.00000000000E+00  0.00000000000E+00  0.10776408896E+04  0.10776408896E+04  0.50400001928E-02 0. -1.
        1   -1    0    0  501    0  0.00000000000E+00  0.00000000000E+00 -0.99020337717E+03  0.99020337718E+03  0.50400001928E-02 0.  1.
    10030    2    1    2    0    0  0.00000000000E+00  0.00000000000E+00  0.87437512397E+02  0.20678442668E+04  0.20659948192E+04 0.  0.
        3    1    3    3  502    0  0.96372355941E+03  0.34622648054E+03  0.17966288575E+03  0.10396704466E+04  0.10100000352E+00 0. -1.
       -3    1    3    3    0  502 -0.96372355941E+03 -0.34622648054E+03 -0.92225373350E+02  0.10281738202E+04  0.10100000352E+00 0.  1.
</event>
<event>
 5   0  0.1235817E-04  0.2064509E+04  0.7818609E-02  0.8577041E-01
        2   -1    0    0  501    0  0.00000000000E+00  0.00000000000E+00  0.15833989354E+04  0.15833989354E+04  0.25500000920E-02 0. -1.
       -2   -1    0    0    0  501  0.00000000000E+00  0.00000000000E+00 -0.67295033896E+03  0.67295033897E+03  0.25500000920E-02 0.  1.
    10030    2    1    2    0    0  0.00000000000E+00  0.00000000000E+00  0.91044859643E+03  0.22563492744E+04  0.20645085132E+04 0.  0.
        1    1    3    3  502    0  0.63851197086E+03 -0.94623420835E+02 -0.42517112101E+03  0.77293053431E+03  0.50400001928E-02 0.  1.
       -1    1    3    3    0  502 -0.63851197086E+03  0.94623420835E+02  0.13356197174E+04  0.14834187401E+04  0.50400001928E-02 0. -1.
</event>
<event>
 5   0  0.5933905E-05  0.2083196E+04  0.7818609E-02  0.8568682E-01
       -1   -1    0    0    0  501  0.00000000000E+00  0.00000000000E+00  0.93090488970E+03  0.93090488972E+03  0.50400001928E-02 0.  1.
        1   -1    0    0  501    0  0.00000000000E+00  0.00000000000E+00 -0.11654538677E+04  0.11654538677E+04  0.50400001928E-02 0. -1.
    10030    2    1    2    0    0  0.00000000000E+00  0.00000000000E+00 -0.23454897801E+03  0.20963587574E+04  0.20831962982E+04 0.  0.
        2    1    3    3  502    0 -0.84416517296E+03 -0.49069329377E+03 -0.48223934954E+03  0.10890131028E+04  0.25500000920E-02 0. -1.
       -2    1    3    3    0  502  0.84416517296E+03  0.49069329377E+03  0.24769037153E+03  0.10073456547E+04  0.25500000920E-02 0.  1.
</event>
<event>
 5   0  0.6263616E-05  0.1506012E+04  0.7818609E-02  0.8880465E-01
       -1   -1    0    0    0  501  0.00000000000E+00  0.00000000000E+00  0.52963346299E+03  0.52963346301E+03  0.50400001928E-02 0.  1.
        1   -1    0    0  501    0  0.00000000000E+00  0.00000000000E+00 -0.10705858457E+04  0.10705858457E+04  0.50400001928E-02 0. -1.
    10030    2    1    2    0    0  0.00000000000E+00  0.00000000000E+00 -0.54095238273E+03  0.16002193087E+04  0.15060120702E+04 0.  0.
        4    1    3    3  502    0 -0.65016755494E+03  0.37248641975E+03 -0.19129991232E+03  0.77334420005E+03  0.12699999809E+01 0.  1.
       -4    1    3    3    0  502  0.65016755494E+03 -0.37248641975E+03 -0.34965247041E+03  0.82687510869E+03  0.12699999809E+01 0. -1.
</event>
<event>
 5   0  0.1281470E-04  0.2127516E+04  0.7818609E-02  0.8549218E-01
        2   -1    0    0  501    0  0.00000000000E+00  0.00000000000E+00  0.83212399081E+03  0.83212399082E+03  0.25500000920E-02 0.  1.
       -2   -1    0    0    0  501  0.00000000000E+00  0.00000000000E+00 -0.13598707781E+04  0.13598707782E+04  0.25500000920E-02 0. -1.
    10030    2    1    2    0    0  0.00000000000E+00  0.00000000000E+00 -0.52774678733E+03  0.21919947690E+04  0.21275160154E+04 0.  0.
        3    1    3    3  502    0 -0.93485995526E+03  0.32154154823E+03  0.14074877769E+03  0.99858015793E+03  0.10100000352E+00 0. -1.
       -3    1    3    3    0  502  0.93485995526E+03 -0.32154154823E+03 -0.66849556503E+03  0.11934146110E+04  0.10100000352E+00 0.  1.
</event>
<event>
 5   0  0.1325673E-04  0.2095677E+04  0.7818609E-02  0.8563150E-01
        2   -1    0    0  501    0  0.00000000000E+00  0.00000000000E+00  0.63025552604E+03  0.63025552605E+03  0.25500000920E-02 0.  1.
       -2   -1    0    0    0  501  0.00000000000E+00  0.00000000000E+00 -0.17420965517E+04  0.17420965517E+04  0.25500000920E-02 0. -1.
    10030    2    1    2    0    0  0.00000000000E+00  0.00000000000E+00 -0.11118410257E+04  0.23723520778E+04  0.20956774357E+04 0.  0.
        5    1    3    3  502    0  0.26325014516E+03 -0.77357719447E+03 -0.12984279322E+04  0.15341641046E+04  0.46999998093E+01 0. -1.
       -5    1    3    3    0  502 -0.26325014516E+03  0.77357719447E+03  0.18658690650E+03  0.83818797319E+03  0.46999998093E+01 0.  1.
</event>
<event>
 5   0  0.4615125E-05  0.1580923E+04  0.7818609E-02  0.8832354E-01
       -3   -1    0    0    0  501  0.00000000000E+00  0.00000000000E+00  0.76692827841E+03  0.76692828506E+03  0.10100000352E+00 0.  1.
        3   -1    0    0  501    0  0.00000000000E+00  0.00000000000E+00 -0.81471694371E+03  0.81471694997E+03  0.10100000352E+00 0. -1.
    10030    2    1    2    0    0  0.00000000000E+00  0.00000000000E+00 -0.47788665300E+02  0.15816452350E+04  0.15809231142E+04 0.  0.
        1    1    3    3  502    0  0.50359909323E+03 -0.43362342466E+03  0.40430601838E+03  0.77788474573E+03  0.50400001928E-02 0. -1.
       -1    1    3    3    0  502 -0.50359909323E+03  0.43362342466E+03 -0.45209468368E+03  0.80376048930E+03  0.50400001928E-02 0.  1.
</event>
<event>
 5   0  0.1325673E-04  0.2121845E+04  0.7818609E-02  0.8551681E-01
        2   -1    0    0  501    0  0.00000000000E+00  0.00000000000E+00  0.13742930251E+04  0.13742930251E+04  0.25500000920E-02 0.  1.
       -2   -1    0    0    0  501  0.00000000000E+00  0.00000000000E+00 -0.81900738991E+03  0.81900738992E+03  0.25500000920E-02 0. -1.
    10030    2    1    2    0    0  0.00000000000E+00  0.00000000000E+00  0.55528563519E+03  0.21933004150E+04  0.21218446159E+04 0.  0.
        5    1    3    3  502    0  0.39785835301E+03  0.93843124189E+03 -0.26527885758E+02  0.10196422331E+04  0.46999998093E+01 0. -1.
       -5    1    3    3    0  502 -0.39785835301E+03 -0.93843124189E+03  0.58181352095E+03  0.11736581819E+04  0.46999998093E+01 0.  1.
</event>
<event>
 5   0  0.1235817E-04  0.2098038E+04  0.7818609E-02  0.8562108E-01
        2   -1    0    0  501    0  0.00000000000E+00  0.00000000000E+00  0.25764383763E+04  0.25764383763E+04  0.25500000920E-02 0. -1.
       -2   -1    0    0    0  501  0.00000000000E+00  0.00000000000E+00 -0.42711720936E+03  0.42711720937E+03  0.25500000920E-02 0.  1.
    10030    2    1    2    0    0  0.00000000000E+00  0.00000000000E+00  0.21493211669E+04  0.30035555857E+04  0.20980382927E+04 0.  0.
        1    1    3    3  502    0 -0.37395292790E+03 -0.74786263246E+03  0.16776382516E+03  0.85280948069E+03  0.50400001928E-02 0.  1.
       -1    1    3    3    0  502  0.37395292790E+03  0.74786263246E+03  0.19815573418E+04  0.21507461050E+04  0.50400001928E-02 0. -1.
</event>
<event>
 5   0  0.6263616E-05  0.2091921E+04  0.7818609E-02  0.8564810E-01
        1   -1    0    0  501    0  0.00000000000E+00  0.00000000000E+00  0.12743602093E+04  0.12743602093E+04  0.50400001928E-02 0.  1.
       -1   -1    0    0    0  501  0.00000000000E+00  0.00000000000E+00 -0.85849639046E+03  0.85849639048E+03  0.50400001928E-02 0. -1.
    10030    2    1    2    0    0  0.00000000000E+00  0.00000000000E+00  0.41586381880E+03  0.21328565998E+04  0.20919212603E+04 0.  0.
        4    1    3    3  502    0  0.31970762169E+03 -0.70393403352E+03 -0.51033636563E+03  0.92638054054E+03  0.12699999809E+01 0. -1.
       -4    1    3    3    0  502 -0.31970762169E+03  0.70393403352E+03  0.92620018443E+03  0.12064760592E+04  0.12699999809E+01 0.  1.
</event>
<event>
 5   0  0.5846187E-05  0.2085433E+04  0.7818609E-02  0.8567688E-01
        1   -1    0    0  501    0  0.00000000000E+00  0.00000000000E+00  0.18802423622E+04  0.18802423622E+04  0.50400001928E-02 0. -1.
       -1   -1    0    0    0  501  0.00000000000E+00  0.00000000000E+00 -0.57825401013E+03  0.57825401015E+03  0.50400001928E-02 0.  1.
    10030    2    1    2    0    0  0.00000000000E+00  0.00000000000E+00  0.13019883521E+04  0.24584963724E+04  0.20854329872E+04 0.  0.
        5    1    3    3  502    0  0.24187445320E+03 -0.70801634573E+03 -0.20517976391E+03  0.77582937715E+03  0.46999998093E+01 0.  1.
       -5    1    3    3    0  502 -0.24187445320E+03  0.70801634573E+03  0.15071681160E+04  0.16826669952E+04  0.46999998093E+01 0. -1.
</event>
<event>
 5   0  0.1325673E-04  0.2098493E+04  0.7818609E-02  0.8561908E-01
        2   -1    0    0  501    0  0.00000000000E+00  0.00000000000E+00  0.16127296701E+04  0.16127296701E+04  0.25500000920E-02 0.  1.
       -2   -1    0    0    0  501  0.00000000000E+00  0.00000000000E+00 -0.68264272409E+03  0.68264272410E+03  0.25500000920E-02 0. -1.
    10030    2    1    2    0    0  0.00000000000E+00  0.00000000000E+00  0.93008694597E+03  0.22953723942E+04  0.20984929594E+04 0.  0.
        5    1    3    3  502    0  0.68330567699E+03  0.78228510992E+03  0.62735479314E+03  0.12134548891E+04  0.46999998093E+01 0.  1.
       -5    1    3    3    0  502 -0.68330567699E+03 -0.78228510992E+03  0.30273215284E+03  0.10819175051E+04  0.46999998093E+01 0. -1.
</event>
<event>
 5   0  0.1349252E-04  0.2098500E+04  0.7818609E-02  0.8561904E-01
        2   -1    0    0  501    0  0.00000000000E+00  0.00000000000E+00  0.99238797629E+03  0.99238797629E+03  0.25500000920E-02 0. -1.
       -2   -1    0    0    0  501  0.00000000000E+00  0.00000000000E+00 -0.11093701232E+04  0.11093701232E+04  0.25500000920E-02 0.  1.
    10030    2    1    2    0    0  0.00000000000E+00  0.00000000000E+00 -0.11698214691E+03  0.21017580995E+04  0.20985000086E+04 0.  0.
        2    1    3    3  502    0 -0.25941748323E+03  0.87153061177E+03 -0.58281368671E+03  0.10800624201E+04  0.25500000920E-02 0.  1.
       -2    1    3    3    0  502  0.25941748323E+03 -0.87153061177E+03  0.46583153980E+03  0.10216956794E+04  0.25500000920E-02 0. -1.
</event>
<event>
 5   0  0.1281470E-04  0.2110117E+04  0.7818609E-02  0.8556800E-01
        2   -1    0    0  501    0  0.00000000000E+00  0.00000000000E+00  0.14289363806E+04  0.14289363806E+04  0.25500000920E-02 0.  1.
       -2   -1    0    0    0  501  0.00000000000E+00  0.00000000000E+00 -0.77900465912E+03  0.77900465912E+03  0.25500000920E-02 0. -1.
    10030    2    1    2    0    0  0.00000000000E+00  0.00000000000E+00  0.64993172146E+03  0.22079410397E+04  0.21101166774E+04 0.  0.
        3    1    3    3  502    0 -0.33635100017E+03  0.77528805186E+03  0.98586815408E+03  0.12985143766E+04  0.10100000352E+00 0.  1.
       -3    1    3    3    0  502  0.33635100017E+03 -0.77528805186E+03 -0.33593643263E+03  0.90942666314E+03  0.10100000352E+00 0. -1.
</event>
<event>
 5   0  0.6052292E-05  0.2135296E+04  0.7818609E-02  0.8545853E-01
       -1   -1    0    0    0  501  0.00000000000E+00  0.00000000000E+00  0.10828938813E+04  0.10828938813E+04  0.50400001928E-02 0. -1.
        1   -1    0    0  501    0  0.00000000000E+00  0.00000000000E+00 -0.10526169461E+04  0.10526169461E+04  0.50400001928E-02 0.  1.
    10030    2    1    2    0    0  0.00000000000E+00  0.00000000000E+00  0.30276935277E+02  0.21355108274E+04  0.21352961858E+04 0.  0.
        1    1    3    3  502    0  0.46660115595E+03  0.67934116686E+03  0.69391973230E+03  0.10773790673E+04  0.50400001928E-02 0. -1.
       -1    1    3    3    0  502 -0.46660115595E+03 -0.67934116686E+03 -0.66364279702E+03  0.10581317601E+04  0.50400001928E-02 0.  1.
</event>
<event>
 5   0  0.1281470E-04  0.2089027E+04  0.7818609E-02  0.8566092E-01
       -2   -1    0    0    0  501  0.00000000000E+00  0.00000000000E+00  0.72148442843E+03  0.72148442843E+03  0.25500000920E-02 0. -1.
        2   -1    0    0  501    0  0.00000000000E+00  0.00000000000E+00 -0.15121722188E+04  0.15121722188E+04  0.25500000920E-02 0.  1.
    10030    2    1    2    0    0  0.00000000000E+00  0.00000000000E+00 -0.79068779041E+03  0.22336566473E+04  0.20890272464E+04 0.  0.
        3    1    3    3  502    0  0.76352073553E+03 -0.62924878869E+03 -0.75332260033E+03  0.12435485121E+04  0.10100000352E+00 0.  1.
       -3    1    3    3    0  502 -0.76352073553E+03  0.62924878869E+03 -0.37365190081E+02  0.99010813514E+03  0.10100000352E+00 0. -1.
</event>
<event>
 5   0  0.1325673E-04  0.2117226E+04  0.7818609E-02  0.8553693E-01
        2   -1    0    0  501    0  0.00000000000E+00  0.00000000000E+00  0.94829049484E+03  0.94829049485E+03  0.25500000920E-02 0. -1.
       -2   -1    0    0    0  501  0.00000000000E+00  0.00000000000E+00 -0.11817702028E+04  0.11817702028E+04  0.25500000920E-02 0.  1.
    10030    2    1    2    0    0  0.00000000000E+00  0.00000000000E+00 -0.23347970792E+03  0.21300606976E+04  0.21172259685E+04 0.  0.
        5    1    3    3  502    0 -0.72122247790E+03 -0.50853840646E+03 -0.70497753520E+03  0.11295081180E+04  0.46999998093E+01 0.  1.
       -5    1    3    3    0  502  0.72122247790E+03  0.50853840646E+03  0.47149782728E+03  0.10005525796E+04  0.46999998093E+01 0. -1.
</event>
<event>
 5   0  0.6052292E-05  0.2088843E+04  0.7818609E-02  0.8566174E-01
        1   -1    0    0  501    0  0.00000000000E+00  0.00000000000E+00  0.21474826514E+04  0.21474826515E+04  0.50400001928E-02 0.  1.
       -1   -1    0    0    0  501  0.00000000000E+00  0.00000000000E+00 -0.50795112935E+03  0.50795112938E+03  0.50400001928E-02 0. -1.
    10030    2    1    2    0    0  0.00000000000E+00  0.00000000000E+00  0.16395315221E+04  0.26554337808E+04  0.20888429698E+04 0.  0.
        1    1    3    3  502    0 -0.47191495906E+03 -0.18332584935E+03  0.19810644384E+04  0.20447318662E+04  0.50400001928E-02 0.  1.
       -1    1    3    3    0  502  0.47191495906E+03  0.18332584935E+03 -0.34153291628E+03  0.61070191464E+03  0.50400001928E-02 0. -1.
</event>
<event>
 5   0  0.5933905E-05  0.2187492E+04  0.7818609E-02  0.8523652E-01
        1   -1    0    0  501    0  0.00000000000E+00  0.00000000000E+00  0.65746510114E+03  0.65746510116E+03  0.50400001928E-02 0.  1.
       -1   -1    0    0    0  501  0.00000000000E+00  0.00000000000E+00 -0.18195349875E+04  0.18195349876E+04  0.50400001928E-02 0. -1.
    10030    2    1    2    0    0  0.00000000000E+00  0.00000000000E+00 -0.11620698864E+04  0.24770000887E+04  0.21874924042E+04 0.  0.
        2    1    3    3  502    0  0.10023560599E+04  0.80896460519E+01 -0.10765549376E+04  0.14709703080E+04  0.25500000920E-02 0. -1.
       -2    1    3    3    0  502 -0.10023560599E+04 -0.80896460519E+01 -0.85514948841E+02  0.10060297808E+04  0.25500000920E-02 0.  1.
</event>
<event>
 5   0  0.1252477E-04  0.2227134E+04  0.7818609E-02  0.8507219E-01
       -2   -1    0    0    0  501  0.00000000000E+00  0.00000000000E+00  0.85843210523E+03  0.85843210524E+03  0.25500000920E-02 0.  1.
        2   -1    0    0  501    0  0.00000000000E+00  0.00000000000E+00 -0.14445302482E+04  0.14445302482E+04  0.25500000920E-02 0. -1.
    10030    2    1    2    0    0  0.00000000000E+00  0.00000000000E+00 -0.58609814296E+03  0.23029623534E+04  0.22271337113E+04 0.  0.
        4    1    3    3  502    0  0.48428390344E+03  0.15921800910E+03  0.73068329101E+03  0.89094385806E+03  0.12699999809E+01 0.  1.
       -4    1    3    3    0  502 -0.48428390344E+03 -0.15921800910E+03 -0.13167814340E+04  0.14120184954E+04  0.12699999809E+01 0. -1.
</event>
<event>
 5   0  0.1252477E-04  0.2090105E+04  0.7818609E-02  0.8565615E-01
       -2   -1    0    0    0  501  0.00000000000E+00  0.00000000000E+00  0.12779636984E+04  0.12779636984E+04  0.25500000920E-02 0. -1.
        2   -1    0    0  501    0  0.00000000000E+00  0.00000000000E+00 -0.85458957223E+03  0.85458957223E+03  0.25500000920E-02 0.  1.
    10030    2    1    2    0    0  0.00000000000E+00  0.00000000000E+00  0.42337412622E+03  0.21325532707E+04  0.20901047346E+04 0.  0.
        4    1    3    3  502    0 -0.42468043489E+02 -0.49161949464E+03  0.11516126665E+04  0.12528793273E+04  0.12699999809E+01 0. -1.
       -4    1    3    3    0  502  0.42468043489E+02  0.49161949464E+03 -0.72823854028E+03  0.87967394339E+03  0.12699999809E+01 0.  1.
</event>
<event>
 5   0  0.1349252E-04  0.2094365E+04  0.7818609E-02  0.8563730E-01
        2   -1    0    0  501    0  0.00000000000E+00  0.00000000000E+00  0.10582603547E+04  0.10582603547E+04  0.25500000920E-02 0. -1.
       -2   -1    0    0    0  501  0.00000000000E+00  0.00000000000E+00 -0.10362207472E+04  0.10362207472E+04  0.25500000920E-02 0.  1.
    10030    2    1    2    0    0  0.00000000000E+00  0.00000000000E+00  0.22039607475E+02  0.20944811018E+04  0.20943651405E+04 0.  0.
        2    1    3    3  502    0 -0.63511548200E+03 -0.13389166464E+03  0.83282724085E+03  0.10558881884E+04  0.25500000920E-02 0. -1.
       -2    1    3    3    0  502  0.63511548200E+03  0.13389166464E+03 -0.81078763338E+03  0.10385929134E+04  0.25500000920E-02 0.  1.
</event>
<event>
 5   0  0.1235817E-04  0.2076586E+04  0.7818609E-02  0.8571628E-01
        2   -1    0    0  501    0  0.00000000000E+00  0.00000000000E+00  0.22838698639E+04  0.22838698639E+04  0.25500000920E-02 0. -1.
       -2   -1    0    0    0  501  0.00000000000E+00  0.00000000000E+00 -0.47202872116E+03  0.47202872117E+03  0.25500000920E-02 0.  1.
    10030    2    1    2    0    0  0.00000000000E+00  0.00000000000E+00  0.18118411427E+04  0.27558985850E+04  0.20765858240E+04 0.  0.
        1    1    3    3  502    0  0.17390200275E+02  0.16259713756E+03 -0.45483193141E+03  0.48333459845E+03  0.50400001928E-02 0.  1.
       -1    1    3    3    0  502 -0.17390200275E+02 -0.16259713756E+03  0.22666730741E+04  0.22725639866E+04  0.50400001928E-02 0. -1.
</event>
<event>
 5   0  0.1252477E-04  0.2082849E+04  0.7818609E-02  0.8568836E-01
        2   -1    0    0  501    0  0.00000000000E+00  0.00000000000E+00  0.10008010371E+04  0.10008010371E+04  0.25500000920E-02 0.  1.
       -2   -1    0    0    0  501  0.00000000000E+00  0.00000000000E+00 -0.10836971250E+04  0.10836971250E+04  0.25500000920E-02 0. -1.
    10030    2    1    2    0    0  0.00000000000E+00  0.00000000000E+00 -0.82896087884E+02  0.20844981622E+04  0.20828492088E+04 0.  0.
        4    1    3    3  502    0  0.33700991688E+03 -0.49521099583E+03  0.81113835418E+03  0.10083435213E+04  0.12699999809E+01 0.  1.
       -4    1    3    3    0  502 -0.33700991688E+03  0.49521099583E+03 -0.89403444207E+03  0.10761546408E+04  0.12699999809E+01 0. -1.
</event>
<event>
 5   0  0.1281470E-04  0.2085640E+04  0.7818609E-02  0.8567595E-01
       -2   -1    0    0    0  501  0.00000000000E+00  0.00000000000E+00  0.40186605851E+03  0.40186605852E+03  0.25500000920E-02 0. -1.
        2   -1    0    0  501    0  0.00000000000E+00  0.00000000000E+00 -0.27060608477E+04  0.27060608477E+04  0.25500000920E-02 0.  1.
    10030    2    1    2    0    0  0.00000000000E+00  0.00000000000E+00 -0.23041947892E+04  0.31079269063E+04  0.20856404359E+04 0.  0.
        3    1    3    3  502    0  0.96327075032E+03  0.11769461955E+02 -0.55707032138E+03  0.11128146350E+04  0.10100000352E+00 0. -1.
       -3    1    3    3    0  502 -0.96327075032E+03 -0.11769461955E+02 -0.17471244678E+04  0.19951122713E+04  0.10100000352E+00 0.  1.
</event>
<event>
 5   0  0.6221148E-05  0.2109614E+04  0.7818609E-02  0.8557020E-01
        1   -1    0    0  501    0  0.00000000000E+00  0.00000000000E+00  0.89240468403E+03  0.89240468404E+03  0.50400001928E-02 0. -1.
       -1   -1    0    0    0  501  0.00000000000E+00  0.00000000000E+00 -0.12467633547E+04  0.12467633548E+04  0.50400001928E-02 0.  1.
    10030    2    1    2    0    0  0.00000000000E+00  0.00000000000E+00 -0.35435867072E+03  0.21391680388E+04  0.21096136686E+04 0.  0.
        3    1    3    3  502    0 -0.64214975605E+03 -0.83361103225E+03 -0.10298471073E+03  0.10572934896E+04  0.10100000352E+00 0.  1.
       -3    1    3    3    0  502  0.64214975605E+03  0.83361103225E+03 -0.25137395998E+03  0.10818745492E+04  0.10100000352E+00 0. -1.
</event>
<event>
 5   0  0.6221148E-05  0.2112080E+04  0.7818609E-02  0.8555941E-01
        1   -1    0    0  501    0  0.00000000000E+00  0.00000000000E+00  0.10558147910E+04  0.10558147910E+04  0.50400001928E-02 0.  1.
       -1   -1    0    0    0  501  0.00000000000E+00  0.00000000000E+00 -0.10562654843E+04  0.10562654843E+04  0.50400001928E-02 0. -1.
    10030    2    1    2    0    0  0.00000000000E+00  0.00000000000E+00 -0.45069328022E+00  0.21120802753E+04  0.21120802272E+04 0.  0.
        3    1    3    3  502    0  0.42601067334E+02 -0.63750238532E+02  0.10530276230E+04  0.10558153857E+04  0.10100000352E+00 0.  1.
       -3    1    3    3    0  502 -0.42601067334E+02  0.63750238532E+02 -0.10534783162E+04  0.10562648895E+04  0.10100000352E+00 0. -1.
</event>
<event>
 5   0  0.6263616E-05  0.1936607E+04  0.7818609E-02  0.8636846E-01
        1   -1    0    0  501    0  0.00000000000E+00  0.00000000000E+00  0.75907735003E+03  0.75907735005E+03  0.50400001928E-02 0.  1.
       -1   -1    0    0    0  501  0.00000000000E+00  0.00000000000E+00 -0.12351994437E+04  0.12351994437E+04  0.50400001928E-02 0. -1.
    10030    2    1    2    0    0  0.00000000000E+00  0.00000000000E+00 -0.47612209369E+03  0.19942767938E+04  0.19366072607E+04 0.  0.
        4    1    3    3  502    0 -0.75166274627E+03 -0.53891692526E+03 -0.53327178914E+03  0.10676182606E+04  0.12699999809E+01 0. -1.
       -4    1    3    3    0  502  0.75166274627E+03  0.53891692526E+03  0.57149695448E+02  0.92665853315E+03  0.12699999809E+01 0.  1.
</event>
<event>
 5   0  0.6052292E-05  0.2215288E+04  0.7818609E-02  0.8512092E-01
        1   -1    0    0  501    0  0.00000000000E+00  0.00000000000E+00  0.12432939571E+04  0.12432939571E+04  0.50400001928E-02 0.  1.
       -1   -1    0    0    0  501  0.00000000000E+00  0.00000000000E+00 -0.98679405658E+03  0.98679405659E+03  0.50400001928E-02 0. -1.
    10030    2    1    2    0    0  0.00000000000E+00  0.00000000000E+00  0.25649990051E+03  0.22300880137E+04  0.22152878707E+04 0.  0.
        1    1    3    3  502    0 -0.69612954956E+02 -0.36439341164E+03 -0.92239247426E+03  0.99420138732E+03  0.50400001928E-02 0. -1.
       -1    1    3    3    0  502  0.69612954956E+02  0.36439341164E+03  0.11788923748E+04  0.12358866264E+04  0.50400001928E-02 0.  1.
</event>
<event>
 5   0  0.1235817E-04  0.2045144E+04  0.7818609E-02  0.8585800E-01
        2   -1    0    0  501    0  0.00000000000E+00  0.00000000000E+00  0.77543317120E+03  0.77543317121E+03  0.25500000920E-02 0. -1.
       -2   -1    0    0    0  501  0.00000000000E+00  0.00000000000E+00 -0.13484772572E+04  0.13484772572E+04  0.25500000920E-02 0.  1.
    10030    2    1    2    0    0  0.00000000000E+00  0.00000000000E+00 -0.57304408597E+03  0.21239104284E+04  0.20451444896E+04 0.  0.
        1    1    3    3  502    0 -0.86271084123E+03  0.61939853463E+02  0.27996544336E+03  0.90911340905E+03  0.50400001928E-02 0. -1.
       -1    1    3    3    0  502  0.86271084123E+03 -0.61939853463E+02 -0.85300952932E+03  0.12147970193E+04  0.50400001928E-02 0.  1.
</event>
<event>
 5   0  0.1252477E-04  0.2165858E+04  0.7818609E-02  0.8532775E-01
       -2   -1    0    0    0  501  0.00000000000E+00  0.00000000000E+00  0.10298979537E+04  0.10298979537E+04  0.25500000920E-02 0.  1.
        2   -1    0    0  501    0  0.00000000000E+00  0.00000000000E+00 -0.11386902869E+04  0.11386902869E+04  0.25500000920E-02 0. -1.
    10030    2    1    2    0    0  0.00000000000E+00  0.00000000000E+00 -0.10879233318E+03  0.21685882407E+04  0.21658576098E+04 0.  0.
        4    1    3    3  502    0 -0.33796525621E+03 -0.10175934887E+04  0.97505884780E+02  0.10766735964E+04  0.12699999809E+01 0.  1.
       -4    1    3    3    0  502  0.33796525621E+03  0.10175934887E+04 -0.20629821796E+03  0.10919146443E+04  0.12699999809E+01 0. -1.
</event>
<event>
 5   0  0.1349252E-04  0.2054179E+04  0.7818609E-02  0.8581701E-01
        2   -1    0    0  501    0  0.00000000000E+00  0.00000000000E+00  0.88954349532E+03  0.88954349532E+03  0.25500000920E-02 0.  1.
       -2   -1    0    0    0  501  0.00000000000E+00  0.00000000000E+00 -0.11859038627E+04  0.11859038627E+04  0.25500000920E-02 0. -1.
    10030    2    1    2    0    0  0.00000000000E+00  0.00000000000E+00 -0.29636036737E+03  0.20754473580E+04  0.20541792202E+04 0.  0.
        2    1    3    3  502    0  0.86201464419E+03 -0.40590937692E+03  0.23930247002E+03  0.98239367935E+03  0.25500000920E-02 0.  1.
       -2    1    3    3    0  502 -0.86201464419E+03  0.40590937692E+03 -0.53566283739E+03  0.10930536787E+04  0.25500000920E-02 0. -1.
</event>
<event>
 5   0  0.5846187E-05  0.2095700E+04  0.7818609E-02  0.8563140E-01
       -1   -1    0    0    0  501  0.00000000000E+00  0.00000000000E+00  0.18619699031E+04  0.18619699031E+04  0.50400001928E-02 0. -1.
        1   -1    0    0  501    0  0.00000000000E+00  0.00000000000E+00 -0.58969265651E+03  0.58969265653E+03  0.50400001928E-02 0.  1.
    10030    2    1    2    0    0  0.00000000000E+00  0.00000000000E+00  0.12722772466E+04  0.24516625596E+04  0.20957003398E+04 0.  0.
        5    1    3    3  502    0 -0.55222769182E+03  0.86310910009E+03  0.89258789065E+03  0.13589142632E+04  0.46999998093E+01 0. -1.
       -5    1    3    3    0  502  0.55222769182E+03 -0.86310910009E+03  0.37968935591E+03  0.10927482964E+04  0.46999998093E+01 0.  1.
</event>
<event>
 5   0  0.6221148E-05  0.2110159E+04  0.7818609E-02  0.8556781E-01
        1   -1    0    0  501    0  0.00000000000E+00  0.00000000000E+00  0.95512774481E+03  0.95512774482E+03  0.50400001928E-02 0.  1.
       -1   -1    0    0    0  501  0.00000000000E+00  0.00000000000E+00 -0.11654913787E+04  0.11654913787E+04  0.50400001928E-02 0. -1.
    10030    2    1    2    0    0  0.00000000000E+00  0.00000000000E+00 -0.21036363385E+03  0.21206191235E+04  0.21101593799E+04 0.  0.
        3    1    3    3  502    0  0.28969580124E+03  0.20617624947E+03  0.89310047527E+03  0.96128079780E+03  0.10100000352E+00 0.  1.
       -3    1    3    3    0  502 -0.28969580124E+03 -0.20617624947E+03 -0.11034641091E+04  0.11593383257E+04  0.10100000352E+00 0. -1.
</event>
<event>
 5   0  0.1235817E-04  0.1996053E+04  0.7818609E-02  0.8608468E-01
        2   -1    0    0  501    0  0.00000000000E+00  0.00000000000E+00  0.17048579453E+04  0.17048579453E+04  0.25500000920E-02 0.  1.
       -2   -1    0    0    0  501  0.00000000000E+00  0.00000000000E+00 -0.58424644264E+03  0.58424644265E+03  0.25500000920E-02 0. -1.
    10030    2    1    2    0    0  0.00000000000E+00  0.00000000000E+00  0.11206115026E+04  0.22891043879E+04  0.19960532956E+04 0.  0.
        1    1    3    3  502    0  0.54339229963E+03 -0.59018836417E+03  0.12411506602E+04  0.14778540042E+04  0.50400001928E-02 0.  1.
       -1    1    3    3    0  502 -0.54339229963E+03  0.59018836417E+03 -0.12053915757E+03  0.81125038369E+03  0.50400001928E-02 0. -1.
</event>
<event>
 5   0  0.6263616E-05  0.1912613E+04  0.7818609E-02  0.8648603E-01
       -1   -1    0    0    0  501  0.00000000000E+00  0.00000000000E+00  0.17190948076E+04  0.17190948076E+04  0.50400001928E-02 0. -1.
        1   -1    0    0  501    0  0.00000000000E+00  0.00000000000E+00 -0.53197907596E+03  0.53197907599E+03  0.50400001928E-02 0.  1.
    10030    2    1    2    0    0  0.00000000000E+00  0.00000000000E+00  0.11871157317E+04  0.22510738836E+04  0.19126133611E+04 0.  0.
        4    1    3    3  502    0 -0.52831197951E+03  0.77372177522E+03  0.81922154489E+03  0.12445418778E+04  0.12699999809E+01 0.  1.
       -4    1    3    3    0  502  0.52831197951E+03 -0.77372177522E+03  0.36789418677E+03  0.10065320058E+04  0.12699999809E+01 0. -1.
</event>
<event>
 5   0  0.6221148E-05  0.2102703E+04  0.7818609E-02  0.8560054E-01
       -1   -1    0    0    0  501  0.00000000000E+00  0.00000000000E+00  0.61825945016E+03  0.61825945018E+03  0.50400001928E-02 0. -1.
        1   -1    0    0  501    0  0.00000000000E+00  0.00000000000E+00 -0.17878247255E+04  0.17878247255E+04  0.50400001928E-02 0.  1.
    10030    2    1    2    0    0  0.00000000000E+00  0.00000000000E+00 -0.11695652754E+04  0.24060841757E+04  0.21027025770E+04 0.  0.
        3    1    3    3  502    0  0.24733641087E+03 -0.11677538269E+03 -0.17463992425E+04  0.17676883534E+04  0.10100000352E+00 0.  1.
       -3    1    3    3    0  502 -0.24733641087E+03  0.11677538269E+03  0.57683396715E+03  0.63839582236E+03  0.10100000352E+00 0. -1.
</event>
<event>
 5   0  0.6052292E-05  0.2080202E+04  0.7818609E-02  0.8570015E-01
       -1   -1    0    0    0  501  0.00000000000E+00  0.00000000000E+00  0.56572959194E+03  0.56572959196E+03  0.50400001928E-02 0.  1.
        1   -1    0    0  501    0  0.00000000000E+00  0.00000000000E+00 -0.19122380792E+04  0.19122380792E+04  0.50400001928E-02 0. -1.
    10030    2    1    2    0    0  0.00000000000E+00  0.00000000000E+00 -0.13465084872E+04  0.24779676711E+04  0.20802015943E+04 0.  0.
        1    1    3    3  502    0 -0.96392037652E+02  0.11466560842E+03  0.55281233662E+03  0.57274872870E+03  0.50400001928E-02 0.  1.
       -1    1    3    3    0  502  0.96392037652E+02 -0.11466560842E+03 -0.18993208238E+04  0.19052189424E+04  0.50400001928E-02 0. -1.
</event>
<event>
 5   0  0.5846187E-05  0.2067072E+04  0.7818609E-02  0.8575889E-01
       -1   -1    0    0    0  501  0.00000000000E+00  0.00000000000E+00  0.84569164392E+03  0.84569164394E+03  0.50400001928E-02 0.  1.
        1   -1    0    0  501    0  0.00000000000E+00  0.00000000000E+00 -0.12631038234E+04  0.12631038234E+04  0.50400001928E-02 0. -1.
    10030    2    1    2    0    0  0.00000000000E+00  0.00000000000E+00 -0.41741217944E+03  0.21087954673E+04  0.20670716958E+04 0.  0.
        5    1    3    3  502    0 -0.78266191259E+03  0.59444346657E+03  0.11751638559E+03  0.98982568933E+03  0.46999998093E+01 0.  1.
       -5    1    3    3    0  502  0.78266191259E+03 -0.59444346657E+03 -0.53492856503E+03  0.11189697780E+04  0.46999998093E+01 0. -1.
</event>
<event>
 5   0  0.6221148E-05  0.2100823E+04  0.7818609E-02  0.8560881E-01
        1   -1    0    0  501    0  0.00000000000E+00  0.00000000000E+00  0.82733295453E+03  0.82733295454E+03  0.50400001928E-02 0.  1.
       -1   -1    0    0    0  501  0.00000000000E+00  0.00000000000E+00 -0.13336405236E+04  0.13336405236E+04  0.50400001928E-02 0. -1.
    10030    2    1    2    0    0  0.00000000000E+00  0.00000000000E+00 -0.50630756909E+03  0.21609734782E+04  0.21008234145E+04 0.  0.
        3    1    3    3  502    0  0.31483711699E+03  0.33054914452E+03 -0.12262739114E+04  0.13084849495E+04  0.10100000352E+00 0. -1.
       -3    1    3    3    0  502 -0.31483711699E+03 -0.33054914452E+03  0.71996634231E+03  0.85248852863E+03  0.10100000352E+00 0.  1.
</event>
<event>
 5   0  0.1252477E-04  0.2089762E+04  0.7818609E-02  0.8565767E-01
        2   -1    0    0  501    0  0.00000000000E+00  0.00000000000E+00  0.12954384800E+04  0.12954384800E+04  0.25500000920E-02 0. -1.
       -2   -1    0    0    0  501  0.00000000000E+00  0.00000000000E+00 -0.84278502035E+03  0.84278502036E+03  0.25500000920E-02 0.  1.
    10030    2    1    2    0    0  0.00000000000E+00  0.00000000000E+00  0.45265345967E+03  0.21382235004E+04  0.20897618484E+04 0.  0.
        4    1    3    3  502    0 -0.79953375867E+03  0.61370873283E+03  0.50818149398E+03  0.11287792892E+04  0.12699999809E+01 0.  1.
       -4    1    3    3    0  502  0.79953375867E+03 -0.61370873283E+03 -0.55528034312E+02  0.10094442112E+04  0.12699999809E+01 0. -1.
</event>
<event>
 5   0  0.1235817E-04  0.2069720E+04  0.7818609E-02  0.8574701E-01
       -2   -1    0    0    0  501  0.00000000000E+00  0.00000000000E+00  0.14003742366E+04  0.14003742366E+04  0.25500000920E-02 0. -1.
        2   -1    0    0  501    0  0.00000000000E+00  0.00000000000E+00 -0.76474900835E+03  0.76474900835E+03  0.25500000920E-02 0.  1.
    10030    2    1    2    0    0  0.00000000000E+00  0.00000000000E+00  0.63562522825E+03  0.21651232450E+04  0.20697196030E+04 0.  0.
        1    1    3    3  502    0  0.16789413371E+03 -0.57498563106E+03 -0.56496875147E+03  0.82339942083E+03  0.50400001928E-02 0.  1.
       -1    1    3    3    0  502 -0.16789413371E+03  0.57498563106E+03  0.12005939797E+04  0.13417238241E+04  0.50400001928E-02 0. -1.
</event>
<event>
 5   0  0.6263616E-05  0.2112623E+04  0.7818609E-02  0.8555703E-01
        1   -1    0    0  501    0  0.00000000000E+00  0.00000000000E+00  0.10882052995E+04  0.10882052995E+04  0.50400001928E-02 0.  1.
       -1   -1    0    0    0  501  0.00000000000E+00  0.00000000000E+00 -0.10253523606E+04  0.10253523606E+04  0.50400001928E-02 0. -1.
    10030    2    1    2    0    0  0.00000000000E+00  0.00000000000E+00  0.62852938897E+02  0.21135576601E+04  0.21126228936E+04 0.  0.
        4    1    3    3  502    0 -0.79509079443E+03 -0.28710681753E+03  0.66510436192E+03  0.10756231316E+04  0.12699999809E+01 0.  1.
       -4    1    3    3    0  502  0.79509079443E+03  0.28710681753E+03 -0.60225142303E+03  0.10379345285E+04  0.12699999809E+01 0. -1.
</event>
<event>
 5   0  0.1325673E-04  0.2105347E+04  0.7818609E-02  0.8558892E-01
       -2   -1    0    0    0  501  0.00000000000E+00  0.00000000000E+00  0.77607156963E+03  0.77607156963E+03  0.25500000920E-02 0.  1.
        2   -1    0    0  501    0  0.00000000000E+00  0.00000000000E+00 -0.14278594665E+04  0.14278594665E+04  0.25500000920E-02 0. -1.
    10030    2    1    2    0    0  0.00000000000E+00  0.00000000000E+00 -0.65178789687E+03  0.22039310361E+04  0.21053466578E+04 0.  0.
        5    1    3    3  502    0  0.46083843878E+03  0.28656937701E+03 -0.12701313147E+04  0.13812131338E+04  0.46999998093E+01 0. -1.
       -5    1    3    3    0  502 -0.46083843878E+03 -0.28656937701E+03  0.61834341779E+03  0.82271790233E+03  0.46999998093E+01 0.  1.
</event>
<event>
 5   0  0.6263616E-05  0.2082131E+04  0.7818609E-02  0.8569156E-01
        1   -1    0    0  501    0  0.00000000000E+00  0.00000000000E+00  0.91374082659E+03  0.91374082661E+03  0.50400001928E-02 0.  1.
       -1   -1    0    0    0  501  0.00000000000E+00  0.00000000000E+00 -0.11861325778E+04  0.11861325778E+04  0.50400001928E-02 0. -1.
    10030    2    1    2    0    0  0.00000000000E+00  0.00000000000E+00 -0.27239175121E+03  0.20998734044E+04  0.20821313716E+04 0.  0.
        4    1    3    3  502    0 -0.99048275351E+03 -0.10225055895E+03 -0.44260192394E+03  0.10896831364E+04  0.12699999809E+01 0. -1.
       -4    1    3    3    0  502  0.99048275351E+03  0.10225055895E+03  0.17021017272E+03  0.10101902680E+04  0.12699999809E+01 0.  1.
</event>
<event>
 5   0  0.6052292E-05  0.2088805E+04  0.7818609E-02  0.8566191E-01
        1   -1    0    0  501    0  0.00000000000E+00  0.00000000000E+00  0.25758030218E+04  0.25758030218E+04  0.50400001928E-02 0. -1.
       -1   -1    0    0    0  501  0.00000000000E+00  0.00000000000E+00 -0.42347065744E+03  0.42347065747E+03  0.50400001928E-02 0.  1.
    10030    2    1    2    0    0  0.00000000000E+00  0.00000000000E+00  0.21523323644E+04  0.29992736793E+04  0.20888053994E+04 0.  0.
        1    1    3    3  502    0  0.48510275077E+03  0.84707548095E+03  0.54292390417E+03  0.11169726563E+04  0.50400001928E-02 0.  1.
       -1    1    3    3    0  502 -0.48510275077E+03 -0.84707548095E+03  0.16094084602E+04  0.18823010230E+04  0.50400001928E-02 0. -1.
</event>
<event>
 5   0  0.6052292E-05  0.2007414E+04  0.7818609E-02  0.8603162E-01
        1   -1    0    0  501    0  0.00000000000E+00  0.00000000000E+00  0.18556989621E+04  0.18556989621E+04  0.50400001928E-02 0.  1.
       -1   -1    0    0    0  501  0.00000000000E+00  0.00000000000E+00 -0.54288320570E+03  0.54288320573E+03  0.50400001928E-02 0. -1.
    10030    2    1    2    0    0  0.00000000000E+00  0.00000000000E+00  0.13128157564E+04  0.23985821678E+04  0.20074140593E+04 0.  0.
        1    1    3    3  502    0  0.12369667505E+03 -0.87238224715E+03  0.12307824428E+04  0.15136634613E+04  0.50400001928E-02 0.  1.
       -1    1    3    3    0  502 -0.12369667505E+03  0.87238224715E+03  0.82033313568E+02  0.88491870650E+03  0.50400001928E-02 0. -1.
</event>
<event>
 5   0  0.6221148E-05  0.2106279E+04  0.7818609E-02  0.8558483E-01
       -1   -1    0    0    0  501  0.00000000000E+00  0.00000000000E+00  0.11869731084E+04  0.11869731084E+04  0.50400001928E-02 0.  1.
        1   -1    0    0  501    0  0.00000000000E+00  0.00000000000E+00 -0.93439578604E+03  0.93439578605E+03  0.50400001928E-02 0. -1.
    10030    2    1    2    0    0  0.00000000000E+00  0.00000000000E+00  0.25257732239E+03  0.21213688945E+04  0.21062788711E+04 0.  0.
        3    1    3    3  502    0 -0.73498846413E+03  0.17131716332E+03 -0.61351108951E+03  0.97260139832E+03  0.10100000352E+00 0. -1.
       -3    1    3    3    0  502  0.73498846413E+03 -0.17131716332E+03  0.86608841191E+03  0.11487674962E+04  0.10100000352E+00 0.  1.
</event>
<event>
 5   0  0.1325673E-04  0.2102189E+04  0.7818609E-02  0.8560280E-01
       -2   -1    0    0    0  501  0.00000000000E+00  0.00000000000E+00  0.94452211549E+03  0.94452211549E+03  0.25500000920E-02 0.  1.
        2   -1    0    0  501    0  0.00000000000E+00  0.00000000000E+00 -0.11696914979E+04  0.11696914979E+04  0.25500000920E-02 0. -1.
    10030    2    1    2    0    0  0.00000000000E+00  0.00000000000E+00 -0.22516938242E+03  0.21142136134E+04  0.21021888479E+04 0.  0.
        5    1    3    3  502    0  0.44740390843E+03  0.92678343829E+03  0.10236571982E+03  0.10342140153E+04  0.46999998093E+01 0. -1.
       -5    1    3    3    0  502 -0.44740390843E+03 -0.92678343829E+03 -0.32753510223E+03  0.10799995981E+04  0.46999998093E+01 0.  1.
</event>
<event>
 5   0  0.1235817E-04  0.2132268E+04  0.7818609E-02  0.8547161E-01
        2   -1    0    0  501    0  0.00000000000E+00  0.00000000000E+00  0.16936216440E+04  0.16936216440E+04  0.25500000920E-02 0. -1.
       -2   -1    0    0    0  501  0.00000000000E+00  0.00000000000E+00 -0.67113060097E+03  0.67113060098E+03  0.25500000920E-02 0.  1.
    10030    2    1    2    0    0  0.00000000000E+00  0.00000000000E+00  0.10224910430E+04  0.23647522450E+04  0.21322676303E+04 0.  0.
        1    1    3    3  502    0 -0.27392310749E+02 -0.10617764730E+04  0.40886745797E+03  0.11381090526E+04  0.50400001928E-02 0.  1.
       -1    1    3    3    0  502  0.27392310749E+02  0.10617764730E+04  0.61362358506E+03  0.12266431924E+04  0.50400001928E-02 0. -1.
</event>
<event>
 5   0  0.6263616E-05  0.2097032E+04  0.7818609E-02  0.8562552E-01
       -1   -1    0    0    0  501  0.00000000000E+00  0.00000000000E+00  0.86967480437E+03  0.86967480438E+03  0.50400001928E-02 0.  1.
        1   -1    0    0  501    0  0.00000000000E+00  0.00000000000E+00 -0.12641346306E+04  0.12641346306E+04  0.50400001928E-02 0. -1.
    10030    2    1    2    0    0  0.00000000000E+00  0.00000000000E+00 -0.39445982622E+03  0.21338094350E+04  0.20970322244E+04 0.  0.
        4    1    3    3  502    0 -0.92128345969E+03 -0.49979001556E+03 -0.16789459946E+03  0.10614817390E+04  0.12699999809E+01 0.  1.
       -4    1    3    3    0  502  0.92128345969E+03  0.49979001556E+03 -0.22656522676E+03  0.10723276960E+04  0.12699999809E+01 0. -1.
</event>
<event>
 5   0  0.6221148E-05  0.2156849E+04  0.7818609E-02  0.8536606E-01
        1   -1    0    0  501    0  0.00000000000E+00  0.00000000000E+00  0.17177512800E+04  0.17177512800E+04  0.50400001928E-02 0. -1.
       -1   -1    0    0    0  501  0.00000000000E+00  0.00000000000E+00 -0.67704731787E+03  0.67704731789E+03  0.50400001928E-02 0.  1.
    10030    2    1    2    0    0  0.00000000000E+00  0.00000000000E+00  0.10407039621E+04  0.23947985979E+04  0.21568485315E+04 0.  0.
        3    1    3    3  502    0  0.74769197233E+03 -0.82149490519E+02  0.13784004399E+04  0.15702801047E+04  0.10100000352E+00 0. -1.
       -3    1    3    3    0  502 -0.74769197233E+03  0.82149490519E+02 -0.33769647780E+03  0.82451849318E+03  0.10100000352E+00 0.  1.
</event>
<event>
 5   0  0.1325673E-04  0.2076648E+04  0.7818609E-02  0.8571601E-01
       -2   -1    0    0    0  501  0.00000000000E+00  0.00000000000E+00  0.96674754430E+03  0.96674754430E+03  0.25500000920E-02 0. -1.
        2   -1    0    0  501    0  0.00000000000E+00  0.00000000000E+00 -0.11151996058E+04  0.11151996058E+04  0.25500000920E-02 0.  1.
    10030    2    1    2    0    0  0.00000000000E+00  0.00000000000E+00 -0.14845206149E+03  0.20819471501E+04  0.20766477605E+04 0.  0.
        5    1    3    3  502    0 -0.79181299684E+03  0.19536109910E+03  0.57003398183E+03  0.99503498001E+03  0.46999998093E+01 0. -1.
       -5    1    3    3    0  502  0.79181299684E+03 -0.19536109910E+03 -0.71848604332E+03  0.10869121701E+04  0.46999998093E+01 0.  1.
</event>
<event>
 5   0  0.6221148E-05  0.2061697E+04  0.7818609E-02  0.8578307E-01
       -1   -1    0    0    0  501  0.00000000000E+00  0.00000000000E+00  0.42960540143E+03  0.42960540146E+03  0.50400001928E-02 0. -1.
        1   -1    0    0  501    0  0.00000000000E+00  0.00000000000E+00 -0.24735450877E+04  0.24735450878E+04  0.50400001928E-02 0.  1.
    10030    2    1    2    0    0  0.00000000000E+00  0.00000000000E+00 -0.20439396863E+04  0.29031504892E+04  0.20616967094E+04 0.  0.
        3    1    3    3  502    0 -0.19690262978E+03  0.79784355532E+03 -0.18983279384E+04  0.20685680932E+04  0.10100000352E+00 0.  1.
       -3    1    3    3    0  502  0.19690262978E+03 -0.79784355532E+03 -0.14561174792E+03  0.83458239600E+03  0.10100000352E+00 0. -1.
</event>
<event>
 5   0  0.6221148E-05  0.1548396E+04  0.7818609E-02  0.8852893E-01
        1   -1    0    0  501    0  0.00000000000E+00  0.00000000000E+00  0.10972059663E+04  0.10972059663E+04  0.50400001928E-02 0.  1.
       -1   -1    0    0    0  501  0.00000000000E+00  0.00000000000E+00 -0.54628079089E+03  0.54628079092E+03  0.50400001928E-02 0. -1.
    10030    2    1    2    0    0  0.00000000000E+00  0.00000000000E+00  0.55092517537E+03  0.16434867572E+04  0.15483959998E+04 0.  0.
        3    1    3    3  502    0 -0.11195729737E+03  0.48482942068E+03 -0.35407984148E+03  0.61070987214E+03  0.10100000352E+00 0. -1.
       -3    1    3    3    0  502  0.11195729737E+03 -0.48482942068E+03  0.90500501685E+03  0.10327768851E+04  0.10100000352E+00 0.  1.
</event>
<event>
 5   0  0.1252477E-04  0.2075135E+04  0.7818609E-02  0.8572276E-01
        2   -1    0    0  501    0  0.00000000000E+00  0.00000000000E+00  0.14271474185E+04  0.14271474185E+04  0.25500000920E-02 0. -1.
       -2   -1    0    0    0  501  0.00000000000E+00  0.00000000000E+00 -0.75433449419E+03  0.75433449419E+03  0.25500000920E-02 0.  1.
    10030    2    1    2    0    0  0.00000000000E+00  0.00000000000E+00  0.67281292429E+03  0.21814819127E+04  0.20751352014E+04 0.  0.
        4    1    3    3  502    0 -0.97596030877E+03  0.34900841592E+03  0.38615521021E+03  0.11060844714E+04  0.12699999809E+01 0.  1.
       -4    1    3    3    0  502  0.97596030877E+03 -0.34900841592E+03  0.28665771408E+03  0.10753974412E+04  0.12699999809E+01 0. -1.
</event>
<event>
 5   0  0.1349252E-04  0.2064448E+04  0.7818609E-02  0.8577068E-01
        2   -1    0    0  501    0  0.00000000000E+00  0.00000000000E+00  0.11969977789E+04  0.11969977789E+04  0.25500000920E-02 0.  1.
       -2   -1    0    0    0  501  0.00000000000E+00  0.00000000000E+00 -0.89013250257E+03  0.89013250257E+03  0.25500000920E-02 0. -1.
    10030    2    1    2    0    0  0.00000000000E+00  0.00000000000E+00  0.30686527636E+03  0.20871302815E+04  0.20644482348E+04 0.  0.
        2    1    3    3  502    0  0.51046083592E+03 -0.64162767197E+03 -0.48053785585E+03  0.95035412629E+03  0.25500000920E-02 0. -1.
       -2    1    3    3    0  502 -0.51046083592E+03  0.64162767197E+03  0.78740313220E+03  0.11367761552E+04  0.25500000920E-02 0.  1.
</event>
<event>
 5   0  0.5933905E-05  0.2100685E+04  0.7818609E-02  0.8560942E-01
        1   -1    0    0  501    0  0.00000000000E+00  0.00000000000E+00  0.13335535140E+04  0.13335535140E+04  0.50400001928E-02 0.  1.
       -1   -1    0    0    0  501  0.00000000000E+00  0.00000000000E+00 -0.82727794821E+03  0.82727794822E+03  0.50400001928E-02 0. -1.
    10030    2    1    2    0    0  0.00000000000E+00  0.00000000000E+00  0.50627556578E+03  0.21608314622E+04  0.21006850453E+04 0.  0.
        2    1    3    3  502    0  0.71448141957E+03 -0.74188327751E+03  0.46480841262E+03  0.11300094499E+04  0.25500000920E-02 0.  1.
       -2    1    3    3    0  502 -0.71448141957E+03  0.74188327751E+03  0.41467153166E+02  0.10308220124E+04  0.25500000920E-02 0. -1.
</event>
<event>
 5   0  0.1349252E-04  0.2112196E+04  0.7818609E-02  0.8555890E-01
       -2   -1    0    0    0  501  0.00000000000E+00  0.00000000000E+00  0.96627436168E+03  0.96627436169E+03  0.25500000920E-02 0.  1.
        2   -1    0    0  501    0  0.00000000000E+00  0.00000000000E+00 -0.11542710115E+04  0.11542710115E+04  0.25500000920E-02 0. -1.
    10030    2    1    2    0    0  0.00000000000E+00  0.00000000000E+00 -0.18799664979E+03  0.21205453732E+04  0.21121955258E+04 0.  0.
        2    1    3    3  502    0  0.50438873627E+03 -0.92135502710E+03  0.16159639373E+02  0.10505066479E+04  0.25500000920E-02 0.  1.
       -2    1    3    3    0  502 -0.50438873627E+03  0.92135502710E+03 -0.20415628916E+03  0.10700387253E+04  0.25500000920E-02 0. -1.
</event>
<event>
 5   0  0.5933905E-05  0.2088797E+04  0.7818609E-02  0.8566195E-01
        1   -1    0    0  501    0  0.00000000000E+00  0.00000000000E+00  0.99115112849E+03  0.99115112850E+03  0.50400001928E-02 0. -1.
       -1   -1    0    0    0  501  0.00000000000E+00  0.00000000000E+00 -0.11005062140E+04  0.11005062140E+04  0.50400001928E-02 0.  1.
    10030    2    1    2    0    0  0.00000000000E+00  0.00000000000E+00 -0.10935508550E+03  0.20916573425E+04  0.20887967598E+04 0.  0.
        2    1    3    3  502    0  0.64375446210E+03 -0.73004255113E+03 -0.43385961237E+03  0.10656528971E+04  0.25500000920E-02 0.  1.
       -2    1    3    3    0  502 -0.64375446210E+03  0.73004255113E+03  0.32450452688E+03  0.10260044454E+04  0.25500000920E-02 0. -1.
</event>
<event>
 5   0  0.4615125E-05  0.2101446E+04  0.7818609E-02  0.8560607E-01
       -3   -1    0    0    0  501  0.00000000000E+00  0.00000000000E+00  0.22807816064E+04  0.22807816086E+04  0.10100000352E+00 0.  1.
        3   -1    0    0  501    0  0.00000000000E+00  0.00000000000E+00 -0.48405270619E+03  0.48405271673E+03  0.10100000352E+00 0. -1.
    10030    2    1    2    0    0  0.00000000000E+00  0.00000000000E+00  0.17967289002E+04  0.27648343253E+04  0.21014457180E+04 0.  0.
        4    1    3    3  502    0  0.31709282541E+02 -0.10258756813E+04  0.11942920792E+04  0.15747258731E+04  0.12699999809E+01 0.  1.
       -4    1    3    3    0  502 -0.31709282541E+02  0.10258756813E+04  0.60243682101E+03  0.11901084523E+04  0.12699999809E+01 0. -1.
</event>
<event>
 5   0  0.6052292E-05  0.2175224E+04  0.7818609E-02  0.8528812E-01
       -1   -1    0    0    0  501  0.00000000000E+00  0.00000000000E+00  0.76154067193E+03  0.76154067195E+03  0.50400001928E-02 0. -1.
        1   -1    0    0  501    0  0.00000000000E+00  0.00000000000E+00 -0.15532979783E+04  0.15532979784E+04  0.50400001928E-02 0.  1.
    10030    2    1    2    0    0  0.00000000000E+00  0.00000000000E+00 -0.79175730642E+03  0.23148386503E+04  0.21752237459E+04 0.  0.
        1    1    3    3  502    0  0.58875483608E+01 -0.14885702704E+03  0.75063174872E+03  0.76527191242E+03  0.50400001928E-02 0. -1.
       -1    1    3    3    0  502 -0.58875483608E+01  0.14885702704E+03 -0.15423890551E+04  0.15495667379E+04  0.50400001928E-02 0.  1.
</event>
<event>
 5   0  0.1349252E-04  0.2064609E+04  0.7818609E-02  0.8576996E-01
        2   -1    0    0  501    0  0.00000000000E+00  0.00000000000E+00  0.86201993425E+03  0.86201993425E+03  0.25500000920E-02 0.  1.
       -2   -1    0    0    0  501  0.00000000000E+00  0.00000000000E+00 -0.12362267801E+04  0.12362267801E+04  0.25500000920E-02 0. -1.
    10030    2    1    2    0    0  0.00000000000E+00  0.00000000000E+00 -0.37420684583E+03  0.20982467143E+04  0.20646085611E+04 0.  0.
        2    1    3    3  502    0  0.91715528156E+03  0.28247508017E+03  0.19947027570E+03  0.98018078552E+03  0.25500000920E-02 0. -1.
       -2    1    3    3    0  502 -0.91715528156E+03 -0.28247508017E+03 -0.57367712153E+03  0.11180659288E+04  0.25500000920E-02 0.  1.
</event>
<event>
 5   0  0.1252477E-04  0.2100912E+04  0.7818609E-02  0.8560842E-01
       -2   -1    0    0    0  501  0.00000000000E+00  0.00000000000E+00  0.74788812839E+03  0.74788812839E+03  0.25500000920E-02 0. -1.
        2   -1    0    0  501    0  0.00000000000E+00  0.00000000000E+00 -0.14754317652E+04  0.14754317652E+04  0.25500000920E-02 0.  1.
    10030    2    1    2    0    0  0.00000000000E+00  0.00000000000E+00 -0.72754363685E+03  0.22233198936E+04  0.21009120890E+04 0.  0.
        4    1    3    3  502    0  0.18668474274E+03  0.99905235136E+03 -0.64475936727E+03  0.12036083451E+04  0.12699999809E+01 0. -1.
       -4    1    3    3    0  502 -0.18668474274E+03 -0.99905235136E+03 -0.82784269581E+02  0.10197115485E+04  0.12699999809E+01 0.  1.
</event>
<event>
 5   0  0.1235817E-04  0.2114492E+04  0.7818609E-02  0.8554886E-01
        2   -1    0    0  501    0  0.00000000000E+00  0.00000000000E+00  0.18228956142E+04  0.18228956142E+04  0.25500000920E-02 0. -1.
       -2   -1    0    0    0  501  0.00000000000E+00  0.00000000000E+00 -0.61318301801E+03  0.61318301802E+03  0.25500000920E-02 0.  1.
    10030    2    1    2    0    0  0.00000000000E+00  0.00000000000E+00  0.12097125961E+04  0.24360786322E+04  0.21144915552E+04 0.  0.
        1    1    3    3  502    0  0.90245364143E+03  0.54715451143E+03  0.53228395022E+03  0.11820012005E+04  0.50400001928E-02 0.  1.
       -1    1    3    3    0  502 -0.90245364143E+03 -0.54715451143E+03  0.67742864593E+03  0.12540774317E+04  0.50400001928E-02 0. -1.
</event>
<event>
 5   0  0.1235817E-04  0.2118756E+04  0.7818609E-02  0.8553026E-01
        2   -1    0    0  501    0  0.00000000000E+00  0.00000000000E+00  0.20713908813E+04  0.20713908813E+04  0.25500000920E-02 0. -1.
       -2   -1    0    0    0  501  0.00000000000E+00  0.00000000000E+00 -0.54180111842E+03  0.54180111842E+03  0.25500000920E-02 0.  1.
    10030    2    1    2    0    0  0.00000000000E+00  0.00000000000E+00  0.15295897629E+04  0.26131919997E+04  0.21187561409E+04 0.  0.
        1    1    3    3  502    0  0.55940379130E+03  0.55193630874E+03  0.16410159918E+04  0.18194778855E+04  0.50400001928E-02 0. -1.
       -1    1    3    3    0  502 -0.55940379130E+03 -0.55193630874E+03 -0.11142622886E+03  0.79371411423E+03  0.50400001928E-02 0.  1.
</event>
<event>
 5   0  0.5933905E-05  0.2093362E+04  0.7818609E-02  0.8564173E-01
        1   -1    0    0  501    0  0.00000000000E+00  0.00000000000E+00  0.12233498209E+04  0.12233498209E+04  0.50400001928E-02 0. -1.
       -1   -1    0    0    0  501  0.00000000000E+00  0.00000000000E+00 -0.89552560077E+03  0.89552560079E+03  0.50400001928E-02 0.  1.
    10030    2    1    2    0    0  0.00000000000E+00  0.00000000000E+00  0.32782422016E+03  0.21188754217E+04  0.20933619691E+04 0.  0.
        2    1    3    3  502    0  0.75792205896E+03 -0.16731298719E+03  0.87468245451E+03  0.11694053529E+04  0.25500000920E-02 0.  1.
       -2    1    3    3    0  502 -0.75792205896E+03  0.16731298719E+03 -0.54685823435E+03  0.94947006884E+03  0.25500000920E-02 0. -1.
</event>
<event>
 5   0  0.4615125E-05  0.2095851E+04  0.7818609E-02  0.8563073E-01
       -4   -1    0    0    0  501  0.00000000000E+00  0.00000000000E+00  0.11627416356E+04  0.11627423292E+04  0.12699999809E+01 0. -1.
        4   -1    0    0  501    0  0.00000000000E+00  0.00000000000E+00 -0.94444556992E+03  0.94444642381E+03  0.12699999809E+01 0.  1.
    10030    2    1    2    0    0  0.00000000000E+00  0.00000000000E+00  0.21829606567E+03  0.21071887530E+04  0.20958509652E+04 0.  0.
        4    1    3    3  502    0  0.26506618334E+03  0.70799402874E+02  0.11259913074E+04  0.11589351467E+04  0.12699999809E+01 0. -1.
       -4    1    3    3    0  502 -0.26506618334E+03 -0.70799402874E+02 -0.90769524175E+03  0.94825360627E+03  0.12699999809E+01 0.  1.
</event>
<event>
 5   0  0.1235817E-04  0.1790990E+04  0.7818609E-02  0.8711106E-01
       -2   -1    0    0    0  501  0.00000000000E+00  0.00000000000E+00  0.13765135042E+04  0.13765135042E+04  0.25500000920E-02 0. -1.
        2   -1    0    0  501    0  0.00000000000E+00  0.00000000000E+00 -0.58256697499E+03  0.58256697500E+03  0.25500000920E-02 0.  1.
    10030    2    1    2    0    0  0.00000000000E+00  0.00000000000E+00  0.79394652918E+03  0.19590804792E+04  0.17909900147E+04 0.  0.
        1    1    3    3  502    0 -0.65817797841E+02 -0.38253002176E+03  0.12797136924E+04  0.13372839394E+04  0.50400001928E-02 0. -1.
       -1    1    3    3    0  502  0.65817797841E+02  0.38253002176E+03 -0.48576716318E+03  0.62179653980E+03  0.50400001928E-02 0.  1.
</event>
<event>
 5   0  0.1325673E-04  0.2124469E+04  0.7818609E-02  0.8550540E-01
        2   -1    0    0  501    0  0.00000000000E+00  0.00000000000E+00  0.14526488582E+04  0.14526488582E+04  0.25500000920E-02 0. -1.
       -2   -1    0    0    0  501  0.00000000000E+00  0.00000000000E+00 -0.77674824445E+03  0.77674824445E+03  0.25500000920E-02 0.  1.
    10030    2    1    2    0    0  0.00000000000E+00  0.00000000000E+00  0.67590061376E+03  0.22293971027E+04  0.21244692988E+04 0.  0.
        5    1    3    3  502    0 -0.78392320953E+03 -0.25682656402E+03  0.10401992287E+04  0.13276038596E+04  0.46999998093E+01 0.  1.
       -5    1    3    3    0  502  0.78392320953E+03  0.25682656402E+03 -0.36429861499E+03  0.90179324310E+03  0.46999998093E+01 0. -1.
</event>
<event>
 5   0  0.1252477E-04  0.2073192E+04  0.7818609E-02  0.8573145E-01
       -2   -1    0    0    0  501  0.00000000000E+00  0.00000000000E+00  0.45906159777E+03  0.45906159777E+03  0.25500000920E-02 0.  1.
        2   -1    0    0  501    0  0.00000000000E+00  0.00000000000E+00 -0.23407132558E+04  0.23407132558E+04  0.25500000920E-02 0. -1.
    10030    2    1    2    0    0  0.00000000000E+00  0.00000000000E+00 -0.18816516581E+04  0.27997748536E+04  0.20731922893E+04 0.  0.
        4    1    3    3  502    0  0.75625479880E+03 -0.62313205422E+03 -0.13974251690E+04  0.17067552823E+04  0.12699999809E+01 0. -1.
       -4    1    3    3    0  502 -0.75625479880E+03  0.62313205422E+03 -0.48422648905E+03  0.10930195713E+04  0.12699999809E+01 0.  1.
</event>
<event>
 5   0  0.6052292E-05  0.2087159E+04  0.7818609E-02  0.8566921E-01
        1   -1    0    0  501    0  0.00000000000E+00  0.00000000000E+00  0.75823452736E+03  0.75823452738E+03  0.50400001928E-02 0.  1.
       -1   -1    0    0    0  501  0.00000000000E+00  0.00000000000E+00 -0.14363080252E+04  0.14363080252E+04  0.50400001928E-02 0. -1.
    10030    2    1    2    0    0  0.00000000000E+00  0.00000000000E+00 -0.67807349788E+03  0.21945425526E+04  0.20871591570E+04 0.  0.
        1    1    3    3  502    0  0.72502238490E+03 -0.54482151200E+03 -0.88190494471E+03  0.12650076166E+04  0.50400001928E-02 0. -1.
       -1    1    3    3    0  502 -0.72502238490E+03  0.54482151200E+03  0.20383144683E+03  0.92953493602E+03  0.50400001928E-02 0.  1.
</event>
<event>
 5   0  0.1281470E-04  0.2100240E+04  0.7818609E-02  0.8561137E-01
        2   -1    0    0  501    0  0.00000000000E+00  0.00000000000E+00  0.12571340267E+04  0.12571340267E+04  0.25500000920E-02 0.  1.
       -2   -1    0    0    0  501  0.00000000000E+00  0.00000000000E+00 -0.87719560169E+03  0.87719560169E+03  0.25500000920E-02 0. -1.
    10030    2    1    2    0    0  0.00000000000E+00  0.00000000000E+00  0.37993842506E+03  0.21343296284E+04  0.21002404043E+04 0.  0.
        3    1    3    3  502    0  0.97103912363E+03 -0.39230197121E+03  0.26825603567E+03  0.10811008866E+04  0.10100000352E+00 0.  1.
       -3    1    3    3    0  502 -0.97103912363E+03  0.39230197121E+03  0.11168238939E+03  0.10532287418E+04  0.10100000352E+00 0. -1.
</event>
<event>
 5   0  0.1235817E-04  0.2080735E+04  0.7818609E-02  0.8569778E-01
        2   -1    0    0  501    0  0.00000000000E+00  0.00000000000E+00  0.26642633450E+04  0.26642633450E+04  0.25500000920E-02 0.  1.
       -2   -1    0    0    0  501  0.00000000000E+00  0.00000000000E+00 -0.40625265716E+03  0.40625265717E+03  0.25500000920E-02 0. -1.
    10030    2    1    2    0    0  0.00000000000E+00  0.00000000000E+00  0.22580106878E+04  0.30705160022E+04  0.20807345465E+04 0.  0.
        1    1    3    3  502    0  0.32195816954E+03 -0.30300995333E+03  0.25187341137E+04  0.25572433655E+04  0.50400001928E-02 0.  1.
       -1    1    3    3    0  502 -0.32195816954E+03  0.30300995333E+03 -0.26072342587E+03  0.51327263669E+03  0.50400001928E-02 0. -1.
</event>
<event>
 5   0  0.6263616E-05  0.2075806E+04  0.7818609E-02  0.8571977E-01
       -1   -1    0    0    0  501  0.00000000000E+00  0.00000000000E+00  0.11506226417E+04  0.11506226417E+04  0.50400001928E-02 0.  1.
        1   -1    0    0  501    0  0.00000000000E+00  0.00000000000E+00 -0.93622544738E+03  0.93622544740E+03  0.50400001928E-02 0. -1.
    10030    2    1    2    0    0  0.00000000000E+00  0.00000000000E+00  0.21439719434E+03  0.20868480891E+04  0.20758055762E+04 0.  0.
        4    1    3    3  502    0 -0.59583000957E+03  0.30746053421E+03 -0.68928817403E+03  0.96159512278E+03  0.12699999809E+01 0. -1.
       -4    1    3    3    0  502  0.59583000957E+03 -0.30746053421E+03  0.90368536837E+03  0.11252529664E+04  0.12699999809E+01 0.  1.
</event>
<event>
 5   0  0.1281470E-04  0.2099057E+04  0.7818609E-02  0.8561659E-01
       -2   -1    0    0    0  501  0.00000000000E+00  0.00000000000E+00  0.46482030644E+03  0.46482030644E+03  0.25500000920E-02 0.  1.
        2   -1    0    0  501    0  0.00000000000E+00  0.00000000000E+00 -0.23697551294E+04  0.23697551294E+04  0.25500000920E-02 0. -1.
    10030    2    1    2    0    0  0.00000000000E+00  0.00000000000E+00 -0.19049348229E+04  0.28345754358E+04  0.20990572221E+04 0.  0.
        3    1    3    3  502    0 -0.14098811479E+03 -0.10285163899E+04 -0.74419551135E+03  0.12773216439E+04  0.10100000352E+00 0. -1.
       -3    1    3    3    0  502  0.14098811479E+03  0.10285163899E+04 -0.11607393116E+04  0.15572537919E+04  0.10100000352E+00 0.  1.
</event>
<event>
 5   0  0.1235817E-04  0.2007947E+04  0.7818609E-02  0.8602914E-01
        2   -1    0    0  501    0  0.00000000000E+00  0.00000000000E+00  0.10069946608E+04  0.10069946608E+04  0.25500000920E-02 0.  1.
       -2   -1    0    0    0  501  0.00000000000E+00  0.00000000000E+00 -0.10009610484E+04  0.10009610484E+04  0.25500000920E-02 0. -1.
    10030    2    1    2    0    0  0.00000000000E+00  0.00000000000E+00  0.60336124050E+01  0.20079557092E+04  0.20079466441E+04 0.  0.
        1    1    3    3  502    0  0.67802181042E+02 -0.98781609051E+03 -0.16307026730E+03  0.10034787873E+04  0.50400001928E-02 0. -1.
       -1    1    3    3    0  502 -0.67802181042E+02  0.98781609051E+03  0.16910387971E+03  0.10044769219E+04  0.50400001928E-02 0.  1.
</event>
<event>
 5   0  0.5933905E-05  0.2144158E+04  0.7818609E-02  0.8542037E-01
       -1   -1    0    0    0  501  0.00000000000E+00  0.00000000000E+00  0.78055381171E+03  0.78055381172E+03  0.50400001928E-02 0. -1.
        1   -1    0    0  501    0  0.00000000000E+00  0.00000000000E+00 -0.14724849571E+04  0.14724849571E+04  0.50400001928E-02 0.  1.
    10030    2    1    2    0    0  0.00000000000E+00  0.00000000000E+00 -0.69193114541E+03  0.22530387689E+04  0.21441583393E+04 0.  0.
        2    1    3    3  502    0 -0.90275252152E+03  0.72027037338E+02  0.25693290803E+03  0.94136312253E+03  0.25500000920E-02 0. -1.
       -2    1    3    3    0  502  0.90275252152E+03 -0.72027037338E+02 -0.94886405344E+03  0.13116756463E+04  0.25500000920E-02 0.  1.
</event>
<event>
 5   0  0.1325673E-04  0.2107238E+04  0.7818609E-02  0.8558062E-01
       -2   -1    0    0    0  501  0.00000000000E+00  0.00000000000E+00  0.67067315978E+03  0.67067315979E+03  0.25500000920E-02 0. -1.
        2   -1    0    0  501    0  0.00000000000E+00  0.00000000000E+00 -0.16552212694E+04  0.16552212694E+04  0.25500000920E-02 0.  1.
    10030    2    1    2    0    0  0.00000000000E+00  0.00000000000E+00 -0.98454810962E+03  0.23258944292E+04  0.21072375081E+04 0.  0.
        5    1    3    3  502    0  0.65336703096E+03 -0.81378506743E+03 -0.65205624944E+03  0.12305828113E+04  0.46999998093E+01 0. -1.
       -5    1    3    3    0  502 -0.65336703096E+03  0.81378506743E+03 -0.33249186018E+03  0.10953116179E+04  0.46999998093E+01 0.  1.
</event>
<event>
 5   0  0.6052292E-05  0.2078666E+04  0.7818609E-02  0.8570700E-01
        1   -1    0    0  501    0  0.00000000000E+00  0.00000000000E+00  0.14112288331E+04  0.14112288332E+04  0.50400001928E-02 0.  1.
       -1   -1    0    0    0  501  0.00000000000E+00  0.00000000000E+00 -0.76544146962E+03  0.76544146963E+03  0.50400001928E-02 0. -1.
    10030    2    1    2    0    0  0.00000000000E+00  0.00000000000E+00  0.64578736353E+03  0.21766703028E+04  0.20786659876E+04 0.  0.
        1    1    3    3  502    0  0.65416379034E+02 -0.43396174831E+03  0.13094440721E+04  0.13810307308E+04  0.50400001928E-02 0.  1.
       -1    1    3    3    0  502 -0.65416379034E+02  0.43396174831E+03 -0.66365670853E+03  0.79563957195E+03  0.50400001928E-02 0. -1.
</event>
<event>
 5   0  0.1235817E-04  0.2102700E+04  0.7818609E-02  0.8560055E-01
       -2   -1    0    0    0  501  0.00000000000E+00  0.00000000000E+00  0.98832034343E+03  0.98832034344E+03  0.25500000920E-02 0. -1.
        2   -1    0    0  501    0  0.00000000000E+00  0.00000000000E+00 -0.11183992268E+04  0.11183992268E+04  0.25500000920E-02 0.  1.
    10030    2    1    2    0    0  0.00000000000E+00  0.00000000000E+00 -0.13007888334E+03  0.21067195702E+04  0.21026998910E+04 0.  0.
        1    1    3    3  502    0  0.93499301622E+03  0.14113354858E+03  0.39541074641E+03  0.10249294011E+04  0.50400001928E-02 0. -1.
       -1    1    3    3    0  502 -0.93499301622E+03 -0.14113354858E+03 -0.52548962975E+03  0.10817901691E+04  0.50400001928E-02 0.  1.
</event>
<event>
 5   0  0.1349252E-04  0.2135452E+04  0.7818609E-02  0.8545785E-01
        2   -1    0    0  501    0  0.00000000000E+00  0.00000000000E+00  0.21300424077E+04  0.21300424077E+04  0.25500000920E-02 0.  1.
       -2   -1    0    0    0  501  0.00000000000E+00  0.00000000000E+00 -0.53521873381E+03  0.53521873381E+03  0.25500000920E-02 0. -1.
    10030    2    1    2    0    0  0.00000000000E+00  0.00000000000E+00  0.15948236739E+04  0.26652611415E+04  0.21354518027E+04 0.  0.
        2    1    3    3  502    0  0.42971349635E+03 -0.40392491778E+03  0.19083132483E+04  0.19973653851E+04  0.25500000920E-02 0.  1.
       -2    1    3    3    0  502 -0.42971349635E+03  0.40392491778E+03 -0.31348957438E+03  0.66789575639E+03  0.25500000920E-02 0. -1.
</event>
<event>
 5   0  0.5846187E-05  0.2052478E+04  0.7818609E-02  0.8582471E-01
        1   -1    0    0  501    0  0.00000000000E+00  0.00000000000E+00  0.21010833307E+04  0.21010833307E+04  0.50400001928E-02 0. -1.
       -1   -1    0    0    0  501  0.00000000000E+00  0.00000000000E+00 -0.50124935571E+03  0.50124935573E+03  0.50400001928E-02 0.  1.
    10030    2    1    2    0    0  0.00000000000E+00  0.00000000000E+00  0.15998339750E+04  0.26023326864E+04  0.20524781761E+04 0.  0.
        5    1    3    3  502    0 -0.43271627384E+03  0.70515903069E+03  0.15697429128E+04  0.17744316089E+04  0.46999998093E+01 0. -1.
       -5    1    3    3    0  502  0.43271627384E+03 -0.70515903069E+03  0.30091062181E+02  0.82790107757E+03  0.46999998093E+01 0.  1.
</event>
<event>
 5   0  0.6221148E-05  0.2114905E+04  0.7818609E-02  0.8554706E-01
       -1   -1    0    0    0  501  0.00000000000E+00  0.00000000000E+00  0.92752178789E+03  0.92752178791E+03  0.50400001928E-02 0.  1.
        1   -1    0    0  501    0  0.00000000000E+00  0.00000000000E+00 -0.12055844308E+04  0.12055844308E+04  0.50400001928E-02 0. -1.
    10030    2    1    2    0    0  0.00000000000E+00  0.00000000000E+00 -0.27806264293E+03  0.21331062187E+04  0.21149050350E+04 0.  0.
        3    1    3    3  502    0  0.99529369702E+03 -0.19637437156E+03  0.16192123703E+03  0.10273222154E+04  0.10100000352E+00 0.  1.
       -3    1    3    3    0  502 -0.99529369702E+03  0.19637437156E+03 -0.43998387997E+03  0.11057840033E+04  0.10100000352E+00 0. -1.
</event>
<event>
 5   0  0.1235817E-04  0.2096634E+04  0.7818609E-02  0.8562727E-01
       -2   -1    0    0    0  501  0.00000000000E+00  0.00000000000E+00  0.98383010148E+03  0.98383010148E+03  0.25500000920E-02 0. -1.
        2   -1    0    0  501    0  0.00000000000E+00  0.00000000000E+00 -0.11170310298E+04  0.11170310298E+04  0.25500000920E-02 0.  1.
    10030    2    1    2    0    0  0.00000000000E+00  0.00000000000E+00 -0.13320092828E+03  0.21008611312E+04  0.20966342088E+04 0.  0.
        1    1    3    3  502    0  0.36899161054E+03  0.47636581588E+03 -0.92616996427E+03  0.11049298629E+04  0.50400001928E-02 0.  1.
       -1    1    3    3    0  502 -0.36899161054E+03 -0.47636581588E+03  0.79296903600E+03  0.99593126834E+03  0.50400001928E-02 0. -1.
</event>
<event>
 5   0  0.1325673E-04  0.2239800E+04  0.7818609E-02  0.8502043E-01
       -2   -1    0    0    0  501  0.00000000000E+00  0.00000000000E+00  0.11838781148E+04  0.11838781148E+04  0.25500000920E-02 0.  1.
        2   -1    0    0  501    0  0.00000000000E+00  0.00000000000E+00 -0.10593792895E+04  0.10593792895E+04  0.25500000920E-02 0. -1.
    10030    2    1    2    0    0  0.00000000000E+00  0.00000000000E+00  0.12449882535E+03  0.22432574043E+04  0.22397999519E+04 0.  0.
        5    1    3    3  502    0 -0.96860388765E+02 -0.52075249882E+03  0.10504785530E+04  0.11764745557E+04  0.46999998093E+01 0.  1.
       -5    1    3    3    0  502  0.96860388765E+02  0.52075249882E+03 -0.92597972766E+03  0.10667828486E+04  0.46999998093E+01 0. -1.
</event>
<event>
 5   0  0.5846187E-05  0.2108574E+04  0.7818609E-02  0.8557476E-01
       -1   -1    0    0    0  501  0.00000000000E+00  0.00000000000E+00  0.97083786931E+03  0.97083786932E+03  0.50400001928E-02 0.  1.
        1   -1    0    0  501    0  0.00000000000E+00  0.00000000000E+00 -0.11449090240E+04  0.11449090240E+04  0.50400001928E-02 0. -1.
    10030    2    1    2    0    0  0.00000000000E+00  0.00000000000E+00 -0.17407115469E+03  0.21157468933E+04  0.21085739612E+04 0.  0.
        5    1    3    3  502    0 -0.50385143347E+03 -0.36270251368E+03 -0.94203728151E+03  0.11282179356E+04  0.46999998093E+01 0. -1.
       -5    1    3    3    0  502  0.50385143347E+03  0.36270251368E+03  0.76796612682E+03  0.98752895774E+03  0.46999998093E+01 0.  1.
</event>
<event>
 5   0  0.1235817E-04  0.2103116E+04  0.7818609E-02  0.8559872E-01
        2   -1    0    0  501    0  0.00000000000E+00  0.00000000000E+00  0.18241547439E+04  0.18241547439E+04  0.25500000920E-02 0. -1.
       -2   -1    0    0    0  501  0.00000000000E+00  0.00000000000E+00 -0.60618423186E+03  0.60618423186E+03  0.25500000920E-02 0.  1.
    10030    2    1    2    0    0  0.00000000000E+00  0.00000000000E+00  0.12179705120E+04  0.24303389758E+04  0.21031156337E+04 0.  0.
        1    1    3    3  502    0 -0.56054952227E+03  0.22547502004E+03 -0.38557355437E+03  0.71674382972E+03  0.50400001928E-02 0.  1.
       -1    1    3    3    0  502  0.56054952227E+03 -0.22547502004E+03  0.16035440664E+04  0.17135951460E+04  0.50400001928E-02 0. -1.
</event>
<event>
 5   0  0.6052292E-05  0.2204052E+04  0.7818609E-02  0.8516744E-01
        1   -1    0    0  501    0  0.00000000000E+00  0.00000000000E+00  0.16217675406E+04  0.16217675406E+04  0.50400001928E-02 0.  1.
       -1   -1    0    0    0  501  0.00000000000E+00  0.00000000000E+00 -0.74885027533E+03  0.74885027535E+03  0.50400001928E-02 0. -1.
    10030    2    1    2    0    0  0.00000000000E+00  0.00000000000E+00  0.87291726522E+03  0.23706178159E+04  0.22040517864E+04 0.  0.
        1    1    3    3  502    0 -0.10246468654E+04  0.30503413115E+03  0.14882780253E+03  0.10793964678E+04  0.50400001928E-02 0. -1.
       -1    1    3    3    0  502  0.10246468654E+04 -0.30503413115E+03  0.72408946269E+03  0.12912213481E+04  0.50400001928E-02 0.  1.
</event>
<event>
 5   0  0.1281470E-04  0.2108465E+04  0.7818609E-02  0.8557524E-01
        2   -1    0    0  501    0  0.00000000000E+00  0.00000000000E+00  0.15357153517E+04  0.15357153517E+04  0.25500000920E-02 0.  1.
       -2   -1    0    0    0  501  0.00000000000E+00  0.00000000000E+00 -0.72370549407E+03  0.72370549408E+03  0.25500000920E-02 0. -1.
    10030    2    1    2    0    0  0.00000000000E+00  0.00000000000E+00  0.81200985759E+03  0.22594208457E+04  0.21084645004E+04 0.  0.
        3    1    3    3  502    0  0.73767262956E+03 -0.40022891413E+03 -0.27768765809E+03  0.88399917295E+03  0.10100000352E+00 0. -1.
       -3    1    3    3    0  502 -0.73767262956E+03  0.40022891413E+03  0.10896975157E+04  0.13754216728E+04  0.10100000352E+00 0.  1.
</event>
<event>
 5   0  0.1252477E-04  0.2094471E+04  0.7818609E-02  0.8563683E-01
        2   -1    0    0  501    0  0.00000000000E+00  0.00000000000E+00  0.25460537672E+04  0.25460537672E+04  0.25500000920E-02 0.  1.
       -2   -1    0    0    0  501  0.00000000000E+00  0.00000000000E+00 -0.43074590814E+03  0.43074590814E+03  0.25500000920E-02 0. -1.
    10030    2    1    2    0    0  0.00000000000E+00  0.00000000000E+00  0.21153078591E+04  0.29767996754E+04  0.20944710474E+04 0.  0.
        4    1    3    3  502    0  0.27139621053E+03 -0.69240580305E+03  0.21055604291E+04  0.22330400876E+04  0.12699999809E+01 0.  1.
       -4    1    3    3    0  502 -0.27139621053E+03  0.69240580305E+03  0.97474300134E+01  0.74375958783E+03  0.12699999809E+01 0. -1.
</event>
<event>
 5   0  0.1349252E-04  0.2082769E+04  0.7818609E-02  0.8568872E-01
       -2   -1    0    0    0  501  0.00000000000E+00  0.00000000000E+00  0.96548221207E+03  0.96548221207E+03  0.25500000920E-02 0.  1.
        2   -1    0    0  501    0  0.00000000000E+00  0.00000000000E+00 -0.11232534239E+04  0.11232534239E+04  0.25500000920E-02 0. -1.
    10030    2    1    2    0    0  0.00000000000E+00  0.00000000000E+00 -0.15777121186E+03  0.20887356360E+04  0.20827685425E+04 0.  0.
        2    1    3    3  502    0 -0.77119726718E+03  0.55967078312E+03 -0.50021374837E+03  0.10761925499E+04  0.25500000920E-02 0. -1.
       -2    1    3    3    0  502  0.77119726718E+03 -0.55967078312E+03  0.34244253651E+03  0.10125430861E+04  0.25500000920E-02 0.  1.
</event>
<event>
 5   0  0.1252477E-04  0.2149978E+04  0.7818609E-02  0.8539542E-01
        2   -1    0    0  501    0  0.00000000000E+00  0.00000000000E+00  0.90663945800E+03  0.90663945800E+03  0.25500000920E-02 0.  1.
       -2   -1    0    0    0  501  0.00000000000E+00  0.00000000000E+00 -0.12745986864E+04  0.12745986864E+04  0.25500000920E-02 0. -1.
    10030    2    1    2    0    0  0.00000000000E+00  0.00000000000E+00 -0.36795922841E+03  0.21812381444E+04  0.21499781043E+04 0.  0.
        4    1    3    3  502    0  0.10253652841E+04  0.26740365128E+03 -0.36749964085E+03  0.11215775843E+04  0.12699999809E+01 0. -1.
       -4    1    3    3    0  502 -0.10253652841E+04 -0.26740365128E+03 -0.45958756580E+00  0.10596605601E+04  0.12699999809E+01 0.  1.
</event>
<event>
 5   0  0.1235817E-04  0.2100185E+04  0.7818609E-02  0.8561162E-01
        2   -1    0    0  501    0  0.00000000000E+00  0.00000000000E+00  0.11807943615E+04  0.11807943615E+04  0.25500000920E-02 0.  1.
       -2   -1    0    0    0  501  0.00000000000E+00  0.00000000000E+00 -0.93385786638E+03  0.93385786639E+03  0.25500000920E-02 0. -1.
    10030    2    1    2    0    0  0.00000000000E+00  0.00000000000E+00  0.24693649511E+03  0.21146522279E+04  0.21001848519E+04 0.  0.
        1    1    3    3  502    0 -0.24439757005E+03 -0.85290310556E+03  0.68904953591E+03  0.11233713289E+04  0.50400001928E-02 0.  1.
       -1    1    3    3    0  502  0.24439757005E+03  0.85290310556E+03 -0.44211304080E+03  0.99128089894E+03  0.50400001928E-02 0. -1.
</event>
<event>
 5   0  0.5846187E-05  0.2113639E+04  0.7818609E-02  0.8555259E-01
        1   -1    0    0  501    0  0.00000000000E+00  0.00000000000E+00  0.17885214336E+04  0.17885214337E+04  0.50400001928E-02 0.  1.
       -1   -1    0    0    0  501  0.00000000000E+00  0.00000000000E+00 -0.62446401369E+03  0.62446401371E+03  0.50400001928E-02 0. -1.
    10030    2    1    2    0    0  0.00000000000E+00  0.00000000000E+00  0.11640574200E+04  0.24129854474E+04  0.21136388273E+04 0.  0.
        5    1    3    3  502    0  0.23959405969E+03  0.76133646716E+03  0.13728112238E+04  0.15879771018E+04  0.46999998093E+01 0.  1.
       -5    1    3    3    0  502 -0.23959405969E+03 -0.76133646716E+03 -0.20875380382E+03  0.82500834558E+03  0.46999998093E+01 0. -1.
</event>
<event>
 5   0  0.6052292E-05  0.2150661E+04  0.7818609E-02  0.8539249E-01
        1   -1    0    0  501    0  0.00000000000E+00  0.00000000000E+00  0.68965908279E+03  0.68965908281E+03  0.50400001928E-02 0.  1.
       -1   -1    0    0    0  501  0.00000000000E+00  0.00000000000E+00 -0.16766769592E+04  0.16766769592E+04  0.50400001928E-02 0. -1.
    10030    2    1    2    0    0  0.00000000000E+00  0.00000000000E+00 -0.98701787642E+03  0.23663360420E+04  0.21506608230E+04 0.  0.
        1    1    3    3  502    0  0.10335420397E+04  0.95053429611E+02 -0.80294331025E+03  0.13122355969E+04  0.50400001928E-02 0. -1.
       -1    1    3    3    0  502 -0.10335420397E+04 -0.95053429611E+02 -0.18407456617E+03  0.10541004451E+04  0.50400001928E-02 0.  1.
</event>
<event>
 5   0  0.1235817E-04  0.2144162E+04  0.7818609E-02  0.8542035E-01
       -2   -1    0    0    0  501  0.00000000000E+00  0.00000000000E+00  0.57760377272E+03  0.57760377272E+03  0.25500000920E-02 0. -1.
        2   -1    0    0  501    0  0.00000000000E+00  0.00000000000E+00 -0.19898729919E+04  0.19898729919E+04  0.25500000920E-02 0.  1.
    10030    2    1    2    0    0  0.00000000000E+00  0.00000000000E+00 -0.14122692192E+04  0.25674767646E+04  0.21441624447E+04 0.  0.
        1    1    3    3  502    0  0.32657703694E+03 -0.47329046768E+03 -0.17895916305E+04  0.18797059961E+04  0.50400001928E-02 0.  1.
       -1    1    3    3    0  502 -0.32657703694E+03  0.47329046768E+03  0.37732241134E+03  0.68777076848E+03  0.50400001928E-02 0. -1.
</event>
<event>
 5   0  0.5933905E-05  0.1861571E+04  0.7818609E-02  0.8674225E-01
        1   -1    0    0  501    0  0.00000000000E+00  0.00000000000E+00  0.14720666208E+04  0.14720666209E+04  0.50400001928E-02 0. -1.
       -1   -1    0    0    0  501  0.00000000000E+00  0.00000000000E+00 -0.58853426201E+03  0.58853426203E+03  0.50400001928E-02 0.  1.
    10030    2    1    2    0    0  0.00000000000E+00  0.00000000000E+00  0.88353235883E+03  0.20606008829E+04  0.18615709950E+04 0.  0.
        2    1    3    3  502    0 -0.50601986802E+03 -0.41789597757E+03 -0.28885515883E+03  0.71702890994E+03  0.25500000920E-02 0.  1.
       -2    1    3    3    0  502  0.50601986802E+03  0.41789597757E+03  0.11723875177E+04  0.13435719729E+04  0.25500000920E-02 0. -1.
</event>
<event>
 5   0  0.6221148E-05  0.2082514E+04  0.7818609E-02  0.8568985E-01
        1   -1    0    0  501    0  0.00000000000E+00  0.00000000000E+00  0.72456627975E+03  0.72456627976E+03  0.50400001928E-02 0.  1.
       -1   -1    0    0    0  501  0.00000000000E+00  0.00000000000E+00 -0.14963662579E+04  0.14963662579E+04  0.50400001928E-02 0. -1.
    10030    2    1    2    0    0  0.00000000000E+00  0.00000000000E+00 -0.77179997811E+03  0.22209325376E+04  0.20825143770E+04 0.  0.
        3    1    3    3  502    0  0.68853958325E+03  0.75189469117E+03 -0.61158850909E+03  0.11888956636E+04  0.10100000352E+00 0. -1.
       -3    1    3    3    0  502 -0.68853958325E+03 -0.75189469117E+03 -0.16021146902E+03  0.10320368740E+04  0.10100000352E+00 0.  1.
</event>
<event>
 5   0  0.6263616E-05  0.2113321E+04  0.7818609E-02  0.8555398E-01
        1   -1    0    0  501    0  0.00000000000E+00  0.00000000000E+00  0.14666870041E+04  0.14666870041E+04  0.50400001928E-02 0.  1.
       -1   -1    0    0    0  501  0.00000000000E+00  0.00000000000E+00 -0.76126113376E+03  0.76126113378E+03  0.50400001928E-02 0. -1.
    10030    2    1    2    0    0  0.00000000000E+00  0.00000000000E+00  0.70542587031E+03  0.22279481379E+04  0.21133213779E+04 0.  0.
        4    1    3    3  502    0  0.27896217899E+03  0.30459808298E+03 -0.67262990099E+03  0.78932406911E+03  0.12699999809E+01 0. -1.
       -4    1    3    3    0  502 -0.27896217899E+03 -0.30459808298E+03  0.13780557713E+04  0.14386240687E+04  0.12699999809E+01 0.  1.
</event>
<event>
 5   0  0.1235817E-04  0.2090777E+04  0.7818609E-02  0.8565317E-01
        2   -1    0    0  501    0  0.00000000000E+00  0.00000000000E+00  0.11108637390E+04  0.11108637390E+04  0.25500000920E-02 0.  1.
       -2   -1    0    0    0  501  0.00000000000E+00  0.00000000000E+00 -0.98377284294E+03  0.98377284295E+03  0.25500000920E-02 0. -1.
    10030    2    1    2    0    0  0.00000000000E+00  0.00000000000E+00  0.12709089603E+03  0.20946365819E+04  0.20907774426E+04 0.  0.
        1    1    3    3  502    0  0.14648337170E+02  0.34150165526E+03 -0.92620499182E+03  0.98726573992E+03  0.50400001928E-02 0. -1.
       -1    1    3    3    0  502 -0.14648337170E+02 -0.34150165526E+03  0.10532958878E+04  0.11073708420E+04  0.50400001928E-02 0.  1.
</event>
<event>
 5   0  0.5933905E-05  0.2111403E+04  0.7818609E-02  0.8556237E-01
       -1   -1    0    0    0  501  0.00000000000E+00  0.00000000000E+00  0.69645452685E+03  0.69645452687E+03  0.50400001928E-02 0. -1.
        1   -1    0    0  501    0  0.00000000000E+00  0.00000000000E+00 -0.16002563317E+04  0.16002563318E+04  0.50400001928E-02 0.  1.
    10030    2    1    2    0    0  0.00000000000E+00  0.00000000000E+00 -0.90380180490E+03  0.22967108586E+04  0.21114031035E+04 0.  0.
        2    1    3    3  502    0  0.67504865713E+03  0.73638957159E+03 -0.80551373233E+02  0.10022219387E+04  0.25500000920E-02 0. -1.
       -2    1    3    3    0  502 -0.67504865713E+03 -0.73638957159E+03 -0.82325043166E+03  0.12944889199E+04  0.25500000920E-02 0.  1.
</event>
<event>
 5   0  0.6221148E-05  0.2042562E+04  0.7818609E-02  0.8586976E-01
       -1   -1    0    0    0  501  0.00000000000E+00  0.00000000000E+00  0.74621365751E+03  0.74621365753E+03  0.50400001928E-02 0.  1.
        1   -1    0    0  501    0  0.00000000000E+00  0.00000000000E+00 -0.13977435804E+04  0.13977435804E+04  0.50400001928E-02 0. -1.
    10030    2    1    2    0    0  0.00000000000E+00  0.00000000000E+00 -0.65152992284E+03  0.21439572379E+04  0.20425624587E+04 0.  0.
        3    1    3    3  502    0 -0.69348450448E+02 -0.71720638299E+03 -0.10854477417E+04  0.13028395962E+04  0.10100000352E+00 0. -1.
       -3    1    3    3    0  502  0.69348450448E+02  0.71720638299E+03  0.43391781885E+03  0.84111764165E+03  0.10100000352E+00 0.  1.
</event>
<event>
 5   0  0.5846187E-05  0.2080813E+04  0.7818609E-02  0.8569743E-01
       -1   -1    0    0    0  501  0.00000000000E+00  0.00000000000E+00  0.50826723757E+03  0.50826723760E+03  0.50400001928E-02 0.  1.
        1   -1    0    0  501    0  0.00000000000E+00  0.00000000000E+00 -0.21296780543E+04  0.21296780543E+04  0.50400001928E-02 0. -1.
    10030    2    1    2    0    0  0.00000000000E+00  0.00000000000E+00 -0.16214108167E+04  0.26379452919E+04  0.20808129004E+04 0.  0.
        5    1    3    3  502    0 -0.73025183658E+03  0.53360078167E+03 -0.14626111282E+04  0.17196659389E+04  0.46999998093E+01 0. -1.
       -5    1    3    3    0  502  0.73025183658E+03 -0.53360078167E+03 -0.15879968849E+03  0.91827935297E+03  0.46999998093E+01 0.  1.
</event>
<event>
 5   0  0.1235817E-04  0.2105458E+04  0.7818609E-02  0.8558843E-01
        2   -1    0    0  501    0  0.00000000000E+00  0.00000000000E+00  0.78527090214E+03  0.78527090214E+03  0.25500000920E-02 0.  1.
       -2   -1    0    0    0  501  0.00000000000E+00  0.00000000000E+00 -0.14112819253E+04  0.14112819253E+04  0.25500000920E-02 0. -1.
    10030    2    1    2    0    0  0.00000000000E+00  0.00000000000E+00 -0.62601102313E+03  0.21965528274E+04  0.21054582690E+04 0.  0.
        1    1    3    3  502    0 -0.31754703925E+03  0.23310369548E+02  0.73383223035E+03  0.79993077062E+03  0.50400001928E-02 0.  1.
       -1    1    3    3    0  502  0.31754703925E+03 -0.23310369548E+02 -0.13598432535E+04  0.13966220568E+04  0.50400001928E-02 0. -1.
</event>
<event>
 5   0  0.5846187E-05  0.2103083E+04  0.7818609E-02  0.8559886E-01
       -1   -1    0    0    0  501  0.00000000000E+00  0.00000000000E+00  0.60237119720E+03  0.60237119722E+03  0.50400001928E-02 0.  1.
        1   -1    0    0  501    0  0.00000000000E+00  0.00000000000E+00 -0.18356455430E+04  0.18356455430E+04  0.50400001928E-02 0. -1.
    10030    2    1    2    0    0  0.00000000000E+00  0.00000000000E+00 -0.12332743458E+04  0.24380167402E+04  0.21030834538E+04 0.  0.
        5    1    3    3  502    0  0.17405634099E+03 -0.69903154459E+03  0.27137065297E+03  0.76980830826E+03  0.46999998093E+01 0.  1.
       -5    1    3    3    0  502 -0.17405634099E+03  0.69903154459E+03 -0.15046449988E+04  0.16682084320E+04  0.46999998093E+01 0. -1.
</event>
<event>
 5   0  0.1349252E-04  0.2115325E+04  0.7818609E-02  0.8554522E-01
       -2   -1    0    0    0  501  0.00000000000E+00  0.00000000000E+00  0.18646017744E+04  0.18646017745E+04  0.25500000920E-02 0. -1.
        2   -1    0    0  501    0  0.00000000000E+00  0.00000000000E+00 -0.59994063858E+03  0.59994063859E+03  0.25500000920E-02 0.  1.
    10030    2    1    2    0    0  0.00000000000E+00  0.00000000000E+00  0.12646611359E+04  0.24645424130E+04  0.21153253927E+04 0.  0.
        2    1    3    3  502    0  0.60372220349E+03  0.73209588396E+03  0.88088689153E+02  0.95299763875E+03  0.25500000920E-02 0.  1.
       -2    1    3    3    0  502 -0.60372220349E+03 -0.73209588396E+03  0.11765724467E+04  0.15115447743E+04  0.25500000920E-02 0. -1.
</event>
<event>
 5   0  0.5933905E-05  0.2083626E+04  0.7818609E-02  0.8568491E-01
        1   -1    0    0  501    0  0.00000000000E+00  0.00000000000E+00  0.18599628575E+04  0.18599628575E+04  0.50400001928E-02 0.  1.
       -1   -1    0    0    0  501  0.00000000000E+00  0.00000000000E+00 -0.58354639787E+03  0.58354639789E+03  0.50400001928E-02 0. -1.
    10030    2    1    2    0    0  0.00000000000E+00  0.00000000000E+00  0.12764164596E+04  0.24435092554E+04  0.20836262867E+04 0.  0.
        2    1    3    3  502    0 -0.10054831243E+04 -0.24569132138E+03  0.77703606913E+03  0.12942741562E+04  0.25500000920E-02 0. -1.
       -2    1    3    3    0  502  0.10054831243E+04  0.24569132138E+03  0.49938039050E+03  0.11492350992E+04  0.25500000920E-02 0.  1.
</event>
<event>
 5   0  0.1325673E-04  0.2040166E+04  0.7818609E-02  0.8588068E-01
       -2   -1    0    0    0  501  0.00000000000E+00  0.00000000000E+00  0.10154181660E+04  0.10154181660E+04  0.25500000920E-02 0. -1.
        2   -1    0    0  501    0  0.00000000000E+00  0.00000000000E+00 -0.10247697564E+04  0.10247697564E+04  0.25500000920E-02 0.  1.
    10030    2    1    2    0    0  0.00000000000E+00  0.00000000000E+00 -0.93515904034E+01  0.20401879224E+04  0.20401664899E+04 0.  0.
        5    1    3    3  502    0  0.11755686522E+03  0.10941555522E+03  0.10026859457E+04  0.10154765265E+04  0.46999998093E+01 0. -1.
       -5    1    3    3    0  502 -0.11755686522E+03 -0.10941555522E+03 -0.10120375361E+04  0.10247113958E+04  0.46999998093E+01 0.  1.
</event>
<event>
 5   0  0.1252477E-04  0.2097197E+04  0.7818609E-02  0.8562479E-01
        2   -1    0    0  501    0  0.00000000000E+00  0.00000000000E+00  0.14342166659E+04  0.14342166659E+04  0.25500000920E-02 0.  1.
       -2   -1    0    0    0  501  0.00000000000E+00  0.00000000000E+00 -0.76666147790E+03  0.76666147790E+03  0.25500000920E-02 0. -1.
    10030    2    1    2    0    0  0.00000000000E+00  0.00000000000E+00  0.66755518803E+03  0.22008781438E+04  0.20971968613E+04 0.  0.
        4    1    3    3  502    0 -0.76386988825E+03 -0.70655491916E+03  0.46996212797E+03  0.11417456260E+04  0.12699999809E+01 0. -1.
       -4    1    3    3    0  502  0.76386988825E+03  0.70655491916E+03  0.19759306006E+03  0.10591325178E+04  0.12699999809E+01 0.  1.
</event>
<event>
 5   0  0.1252477E-04  0.2025577E+04  0.7818609E-02  0.8594755E-01
       -2   -1    0    0    0  501  0.00000000000E+00  0.00000000000E+00  0.73711829625E+03  0.73711829625E+03  0.25500000920E-02 0. -1.
        2   -1    0    0  501    0  0.00000000000E+00  0.00000000000E+00 -0.13915549376E+04  0.13915549376E+04  0.25500000920E-02 0.  1.
    10030    2    1    2    0    0  0.00000000000E+00  0.00000000000E+00 -0.65443664132E+03  0.21286732338E+04  0.20255770582E+04 0.  0.
        4    1    3    3  502    0  0.92629872646E+02 -0.87369388740E+03  0.20222707174E+03  0.90156458650E+03  0.12699999809E+01 0. -1.
       -4    1    3    3    0  502 -0.92629872646E+02  0.87369388740E+03 -0.85666371306E+03  0.12271086473E+04  0.12699999809E+01 0.  1.
</event>
<event>
 5   0  0.5846187E-05  0.2109193E+04  0.7818609E-02  0.8557204E-01
        1   -1    0    0  501    0  0.00000000000E+00  0.00000000000E+00  0.14419735185E+04  0.14419735186E+04  0.50400001928E-02 0. -1.
       -1   -1    0    0    0  501  0.00000000000E+00  0.00000000000E+00 -0.77128621684E+03  0.77128621685E+03  0.50400001928E-02 0.  1.
    10030    2    1    2    0    0  0.00000000000E+00  0.00000000000E+00  0.67068730171E+03  0.22132597354E+04  0.21091934951E+04 0.  0.
        5    1    3    3  502    0 -0.48519869187E+03 -0.88194777706E+03  0.66534804429E+03  0.12066315768E+04  0.46999998093E+01 0. -1.
       -5    1    3    3    0  502  0.48519869187E+03  0.88194777706E+03  0.53392574166E+01  0.10066281586E+04  0.46999998093E+01 0.  1.
</event>
<event>
 5   0  0.5846187E-05  0.2090641E+04  0.7818609E-02  0.8565377E-01
        1   -1    0    0  501    0  0.00000000000E+00  0.00000000000E+00  0.12097981349E+04  0.12097981349E+04  0.50400001928E-02 0. -1.
       -1   -1    0    0    0  501  0.00000000000E+00  0.00000000000E+00 -0.90320454401E+03  0.90320454402E+03  0.50400001928E-02 0.  1.
    10030    2    1    2    0    0  0.00000000000E+00  0.00000000000E+00  0.30659359089E+03  0.21130026789E+04  0.20906412153E+04 0.  0.
        5    1    3    3  502    0 -0.23720263677E+03 -0.83439741147E+03  0.74279249633E+03  0.11420363014E+04  0.46999998093E+01 0. -1.
       -5    1    3    3    0  502  0.23720263677E+03  0.83439741147E+03 -0.43619890544E+03  0.97096637751E+03  0.46999998093E+01 0.  1.
</event>
<event>
 5   0  0.5846187E-05  0.2129552E+04  0.7818609E-02  0.8548336E-01
       -1   -1    0    0    0  501  0.00000000000E+00  0.00000000000E+00  0.75519812422E+03  0.75519812424E+03  0.50400001928E-02 0. -1.
        1   -1    0    0  501    0  0.00000000000E+00  0.00000000000E+00 -0.15012593012E+04  0.15012593012E+04  0.50400001928E-02 0.  1.
    10030    2    1    2    0    0  0.00000000000E+00  0.00000000000E+00 -0.74606117696E+03  0.22564574254E+04  0.21295522612E+04 0.  0.
        5    1    3    3  502    0  0.24294693775E+03  0.93594197631E+03  0.99309422867E+02  0.97205712232E+03  0.46999998093E+01 0. -1.
       -5    1    3    3    0  502 -0.24294693775E+03 -0.93594197631E+03 -0.84537059983E+03  0.12844003031E+04  0.46999998093E+01 0.  1.
</event>
<event>
 5   0  0.1252477E-04  0.2054671E+04  0.7818609E-02  0.8581478E-01
        2   -1    0    0  501    0  0.00000000000E+00  0.00000000000E+00  0.73076709049E+03  0.73076709049E+03  0.25500000920E-02 0.  1.
       -2   -1    0    0    0  501  0.00000000000E+00  0.00000000000E+00 -0.14442607365E+04  0.14442607365E+04  0.25500000920E-02 0. -1.
    10030    2    1    2    0    0  0.00000000000E+00  0.00000000000E+00 -0.71349364600E+03  0.21750278270E+04  0.20546709871E+04 0.  0.
        4    1    3    3  502    0  0.50495541972E+03  0.16108145199E+01 -0.13038238494E+04  0.13981919804E+04  0.12699999809E+01 0. -1.
       -4    1    3    3    0  502 -0.50495541972E+03 -0.16108145199E+01  0.59033020344E+03  0.77683584664E+03  0.12699999809E+01 0.  1.
</event>
<event>
 5   0  0.1325673E-04  0.2068385E+04  0.7818609E-02  0.8575299E-01
        2   -1    0    0  501    0  0.00000000000E+00  0.00000000000E+00  0.16459050887E+04  0.16459050887E+04  0.25500000920E-02 0.  1.
       -2   -1    0    0    0  501  0.00000000000E+00  0.00000000000E+00 -0.64982709822E+03  0.64982709822E+03  0.25500000920E-02 0. -1.
    10030    2    1    2    0    0  0.00000000000E+00  0.00000000000E+00  0.99607799051E+03  0.22957321870E+04  0.20683846139E+04 0.  0.
        5    1    3    3  502    0 -0.77053498372E+03  0.29954707114E+03 -0.19160987759E+03  0.84863952545E+03  0.46999998093E+01 0. -1.
       -5    1    3    3    0  502  0.77053498372E+03 -0.29954707114E+03  0.11876878681E+04  0.14470926615E+04  0.46999998093E+01 0.  1.
</event>
<event>
 5   0  0.6221148E-05  0.2124488E+04  0.7818609E-02  0.8550532E-01
       -1   -1    0    0    0  501  0.00000000000E+00  0.00000000000E+00  0.87484621358E+03  0.87484621360E+03  0.50400001928E-02 0.  1.
        1   -1    0    0  501    0  0.00000000000E+00  0.00000000000E+00 -0.12897831996E+04  0.12897831996E+04  0.50400001928E-02 0. -1.
    10030    2    1    2    0    0  0.00000000000E+00  0.00000000000E+00 -0.41493698605E+03  0.21646294132E+04  0.21244876545E+04 0.  0.
        3    1    3    3  502    0 -0.18193738621E+03 -0.96440505061E+03 -0.62157574773E+03  0.11616947682E+04  0.10100000352E+00 0. -1.
       -3    1    3    3    0  502  0.18193738621E+03  0.96440505061E+03  0.20663876168E+03  0.10029346450E+04  0.10100000352E+00 0.  1.
</event>
<event>
 5   0  0.1252477E-04  0.2118673E+04  0.7818609E-02  0.8553062E-01
        2   -1    0    0  501    0  0.00000000000E+00  0.00000000000E+00  0.10519875217E+04  0.10519875217E+04  0.25500000920E-02 0.  1.
       -2   -1    0    0    0  501  0.00000000000E+00  0.00000000000E+00 -0.10667368824E+04  0.10667368824E+04  0.25500000920E-02 0. -1.
    10030    2    1    2    0    0  0.00000000000E+00  0.00000000000E+00 -0.14749360718E+02  0.21187244042E+04  0.21186730652E+04 0.  0.
        4    1    3    3  502    0 -0.18527915183E+03 -0.89148167861E+03 -0.54879737563E+03  0.10631312806E+04  0.12699999809E+01 0. -1.
       -4    1    3    3    0  502  0.18527915183E+03  0.89148167861E+03  0.53404801491E+03  0.10555931236E+04  0.12699999809E+01 0.  1.
</event>
<event>
 5   0  0.1235817E-04  0.2175442E+04  0.7818609E-02  0.8528720E-01
       -2   -1    0    0    0  501  0.00000000000E+00  0.00000000000E+00  0.96075384286E+03  0.96075384286E+03  0.25500000920E-02 0.  1.
        2   -1    0    0  501    0  0.00000000000E+00  0.00000000000E+00 -0.12314674433E+04  0.12314674433E+04  0.25500000920E-02 0. -1.
    10030    2    1    2    0    0  0.00000000000E+00  0.00000000000E+00 -0.27071360045E+03  0.21922212862E+04  0.21754420962E+04 0.  0.
        1    1    3    3  502    0  0.30184444038E+03  0.10283241598E+04 -0.32273841049E+03  0.11192500728E+04  0.50400001928E-02 0. -1.
       -1    1    3    3    0  502 -0.30184444038E+03 -0.10283241598E+04  0.52024810048E+02  0.10729712134E+04  0.50400001928E-02 0.  1.
</event>
<event>
 5   0  0.6221148E-05  0.2143718E+04  0.7818609E-02  0.8542226E-01
       -1   -1    0    0    0  501  0.00000000000E+00  0.00000000000E+00  0.66996022357E+03  0.66996022359E+03  0.50400001928E-02 0.  1.
        1   -1    0    0  501    0  0.00000000000E+00  0.00000000000E+00 -0.17148500770E+04  0.17148500770E+04  0.50400001928E-02 0. -1.
    10030    2    1    2    0    0  0.00000000000E+00  0.00000000000E+00 -0.10448898534E+04  0.23848103006E+04  0.21437176502E+04 0.  0.
        3    1    3    3  502    0 -0.25429294279E+03  0.84075185443E+03  0.16093153273E+03  0.89298798979E+03  0.10100000352E+00 0.  1.
       -3    1    3    3    0  502  0.25429294279E+03 -0.84075185443E+03 -0.12058213861E+04  0.14918223108E+04  0.10100000352E+00 0. -1.
</event>
<event>
 5   0  0.1281470E-04  0.2012131E+04  0.7818609E-02  0.8600970E-01
       -2   -1    0    0    0  501  0.00000000000E+00  0.00000000000E+00  0.61953646305E+03  0.61953646305E+03  0.25500000920E-02 0.  1.
        2   -1    0    0  501    0  0.00000000000E+00  0.00000000000E+00 -0.16337504870E+04  0.16337504870E+04  0.25500000920E-02 0. -1.
    10030    2    1    2    0    0  0.00000000000E+00  0.00000000000E+00 -0.10142140239E+04  0.22532869500E+04  0.20121312067E+04 0.  0.
        3    1    3    3  502    0  0.46424323749E+03 -0.61451105302E+02  0.49004458318E+03  0.67782130802E+03  0.10100000352E+00 0.  1.
       -3    1    3    3    0  502 -0.46424323749E+03  0.61451105302E+02 -0.15042586071E+04  0.15754656420E+04  0.10100000352E+00 0. -1.
</event>
<event>
 5   0  0.6221148E-05  0.2103058E+04  0.7818609E-02  0.8559897E-01
       -1   -1    0    0    0  501  0.00000000000E+00  0.00000000000E+00  0.14455048009E+04  0.14455048009E+04  0.50400001928E-02 0.  1.
        1   -1    0    0  501    0  0.00000000000E+00  0.00000000000E+00 -0.76493252199E+03  0.76493252201E+03  0.50400001928E-02 0. -1.
    10030    2    1    2    0    0  0.00000000000E+00  0.00000000000E+00  0.68057227888E+03  0.22104373229E+04  0.21030583757E+04 0.  0.
        3    1    3    3  502    0  0.28237607624E+03 -0.10499673727E+03  0.13991737226E+04  0.14312399099E+04  0.10100000352E+00 0.  1.
       -3    1    3    3    0  502 -0.28237607624E+03  0.10499673727E+03 -0.71860144376E+03  0.77919741302E+03  0.10100000352E+00 0. -1.
</event>
<event>
 5   0  0.5846187E-05  0.2050579E+04  0.7818609E-02  0.8583332E-01
       -1   -1    0    0    0  501  0.00000000000E+00  0.00000000000E+00  0.93805765067E+03  0.93805765069E+03  0.50400001928E-02 0.  1.
        1   -1    0    0  501    0  0.00000000000E+00  0.00000000000E+00 -0.11206336148E+04  0.11206336148E+04  0.50400001928E-02 0. -1.
    10030    2    1    2    0    0  0.00000000000E+00  0.00000000000E+00 -0.18257596413E+03  0.20586912655E+04  0.20505793679E+04 0.  0.
        5    1    3    3  502    0  0.32739971335E+03 -0.29734006106E+03 -0.10199310017E+04  0.11117027581E+04  0.46999998093E+01 0. -1.
       -5    1    3    3    0  502 -0.32739971335E+03  0.29734006106E+03  0.83735503755E+03  0.94698850739E+03  0.46999998093E+01 0.  1.
</event>
<event>
 5   0  0.6052292E-05  0.2114710E+04  0.7818609E-02  0.8554791E-01
        1   -1    0    0  501    0  0.00000000000E+00  0.00000000000E+00  0.14088444211E+04  0.14088444211E+04  0.50400001928E-02 0. -1.
       -1   -1    0    0    0  501  0.00000000000E+00  0.00000000000E+00 -0.79355781689E+03  0.79355781691E+03  0.50400001928E-02 0.  1.
    10030    2    1    2    0    0  0.00000000000E+00  0.00000000000E+00  0.61528660423E+03  0.22024022380E+04  0.21147099122E+04 0.  0.
        1    1    3    3  502    0  0.30701025034E+02 -0.10547513122E+04  0.23734137485E+03  0.10815608220E+04  0.50400001928E-02 0.  1.
       -1    1    3    3    0  502 -0.30701025034E+02  0.10547513122E+04  0.37794522937E+03  0.11208414160E+04  0.50400001928E-02 0. -1.
</event>
<event>
 5   0  0.6052292E-05  0.2089319E+04  0.7818609E-02  0.8565963E-01
       -1   -1    0    0    0  501  0.00000000000E+00  0.00000000000E+00  0.16325195381E+04  0.16325195381E+04  0.50400001928E-02 0.  1.
        1   -1    0    0  501    0  0.00000000000E+00  0.00000000000E+00 -0.66848430782E+03  0.66848430784E+03  0.50400001928E-02 0. -1.
    10030    2    1    2    0    0  0.00000000000E+00  0.00000000000E+00  0.96403523028E+03  0.23010038460E+04  0.20893192130E+04 0.  0.
        1    1    3    3  502    0 -0.11910036504E+02  0.99953047224E+03  0.81626463185E+03  0.12905390204E+04  0.50400001928E-02 0.  1.
       -1    1    3    3    0  502  0.11910036504E+02 -0.99953047224E+03  0.14777059843E+03  0.10104648256E+04  0.50400001928E-02 0. -1.
</event>
<event>
 5   0  0.1281470E-04  0.2080578E+04  0.7818609E-02  0.8569848E-01
       -2   -1    0    0    0  501  0.00000000000E+00  0.00000000000E+00  0.43198621918E+03  0.43198621919E+03  0.25500000920E-02 0. -1.
        2   -1    0    0  501    0  0.00000000000E+00  0.00000000000E+00 -0.25051743784E+04  0.25051743784E+04  0.25500000920E-02 0.  1.
    10030    2    1    2    0    0  0.00000000000E+00  0.00000000000E+00 -0.20731881592E+04  0.29371605975E+04  0.20805776199E+04 0.  0.
        3    1    3    3  502    0 -0.31255462891E+03 -0.12198288474E+03  0.35350873343E+03  0.48737937486E+03  0.10100000352E+00 0. -1.
       -3    1    3    3    0  502  0.31255462891E+03  0.12198288474E+03 -0.24266968926E+04  0.24497812227E+04  0.10100000352E+00 0.  1.
</event>
<event>
 5   0  0.6052292E-05  0.1794818E+04  0.7818609E-02  0.8709060E-01
        1   -1    0    0  501    0  0.00000000000E+00  0.00000000000E+00  0.18184640164E+04  0.18184640164E+04  0.50400001928E-02 0. -1.
       -1   -1    0    0    0  501  0.00000000000E+00  0.00000000000E+00 -0.44287007745E+03  0.44287007748E+03  0.50400001928E-02 0.  1.
    10030    2    1    2    0    0  0.00000000000E+00  0.00000000000E+00  0.13755939389E+04  0.22613340939E+04  0.17948184307E+04 0.  0.
        1    1    3    3  502    0 -0.18630484746E+02 -0.57853188944E+03  0.15518299915E+04  0.16562676609E+04  0.50400001928E-02 0. -1.
       -1    1    3    3    0  502  0.18630484746E+02  0.57853188944E+03 -0.17623605255E+03  0.60506643297E+03  0.50400001928E-02 0.  1.
</event>
<event>
 5   0  0.5933905E-05  0.2108505E+04  0.7818609E-02  0.8557506E-01
        1   -1    0    0  501    0  0.00000000000E+00  0.00000000000E+00  0.21785006500E+04  0.21785006500E+04  0.50400001928E-02 0.  1.
       -1   -1    0    0    0  501  0.00000000000E+00  0.00000000000E+00 -0.51018948333E+03  0.51018948336E+03  0.50400001928E-02 0. -1.
    10030    2    1    2    0    0  0.00000000000E+00  0.00000000000E+00  0.16683111667E+04  0.26886901334E+04  0.21085047983E+04 0.  0.
        2    1    3    3  502    0 -0.12853360358E+03  0.57277767953E+03 -0.28250763185E+03  0.65146428872E+03  0.25500000920E-02 0. -1.
       -2    1    3    3    0  502  0.12853360358E+03 -0.57277767953E+03  0.19508187985E+04  0.20372258447E+04  0.25500000920E-02 0.  1.
</event>
<event>
 5   0  0.5846187E-05  0.2112248E+04  0.7818609E-02  0.8555867E-01
       -1   -1    0    0    0  501  0.00000000000E+00  0.00000000000E+00  0.88957826917E+03  0.88957826918E+03  0.50400001928E-02 0.  1.
        1   -1    0    0  501    0  0.00000000000E+00  0.00000000000E+00 -0.12538500254E+04  0.12538500254E+04  0.50400001928E-02 0. -1.
    10030    2    1    2    0    0  0.00000000000E+00  0.00000000000E+00 -0.36427175620E+03  0.21434282946E+04  0.21122478409E+04 0.  0.
        5    1    3    3  502    0 -0.10295152169E+04 -0.17251651928E+03 -0.19418859299E+02  0.10440606847E+04  0.46999998093E+01 0. -1.
       -5    1    3    3    0  502  0.10295152169E+04  0.17251651928E+03 -0.34485289690E+03  0.10993676099E+04  0.46999998093E+01 0.  1.
</event>
<event>
 5   0  0.1235817E-04  0.2105029E+04  0.7818609E-02  0.8559031E-01
        2   -1    0    0  501    0  0.00000000000E+00  0.00000000000E+00  0.15119307204E+04  0.15119307204E+04  0.25500000920E-02 0.  1.
       -2   -1    0    0    0  501  0.00000000000E+00  0.00000000000E+00 -0.73269667375E+03  0.73269667376E+03  0.25500000920E-02 0. -1.
    10030    2    1    2    0    0  0.00000000000E+00  0.00000000000E+00  0.77923404667E+03  0.22446273942E+04  0.21050288452E+04 0.  0.
        1    1    3    3  502    0 -0.18886866933E+03 -0.71459708998E+03  0.11886193232E+04  0.13996914913E+04  0.50400001928E-02 0.  1.
       -1    1    3    3    0  502  0.18886866933E+03  0.71459708998E+03 -0.40938527657E+03  0.84493590287E+03  0.50400001928E-02 0. -1.
</event>
<event>
 5   0  0.1281470E-04  0.2112286E+04  0.7818609E-02  0.8555851E-01
       -2   -1    0    0    0  501  0.00000000000E+00  0.00000000000E+00  0.62233874070E+03  0.62233874070E+03  0.25500000920E-02 0.  1.
        2   -1    0    0  501    0  0.00000000000E+00  0.00000000000E+00 -0.17923318243E+04  0.17923318243E+04  0.25500000920E-02 0. -1.
    10030    2    1    2    0    0  0.00000000000E+00  0.00000000000E+00 -0.11699930836E+04  0.24146705650E+04  0.21122855209E+04 0.  0.
        3    1    3    3  502    0  0.43328530018E+03  0.60572068613E+02  0.51387990322E+03  0.67489087412E+03  0.10100000352E+00 0.  1.
       -3    1    3    3    0  502 -0.43328530018E+03 -0.60572068613E+02 -0.16838729868E+04  0.17397796909E+04  0.10100000352E+00 0. -1.
</event>
<event>
 5   0  0.6263616E-05  0.2085781E+04  0.7818609E-02  0.8567533E-01
        1   -1    0    0  501    0  0.00000000000E+00  0.00000000000E+00  0.87385196065E+03  0.87385196067E+03  0.50400001928E-02 0. -1.
       -1   -1    0    0    0  501  0.00000000000E+00  0.00000000000E+00 -0.12446273960E+04  0.12446273960E+04  0.50400001928E-02 0.  1.
    10030    2    1    2    0    0  0.00000000000E+00  0.00000000000E+00 -0.37077543538E+03  0.21184793567E+04  0.20857805161E+04 0.  0.
        4    1    3    3  502    0 -0.22115904571E+03  0.10088677477E+04 -0.38577508542E+02  0.10335450125E+04  0.12699999809E+01 0. -1.
       -4    1    3    3    0  502  0.22115904571E+03 -0.10088677477E+04 -0.33219792684E+03  0.10849343442E+04  0.12699999809E+01 0.  1.
</event>
<event>
 5   0  0.5933905E-05  0.2068992E+04  0.7818609E-02  0.8575027E-01
        1   -1    0    0  501    0  0.00000000000E+00  0.00000000000E+00  0.12509786140E+04  0.12509786140E+04  0.50400001928E-02 0. -1.
       -1   -1    0    0    0  501  0.00000000000E+00  0.00000000000E+00 -0.85547564327E+03  0.85547564329E+03  0.50400001928E-02 0.  1.
    10030    2    1    2    0    0  0.00000000000E+00  0.00000000000E+00  0.39550297070E+03  0.21064542573E+04  0.20689917685E+04 0.  0.
        2    1    3    3  502    0 -0.55616300443E+02  0.97375366372E+03 -0.15329954425E+03  0.98731460070E+03  0.25500000920E-02 0.  1.
       -2    1    3    3    0  502  0.55616300443E+02 -0.97375366372E+03  0.54880251495E+03  0.11191396566E+04  0.25500000920E-02 0. -1.
</event>
<event>
 5   0  0.6263616E-05  0.2111818E+04  0.7818609E-02  0.8556055E-01
       -1   -1    0    0    0  501  0.00000000000E+00  0.00000000000E+00  0.10184588982E+04  0.10184588982E+04  0.50400001928E-02 0. -1.
        1   -1    0    0  501    0  0.00000000000E+00  0.00000000000E+00 -0.10947361564E+04  0.10947361564E+04  0.50400001928E-02 0.  1.
    10030    2    1    2    0    0  0.00000000000E+00  0.00000000000E+00 -0.76277258179E+02  0.21131950546E+04  0.21118179653E+04 0.  0.
        4    1    3    3  502    0 -0.46036245408E+03  0.94479877151E+03 -0.14000805376E+03  0.10602745757E+04  0.12699999809E+01 0.  1.
       -4    1    3    3    0  502  0.46036245408E+03 -0.94479877151E+03  0.63730795576E+02  0.10529204789E+04  0.12699999809E+01 0. -1.
</event>
<event>
 5   0  0.6052292E-05  0.2116551E+04  0.7818609E-02  0.8553987E-01
        1   -1    0    0  501    0  0.00000000000E+00  0.00000000000E+00  0.59621778381E+03  0.59621778383E+03  0.50400001928E-02 0.  1.
       -1   -1    0    0    0  501  0.00000000000E+00  0.00000000000E+00 -0.18784192005E+04  0.18784192005E+04  0.50400001928E-02 0. -1.
    10030    2    1    2    0    0  0.00000000000E+00  0.00000000000E+00 -0.12822014167E+04  0.24746369843E+04  0.21165509045E+04 0.  0.
        1    1    3    3  502    0  0.10211109157E+04 -0.92141400434E+02 -0.33445031929E+03  0.10784315258E+04  0.50400001928E-02 0. -1.
       -1    1    3    3    0  502 -0.10211109157E+04  0.92141400434E+02 -0.94775109740E+03  0.13962054585E+04  0.50400001928E-02 0.  1.
</event>
<event>
 5   0  0.4615125E-05  0.2101797E+04  0.7818609E-02  0.8560452E-01
        3   -1    0    0  501    0  0.00000000000E+00  0.00000000000E+00  0.10024220748E+04  0.10024220799E+04  0.10100000352E+00 0.  1.
       -3   -1    0    0    0  501  0.00000000000E+00  0.00000000000E+00 -0.11017194780E+04  0.11017194826E+04  0.10100000352E+00 0. -1.
    10030    2    1    2    0    0  0.00000000000E+00  0.00000000000E+00 -0.99297403161E+02  0.21041415625E+04  0.21017972645E+04 0.  0.
        1    1    3    3  502    0 -0.13416650757E+03 -0.64799859243E+03 -0.86694467138E+03  0.10906401289E+04  0.50400001928E-02 0. -1.
       -1    1    3    3    0  502  0.13416650757E+03  0.64799859243E+03  0.76764726822E+03  0.10135014336E+04  0.50400001928E-02 0.  1.
</event>
<event>
 5   0  0.6263616E-05  0.2124152E+04  0.7818609E-02  0.8550678E-01
       -1   -1    0    0    0  501  0.00000000000E+00  0.00000000000E+00  0.16083341022E+04  0.16083341022E+04  0.50400001928E-02 0. -1.
        1   -1    0    0  501    0  0.00000000000E+00  0.00000000000E+00 -0.70135038175E+03  0.70135038177E+03  0.50400001928E-02 0.  1.
    10030    2    1    2    0    0  0.00000000000E+00  0.00000000000E+00  0.90698372042E+03  0.23096844839E+04  0.21241522889E+04 0.  0.
        4    1    3    3  502    0  0.36803583656E+03 -0.17637498741E+03 -0.61268528221E+03  0.73616803864E+03  0.12699999809E+01 0.  1.
       -4    1    3    3    0  502 -0.36803583656E+03  0.17637498741E+03  0.15196690026E+04  0.15735164453E+04  0.12699999809E+01 0. -1.
</event>
<event>
 5   0  0.1252477E-04  0.1933511E+04  0.7818609E-02  0.8638353E-01
       -2   -1    0    0    0  501  0.00000000000E+00  0.00000000000E+00  0.87294211997E+03  0.87294211997E+03  0.25500000920E-02 0. -1.
        2   -1    0    0  501    0  0.00000000000E+00  0.00000000000E+00 -0.10706510171E+04  0.10706510171E+04  0.25500000920E-02 0.  1.
    10030    2    1    2    0    0  0.00000000000E+00  0.00000000000E+00 -0.19770889715E+03  0.19435931371E+04  0.19335111778E+04 0.  0.
        4    1    3    3  502    0 -0.33606149333E+03 -0.80270729043E+03 -0.52216598534E+03  0.10148572562E+04  0.12699999809E+01 0.  1.
       -4    1    3    3    0  502  0.33606149333E+03  0.80270729043E+03  0.32445708819E+03  0.92873588085E+03  0.12699999809E+01 0. -1.
</event>
<event>
 5   0  0.1252477E-04  0.2106156E+04  0.7818609E-02  0.8558537E-01
        2   -1    0    0  501    0  0.00000000000E+00  0.00000000000E+00  0.15898656458E+04  0.15898656458E+04  0.25500000920E-02 0.  1.
       -2   -1    0    0    0  501  0.00000000000E+00  0.00000000000E+00 -0.69752612925E+03  0.69752612926E+03  0.25500000920E-02 0. -1.
    10030    2    1    2    0    0  0.00000000000E+00  0.00000000000E+00  0.89233951651E+03  0.22873917750E+04  0.21061555782E+04 0.  0.
        4    1    3    3  502    0 -0.22767719289E+03  0.85631787384E+02  0.15589353880E+04  0.15777993738E+04  0.12699999809E+01 0.  1.
       -4    1    3    3    0  502  0.22767719289E+03 -0.85631787384E+02 -0.66659587145E+03  0.70959240124E+03  0.12699999809E+01 0. -1.
</event>
<event>
 5   0  0.6052292E-05  0.2144265E+04  0.7818609E-02  0.8541991E-01
        1   -1    0    0  501    0  0.00000000000E+00  0.00000000000E+00  0.42289259864E+03  0.42289259867E+03  0.50400001928E-02 0.  1.
       -1   -1    0    0    0  501  0.00000000000E+00  0.00000000000E+00 -0.27181099826E+04  0.27181099826E+04  0.50400001928E-02 0. -1.
    10030    2    1    2    0    0  0.00000000000E+00  0.00000000000E+00 -0.22952173840E+04  0.31410025813E+04  0.21442654630E+04 0.  0.
        1    1    3    3  502    0  0.26301404842E+03  0.80013807616E+02 -0.26656012443E+04  0.26797403965E+04  0.50400001928E-02 0. -1.
       -1    1    3    3    0  502 -0.26301404842E+03 -0.80013807616E+02  0.37038386033E+03  0.46126218477E+03  0.50400001928E-02 0.  1.
</event>
<event>
 5   0  0.6263616E-05  0.1521582E+04  0.7818609E-02  0.8870227E-01
        1   -1    0    0  501    0  0.00000000000E+00  0.00000000000E+00  0.80288451307E+03  0.80288451309E+03  0.50400001928E-02 0. -1.
       -1   -1    0    0    0  501  0.00000000000E+00  0.00000000000E+00 -0.72090405895E+03  0.72090405897E+03  0.50400001928E-02 0.  1.
    10030    2    1    2    0    0  0.00000000000E+00  0.00000000000E+00  0.81980454124E+02  0.15237885721E+04  0.15215816828E+04 0.  0.
        4    1    3    3  502    0  0.34624581886E+02 -0.20480829109E+03 -0.69195638888E+03  0.72246145557E+03  0.12699999809E+01 0.  1.
       -4    1    3    3    0  502 -0.34624581886E+02  0.20480829109E+03  0.77393684300E+03  0.80132711649E+03  0.12699999809E+01 0. -1.
</event>
<event>
 5   0  0.1252477E-04  0.2073196E+04  0.7818609E-02  0.8573144E-01
       -2   -1    0    0    0  501  0.00000000000E+00  0.00000000000E+00  0.10541305344E+04  0.10541305344E+04  0.25500000920E-02 0. -1.
        2   -1    0    0  501    0  0.00000000000E+00  0.00000000000E+00 -0.10193569514E+04  0.10193569514E+04  0.25500000920E-02 0.  1.
    10030    2    1    2    0    0  0.00000000000E+00  0.00000000000E+00  0.34773582958E+02  0.20734874859E+04  0.20731958788E+04 0.  0.
        4    1    3    3  502    0  0.99632367318E+02 -0.71090510740E+03 -0.73052919389E+03  0.10242007598E+04  0.12699999809E+01 0. -1.
       -4    1    3    3    0  502 -0.99632367318E+02  0.71090510740E+03  0.76530277684E+03  0.10492867261E+04  0.12699999809E+01 0.  1.
</event>
<event>
 5   0  0.1252477E-04  0.2102377E+04  0.7818609E-02  0.8560197E-01
       -2   -1    0    0    0  501  0.00000000000E+00  0.00000000000E+00  0.59866380930E+03  0.59866380930E+03  0.25500000920E-02 0. -1.
        2   -1    0    0  501    0  0.00000000000E+00  0.00000000000E+00 -0.18457729144E+04  0.18457729145E+04  0.25500000920E-02 0.  1.
    10030    2    1    2    0    0  0.00000000000E+00  0.00000000000E+00 -0.12471091052E+04  0.24444367238E+04  0.21023771727E+04 0.  0.
        4    1    3    3  502    0  0.10701702110E+03 -0.10005641947E+04 -0.97701284971E+03  0.14025466381E+04  0.12699999809E+01 0.  1.
       -4    1    3    3    0  502 -0.10701702110E+03  0.10005641947E+04 -0.27009625544E+03  0.10418900857E+04  0.12699999809E+01 0. -1.
</event>
<event>
 5   0  0.1325673E-04  0.2054827E+04  0.7818609E-02  0.8581408E-01
       -2   -1    0    0    0  501  0.00000000000E+00  0.00000000000E+00  0.42605943217E+03  0.42605943218E+03  0.25500000920E-02 0. -1.
        2   -1    0    0  501    0  0.00000000000E+00  0.00000000000E+00 -0.24775374143E+04  0.24775374143E+04  0.25500000920E-02 0.  1.
    10030    2    1    2    0    0  0.00000000000E+00  0.00000000000E+00 -0.20514779821E+04  0.29035968465E+04  0.20548266924E+04 0.  0.
        5    1    3    3  502    0  0.30846252308E+03 -0.33591528570E+03 -0.23266523222E+04  0.23709325856E+04  0.46999998093E+01 0.  1.
       -5    1    3    3    0  502 -0.30846252308E+03  0.33591528570E+03  0.27517434008E+03  0.53266426081E+03  0.46999998093E+01 0. -1.
</event>
<event>
 5   0  0.1235817E-04  0.1587716E+04  0.7818609E-02  0.8828131E-01
        2   -1    0    0  501    0  0.00000000000E+00  0.00000000000E+00  0.25288926133E+04  0.25288926133E+04  0.25500000920E-02 0. -1.
       -2   -1    0    0    0  501  0.00000000000E+00  0.00000000000E+00 -0.24920401064E+03  0.24920401066E+03  0.25500000920E-02 0.  1.
    10030    2    1    2    0    0  0.00000000000E+00  0.00000000000E+00  0.22796886026E+04  0.27780966239E+04  0.15877155686E+04 0.  0.
        1    1    3    3  502    0  0.68602633256E+03  0.25524352271E+03  0.16775280019E+04  0.18302681722E+04  0.50400001928E-02 0. -1.
       -1    1    3    3    0  502 -0.68602633256E+03 -0.25524352271E+03  0.60216060067E+03  0.94782845171E+03  0.50400001928E-02 0.  1.
</event>
<event>
 5   0  0.5846187E-05  0.2091717E+04  0.7818609E-02  0.8564901E-01
       -1   -1    0    0    0  501  0.00000000000E+00  0.00000000000E+00  0.84055330021E+03  0.84055330023E+03  0.50400001928E-02 0. -1.
        1   -1    0    0  501    0  0.00000000000E+00  0.00000000000E+00 -0.13013095461E+04  0.13013095461E+04  0.50400001928E-02 0.  1.
    10030    2    1    2    0    0  0.00000000000E+00  0.00000000000E+00 -0.46075624591E+03  0.21418628464E+04  0.20917170302E+04 0.  0.
        5    1    3    3  502    0  0.40054993348E+03 -0.77020629096E+03 -0.82757503809E+03  0.11994000640E+04  0.46999998093E+01 0.  1.
       -5    1    3    3    0  502 -0.40054993348E+03  0.77020629096E+03  0.36681879218E+03  0.94246278236E+03  0.46999998093E+01 0. -1.
</event>
<event>
 5   0  0.1325673E-04  0.2043873E+04  0.7818609E-02  0.8586379E-01
        2   -1    0    0  501    0  0.00000000000E+00  0.00000000000E+00  0.10462869695E+04  0.10462869695E+04  0.25500000920E-02 0.  1.
       -2   -1    0    0    0  501  0.00000000000E+00  0.00000000000E+00 -0.99815300801E+03  0.99815300801E+03  0.25500000920E-02 0. -1.
    10030    2    1    2    0    0  0.00000000000E+00  0.00000000000E+00  0.48133961449E+02  0.20444399775E+04  0.20438732699E+04 0.  0.
        5    1    3    3  502    0 -0.82756053712E+03 -0.59212323996E+03 -0.70118682664E+02  0.10200024968E+04  0.46999998093E+01 0.  1.
       -5    1    3    3    0  502  0.82756053712E+03  0.59212323996E+03  0.11825264411E+03  0.10244374806E+04  0.46999998093E+01 0. -1.
</event>
<event>
 5   0  0.5933905E-05  0.2119353E+04  0.7818609E-02  0.8552766E-01
        1   -1    0    0  501    0  0.00000000000E+00  0.00000000000E+00  0.17551454348E+04  0.17551454348E+04  0.50400001928E-02 0.  1.
       -1   -1    0    0    0  501  0.00000000000E+00  0.00000000000E+00 -0.63978407195E+03  0.63978407197E+03  0.50400001928E-02 0. -1.
    10030    2    1    2    0    0  0.00000000000E+00  0.00000000000E+00  0.11153613628E+04  0.23949295067E+04  0.21193528193E+04 0.  0.
        2    1    3    3  502    0  0.59592415031E+03 -0.23256278104E+03  0.15123396351E+04  0.16420664457E+04  0.25500000920E-02 0.  1.
       -2    1    3    3    0  502 -0.59592415031E+03  0.23256278104E+03 -0.39697827230E+03  0.75286306107E+03  0.25500000920E-02 0. -1.
</event>
<event>
 5   0  0.1325673E-04  0.2138496E+04  0.7818609E-02  0.8544473E-01
       -2   -1    0    0    0  501  0.00000000000E+00  0.00000000000E+00  0.95230141847E+03  0.95230141847E+03  0.25500000920E-02 0. -1.
        2   -1    0    0  501    0  0.00000000000E+00  0.00000000000E+00 -0.12005561528E+04  0.12005561528E+04  0.25500000920E-02 0.  1.
    10030    2    1    2    0    0  0.00000000000E+00  0.00000000000E+00 -0.24825473436E+03  0.21528575713E+04  0.21384960391E+04 0.  0.
        5    1    3    3  502    0 -0.15936057501E+03  0.49313926156E+03 -0.10656553078E+04  0.11850001895E+04  0.46999998093E+01 0.  1.
       -5    1    3    3    0  502  0.15936057501E+03 -0.49313926156E+03  0.81740057339E+03  0.96785738182E+03  0.46999998093E+01 0. -1.
</event>
<event>
 5   0  0.6221148E-05  0.2037941E+04  0.7818609E-02  0.8589085E-01
        1   -1    0    0  501    0  0.00000000000E+00  0.00000000000E+00  0.16748428041E+04  0.16748428041E+04  0.50400001928E-02 0.  1.
       -1   -1    0    0    0  501  0.00000000000E+00  0.00000000000E+00 -0.61993912821E+03  0.61993912823E+03  0.50400001928E-02 0. -1.
    10030    2    1    2    0    0  0.00000000000E+00  0.00000000000E+00  0.10549036759E+04  0.22947819324E+04  0.20379407135E+04 0.  0.
        3    1    3    3  502    0  0.70042316558E+03 -0.37810727090E+02  0.13597076891E+04  0.15299762325E+04  0.10100000352E+00 0.  1.
       -3    1    3    3    0  502 -0.70042316558E+03  0.37810727090E+02 -0.30480401315E+03  0.76480569990E+03  0.10100000352E+00 0. -1.
</event>
<event>
 5   0  0.6263616E-05  0.2108088E+04  0.7818609E-02  0.8557689E-01
        1   -1    0    0  501    0  0.00000000000E+00  0.00000000000E+00  0.97574384595E+03  0.97574384596E+03  0.50400001928E-02 0. -1.
       -1   -1    0    0    0  501  0.00000000000E+00  0.00000000000E+00 -0.11386274079E+04  0.11386274079E+04  0.50400001928E-02 0.  1.
    10030    2    1    2    0    0  0.00000000000E+00  0.00000000000E+00 -0.16288356191E+03  0.21143712538E+04  0.21080879356E+04 0.  0.
        4    1    3    3  502    0 -0.70769929231E+03 -0.78113060395E+03 -0.83387773591E+02  0.10573355392E+04  0.12699999809E+01 0.  1.
       -4    1    3    3    0  502  0.70769929231E+03  0.78113060395E+03 -0.79495788323E+02  0.10570357146E+04  0.12699999809E+01 0. -1.
</event>
<event>
 5   0  0.6221148E-05  0.2113200E+04  0.7818609E-02  0.8555451E-01
       -1   -1    0    0    0  501  0.00000000000E+00  0.00000000000E+00  0.91061682179E+03  0.91061682181E+03  0.50400001928E-02 0. -1.
        1   -1    0    0  501    0  0.00000000000E+00  0.00000000000E+00 -0.12259865481E+04  0.12259865481E+04  0.50400001928E-02 0.  1.
    10030    2    1    2    0    0  0.00000000000E+00  0.00000000000E+00 -0.31536972627E+03  0.21366033699E+04  0.21132003918E+04 0.  0.
        3    1    3    3  502    0 -0.97564331922E+03 -0.15850127516E+03 -0.53518475396E+03  0.11240219178E+04  0.10100000352E+00 0.  1.
       -3    1    3    3    0  502  0.97564331922E+03  0.15850127516E+03  0.21981502769E+03  0.10125814521E+04  0.10100000352E+00 0. -1.
</event>
<event>
 5   0  0.6221148E-05  0.2074540E+04  0.7818609E-02  0.8572542E-01
       -1   -1    0    0    0  501  0.00000000000E+00  0.00000000000E+00  0.61140581032E+03  0.61140581034E+03  0.50400001928E-02 0.  1.
        1   -1    0    0  501    0  0.00000000000E+00  0.00000000000E+00 -0.17597625818E+04  0.17597625818E+04  0.50400001928E-02 0. -1.
    10030    2    1    2    0    0  0.00000000000E+00  0.00000000000E+00 -0.11483567715E+04  0.23711683922E+04  0.20745400139E+04 0.  0.
        3    1    3    3  502    0  0.10353329162E+04  0.61416057029E+02 -0.55636549134E+03  0.11769574119E+04  0.10100000352E+00 0.  1.
       -3    1    3    3    0  502 -0.10353329162E+04 -0.61416057029E+02 -0.59199128015E+03  0.11942109802E+04  0.10100000352E+00 0. -1.
</event>
<event>
 5   0  0.1349252E-04  0.2046867E+04  0.7818609E-02  0.8585017E-01
        2   -1    0    0  501    0  0.00000000000E+00  0.00000000000E+00  0.12730406286E+04  0.12730406286E+04  0.25500000920E-02 0. -1.
       -2   -1    0    0    0  501  0.00000000000E+00  0.00000000000E+00 -0.82276753758E+03  0.82276753758E+03  0.25500000920E-02 0.  1.
    10030    2    1    2    0    0  0.00000000000E+00  0.00000000000E+00  0.45027309099E+03  0.20958081661E+04  0.20468673657E+04 0.  0.
        2    1    3    3  502    0 -0.17033862271E+03  0.71416311964E+03  0.95518681192E+03  0.12047514489E+04  0.25500000920E-02 0. -1.
       -2    1    3    3    0  502  0.17033862271E+03 -0.71416311964E+03 -0.50491372093E+03  0.89105671729E+03  0.25500000920E-02 0.  1.
</event>
<event>
 5   0  0.5846187E-05  0.2120050E+04  0.7818609E-02  0.8552462E-01
        1   -1    0    0  501    0  0.00000000000E+00  0.00000000000E+00  0.15179194986E+04  0.15179194986E+04  0.50400001928E-02 0. -1.
       -1   -1    0    0    0  501  0.00000000000E+00  0.00000000000E+00 -0.74025828968E+03  0.74025828970E+03  0.50400001928E-02 0.  1.
    10030    2    1    2    0    0  0.00000000000E+00  0.00000000000E+00  0.77766120889E+03  0.22581777883E+04  0.21200495201E+04 0.  0.
        5    1    3    3  502    0  0.10478311578E+04  0.59824123283E+02  0.54718183370E+03  0.11836211852E+04  0.46999998093E+01 0. -1.
       -5    1    3    3    0  502 -0.10478311578E+04 -0.59824123283E+02  0.23047937520E+03  0.10745566031E+04  0.46999998093E+01 0.  1.
</event>
<event>
 5   0  0.5933905E-05  0.2069829E+04  0.7818609E-02  0.8574651E-01
       -1   -1    0    0    0  501  0.00000000000E+00  0.00000000000E+00  0.55496597854E+03  0.55496597856E+03  0.50400001928E-02 0. -1.
        1   -1    0    0  501    0  0.00000000000E+00  0.00000000000E+00 -0.19299352828E+04  0.19299352828E+04  0.50400001928E-02 0.  1.
    10030    2    1    2    0    0  0.00000000000E+00  0.00000000000E+00 -0.13749693042E+04  0.24849012613E+04  0.20698293869E+04 0.  0.
        2    1    3    3  502    0 -0.11628833355E+03  0.76713919246E+03 -0.15096735616E+04  0.16973920525E+04  0.25500000920E-02 0.  1.
       -2    1    3    3    0  502  0.11628833355E+03 -0.76713919246E+03  0.13470425735E+03  0.78750920889E+03  0.25500000920E-02 0. -1.
</event>
<event>
 5   0  0.6221148E-05  0.2087753E+04  0.7818609E-02  0.8566657E-01
       -1   -1    0    0    0  501  0.00000000000E+00  0.00000000000E+00  0.94696552440E+03  0.94696552442E+03  0.50400001928E-02 0. -1.
        1   -1    0    0  501    0  0.00000000000E+00  0.00000000000E+00 -0.11507053188E+04  0.11507053188E+04  0.50400001928E-02 0.  1.
    10030    2    1    2    0    0  0.00000000000E+00  0.00000000000E+00 -0.20373979440E+03  0.20976708432E+04  0.20877531135E+04 0.  0.
        3    1    3    3  502    0 -0.92409890176E+03  0.48308626415E+03 -0.15054729875E+03  0.10535632958E+04  0.10100000352E+00 0. -1.
       -3    1    3    3    0  502  0.92409890176E+03 -0.48308626415E+03 -0.53192495656E+02  0.10441075475E+04  0.10100000352E+00 0.  1.
</event>
<event>
 5   0  0.1235817E-04  0.2084306E+04  0.7818609E-02  0.8568189E-01
       -2   -1    0    0    0  501  0.00000000000E+00  0.00000000000E+00  0.81468688200E+03  0.81468688201E+03  0.25500000920E-02 0.  1.
        2   -1    0    0  501    0  0.00000000000E+00  0.00000000000E+00 -0.13331286556E+04  0.13331286556E+04  0.25500000920E-02 0. -1.
    10030    2    1    2    0    0  0.00000000000E+00  0.00000000000E+00 -0.51844177358E+03  0.21478155376E+04  0.20843055704E+04 0.  0.
        1    1    3    3  502    0  0.49008492521E+03  0.54028025693E+03 -0.10262097831E+04  0.12590442839E+04  0.50400001928E-02 0. -1.
       -1    1    3    3    0  502 -0.49008492521E+03 -0.54028025693E+03  0.50776800947E+03  0.88877125371E+03  0.50400001928E-02 0.  1.
</event>
<event>
 5   0  0.1349252E-04  0.2057604E+04  0.7818609E-02  0.8580153E-01
       -2   -1    0    0    0  501  0.00000000000E+00  0.00000000000E+00  0.42401724640E+03  0.42401724641E+03  0.25500000920E-02 0.  1.
        2   -1    0    0  501    0  0.00000000000E+00  0.00000000000E+00 -0.24962043725E+04  0.24962043725E+04  0.25500000920E-02 0. -1.
    10030    2    1    2    0    0  0.00000000000E+00  0.00000000000E+00 -0.20721871261E+04  0.29202216189E+04  0.20576041451E+04 0.  0.
        2    1    3    3  502    0 -0.23341660318E+03  0.47122135052E+03  0.21886626334E+03  0.56959223403E+03  0.25500000920E-02 0.  1.
       -2    1    3    3    0  502  0.23341660318E+03 -0.47122135052E+03 -0.22910533895E+04  0.23506293849E+04  0.25500000920E-02 0. -1.
</event>
<event>
 5   0  0.6221148E-05  0.1801170E+04  0.7818609E-02  0.8705678E-01
       -1   -1    0    0    0  501  0.00000000000E+00  0.00000000000E+00  0.89245289872E+03  0.89245289873E+03  0.50400001928E-02 0.  1.
        1   -1    0    0  501    0  0.00000000000E+00  0.00000000000E+00 -0.90879116183E+03  0.90879116184E+03  0.50400001928E-02 0. -1.
    10030    2    1    2    0    0  0.00000000000E+00  0.00000000000E+00 -0.16338263111E+02  0.18012440606E+04  0.18011699606E+04 0.  0.
        3    1    3    3  502    0  0.64283819762E+03 -0.44209426326E+03 -0.45803762512E+03  0.90470258215E+03  0.10100000352E+00 0. -1.
       -3    1    3    3    0  502 -0.64283819762E+03  0.44209426326E+03  0.44169936201E+03  0.89654147842E+03  0.10100000352E+00 0.  1.
</event>
<event>
 5   0  0.1235817E-04  0.2106918E+04  0.7818609E-02  0.8558202E-01
        2   -1    0    0  501    0  0.00000000000E+00  0.00000000000E+00  0.92816799424E+03  0.92816799424E+03  0.25500000920E-02 0. -1.
       -2   -1    0    0    0  501  0.00000000000E+00  0.00000000000E+00 -0.11956630304E+04  0.11956630305E+04  0.25500000920E-02 0.  1.
    10030    2    1    2    0    0  0.00000000000E+00  0.00000000000E+00 -0.26749503621E+03  0.21238310247E+04  0.21069182773E+04 0.  0.
        1    1    3    3  502    0  0.99508819565E+03  0.51540806227E+02  0.21093174799E+03  0.10185033992E+04  0.50400001928E-02 0. -1.
       -1    1    3    3    0  502 -0.99508819565E+03 -0.51540806227E+02 -0.47842678419E+03  0.11053276255E+04  0.50400001928E-02 0.  1.
</event>
<event>
 5   0  0.6052292E-05  0.2073543E+04  0.7818609E-02  0.8572988E-01
        1   -1    0    0  501    0  0.00000000000E+00  0.00000000000E+00  0.10585368412E+04  0.10585368412E+04  0.50400001928E-02 0. -1.
       -1   -1    0    0    0  501  0.00000000000E+00  0.00000000000E+00 -0.10154532267E+04  0.10154532267E+04  0.50400001928E-02 0.  1.
    10030    2    1    2    0    0  0.00000000000E+00  0.00000000000E+00  0.43083614442E+02  0.20739900679E+04  0.20735425252E+04 0.  0.
        1    1    3    3  502    0 -0.10113624736E+04 -0.24600072271E+01  0.24970186187E+03  0.10417346708E+04  0.50400001928E-02 0. -1.
       -1    1    3    3    0  502  0.10113624736E+04  0.24600072271E+01 -0.20661824743E+03  0.10322553971E+04  0.50400001928E-02 0.  1.
</event>
<event>
 5   0  0.6221148E-05  0.2146354E+04  0.7818609E-02  0.8541095E-01
        1   -1    0    0  501    0  0.00000000000E+00  0.00000000000E+00  0.14512656545E+04  0.14512656545E+04  0.50400001928E-02 0.  1.
       -1   -1    0    0    0  501  0.00000000000E+00  0.00000000000E+00 -0.79358916203E+03  0.79358916205E+03  0.50400001928E-02 0. -1.
    10030    2    1    2    0    0  0.00000000000E+00  0.00000000000E+00  0.65767649248E+03  0.22448548166E+04  0.21463538335E+04 0.  0.
        3    1    3    3  502    0  0.90240264619E+03 -0.50977580678E+02 -0.27631633625E+03  0.94513489908E+03  0.10100000352E+00 0. -1.
       -3    1    3    3    0  502 -0.90240264619E+03  0.50977580678E+02  0.93399282873E+03  0.12997199175E+04  0.10100000352E+00 0.  1.
</event>
<event>
 5   0  0.1252477E-04  0.2083019E+04  0.7818609E-02  0.8568761E-01
       -2   -1    0    0    0  501  0.00000000000E+00  0.00000000000E+00  0.42845392236E+03  0.42845392237E+03  0.25500000920E-02 0.  1.
        2   -1    0    0  501    0  0.00000000000E+00  0.00000000000E+00 -0.25317597243E+04  0.25317597243E+04  0.25500000920E-02 0. -1.
    10030    2    1    2    0    0  0.00000000000E+00  0.00000000000E+00 -0.21033058019E+04  0.29602136466E+04  0.20830193320E+04 0.  0.
        4    1    3    3  502    0 -0.73075412724E+02 -0.98713478984E+03 -0.15120720531E+04  0.18072461415E+04  0.12699999809E+01 0. -1.
       -4    1    3    3    0  502  0.73075412724E+02  0.98713478984E+03 -0.59123374876E+03  0.11529675051E+04  0.12699999809E+01 0.  1.
</event>
<event>
 5   0  0.1325673E-04  0.2087516E+04  0.7818609E-02  0.8566763E-01
       -2   -1    0    0    0  501  0.00000000000E+00  0.00000000000E+00  0.68395867714E+03  0.68395867715E+03  0.25500000920E-02 0.  1.
        2   -1    0    0  501    0  0.00000000000E+00  0.00000000000E+00 -0.15928313291E+04  0.15928313291E+04  0.25500000920E-02 0. -1.
    10030    2    1    2    0    0  0.00000000000E+00  0.00000000000E+00 -0.90887265199E+03  0.22767900063E+04  0.20875160443E+04 0.  0.
        5    1    3    3  502    0 -0.15045891383E+03 -0.69904818237E+02  0.66947416134E+03  0.68974075641E+03  0.46999998093E+01 0.  1.
       -5    1    3    3    0  502  0.15045891383E+03  0.69904818237E+02 -0.15783468133E+04  0.15870492499E+04  0.46999998093E+01 0. -1.
</event>
<event>
 5   0  0.4615125E-05  0.2088614E+04  0.7818609E-02  0.8566275E-01
       -3   -1    0    0    0  501  0.00000000000E+00  0.00000000000E+00  0.17688394583E+04  0.17688394612E+04  0.10100000352E+00 0.  1.
        3   -1    0    0  501    0  0.00000000000E+00  0.00000000000E+00 -0.61654973397E+03  0.61654974224E+03  0.10100000352E+00 0. -1.
    10030    2    1    2    0    0  0.00000000000E+00  0.00000000000E+00  0.11522897244E+04  0.23853892034E+04  0.20886143835E+04 0.  0.
        5    1    3    3  502    0 -0.56438682683E+03 -0.44037395257E+03  0.14445054574E+04  0.16121661871E+04  0.46999998093E+01 0.  1.
       -5    1    3    3    0  502  0.56438682683E+03  0.44037395257E+03 -0.29221573302E+03  0.77322301636E+03  0.46999998093E+01 0. -1.
</event>
<event>
 5   0  0.1235817E-04  0.2098591E+04  0.7818609E-02  0.8561864E-01
        2   -1    0    0  501    0  0.00000000000E+00  0.00000000000E+00  0.16961008384E+04  0.16961008384E+04  0.25500000920E-02 0. -1.
       -2   -1    0    0    0  501  0.00000000000E+00  0.00000000000E+00 -0.64914852314E+03  0.64914852314E+03  0.25500000920E-02 0.  1.
    10030    2    1    2    0    0  0.00000000000E+00  0.00000000000E+00  0.10469523153E+04  0.23452493616E+04  0.20985912936E+04 0.  0.
        1    1    3    3  502    0 -0.30235484968E+03  0.86612852433E+03 -0.45725909306E+02  0.91852486879E+03  0.50400001928E-02 0.  1.
       -1    1    3    3    0  502  0.30235484968E+03 -0.86612852433E+03  0.10926782246E+04  0.14267244928E+04  0.50400001928E-02 0. -1.
</event>
<event>
 5   0  0.1325673E-04  0.2114640E+04  0.7818609E-02  0.8554822E-01
       -2   -1    0    0    0  501  0.00000000000E+00  0.00000000000E+00  0.49906551003E+03  0.49906551003E+03  0.25500000920E-02 0.  1.
        2   -1    0    0  501    0  0.00000000000E+00  0.00000000000E+00 -0.22400381918E+04  0.22400381918E+04  0.25500000920E-02 0. -1.
    10030    2    1    2    0    0  0.00000000000E+00  0.00000000000E+00 -0.17409726818E+04  0.27391037018E+04  0.21146402083E+04 0.  0.
        5    1    3    3  502    0 -0.10221626345E+03  0.60524834591E+03 -0.19856001198E+04  0.20783175048E+04  0.46999998093E+01 0. -1.
       -5    1    3    3    0  502  0.10221626345E+03 -0.60524834591E+03  0.24462743808E+03  0.66078619705E+03  0.46999998093E+01 0.  1.
</event>
<event>
 5   0  0.1252477E-04  0.1732455E+04  0.7818609E-02  0.8743067E-01
        2   -1    0    0  501    0  0.00000000000E+00  0.00000000000E+00  0.12125535720E+04  0.12125535720E+04  0.25500000920E-02 0. -1.
       -2   -1    0    0    0  501  0.00000000000E+00  0.00000000000E+00 -0.61881832755E+03  0.61881832756E+03  0.25500000920E-02 0.  1.
    10030    2    1    2    0    0  0.00000000000E+00  0.00000000000E+00  0.59373524448E+03  0.18313718996E+04  0.17324553368E+04 0.  0.
        4    1    3    3  502    0  0.36643692717E+03  0.78445233607E+03  0.26875459816E+03  0.90657163870E+03  0.12699999809E+01 0.  1.
       -4    1    3    3    0  502 -0.36643692717E+03 -0.78445233607E+03  0.32498064632E+03  0.92480026089E+03  0.12699999809E+01 0. -1.
</event>
<event>
 5   0  0.6221148E-05  0.2083202E+04  0.7818609E-02  0.8568679E-01
       -1   -1    0    0    0  501  0.00000000000E+00  0.00000000000E+00  0.15041874943E+04  0.15041874944E+04  0.50400001928E-02 0.  1.
        1   -1    0    0  501    0  0.00000000000E+00  0.00000000000E+00 -0.72127466885E+03  0.72127466887E+03  0.50400001928E-02 0. -1.
    10030    2    1    2    0    0  0.00000000000E+00  0.00000000000E+00  0.78291282549E+03  0.22254621632E+04  0.20832017059E+04 0.  0.
        3    1    3    3  502    0 -0.36165126955E+03 -0.55041554469E+03  0.12535224937E+04  0.14160040837E+04  0.10100000352E+00 0.  1.
       -3    1    3    3    0  502  0.36165126955E+03  0.55041554469E+03 -0.47060966817E+03  0.80945807957E+03  0.10100000352E+00 0. -1.
</event>
<event>
 5   0  0.6221148E-05  0.2100040E+04  0.7818609E-02  0.8561226E-01
       -1   -1    0    0    0  501  0.00000000000E+00  0.00000000000E+00  0.90667667354E+03  0.90667667355E+03  0.50400001928E-02 0.  1.
        1   -1    0    0  501    0  0.00000000000E+00  0.00000000000E+00 -0.12160252229E+04  0.12160252229E+04  0.50400001928E-02 0. -1.
    10030    2    1    2    0    0  0.00000000000E+00  0.00000000000E+00 -0.30934854933E+03  0.21227018964E+04  0.21000397177E+04 0.  0.
        3    1    3    3  502    0  0.19161657468E+03  0.58074616158E+03 -0.10174417548E+04  0.11870849803E+04  0.10100000352E+00 0. -1.
       -3    1    3    3    0  502 -0.19161657468E+03 -0.58074616158E+03  0.70809320547E+03  0.93561691611E+03  0.10100000352E+00 0.  1.
</event>
<event>
 5   0  0.1281470E-04  0.2109426E+04  0.7818609E-02  0.8557103E-01
        2   -1    0    0  501    0  0.00000000000E+00  0.00000000000E+00  0.94571770272E+03  0.94571770272E+03  0.25500000920E-02 0. -1.
       -2   -1    0    0    0  501  0.00000000000E+00  0.00000000000E+00 -0.11762696309E+04  0.11762696309E+04  0.25500000920E-02 0.  1.
    10030    2    1    2    0    0  0.00000000000E+00  0.00000000000E+00 -0.23055192818E+03  0.21219873336E+04  0.21094255266E+04 0.  0.
        3    1    3    3  502    0 -0.32285006102E+03 -0.62484920506E+03 -0.90592742314E+03  0.11468972043E+04  0.10100000352E+00 0.  1.
       -3    1    3    3    0  502  0.32285006102E+03  0.62484920506E+03  0.67537549496E+03  0.97509012935E+03  0.10100000352E+00 0. -1.
</event>
<event>
 5   0  0.1252477E-04  0.2092485E+04  0.7818609E-02  0.8564561E-01
       -2   -1    0    0    0  501  0.00000000000E+00  0.00000000000E+00  0.55549155042E+03  0.55549155043E+03  0.25500000920E-02 0.  1.
        2   -1    0    0  501    0  0.00000000000E+00  0.00000000000E+00 -0.19705485684E+04  0.19705485684E+04  0.25500000920E-02 0. -1.
    10030    2    1    2    0    0  0.00000000000E+00  0.00000000000E+00 -0.14150570179E+04  0.25260401188E+04  0.20924847234E+04 0.  0.
        4    1    3    3  502    0 -0.10226859609E+03 -0.43549013413E+02 -0.19633993359E+04  0.19665436551E+04  0.12699999809E+01 0. -1.
       -4    1    3    3    0  502  0.10226859609E+03  0.43549013413E+02  0.54834231796E+03  0.55949646369E+03  0.12699999809E+01 0.  1.
</event>
<event>
 5   0  0.5933905E-05  0.2083911E+04  0.7818609E-02  0.8568364E-01
        1   -1    0    0  501    0  0.00000000000E+00  0.00000000000E+00  0.19230868914E+04  0.19230868914E+04  0.50400001928E-02 0. -1.
       -1   -1    0    0    0  501  0.00000000000E+00  0.00000000000E+00 -0.56454597241E+03  0.56454597243E+03  0.50400001928E-02 0.  1.
    10030    2    1    2    0    0  0.00000000000E+00  0.00000000000E+00  0.13585409190E+04  0.24876328638E+04  0.20839107075E+04 0.  0.
        2    1    3    3  502    0  0.76814414726E+03  0.68456810992E+02  0.15156839554E+04  0.17005968419E+04  0.25500000920E-02 0. -1.
       -2    1    3    3    0  502 -0.76814414726E+03 -0.68456810992E+02 -0.15714303642E+03  0.78703602195E+03  0.25500000920E-02 0.  1.
</event>
<event>
 5   0  0.6052292E-05  0.2102626E+04  0.7818609E-02  0.8560087E-01
        1   -1    0    0  501    0  0.00000000000E+00  0.00000000000E+00  0.73643463277E+03  0.73643463279E+03  0.50400001928E-02 0. -1.
       -1   -1    0    0    0  501  0.00000000000E+00  0.00000000000E+00 -0.15008250565E+04  0.15008250565E+04  0.50400001928E-02 0.  1.
    10030    2    1    2    0    0  0.00000000000E+00  0.00000000000E+00 -0.76439042369E+03  0.22372596893E+04  0.21026264997E+04 0.  0.
        1    1    3    3  502    0  0.24886381638E+03  0.60692596424E+03  0.49197420048E+03  0.81995788864E+03  0.50400001928E-02 0. -1.
       -1    1    3    3    0  502 -0.24886381638E+03 -0.60692596424E+03 -0.12563646242E+04  0.14173018006E+04  0.50400001928E-02 0.  1.
</event>
<event>
 5   0  0.5933905E-05  0.2095769E+04  0.7818609E-02  0.8563109E-01
       -1   -1    0    0    0  501  0.00000000000E+00  0.00000000000E+00  0.57345661675E+03  0.57345661678E+03  0.50400001928E-02 0. -1.
        1   -1    0    0  501    0  0.00000000000E+00  0.00000000000E+00 -0.19148133300E+04  0.19148133300E+04  0.50400001928E-02 0.  1.
    10030    2    1    2    0    0  0.00000000000E+00  0.00000000000E+00 -0.13413567132E+04  0.24882699468E+04  0.20957694281E+04 0.  0.
        2    1    3    3  502    0 -0.32227305122E+02 -0.10881465001E+03 -0.19074955491E+04  0.19108685190E+04  0.25500000920E-02 0.  1.
       -2    1    3    3    0  502  0.32227305122E+02  0.10881465001E+03  0.56613883587E+03  0.57740142772E+03  0.25500000920E-02 0. -1.
</event>
<event>
 5   0  0.1252477E-04  0.2111878E+04  0.7818609E-02  0.8556029E-01
       -2   -1    0    0    0  501  0.00000000000E+00  0.00000000000E+00  0.51140936709E+03  0.51140936709E+03  0.25500000920E-02 0.  1.
        2   -1    0    0  501    0  0.00000000000E+00  0.00000000000E+00 -0.21802640124E+04  0.21802640124E+04  0.25500000920E-02 0. -1.
    10030    2    1    2    0    0  0.00000000000E+00  0.00000000000E+00 -0.16688546453E+04  0.26916733795E+04  0.21118782528E+04 0.  0.
        4    1    3    3  502    0 -0.97411964707E+02  0.11074036295E+02  0.50559506014E+03  0.51501427445E+03  0.12699999809E+01 0.  1.
       -4    1    3    3    0  502  0.97411964707E+02 -0.11074036295E+02 -0.21744497055E+04  0.21766591051E+04  0.12699999809E+01 0. -1.
</event>
<event>
 5   0  0.1252477E-04  0.2041672E+04  0.7818609E-02  0.8587382E-01
        2   -1    0    0  501    0  0.00000000000E+00  0.00000000000E+00  0.13825013933E+04  0.13825013933E+04  0.25500000920E-02 0. -1.
       -2   -1    0    0    0  501  0.00000000000E+00  0.00000000000E+00 -0.75378307448E+03  0.75378307449E+03  0.25500000920E-02 0.  1.
    10030    2    1    2    0    0  0.00000000000E+00  0.00000000000E+00  0.62871831884E+03  0.21362844678E+04  0.20416720116E+04 0.  0.
        4    1    3    3  502    0 -0.21091283591E+03  0.47826809209E+03  0.12318513458E+04  0.13381643933E+04  0.12699999809E+01 0. -1.
       -4    1    3    3    0  502  0.21091283591E+03 -0.47826809209E+03 -0.60313302699E+03  0.79812007456E+03  0.12699999809E+01 0.  1.
</event>
<event>
 5   0  0.1325673E-04  0.2166949E+04  0.7818609E-02  0.8532312E-01
       -2   -1    0    0    0  501  0.00000000000E+00  0.00000000000E+00  0.83078238154E+03  0.83078238155E+03  0.25500000920E-02 0. -1.
        2   -1    0    0  501    0  0.00000000000E+00  0.00000000000E+00 -0.14130263876E+04  0.14130263876E+04  0.25500000920E-02 0.  1.
    10030    2    1    2    0    0  0.00000000000E+00  0.00000000000E+00 -0.58224400610E+03  0.22438087692E+04  0.21669494018E+04 0.  0.
        5    1    3    3  502    0  0.80442886395E+03  0.66197676227E+03 -0.59929590267E+03  0.12018721645E+04  0.46999998093E+01 0. -1.
       -5    1    3    3    0  502 -0.80442886395E+03 -0.66197676227E+03  0.17051896567E+02  0.10419366047E+04  0.46999998093E+01 0.  1.
</event>
<event>
 5   0  0.6221148E-05  0.2077185E+04  0.7818609E-02  0.8571361E-01
       -1   -1    0    0    0  501  0.00000000000E+00  0.00000000000E+00  0.86974843611E+03  0.86974843613E+03  0.50400001928E-02 0.  1.
        1   -1    0    0  501    0  0.00000000000E+00  0.00000000000E+00 -0.12402140981E+04  0.12402140982E+04  0.50400001928E-02 0. -1.
    10030    2    1    2    0    0  0.00000000000E+00  0.00000000000E+00 -0.37046566203E+03  0.21099625343E+04  0.20771848953E+04 0.  0.
        3    1    3    3  502    0 -0.54845387693E+03 -0.55175531366E+03  0.51369358787E+03  0.93226428318E+03  0.10100000352E+00 0.  1.
       -3    1    3    3    0  502  0.54845387693E+03  0.55175531366E+03 -0.88415924990E+03  0.11776982511E+04  0.10100000352E+00 0. -1.
</event>
<event>
 5   0  0.5933905E-05  0.2042183E+04  0.7818609E-02  0.8587149E-01
        1   -1    0    0  501    0  0.00000000000E+00  0.00000000000E+00  0.17487851481E+04  0.17487851481E+04  0.50400001928E-02 0. -1.
       -1   -1    0    0    0  501  0.00000000000E+00  0.00000000000E+00 -0.59620103612E+03  0.59620103614E+03  0.50400001928E-02 0.  1.
    10030    2    1    2    0    0  0.00000000000E+00  0.00000000000E+00  0.11525841120E+04  0.23449861843E+04  0.20421826728E+04 0.  0.
        2    1    3    3  502    0  0.41660696112E+03  0.37135981576E+03 -0.40557193430E+03  0.68989714212E+03  0.25500000920E-02 0.  1.
       -2    1    3    3    0  502 -0.41660696112E+03 -0.37135981576E+03  0.15581560463E+04  0.16550890421E+04  0.25500000920E-02 0. -1.
</event>
<event>
 5   0  0.1235817E-04  0.2093362E+04  0.7818609E-02  0.8564173E-01
        2   -1    0    0  501    0  0.00000000000E+00  0.00000000000E+00  0.20970237120E+04  0.20970237120E+04  0.25500000920E-02 0.  1.
       -2   -1    0    0    0  501  0.00000000000E+00  0.00000000000E+00 -0.52242681848E+03  0.52242681848E+03  0.25500000920E-02 0. -1.
    10030    2    1    2    0    0  0.00000000000E+00  0.00000000000E+00  0.15745968935E+04  0.26194505305E+04  0.20933622965E+04 0.  0.
        1    1    3    3  502    0  0.14223688267E+03 -0.54436569134E+03  0.18917021820E+04  0.19736013990E+04  0.50400001928E-02 0.  1.
       -1    1    3    3    0  502 -0.14223688267E+03  0.54436569134E+03 -0.31710528844E+03  0.64584913152E+03  0.50400001928E-02 0. -1.
</event>
<event>
 5   0  0.6263616E-05  0.2061125E+04  0.7818609E-02  0.8578564E-01
        1   -1    0    0  501    0  0.00000000000E+00  0.00000000000E+00  0.99156738709E+03  0.99156738710E+03  0.50400001928E-02 0.  1.
       -1   -1    0    0    0  501  0.00000000000E+00  0.00000000000E+00 -0.10710911467E+04  0.10710911467E+04  0.50400001928E-02 0. -1.
    10030    2    1    2    0    0  0.00000000000E+00  0.00000000000E+00 -0.79523759609E+02  0.20626585338E+04  0.20611249838E+04 0.  0.
        4    1    3    3  502    0 -0.46167200865E+03 -0.82005625296E+03 -0.46010312747E+03  0.10475351080E+04  0.12699999809E+01 0.  1.
       -4    1    3    3    0  502  0.46167200865E+03  0.82005625296E+03  0.38057936786E+03  0.10151234259E+04  0.12699999809E+01 0. -1.
</event>
<event>
 5   0  0.1252477E-04  0.2104458E+04  0.7818609E-02  0.8559282E-01
       -2   -1    0    0    0  501  0.00000000000E+00  0.00000000000E+00  0.11784820050E+04  0.11784820050E+04  0.25500000920E-02 0.  1.
        2   -1    0    0  501    0  0.00000000000E+00  0.00000000000E+00 -0.93950129520E+03  0.93950129521E+03  0.25500000920E-02 0. -1.
    10030    2    1    2    0    0  0.00000000000E+00  0.00000000000E+00  0.23898070981E+03  0.21179833002E+04  0.21044575264E+04 0.  0.
        4    1    3    3  502    0 -0.94270198859E+03 -0.36132925991E+03 -0.17895881256E+03  0.10253164111E+04  0.12699999809E+01 0. -1.
       -4    1    3    3    0  502  0.94270198859E+03  0.36132925991E+03  0.41793952237E+03  0.10926668891E+04  0.12699999809E+01 0.  1.
</event>
<event>
 5   0  0.4615125E-05  0.1805984E+04  0.7818609E-02  0.8703124E-01
       -3   -1    0    0    0  501  0.00000000000E+00  0.00000000000E+00  0.44219326232E+03  0.44219327386E+03  0.10100000352E+00 0.  1.
        3   -1    0    0  501    0  0.00000000000E+00  0.00000000000E+00 -0.18439780811E+04  0.18439780839E+04  0.10100000352E+00 0. -1.
    10030    2    1    2    0    0  0.00000000000E+00  0.00000000000E+00 -0.14017848188E+04  0.22861713577E+04  0.18059841635E+04 0.  0.
        3    1    3    3  502    0  0.23984802450E+03  0.74256987689E+03 -0.12570380781E+03  0.79040404505E+03  0.10100000352E+00 0.  1.
       -3    1    3    3    0  502 -0.23984802450E+03 -0.74256987689E+03 -0.12760810110E+04  0.14957673127E+04  0.10100000352E+00 0. -1.
</event>
<event>
 5   0  0.1349252E-04  0.2081287E+04  0.7818609E-02  0.8569532E-01
        2   -1    0    0  501    0  0.00000000000E+00  0.00000000000E+00  0.15719495780E+04  0.15719495780E+04  0.25500000920E-02 0. -1.
       -2   -1    0    0    0  501  0.00000000000E+00  0.00000000000E+00 -0.68891428842E+03  0.68891428843E+03  0.25500000920E-02 0.  1.
    10030    2    1    2    0    0  0.00000000000E+00  0.00000000000E+00  0.88303528954E+03  0.22608638664E+04  0.20812866453E+04 0.  0.
        2    1    3    3  502    0  0.75958344145E+02 -0.45109540610E+03 -0.57384026688E+03  0.73385924219E+03  0.25500000920E-02 0.  1.
       -2    1    3    3    0  502 -0.75958344145E+02  0.45109540610E+03  0.14568755564E+04  0.15270046242E+04  0.25500000920E-02 0. -1.
</event>
<event>
 5   0  0.6263616E-05  0.2082534E+04  0.7818609E-02  0.8568976E-01
        1   -1    0    0  501    0  0.00000000000E+00  0.00000000000E+00  0.21844371392E+04  0.21844371392E+04  0.50400001928E-02 0. -1.
       -1   -1    0    0    0  501  0.00000000000E+00  0.00000000000E+00 -0.49634624573E+03  0.49634624576E+03  0.50400001928E-02 0.  1.
    10030    2    1    2    0    0  0.00000000000E+00  0.00000000000E+00  0.16880908935E+04  0.26807833850E+04  0.20825341996E+04 0.  0.
        4    1    3    3  502    0 -0.17588806235E+03  0.82439064224E+03  0.16309443462E+04  0.18359023979E+04  0.12699999809E+01 0. -1.
       -4    1    3    3    0  502  0.17588806235E+03 -0.82439064224E+03  0.57146547296E+02  0.84488098704E+03  0.12699999809E+01 0.  1.
</event>
<event>
 5   0  0.1252477E-04  0.2106771E+04  0.7818609E-02  0.8558267E-01
        2   -1    0    0  501    0  0.00000000000E+00  0.00000000000E+00  0.10301851278E+04  0.10301851278E+04  0.25500000920E-02 0.  1.
       -2   -1    0    0    0  501  0.00000000000E+00  0.00000000000E+00 -0.10771083911E+04  0.10771083911E+04  0.25500000920E-02 0. -1.
    10030    2    1    2    0    0  0.00000000000E+00  0.00000000000E+00 -0.46923263272E+02  0.21072935189E+04  0.21067710323E+04 0.  0.
        4    1    3    3  502    0 -0.43522250498E+03 -0.63145431810E+02  0.93396615311E+03  0.10323276430E+04  0.12699999809E+01 0.  1.
       -4    1    3    3    0  502  0.43522250498E+03  0.63145431810E+02 -0.98088941639E+03  0.10749658760E+04  0.12699999809E+01 0. -1.
</event>
<event>
 5   0  0.6221148E-05  0.2122232E+04  0.7818609E-02  0.8551513E-01
        1   -1    0    0  501    0  0.00000000000E+00  0.00000000000E+00  0.10578866155E+04  0.10578866155E+04  0.50400001928E-02 0.  1.
       -1   -1    0    0    0  501  0.00000000000E+00  0.00000000000E+00 -0.10643551598E+04  0.10643551598E+04  0.50400001928E-02 0. -1.
    10030    2    1    2    0    0  0.00000000000E+00  0.00000000000E+00 -0.64685442875E+01  0.21222417753E+04  0.21222319173E+04 0.  0.
        3    1    3    3  502    0 -0.21069283249E+03  0.97025675093E+03  0.37117023827E+03  0.10599797113E+04  0.10100000352E+00 0.  1.
       -3    1    3    3    0  502  0.21069283249E+03 -0.97025675093E+03 -0.37763878256E+03  0.10622620640E+04  0.10100000352E+00 0. -1.
</event>
<event>
 5   0  0.1325673E-04  0.2090181E+04  0.7818609E-02  0.8565581E-01
        2   -1    0    0  501    0  0.00000000000E+00  0.00000000000E+00  0.20874714328E+04  0.20874714328E+04  0.25500000920E-02 0. -1.
       -2   -1    0    0    0  501  0.00000000000E+00  0.00000000000E+00 -0.52322330429E+03  0.52322330430E+03  0.25500000920E-02 0.  1.
    10030    2    1    2    0    0  0.00000000000E+00  0.00000000000E+00  0.15642481285E+04  0.26106947371E+04  0.20901805670E+04 0.  0.
        5    1    3    3  502    0  0.21422002093E+03 -0.51638332955E+03  0.18849882462E+04  0.19661497244E+04  0.46999998093E+01 0. -1.
       -5    1    3    3    0  502 -0.21422002093E+03  0.51638332955E+03 -0.32074011764E+03  0.64454501276E+03  0.46999998093E+01 0.  1.
</event>
<event>
 5   0  0.1325673E-04  0.2022934E+04  0.7818609E-02  0.8595973E-01
       -2   -1    0    0    0  501  0.00000000000E+00  0.00000000000E+00  0.84590093301E+03  0.84590093302E+03  0.25500000920E-02 0.  1.
        2   -1    0    0  501    0  0.00000000000E+00  0.00000000000E+00 -0.12094391148E+04  0.12094391148E+04  0.25500000920E-02 0. -1.
    10030    2    1    2    0    0  0.00000000000E+00  0.00000000000E+00 -0.36353818177E+03  0.20553400478E+04  0.20229341815E+04 0.  0.
        5    1    3    3  502    0 -0.64363898645E+03  0.14679834332E+03  0.59681109070E+03  0.88995868807E+03  0.46999998093E+01 0.  1.
       -5    1    3    3    0  502  0.64363898645E+03 -0.14679834332E+03 -0.96034927248E+03  0.11653813597E+04  0.46999998093E+01 0. -1.
</event>
<event>
 5   0  0.1235817E-04  0.2069567E+04  0.7818609E-02  0.8574769E-01
        2   -1    0    0  501    0  0.00000000000E+00  0.00000000000E+00  0.16217985341E+04  0.16217985341E+04  0.25500000920E-02 0.  1.
       -2   -1    0    0    0  501  0.00000000000E+00  0.00000000000E+00 -0.66024064655E+03  0.66024064655E+03  0.25500000920E-02 0. -1.
    10030    2    1    2    0    0  0.00000000000E+00  0.00000000000E+00  0.96155788757E+03  0.22820391807E+04  0.20695674067E+04 0.  0.
        1    1    3    3  502    0  0.42214156538E+03  0.16612744302E+03 -0.54474409105E+03  0.70890616679E+03  0.50400001928E-02 0. -1.
       -1    1    3    3    0  502 -0.42214156538E+03 -0.16612744302E+03  0.15063019786E+04  0.15731330139E+04  0.50400001928E-02 0.  1.
</event>
<event>
 5   0  0.5933905E-05  0.2103188E+04  0.7818609E-02  0.8559840E-01
       -1   -1    0    0    0  501  0.00000000000E+00  0.00000000000E+00  0.68746934460E+03  0.68746934462E+03  0.50400001928E-02 0. -1.
        1   -1    0    0  501    0  0.00000000000E+00  0.00000000000E+00 -0.16085803013E+04  0.16085803013E+04  0.50400001928E-02 0.  1.
    10030    2    1    2    0    0  0.00000000000E+00  0.00000000000E+00 -0.92111095671E+03  0.22960496459E+04  0.21031877192E+04 0.  0.
        2    1    3    3  502    0 -0.30739964525E+03  0.38838793967E+03 -0.14732563311E+04  0.15542921060E+04  0.25500000920E-02 0.  1.
       -2    1    3    3    0  502  0.30739964525E+03 -0.38838793967E+03  0.55214537440E+03  0.74175753994E+03  0.25500000920E-02 0. -1.
</event>
<event>
 5   0  0.6221148E-05  0.2099226E+04  0.7818609E-02  0.8561585E-01
       -1   -1    0    0    0  501  0.00000000000E+00  0.00000000000E+00  0.72263499243E+03  0.72263499244E+03  0.50400001928E-02 0.  1.
        1   -1    0    0  501    0  0.00000000000E+00  0.00000000000E+00 -0.15245416286E+04  0.15245416286E+04  0.50400001928E-02 0. -1.
    10030    2    1    2    0    0  0.00000000000E+00  0.00000000000E+00 -0.80190663612E+03  0.22471766210E+04  0.20992256937E+04 0.  0.
        3    1    3    3  502    0  0.60268459832E+03 -0.65368960471E+03 -0.99807355005E+03  0.13366711061E+04  0.10100000352E+00 0.  1.
       -3    1    3    3    0  502 -0.60268459832E+03  0.65368960471E+03  0.19616691392E+03  0.91050551491E+03  0.10100000352E+00 0. -1.
</event>
<event>
 5   0  0.6221148E-05  0.2113665E+04  0.7818609E-02  0.8555248E-01
       -1   -1    0    0    0  501  0.00000000000E+00  0.00000000000E+00  0.13423404280E+04  0.13423404280E+04  0.50400001928E-02 0. -1.
        1   -1    0    0  501    0  0.00000000000E+00  0.00000000000E+00 -0.83205018918E+03  0.83205018919E+03  0.50400001928E-02 0.  1.
    10030    2    1    2    0    0  0.00000000000E+00  0.00000000000E+00  0.51029023886E+03  0.21743906172E+04  0.21136646916E+04 0.  0.
        3    1    3    3  502    0  0.83720851887E+03 -0.55209192333E+03 -0.87857337433E+02  0.10066988218E+04  0.10100000352E+00 0. -1.
       -3    1    3    3    0  502 -0.83720851887E+03  0.55209192333E+03  0.59814757629E+03  0.11676917954E+04  0.10100000352E+00 0.  1.
</event>
<event>
 5   0  0.1252477E-04  0.2080099E+04  0.7818609E-02  0.8570061E-01
        2   -1    0    0  501    0  0.00000000000E+00  0.00000000000E+00  0.20251670905E+04  0.20251670905E+04  0.25500000920E-02 0.  1.
       -2   -1    0    0    0  501  0.00000000000E+00  0.00000000000E+00 -0.53413007148E+03  0.53413007149E+03  0.25500000920E-02 0. -1.
    10030    2    1    2    0    0  0.00000000000E+00  0.00000000000E+00  0.14910370190E+04  0.25592971620E+04  0.20800986927E+04 0.  0.
        4    1    3    3  502    0 -0.70261264712E+03 -0.18438431608E+03 -0.17029471775E+03  0.74609919696E+03  0.12699999809E+01 0. -1.
       -4    1    3    3    0  502  0.70261264712E+03  0.18438431608E+03  0.16613317368E+04  0.18131979651E+04  0.12699999809E+01 0.  1.
</event>
<event>
 5   0  0.5846187E-05  0.2114402E+04  0.7818609E-02  0.8554926E-01
       -1   -1    0    0    0  501  0.00000000000E+00  0.00000000000E+00  0.55846581435E+03  0.55846581437E+03  0.50400001928E-02 0. -1.
        1   -1    0    0  501    0  0.00000000000E+00  0.00000000000E+00 -0.20013287385E+04  0.20013287385E+04  0.50400001928E-02 0.  1.
    10030    2    1    2    0    0  0.00000000000E+00  0.00000000000E+00 -0.14428629242E+04  0.25597945529E+04  0.21144017440E+04 0.  0.
        5    1    3    3  502    0 -0.66341296429E+02  0.36688351547E+03  0.47622046418E+03  0.60482452169E+03  0.46999998093E+01 0. -1.
       -5    1    3    3    0  502  0.66341296429E+02 -0.36688351547E+03 -0.19190833883E+04  0.19549700312E+04  0.46999998093E+01 0.  1.
</event>
<event>
 5   0  0.6263616E-05  0.2056050E+04  0.7818609E-02  0.8580855E-01
        1   -1    0    0  501    0  0.00000000000E+00  0.00000000000E+00  0.77402736734E+03  0.77402736735E+03  0.50400001928E-02 0. -1.
       -1   -1    0    0    0  501  0.00000000000E+00  0.00000000000E+00 -0.13653717669E+04  0.13653717669E+04  0.50400001928E-02 0.  1.
    10030    2    1    2    0    0  0.00000000000E+00  0.00000000000E+00 -0.59134439960E+03  0.21393991343E+04  0.20560497214E+04 0.  0.
        4    1    3    3  502    0  0.11000069473E+03  0.83330244727E+03  0.32021801058E+03  0.89946334482E+03  0.12699999809E+01 0. -1.
       -4    1    3    3    0  502 -0.11000069473E+03 -0.83330244727E+03 -0.91156241018E+03  0.12399357895E+04  0.12699999809E+01 0.  1.
</event>
<event>
 5   0  0.5933905E-05  0.2114501E+04  0.7818609E-02  0.8554882E-01
       -1   -1    0    0    0  501  0.00000000000E+00  0.00000000000E+00  0.97219909482E+03  0.97219909483E+03  0.50400001928E-02 0. -1.
        1   -1    0    0  501    0  0.00000000000E+00  0.00000000000E+00 -0.11497429592E+04  0.11497429592E+04  0.50400001928E-02 0.  1.
    10030    2    1    2    0    0  0.00000000000E+00  0.00000000000E+00 -0.17754386436E+03  0.21219420540E+04  0.21145014204E+04 0.  0.
        2    1    3    3  502    0  0.44456968723E+03 -0.37767883710E+03 -0.97363179455E+03  0.11350076573E+04  0.25500000920E-02 0.  1.
       -2    1    3    3    0  502 -0.44456968723E+03  0.37767883710E+03  0.79608793019E+03  0.98693439671E+03  0.25500000920E-02 0. -1.
</event>
<event>
 5   0  0.1281470E-04  0.2107206E+04  0.7818609E-02  0.8558076E-01
       -2   -1    0    0    0  501  0.00000000000E+00  0.00000000000E+00  0.13600354896E+04  0.13600354896E+04  0.25500000920E-02 0. -1.
        2   -1    0    0  501    0  0.00000000000E+00  0.00000000000E+00 -0.81621340019E+03  0.81621340020E+03  0.25500000920E-02 0.  1.
    10030    2    1    2    0    0  0.00000000000E+00  0.00000000000E+00  0.54382208944E+03  0.21762488898E+04  0.21072059144E+04 0.  0.
        3    1    3    3  502    0  0.26486615280E+03 -0.66270313786E+03 -0.52856501995E+03  0.88809375538E+03  0.10100000352E+00 0.  1.
       -3    1    3    3    0  502 -0.26486615280E+03  0.66270313786E+03  0.10723871094E+04  0.12881551345E+04  0.10100000352E+00 0. -1.
</event>
<event>
 5   0  0.1252477E-04  0.2113769E+04  0.7818609E-02  0.8555202E-01
        2   -1    0    0  501    0  0.00000000000E+00  0.00000000000E+00  0.15466814921E+04  0.15466814921E+04  0.25500000920E-02 0.  1.
       -2   -1    0    0    0  501  0.00000000000E+00  0.00000000000E+00 -0.72219461198E+03  0.72219461199E+03  0.25500000920E-02 0. -1.
    10030    2    1    2    0    0  0.00000000000E+00  0.00000000000E+00  0.82448688007E+03  0.22688761040E+04  0.21137691833E+04 0.  0.
        4    1    3    3  502    0 -0.52981313949E+03  0.15300220555E+03  0.13800077184E+04  0.14861139100E+04  0.12699999809E+01 0.  1.
       -4    1    3    3    0  502  0.52981313949E+03 -0.15300220555E+03 -0.55552083835E+03  0.78276219404E+03  0.12699999809E+01 0. -1.
</event>
<event>
 5   0  0.1235817E-04  0.2158513E+04  0.7818609E-02  0.8535897E-01
       -2   -1    0    0    0  501  0.00000000000E+00  0.00000000000E+00  0.77967253689E+03  0.77967253689E+03  0.25500000920E-02 0. -1.
        2   -1    0    0  501    0  0.00000000000E+00  0.00000000000E+00 -0.14939542451E+04  0.14939542451E+04  0.25500000920E-02 0.  1.
    10030    2    1    2    0    0  0.00000000000E+00  0.00000000000E+00 -0.71428170824E+03  0.22736267820E+04  0.21585134665E+04 0.  0.
        1    1    3    3  502    0 -0.25841360386E+02 -0.94182131900E+03 -0.91161668039E+03  0.13110073016E+04  0.50400001928E-02 0.  1.
       -1    1    3    3    0  502  0.25841360386E+02  0.94182131900E+03  0.19733497216E+03  0.96261948043E+03  0.50400001928E-02 0. -1.
</event>
<event>
 5   0  0.1281470E-04  0.1975442E+04  0.7818609E-02  0.8618189E-01
        2   -1    0    0  501    0  0.00000000000E+00  0.00000000000E+00  0.86814268329E+03  0.86814268329E+03  0.25500000920E-02 0. -1.
       -2   -1    0    0    0  501  0.00000000000E+00  0.00000000000E+00 -0.11237702330E+04  0.11237702330E+04  0.25500000920E-02 0.  1.
    10030    2    1    2    0    0  0.00000000000E+00  0.00000000000E+00 -0.25562754974E+03  0.19919129163E+04  0.19754421333E+04 0.  0.
        3    1    3    3  502    0 -0.52438432684E+03  0.34644063172E+02 -0.97109634132E+03  0.11041771813E+04  0.10100000352E+00 0.  1.
       -3    1    3    3    0  502  0.52438432684E+03 -0.34644063172E+02  0.71546879158E+03  0.88773573504E+03  0.10100000352E+00 0. -1.
</event>
<event>
 5   0  0.5846187E-05  0.2144745E+04  0.7818609E-02  0.8541785E-01
       -1   -1    0    0    0  501  0.00000000000E+00  0.00000000000E+00  0.79316168789E+03  0.79316168790E+03  0.50400001928E-02 0.  1.
        1   -1    0    0  501    0  0.00000000000E+00  0.00000000000E+00 -0.14498715474E+04  0.14498715474E+04  0.50400001928E-02 0. -1.
    10030    2    1    2    0    0  0.00000000000E+00  0.00000000000E+00 -0.65670985948E+03  0.22430332353E+04  0.21447447995E+04 0.  0.
        5    1    3    3  502    0 -0.66887340655E+03 -0.77340695282E+03  0.95793318662E+01  0.10225770398E+04  0.46999998093E+01 0.  1.
       -5    1    3    3    0  502  0.66887340655E+03  0.77340695282E+03 -0.66628919135E+03  0.12204561955E+04  0.46999998093E+01 0. -1.
</event>
<event>
 5   0  0.6263616E-05  0.2120008E+04  0.7818609E-02  0.8552480E-01
        1   -1    0    0  501    0  0.00000000000E+00  0.00000000000E+00  0.16429957608E+04  0.16429957608E+04  0.50400001928E-02 0.  1.
       -1   -1    0    0    0  501  0.00000000000E+00  0.00000000000E+00 -0.68387798818E+03  0.68387798820E+03  0.50400001928E-02 0. -1.
    10030    2    1    2    0    0  0.00000000000E+00  0.00000000000E+00  0.95911777261E+03  0.23268737490E+04  0.21200081467E+04 0.  0.
        4    1    3    3  502    0  0.36746123035E+03 -0.94673517942E+03  0.81296204385E+03  0.13008628496E+04  0.12699999809E+01 0.  1.
       -4    1    3    3    0  502 -0.36746123035E+03  0.94673517942E+03  0.14615572876E+03  0.10260108994E+04  0.12699999809E+01 0. -1.
</event>
<event>
 5   0  0.5846187E-05  0.2371650E+04  0.7818609E-02  0.8450194E-01
       -1   -1    0    0    0  501  0.00000000000E+00  0.00000000000E+00  0.14592799810E+04  0.14592799810E+04  0.50400001928E-02 0. -1.
        1   -1    0    0  501    0  0.00000000000E+00  0.00000000000E+00 -0.96361257952E+03  0.96361257953E+03  0.50400001928E-02 0.  1.
    10030    2    1    2    0    0  0.00000000000E+00  0.00000000000E+00  0.49566740150E+03  0.24228925606E+04  0.23716496763E+04 0.  0.
        5    1    3    3  502    0  0.89257156719E+03  0.76766141171E+03  0.10274252708E+03  0.11817640046E+04  0.46999998093E+01 0.  1.
       -5    1    3    3    0  502 -0.89257156719E+03 -0.76766141171E+03  0.39292487441E+03  0.12411285560E+04  0.46999998093E+01 0. -1.
</event>
<event>
 5   0  0.6052292E-05  0.2116520E+04  0.7818609E-02  0.8554001E-01
        1   -1    0    0  501    0  0.00000000000E+00  0.00000000000E+00  0.10090987922E+04  0.10090987922E+04  0.50400001928E-02 0.  1.
       -1   -1    0    0    0  501  0.00000000000E+00  0.00000000000E+00 -0.11098159948E+04  0.11098159948E+04  0.50400001928E-02 0. -1.
    10030    2    1    2    0    0  0.00000000000E+00  0.00000000000E+00 -0.10071720258E+03  0.21189147870E+04  0.21165197660E+04 0.  0.
        1    1    3    3  502    0  0.27330251913E+03 -0.35420610562E+03  0.90976664718E+03  0.10138202920E+04  0.50400001928E-02 0.  1.
       -1    1    3    3    0  502 -0.27330251913E+03  0.35420610562E+03 -0.10104838498E+04  0.11050944950E+04  0.50400001928E-02 0. -1.
</event>
<event>
 5   0  0.1252477E-04  0.2113924E+04  0.7818609E-02  0.8555135E-01
       -2   -1    0    0    0  501  0.00000000000E+00  0.00000000000E+00  0.76249761706E+03  0.76249761707E+03  0.25500000920E-02 0.  1.
        2   -1    0    0  501    0  0.00000000000E+00  0.00000000000E+00 -0.14651434291E+04  0.14651434291E+04  0.25500000920E-02 0. -1.
    10030    2    1    2    0    0  0.00000000000E+00  0.00000000000E+00 -0.70264581207E+03  0.22276410462E+04  0.21139237199E+04 0.  0.
        4    1    3    3  502    0 -0.10311329612E+04  0.11657228511E+03 -0.13966368633E+03  0.10470586610E+04  0.12699999809E+01 0.  1.
       -4    1    3    3    0  502  0.10311329612E+04 -0.11657228511E+03 -0.56298212573E+03  0.11805823852E+04  0.12699999809E+01 0. -1.
</event>
<event>
 5   0  0.1235817E-04  0.2087953E+04  0.7818609E-02  0.8566569E-01
        2   -1    0    0  501    0  0.00000000000E+00  0.00000000000E+00  0.16208324648E+04  0.16208324648E+04  0.25500000920E-02 0.  1.
       -2   -1    0    0    0  501  0.00000000000E+00  0.00000000000E+00 -0.67242405804E+03  0.67242405804E+03  0.25500000920E-02 0. -1.
    10030    2    1    2    0    0  0.00000000000E+00  0.00000000000E+00  0.94840840676E+03  0.22932565228E+04  0.20879528188E+04 0.  0.
        1    1    3    3  502    0 -0.40783101530E+02 -0.10353171511E+04  0.61460932361E+03  0.12046947686E+04  0.50400001928E-02 0. -1.
       -1    1    3    3    0  502  0.40783101530E+02  0.10353171511E+04  0.33379908314E+03  0.10885617542E+04  0.50400001928E-02 0.  1.
</event>
<event>
 5   0  0.1349252E-04  0.2101113E+04  0.7818609E-02  0.8560753E-01
       -2   -1    0    0    0  501  0.00000000000E+00  0.00000000000E+00  0.11393819686E+04  0.11393819687E+04  0.25500000920E-02 0.  1.
        2   -1    0    0  501    0  0.00000000000E+00  0.00000000000E+00 -0.96865550041E+03  0.96865550042E+03  0.25500000920E-02 0. -1.
    10030    2    1    2    0    0  0.00000000000E+00  0.00000000000E+00  0.17072646824E+03  0.21080374691E+04  0.21011126681E+04 0.  0.
        2    1    3    3  502    0 -0.48734998358E+03 -0.64600651507E+03 -0.58679565930E+03  0.99958169741E+03  0.25500000920E-02 0. -1.
       -2    1    3    3    0  502  0.48734998358E+03  0.64600651507E+03  0.75752212754E+03  0.11084557717E+04  0.25500000920E-02 0.  1.
</event>
<event>
 5   0  0.6221148E-05  0.2133039E+04  0.7818609E-02  0.8546827E-01
       -1   -1    0    0    0  501  0.00000000000E+00  0.00000000000E+00  0.64079056196E+03  0.64079056198E+03  0.50400001928E-02 0. -1.
        1   -1    0    0  501    0  0.00000000000E+00  0.00000000000E+00 -0.17750952447E+04  0.17750952447E+04  0.50400001928E-02 0.  1.
    10030    2    1    2    0    0  0.00000000000E+00  0.00000000000E+00 -0.11343046827E+04  0.24158858067E+04  0.21330394084E+04 0.  0.
        3    1    3    3  502    0  0.38122280336E+03  0.23066679202E+03  0.53031920496E+03  0.69265898110E+03  0.10100000352E+00 0. -1.
       -3    1    3    3    0  502 -0.38122280336E+03 -0.23066679202E+03 -0.16646238877E+04  0.17232268256E+04  0.10100000352E+00 0.  1.
</event>
<event>
 5   0  0.1281470E-04  0.2023487E+04  0.7818609E-02  0.8595718E-01
        2   -1    0    0  501    0  0.00000000000E+00  0.00000000000E+00  0.15875070306E+04  0.15875070306E+04  0.25500000920E-02 0.  1.
       -2   -1    0    0    0  501  0.00000000000E+00  0.00000000000E+00 -0.64480005525E+03  0.64480005526E+03  0.25500000920E-02 0. -1.
    10030    2    1    2    0    0  0.00000000000E+00  0.00000000000E+00  0.94270697538E+03  0.22323070859E+04  0.20234867146E+04 0.  0.
        3    1    3    3  502    0  0.43559287205E+02 -0.68548142808E+03 -0.34816945788E+03  0.77006764725E+03  0.10100000352E+00 0. -1.
       -3    1    3    3    0  502 -0.43559287205E+02  0.68548142808E+03  0.12908764333E+04  0.14622394386E+04  0.10100000352E+00 0.  1.
</event>
<event>
 5   0  0.1325673E-04  0.2119608E+04  0.7818609E-02  0.8552655E-01
       -2   -1    0    0    0  501  0.00000000000E+00  0.00000000000E+00  0.90644515009E+03  0.90644515009E+03  0.25500000920E-02 0.  1.
        2   -1    0    0  501    0  0.00000000000E+00  0.00000000000E+00 -0.12391096547E+04  0.12391096547E+04  0.25500000920E-02 0. -1.
    10030    2    1    2    0    0  0.00000000000E+00  0.00000000000E+00 -0.33266450465E+03  0.21455548048E+04  0.21196083949E+04 0.  0.
        5    1    3    3  502    0 -0.22082805093E+03 -0.10329366193E+04 -0.79022364671E+02  0.10592401577E+04  0.46999998093E+01 0. -1.
       -5    1    3    3    0  502  0.22082805093E+03  0.10329366193E+04 -0.25364213998E+03  0.10863146472E+04  0.46999998093E+01 0.  1.
</event>
<event>
 5   0  0.1235817E-04  0.2120474E+04  0.7818609E-02  0.8552277E-01
       -2   -1    0    0    0  501  0.00000000000E+00  0.00000000000E+00  0.63755179587E+03  0.63755179588E+03  0.25500000920E-02 0. -1.
        2   -1    0    0  501    0  0.00000000000E+00  0.00000000000E+00 -0.17631555577E+04  0.17631555577E+04  0.25500000920E-02 0.  1.
    10030    2    1    2    0    0  0.00000000000E+00  0.00000000000E+00 -0.11256037618E+04  0.24007073536E+04  0.21204744679E+04 0.  0.
        1    1    3    3  502    0 -0.99202992891E+03  0.37306809215E+03 -0.59482029749E+03  0.12153659398E+04  0.50400001928E-02 0.  1.
       -1    1    3    3    0  502  0.99202992891E+03 -0.37306809215E+03 -0.53078346433E+03  0.11853414138E+04  0.50400001928E-02 0. -1.
</event>
<event>
 5   0  0.6221148E-05  0.2056943E+04  0.7818609E-02  0.8580451E-01
        1   -1    0    0  501    0  0.00000000000E+00  0.00000000000E+00  0.74849796739E+03  0.74849796741E+03  0.50400001928E-02 0.  1.
       -1   -1    0    0    0  501  0.00000000000E+00  0.00000000000E+00 -0.14131684583E+04  0.14131684583E+04  0.50400001928E-02 0. -1.
    10030    2    1    2    0    0  0.00000000000E+00  0.00000000000E+00 -0.66467049092E+03  0.21616664257E+04  0.20569430898E+04 0.  0.
        3    1    3    3  502    0 -0.69338411287E+03  0.68529258529E+03 -0.67665333987E+03  0.11867043473E+04  0.10100000352E+00 0. -1.
       -3    1    3    3    0  502  0.69338411287E+03 -0.68529258529E+03  0.11982848950E+02  0.97496207839E+03  0.10100000352E+00 0.  1.
</event>
<event>
 5   0  0.6263616E-05  0.2066296E+04  0.7818609E-02  0.8576237E-01
        1   -1    0    0  501    0  0.00000000000E+00  0.00000000000E+00  0.11808318404E+04  0.11808318404E+04  0.50400001928E-02 0. -1.
       -1   -1    0    0    0  501  0.00000000000E+00  0.00000000000E+00 -0.90393451866E+03  0.90393451867E+03  0.50400001928E-02 0.  1.
    10030    2    1    2    0    0  0.00000000000E+00  0.00000000000E+00  0.27689732172E+03  0.20847663591E+04  0.20662958755E+04 0.  0.
        4    1    3    3  502    0 -0.71825526704E+03 -0.64561427946E+03 -0.23182591003E+03  0.99320355010E+03  0.12699999809E+01 0.  1.
       -4    1    3    3    0  502  0.71825526704E+03  0.64561427946E+03  0.50872323175E+03  0.10915628090E+04  0.12699999809E+01 0. -1.
</event>
<event>
 5   0  0.6221148E-05  0.2060410E+04  0.7818609E-02  0.8578887E-01
       -1   -1    0    0    0  501  0.00000000000E+00  0.00000000000E+00  0.71868183197E+03  0.71868183199E+03  0.50400001928E-02 0.  1.
        1   -1    0    0  501    0  0.00000000000E+00  0.00000000000E+00 -0.14767621610E+04  0.14767621610E+04  0.50400001928E-02 0. -1.
    10030    2    1    2    0    0  0.00000000000E+00  0.00000000000E+00 -0.75808032898E+03  0.21954439930E+04  0.20604097993E+04 0.  0.
        3    1    3    3  502    0 -0.43486004301E+03 -0.90206329923E+03 -0.12131953468E+03  0.10087318239E+04  0.10100000352E+00 0. -1.
       -3    1    3    3    0  502  0.43486004301E+03  0.90206329923E+03 -0.63676079431E+03  0.11867121691E+04  0.10100000352E+00 0.  1.
</event>
<event>
 5   0  0.1252477E-04  0.2176475E+04  0.7818609E-02  0.8528284E-01
       -2   -1    0    0    0  501  0.00000000000E+00  0.00000000000E+00  0.12943783961E+04  0.12943783961E+04  0.25500000920E-02 0.  1.
        2   -1    0    0  501    0  0.00000000000E+00  0.00000000000E+00 -0.91492671672E+03  0.91492671673E+03  0.25500000920E-02 0. -1.
    10030    2    1    2    0    0  0.00000000000E+00  0.00000000000E+00  0.37945167937E+03  0.22093051128E+04  0.21764754776E+04 0.  0.
        4    1    3    3  502    0 -0.64815412632E+03  0.74056143440E+03 -0.28174182271E+03  0.10236772329E+04  0.12699999809E+01 0.  1.
       -4    1    3    3    0  502  0.64815412632E+03 -0.74056143440E+03  0.66119350208E+03  0.11856278799E+04  0.12699999809E+01 0. -1.
</event>
<event>
 5   0  0.1325673E-04  0.2079595E+04  0.7818609E-02  0.8570286E-01
       -2   -1    0    0    0  501  0.00000000000E+00  0.00000000000E+00  0.90509341174E+03  0.90509341175E+03  0.25500000920E-02 0. -1.
        2   -1    0    0  501    0  0.00000000000E+00  0.00000000000E+00 -0.11945491326E+04  0.11945491326E+04  0.25500000920E-02 0.  1.
    10030    2    1    2    0    0  0.00000000000E+00  0.00000000000E+00 -0.28945572084E+03  0.20996425443E+04  0.20795947200E+04 0.  0.
        5    1    3    3  502    0 -0.29869702423E+03 -0.64313948288E+03  0.62306897117E+03  0.94397316676E+03  0.46999998093E+01 0. -1.
       -5    1    3    3    0  502  0.29869702423E+03  0.64313948288E+03 -0.91252469201E+03  0.11556693776E+04  0.46999998093E+01 0.  1.
</event>
<event>
 5   0  0.1349252E-04  0.2110664E+04  0.7818609E-02  0.8556560E-01
        2   -1    0    0  501    0  0.00000000000E+00  0.00000000000E+00  0.25464207359E+04  0.25464207359E+04  0.25500000920E-02 0. -1.
       -2   -1    0    0    0  501  0.00000000000E+00  0.00000000000E+00 -0.43736901337E+03  0.43736901337E+03  0.25500000920E-02 0.  1.
    10030    2    1    2    0    0  0.00000000000E+00  0.00000000000E+00  0.21090517225E+04  0.29837897492E+04  0.21106639002E+04 0.  0.
        2    1    3    3  502    0 -0.13197400758E+03 -0.75443418541E+03  0.20809126880E+04  0.22173826224E+04  0.25500000920E-02 0. -1.
       -2    1    3    3    0  502  0.13197400758E+03  0.75443418541E+03  0.28139034440E+02  0.76640712684E+03  0.25500000920E-02 0.  1.
</event>
<event>
 5   0  0.1281470E-04  0.2125502E+04  0.7818609E-02  0.8550092E-01
        2   -1    0    0  501    0  0.00000000000E+00  0.00000000000E+00  0.87615419119E+03  0.87615419119E+03  0.25500000920E-02 0.  1.
       -2   -1    0    0    0  501  0.00000000000E+00  0.00000000000E+00 -0.12890873909E+04  0.12890873909E+04  0.25500000920E-02 0. -1.
    10030    2    1    2    0    0  0.00000000000E+00  0.00000000000E+00 -0.41293319968E+03  0.21652415821E+04  0.21255016540E+04 0.  0.
        3    1    3    3  502    0  0.89603953927E+03 -0.30218347309E+03 -0.70054774862E+03  0.11768470018E+04  0.10100000352E+00 0. -1.
       -3    1    3    3    0  502 -0.89603953927E+03  0.30218347309E+03  0.28761454894E+03  0.98839458027E+03  0.10100000352E+00 0.  1.
</event>
<event>
 5   0  0.1349252E-04  0.2105302E+04  0.7818609E-02  0.8558911E-01
       -2   -1    0    0    0  501  0.00000000000E+00  0.00000000000E+00  0.52077822853E+03  0.52077822854E+03  0.25500000920E-02 0.  1.
        2   -1    0    0  501    0  0.00000000000E+00  0.00000000000E+00 -0.21277277454E+04  0.21277277454E+04  0.25500000920E-02 0. -1.
    10030    2    1    2    0    0  0.00000000000E+00  0.00000000000E+00 -0.16069495169E+04  0.26485059740E+04  0.21053021504E+04 0.  0.
        2    1    3    3  502    0  0.59469594414E+03 -0.86765419259E+03 -0.85359410321E+03  0.13546623037E+04  0.25500000920E-02 0. -1.
       -2    1    3    3    0  502 -0.59469594414E+03  0.86765419259E+03 -0.75335541368E+03  0.12938436703E+04  0.25500000920E-02 0.  1.
</event>
<event>
 5   0  0.1281470E-04  0.2152657E+04  0.7818609E-02  0.8538396E-01
       -2   -1    0    0    0  501  0.00000000000E+00  0.00000000000E+00  0.59588126126E+03  0.59588126127E+03  0.25500000920E-02 0. -1.
        2   -1    0    0  501    0  0.00000000000E+00  0.00000000000E+00 -0.19441516288E+04  0.19441516288E+04  0.25500000920E-02 0.  1.
    10030    2    1    2    0    0  0.00000000000E+00  0.00000000000E+00 -0.13482703676E+04  0.25400328901E+04  0.21526574504E+04 0.  0.
        3    1    3    3  502    0 -0.12924183002E+03  0.35773231980E+02  0.58598545038E+03  0.60113403914E+03  0.10100000352E+00 0. -1.
       -3    1    3    3    0  502  0.12924183002E+03 -0.35773231980E+02 -0.19342558180E+04  0.19388988510E+04  0.10100000352E+00 0.  1.
</event>
<event>
 5   0  0.1281470E-04  0.2081440E+04  0.7818609E-02  0.8569463E-01
       -2   -1    0    0    0  501  0.00000000000E+00  0.00000000000E+00  0.65900060579E+03  0.65900060579E+03  0.25500000920E-02 0.  1.
        2   -1    0    0  501    0  0.00000000000E+00  0.00000000000E+00 -0.16435468717E+04  0.16435468717E+04  0.25500000920E-02 0. -1.
    10030    2    1    2    0    0  0.00000000000E+00  0.00000000000E+00 -0.98454626593E+03  0.23025474775E+04  0.20814402553E+04 0.  0.
        3    1    3    3  502    0 -0.58702243075E+03 -0.20819972632E+03  0.43005563581E+03  0.75689518451E+03  0.10100000352E+00 0.  1.
       -3    1    3    3    0  502  0.58702243075E+03  0.20819972632E+03 -0.14146019017E+04  0.15456522930E+04  0.10100000352E+00 0. -1.
</event>
<event>
 5   0  0.1252477E-04  0.2078828E+04  0.7818609E-02  0.8570628E-01
       -2   -1    0    0    0  501  0.00000000000E+00  0.00000000000E+00  0.11018656814E+04  0.11018656814E+04  0.25500000920E-02 0. -1.
        2   -1    0    0  501    0  0.00000000000E+00  0.00000000000E+00 -0.98050201726E+03  0.98050201727E+03  0.25500000920E-02 0.  1.
    10030    2    1    2    0    0  0.00000000000E+00  0.00000000000E+00  0.12136366410E+03  0.20823676986E+04  0.20788280577E+04 0.  0.
        4    1    3    3  502    0  0.86639824895E+03 -0.15781507417E+02 -0.51430331418E+03  0.10076728108E+04  0.12699999809E+01 0.  1.
       -4    1    3    3    0  502 -0.86639824895E+03  0.15781507417E+02  0.63566697828E+03  0.10746948878E+04  0.12699999809E+01 0. -1.
</event>
<event>
 5   0  0.5846187E-05  0.2092235E+04  0.7818609E-02  0.8564672E-01
       -1   -1    0    0    0  501  0.00000000000E+00  0.00000000000E+00  0.86355124941E+03  0.86355124943E+03  0.50400001928E-02 0.  1.
        1   -1    0    0  501    0  0.00000000000E+00  0.00000000000E+00 -0.12672809475E+04  0.12672809475E+04  0.50400001928E-02 0. -1.
    10030    2    1    2    0    0  0.00000000000E+00  0.00000000000E+00 -0.40372969806E+03  0.21308321969E+04  0.20922352120E+04 0.  0.
        5    1    3    3  502    0 -0.58074187520E+03  0.78420917205E+03 -0.58577345064E+03  0.11381554273E+04  0.46999998093E+01 0. -1.
       -5    1    3    3    0  502  0.58074187520E+03 -0.78420917205E+03  0.18204375258E+03  0.99267676964E+03  0.46999998093E+01 0.  1.
</event>
<event>
 5   0  0.5933905E-05  0.2103303E+04  0.7818609E-02  0.8559790E-01
       -1   -1    0    0    0  501  0.00000000000E+00  0.00000000000E+00  0.45016142773E+03  0.45016142776E+03  0.50400001928E-02 0.  1.
        1   -1    0    0  501    0  0.00000000000E+00  0.00000000000E+00 -0.24568319041E+04  0.24568319041E+04  0.50400001928E-02 0. -1.
    10030    2    1    2    0    0  0.00000000000E+00  0.00000000000E+00 -0.20066704764E+04  0.29069933318E+04  0.21033030763E+04 0.  0.
        2    1    3    3  502    0  0.61287397793E+03  0.68754232417E+03 -0.17048721186E+04  0.19377610536E+04  0.25500000920E-02 0. -1.
       -2    1    3    3    0  502 -0.61287397793E+03 -0.68754232417E+03 -0.30179835778E+03  0.96923227820E+03  0.25500000920E-02 0.  1.
</event>
<event>
 5   0  0.5933905E-05  0.2080191E+04  0.7818609E-02  0.8570020E-01
        1   -1    0    0  501    0  0.00000000000E+00  0.00000000000E+00  0.17432535004E+04  0.17432535004E+04  0.50400001928E-02 0.  1.
       -1   -1    0    0    0  501  0.00000000000E+00  0.00000000000E+00 -0.62056311339E+03  0.62056311341E+03  0.50400001928E-02 0. -1.
    10030    2    1    2    0    0  0.00000000000E+00  0.00000000000E+00  0.11226903870E+04  0.23638166138E+04  0.20801911639E+04 0.  0.
        2    1    3    3  502    0  0.91391257306E+03 -0.31000596675E+03  0.10021227941E+04  0.13912548239E+04  0.25500000920E-02 0.  1.
       -2    1    3    3    0  502 -0.91391257306E+03  0.31000596675E+03  0.12056759287E+03  0.97256178985E+03  0.25500000920E-02 0. -1.
</event>
<event>
 5   0  0.6221148E-05  0.2132896E+04  0.7818609E-02  0.8546889E-01
       -1   -1    0    0    0  501  0.00000000000E+00  0.00000000000E+00  0.93461420175E+03  0.93461420176E+03  0.50400001928E-02 0.  1.
        1   -1    0    0  501    0  0.00000000000E+00  0.00000000000E+00 -0.12168774721E+04  0.12168774721E+04  0.50400001928E-02 0. -1.
    10030    2    1    2    0    0  0.00000000000E+00  0.00000000000E+00 -0.28226327037E+03  0.21514916739E+04  0.21328956536E+04 0.  0.
        3    1    3    3  502    0 -0.39195325679E+03 -0.12683505313E+03 -0.11333727036E+04  0.12059221292E+04  0.10100000352E+00 0. -1.
       -3    1    3    3    0  502  0.39195325679E+03  0.12683505313E+03  0.85110943327E+03  0.94556954467E+03  0.10100000352E+00 0.  1.
</event>
<event>
 5   0  0.1235817E-04  0.2107703E+04  0.7818609E-02  0.8557858E-01
        2   -1    0    0  501    0  0.00000000000E+00  0.00000000000E+00  0.17914134719E+04  0.17914134719E+04  0.25500000920E-02 0.  1.
       -2   -1    0    0    0  501  0.00000000000E+00  0.00000000000E+00 -0.61995919741E+03  0.61995919741E+03  0.25500000920E-02 0. -1.
    10030    2    1    2    0    0  0.00000000000E+00  0.00000000000E+00  0.11714542745E+04  0.24113726693E+04  0.21077032602E+04 0.  0.
        1    1    3    3  502    0 -0.60734512342E+03 -0.67440769691E+03 -0.27084873996E+02  0.90797986267E+03  0.50400001928E-02 0. -1.
       -1    1    3    3    0  502  0.60734512342E+03  0.67440769691E+03  0.11985391485E+04  0.15033928067E+04  0.50400001928E-02 0.  1.
</event>
<event>
 5   0  0.6221148E-05  0.2059281E+04  0.7818609E-02  0.8579395E-01
        1   -1    0    0  501    0  0.00000000000E+00  0.00000000000E+00  0.10328816435E+04  0.10328816435E+04  0.50400001928E-02 0.  1.
       -1   -1    0    0    0  501  0.00000000000E+00  0.00000000000E+00 -0.10264099774E+04  0.10264099775E+04  0.50400001928E-02 0. -1.
    10030    2    1    2    0    0  0.00000000000E+00  0.00000000000E+00  0.64716660075E+01  0.20592916209E+04  0.20592814518E+04 0.  0.
        3    1    3    3  502    0  0.55039596531E+02  0.84749046698E+03  0.58538178758E+03  0.10314753008E+04  0.10100000352E+00 0.  1.
       -3    1    3    3    0  502 -0.55039596531E+02 -0.84749046698E+03 -0.57891012157E+03  0.10278163201E+04  0.10100000352E+00 0. -1.
</event>
<event>
 5   0  0.1281470E-04  0.2118645E+04  0.7818609E-02  0.8553074E-01
        2   -1    0    0  501    0  0.00000000000E+00  0.00000000000E+00  0.16317175107E+04  0.16317175107E+04  0.25500000920E-02 0. -1.
       -2   -1    0    0    0  501  0.00000000000E+00  0.00000000000E+00 -0.68771956599E+03  0.68771956600E+03  0.25500000920E-02 0.  1.
    10030    2    1    2    0    0  0.00000000000E+00  0.00000000000E+00  0.94399794473E+03  0.23194370767E+04  0.21186449049E+04 0.  0.
        3    1    3    3  502    0  0.33505657669E+03  0.40611939800E+03  0.14783386533E+04  0.15692931718E+04  0.10100000352E+00 0. -1.
       -3    1    3    3    0  502 -0.33505657669E+03 -0.40611939800E+03 -0.53434070859E+03  0.75014390491E+03  0.10100000352E+00 0.  1.
</event>
<event>
 5   0  0.6052292E-05  0.2010110E+04  0.7818609E-02  0.8601908E-01
       -1   -1    0    0    0  501  0.00000000000E+00  0.00000000000E+00  0.97962443442E+03  0.97962443443E+03  0.50400001928E-02 0.  1.
        1   -1    0    0  501    0  0.00000000000E+00  0.00000000000E+00 -0.10311459127E+04  0.10311459127E+04  0.50400001928E-02 0. -1.
    10030    2    1    2    0    0  0.00000000000E+00  0.00000000000E+00 -0.51521478256E+02  0.20107703471E+04  0.20101101776E+04 0.  0.
        1    1    3    3  502    0  0.86674456244E+03  0.41519859699E+03  0.26844420074E+03  0.99784683213E+03  0.50400001928E-02 0.  1.
       -1    1    3    3    0  502 -0.86674456244E+03 -0.41519859699E+03 -0.31996567899E+03  0.10129235150E+04  0.50400001928E-02 0. -1.
</event>
<event>
 5   0  0.1252477E-04  0.2136766E+04  0.7818609E-02  0.8545218E-01
       -2   -1    0    0    0  501  0.00000000000E+00  0.00000000000E+00  0.88331762319E+03  0.88331762320E+03  0.25500000920E-02 0. -1.
        2   -1    0    0  501    0  0.00000000000E+00  0.00000000000E+00 -0.12922214875E+04  0.12922214875E+04  0.25500000920E-02 0.  1.
    10030    2    1    2    0    0  0.00000000000E+00  0.00000000000E+00 -0.40890386430E+03  0.21755391107E+04  0.21367657925E+04 0.  0.
        4    1    3    3  502    0 -0.48934505370E+03 -0.35533938734E+03 -0.11011810544E+04  0.12563144468E+04  0.12699999809E+01 0.  1.
       -4    1    3    3    0  502  0.48934505370E+03  0.35533938734E+03  0.69227719013E+03  0.91922466386E+03  0.12699999809E+01 0. -1.
</event>
<event>
 5   0  0.1252477E-04  0.2061648E+04  0.7818609E-02  0.8578328E-01
       -2   -1    0    0    0  501  0.00000000000E+00  0.00000000000E+00  0.74683962830E+03  0.74683962831E+03  0.25500000920E-02 0. -1.
        2   -1    0    0  501    0  0.00000000000E+00  0.00000000000E+00 -0.14227933864E+04  0.14227933864E+04  0.25500000920E-02 0.  1.
    10030    2    1    2    0    0  0.00000000000E+00  0.00000000000E+00 -0.67595375812E+03  0.21696330147E+04  0.20616483540E+04 0.  0.
        4    1    3    3  502    0 -0.47061884443E+03  0.24530506321E+03  0.59201804652E+03  0.79507461982E+03  0.12699999809E+01 0. -1.
       -4    1    3    3    0  502  0.47061884443E+03 -0.24530506321E+03 -0.12679718046E+04  0.13745583949E+04  0.12699999809E+01 0.  1.
</event>
<event>
 5   0  0.5846187E-05  0.2073954E+04  0.7818609E-02  0.8572804E-01
        1   -1    0    0  501    0  0.00000000000E+00  0.00000000000E+00  0.96229228374E+03  0.96229228376E+03  0.50400001928E-02 0.  1.
       -1   -1    0    0    0  501  0.00000000000E+00  0.00000000000E+00 -0.11174580379E+04  0.11174580379E+04  0.50400001928E-02 0. -1.
    10030    2    1    2    0    0  0.00000000000E+00  0.00000000000E+00 -0.15516575415E+03  0.20797503217E+04  0.20739539506E+04 0.  0.
        5    1    3    3  502    0  0.70671438001E+03 -0.28496598885E+02  0.68285165594E+03  0.98314075547E+03  0.46999998093E+01 0.  1.
       -5    1    3    3    0  502 -0.70671438001E+03  0.28496598885E+02 -0.83801741008E+03  0.10966095662E+04  0.46999998093E+01 0. -1.
</event>
<event>
 5   0  0.6221148E-05  0.2118766E+04  0.7818609E-02  0.8553021E-01
       -1   -1    0    0    0  501  0.00000000000E+00  0.00000000000E+00  0.10976522647E+04  0.10976522647E+04  0.50400001928E-02 0.  1.
        1   -1    0    0  501    0  0.00000000000E+00  0.00000000000E+00 -0.10224484143E+04  0.10224484144E+04  0.50400001928E-02 0. -1.
    10030    2    1    2    0    0  0.00000000000E+00  0.00000000000E+00  0.75203850345E+02  0.21201006790E+04  0.21187664501E+04 0.  0.
        3    1    3    3  502    0 -0.58933562457E+03  0.41093676694E+02  0.91752342975E+03  0.10912627653E+04  0.10100000352E+00 0.  1.
       -3    1    3    3    0  502  0.58933562457E+03 -0.41093676694E+02 -0.84231957941E+03  0.10288379137E+04  0.10100000352E+00 0. -1.
</event>
<event>
 5   0  0.5933905E-05  0.2087218E+04  0.7818609E-02  0.8566895E-01
        1   -1    0    0  501    0  0.00000000000E+00  0.00000000000E+00  0.11385912394E+04  0.11385912395E+04  0.50400001928E-02 0.  1.
       -1   -1    0    0    0  501  0.00000000000E+00  0.00000000000E+00 -0.95655021478E+03  0.95655021479E+03  0.50400001928E-02 0. -1.
    10030    2    1    2    0    0  0.00000000000E+00  0.00000000000E+00  0.18204102466E+03  0.20951414542E+04  0.20872179519E+04 0.  0.
        2    1    3    3  502    0  0.68030891004E+03 -0.75535999329E+03 -0.14594930808E+03  0.10269810773E+04  0.25500000920E-02 0.  1.
       -2    1    3    3    0  502 -0.68030891004E+03  0.75535999329E+03  0.32799033274E+03  0.10681603770E+04  0.25500000920E-02 0. -1.
</event>
<event>
 5   0  0.1252477E-04  0.1959349E+04  0.7818609E-02  0.8625866E-01
        2   -1    0    0  501    0  0.00000000000E+00  0.00000000000E+00  0.15112928180E+04  0.15112928181E+04  0.25500000920E-02 0. -1.
       -2   -1    0    0    0  501  0.00000000000E+00  0.00000000000E+00 -0.63506053226E+03  0.63506053226E+03  0.25500000920E-02 0.  1.
    10030    2    1    2    0    0  0.00000000000E+00  0.00000000000E+00  0.87623228579E+03  0.21463533503E+04  0.19593493016E+04 0.  0.
        4    1    3    3  502    0 -0.69316997647E+03  0.49957684995E+03 -0.86895652494E+02  0.85884463823E+03  0.12699999809E+01 0. -1.
       -4    1    3    3    0  502  0.69316997647E+03 -0.49957684995E+03  0.96312793829E+03  0.12875087121E+04  0.12699999809E+01 0.  1.
</event>
<event>
 5   0  0.6221148E-05  0.2086209E+04  0.7818609E-02  0.8567343E-01
       -1   -1    0    0    0  501  0.00000000000E+00  0.00000000000E+00  0.84121863321E+03  0.84121863323E+03  0.50400001928E-02 0.  1.
        1   -1    0    0  501    0  0.00000000000E+00  0.00000000000E+00 -0.12934416702E+04  0.12934416702E+04  0.50400001928E-02 0. -1.
    10030    2    1    2    0    0  0.00000000000E+00  0.00000000000E+00 -0.45222303695E+03  0.21346603034E+04  0.20862092263E+04 0.  0.
        3    1    3    3  502    0 -0.93444202818E+03 -0.46143143085E+03 -0.27148496843E+03  0.10769424161E+04  0.10100000352E+00 0.  1.
       -3    1    3    3    0  502  0.93444202818E+03  0.46143143085E+03 -0.18073806852E+03  0.10577178873E+04  0.10100000352E+00 0. -1.
</event>
<event>
 5   0  0.1349252E-04  0.1981722E+04  0.7818609E-02  0.8615214E-01
       -2   -1    0    0    0  501  0.00000000000E+00  0.00000000000E+00  0.16083784924E+04  0.16083784924E+04  0.25500000920E-02 0.  1.
        2   -1    0    0  501    0  0.00000000000E+00  0.00000000000E+00 -0.61043159876E+03  0.61043159876E+03  0.25500000920E-02 0. -1.
    10030    2    1    2    0    0  0.00000000000E+00  0.00000000000E+00  0.99794689364E+03  0.22188100912E+04  0.19817215289E+04 0.  0.
        2    1    3    3  502    0 -0.43217802617E+03 -0.79864680386E+03  0.94287906343E+03  0.13090590101E+04  0.25500000920E-02 0.  1.
       -2    1    3    3    0  502  0.43217802617E+03  0.79864680386E+03  0.55067830216E+02  0.90975108109E+03  0.25500000920E-02 0. -1.
</event>
<event>
 5   0  0.1252477E-04  0.2145485E+04  0.7818609E-02  0.8541467E-01
       -2   -1    0    0    0  501  0.00000000000E+00  0.00000000000E+00  0.10169901970E+04  0.10169901970E+04  0.25500000920E-02 0.  1.
        2   -1    0    0  501    0  0.00000000000E+00  0.00000000000E+00 -0.11315514125E+04  0.11315514125E+04  0.25500000920E-02 0. -1.
    10030    2    1    2    0    0  0.00000000000E+00  0.00000000000E+00 -0.11456121542E+03  0.21485416095E+04  0.21454852075E+04 0.  0.
        4    1    3    3  502    0  0.67320643342E+02 -0.41595510440E+03  0.93064610922E+03  0.10215941031E+04  0.12699999809E+01 0.  1.
       -4    1    3    3    0  502 -0.67320643342E+02  0.41595510440E+03 -0.10452073246E+04  0.11269475064E+04  0.12699999809E+01 0. -1.
</event>
<event>
 5   0  0.5846187E-05  0.1718741E+04  0.7818609E-02  0.8750747E-01
        1   -1    0    0  501    0  0.00000000000E+00  0.00000000000E+00  0.15067488446E+04  0.15067488446E+04  0.50400001928E-02 0.  1.
       -1   -1    0    0    0  501  0.00000000000E+00  0.00000000000E+00 -0.49014001638E+03  0.49014001640E+03  0.50400001928E-02 0. -1.
    10030    2    1    2    0    0  0.00000000000E+00  0.00000000000E+00  0.10166088283E+04  0.19968888610E+04  0.17187412876E+04 0.  0.
        5    1    3    3  502    0 -0.64897770117E+03 -0.46520740716E+03  0.87736826059E+03  0.11863334873E+04  0.46999998093E+01 0.  1.
       -5    1    3    3    0  502  0.64897770117E+03  0.46520740716E+03  0.13924056766E+03  0.81055537379E+03  0.46999998093E+01 0. -1.
</event>
<event>
 5   0  0.4615125E-05  0.2094001E+04  0.7818609E-02  0.8563891E-01
        4   -1    0    0  501    0  0.00000000000E+00  0.00000000000E+00  0.11848559280E+04  0.11848566086E+04  0.12699999809E+01 0. -1.
       -4   -1    0    0    0  501  0.00000000000E+00  0.00000000000E+00 -0.92518280765E+03  0.92518367931E+03  0.12699999809E+01 0.  1.
    10030    2    1    2    0    0  0.00000000000E+00  0.00000000000E+00  0.25967312037E+03  0.21100402880E+04  0.20940009282E+04 0.  0.
        5    1    3    3  502    0 -0.94413052562E+03 -0.35454456474E+03  0.41324446423E+03  0.10898978737E+04  0.46999998093E+01 0. -1.
       -5    1    3    3    0  502  0.94413052562E+03  0.35454456474E+03 -0.15357134386E+03  0.10201424143E+04  0.46999998093E+01 0.  1.
</event>
<event>
 5   0  0.1349252E-04  0.2050409E+04  0.7818609E-02  0.8583409E-01
       -2   -1    0    0    0  501  0.00000000000E+00  0.00000000000E+00  0.51678010678E+03  0.51678010679E+03  0.25500000920E-02 0. -1.
        2   -1    0    0  501    0  0.00000000000E+00  0.00000000000E+00 -0.20338318997E+04  0.20338318997E+04  0.25500000920E-02 0.  1.
    10030    2    1    2    0    0  0.00000000000E+00  0.00000000000E+00 -0.15170517929E+04  0.25506120065E+04  0.20504086094E+04 0.  0.
        2    1    3    3  502    0 -0.44063600102E+03  0.54807252131E+02 -0.19080084656E+04  0.19589946976E+04  0.25500000920E-02 0.  1.
       -2    1    3    3    0  502  0.44063600102E+03 -0.54807252131E+02  0.39095667269E+03  0.59161730892E+03  0.25500000920E-02 0. -1.
</event>
<event>
 5   0  0.1281470E-04  0.2117326E+04  0.7818609E-02  0.8553649E-01
        2   -1    0    0  501    0  0.00000000000E+00  0.00000000000E+00  0.31068888162E+04  0.31068888162E+04  0.25500000920E-02 0. -1.
       -2   -1    0    0    0  501  0.00000000000E+00  0.00000000000E+00 -0.36073627775E+03  0.36073627776E+03  0.25500000920E-02 0.  1.
    10030    2    1    2    0    0  0.00000000000E+00  0.00000000000E+00  0.27461525384E+04  0.34676250939E+04  0.21173261505E+04 0.  0.
        3    1    3    3  502    0 -0.21253130418E+03 -0.81013383418E+03  0.31260959508E+03  0.89398610374E+03  0.10100000352E+00 0.  1.
       -3    1    3    3    0  502  0.21253130418E+03  0.81013383418E+03  0.24335429433E+04  0.25736389902E+04  0.10100000352E+00 0. -1.
</event>
<event>
 5   0  0.1325673E-04  0.2109063E+04  0.7818609E-02  0.8557261E-01
       -2   -1    0    0    0  501  0.00000000000E+00  0.00000000000E+00  0.96859199212E+03  0.96859199212E+03  0.25500000920E-02 0.  1.
        2   -1    0    0  501    0  0.00000000000E+00  0.00000000000E+00 -0.11480963481E+04  0.11480963481E+04  0.25500000920E-02 0. -1.
    10030    2    1    2    0    0  0.00000000000E+00  0.00000000000E+00 -0.17950435599E+03  0.21166883402E+04  0.21090632318E+04 0.  0.
        5    1    3    3  502    0  0.65539677120E+03  0.43562453553E+03  0.61471232762E+03  0.99860252322E+03  0.46999998093E+01 0.  1.
       -5    1    3    3    0  502 -0.65539677120E+03 -0.43562453553E+03 -0.79421668361E+03  0.11180858170E+04  0.46999998093E+01 0. -1.
</event>
<event>
 5   0  0.5933905E-05  0.1568026E+04  0.7818609E-02  0.8840435E-01
       -1   -1    0    0    0  501  0.00000000000E+00  0.00000000000E+00  0.60527690386E+03  0.60527690388E+03  0.50400001928E-02 0. -1.
        1   -1    0    0  501    0  0.00000000000E+00  0.00000000000E+00 -0.10155287856E+04  0.10155287856E+04  0.50400001928E-02 0.  1.
    10030    2    1    2    0    0  0.00000000000E+00  0.00000000000E+00 -0.41025188176E+03  0.16208056895E+04  0.15680256620E+04 0.  0.
        2    1    3    3  502    0  0.21044777149E+03  0.61965702126E+03 -0.65141467112E+03  0.92336567095E+03  0.25500000920E-02 0.  1.
       -2    1    3    3    0  502 -0.21044777149E+03 -0.61965702126E+03  0.24116278936E+03  0.69744001857E+03  0.25500000920E-02 0. -1.
</event>
<event>
 5   0  0.1349252E-04  0.2057866E+04  0.7818609E-02  0.8580034E-01
       -2   -1    0    0    0  501  0.00000000000E+00  0.00000000000E+00  0.20725451878E+04  0.20725451878E+04  0.25500000920E-02 0.  1.
        2   -1    0    0  501    0  0.00000000000E+00  0.00000000000E+00 -0.51082265681E+03  0.51082265682E+03  0.25500000920E-02 0. -1.
    10030    2    1    2    0    0  0.00000000000E+00  0.00000000000E+00  0.15617225309E+04  0.25833678446E+04  0.20578659229E+04 0.  0.
        2    1    3    3  502    0  0.25800383116E+03 -0.93044187872E+03  0.12272039606E+04  0.15615113280E+04  0.25500000920E-02 0.  1.
       -2    1    3    3    0  502 -0.25800383116E+03  0.93044187872E+03  0.33451857037E+03  0.10218565166E+04  0.25500000920E-02 0. -1.
</event>
<event>
 5   0  0.5933905E-05  0.2105859E+04  0.7818609E-02  0.8558667E-01
       -1   -1    0    0    0  501  0.00000000000E+00  0.00000000000E+00  0.13711578871E+04  0.13711578871E+04  0.50400001928E-02 0. -1.
        1   -1    0    0  501    0  0.00000000000E+00  0.00000000000E+00 -0.80855775525E+03  0.80855775527E+03  0.50400001928E-02 0.  1.
    10030    2    1    2    0    0  0.00000000000E+00  0.00000000000E+00  0.56260013180E+03  0.21797156423E+04  0.21058588208E+04 0.  0.
        2    1    3    3  502    0 -0.67962787291E+03 -0.71343537386E+03 -0.10290031594E+03  0.99069296623E+03  0.25500000920E-02 0. -1.
       -2    1    3    3    0  502  0.67962787291E+03  0.71343537386E+03  0.66550044775E+03  0.11890226761E+04  0.25500000920E-02 0.  1.
</event>
<event>
 5   0  0.1325673E-04  0.2111808E+04  0.7818609E-02  0.8556060E-01
       -2   -1    0    0    0  501  0.00000000000E+00  0.00000000000E+00  0.11762105040E+04  0.11762105040E+04  0.25500000920E-02 0. -1.
        2   -1    0    0  501    0  0.00000000000E+00  0.00000000000E+00 -0.94790247059E+03  0.94790247059E+03  0.25500000920E-02 0.  1.
    10030    2    1    2    0    0  0.00000000000E+00  0.00000000000E+00  0.22830803339E+03  0.21241129746E+04  0.21118076074E+04 0.  0.
        5    1    3    3  502    0 -0.57973614448E+03  0.61471933538E+03 -0.52273135310E+03  0.99360153785E+03  0.46999998093E+01 0.  1.
       -5    1    3    3    0  502  0.57973614448E+03 -0.61471933538E+03  0.75103938649E+03  0.11305114367E+04  0.46999998093E+01 0. -1.
</event>
<event>
 5   0  0.6052292E-05  0.2069791E+04  0.7818609E-02  0.8574669E-01
        1   -1    0    0  501    0  0.00000000000E+00  0.00000000000E+00  0.80993166357E+03  0.80993166358E+03  0.50400001928E-02 0. -1.
       -1   -1    0    0    0  501  0.00000000000E+00  0.00000000000E+00 -0.13223440034E+04  0.13223440034E+04  0.50400001928E-02 0.  1.
    10030    2    1    2    0    0  0.00000000000E+00  0.00000000000E+00 -0.51241233984E+03  0.21322756670E+04  0.20697905967E+04 0.  0.
        1    1    3    3  502    0 -0.88534386034E+03 -0.15429770510E+03 -0.78489168281E+03  0.11931875320E+04  0.50400001928E-02 0. -1.
       -1    1    3    3    0  502  0.88534386034E+03  0.15429770510E+03  0.27247934297E+03  0.93908813496E+03  0.50400001928E-02 0.  1.
</event>
<event>
 5   0  0.5933905E-05  0.2096452E+04  0.7818609E-02  0.8562808E-01
       -1   -1    0    0    0  501  0.00000000000E+00  0.00000000000E+00  0.11089706978E+04  0.11089706978E+04  0.50400001928E-02 0. -1.
        1   -1    0    0  501    0  0.00000000000E+00  0.00000000000E+00 -0.99080885274E+03  0.99080885275E+03  0.50400001928E-02 0.  1.
    10030    2    1    2    0    0  0.00000000000E+00  0.00000000000E+00  0.11816184508E+03  0.20997795506E+04  0.20964522268E+04 0.  0.
        2    1    3    3  502    0 -0.31523278333E+03 -0.87503115035E+03 -0.42513933437E+03  0.10226410296E+04  0.25500000920E-02 0.  1.
       -2    1    3    3    0  502  0.31523278333E+03  0.87503115035E+03  0.54330117945E+03  0.10771385210E+04  0.25500000920E-02 0. -1.
</event>
<event>
 5   0  0.6052292E-05  0.2093922E+04  0.7818609E-02  0.8563925E-01
        1   -1    0    0  501    0  0.00000000000E+00  0.00000000000E+00  0.10553271616E+04  0.10553271616E+04  0.50400001928E-02 0.  1.
       -1   -1    0    0    0  501  0.00000000000E+00  0.00000000000E+00 -0.10386613803E+04  0.10386613803E+04  0.50400001928E-02 0. -1.
    10030    2    1    2    0    0  0.00000000000E+00  0.00000000000E+00  0.16665781308E+02  0.20939885418E+04  0.20939222204E+04 0.  0.
        1    1    3    3  502    0 -0.71173119234E+03 -0.24241455265E+03  0.73691719310E+03  0.10527929782E+04  0.50400001928E-02 0.  1.
       -1    1    3    3    0  502  0.71173119234E+03  0.24241455265E+03 -0.72025141179E+03  0.10411955636E+04  0.50400001928E-02 0. -1.
</event>
<event>
 5   0  0.1325673E-04  0.2082924E+04  0.7818609E-02  0.8568803E-01
        2   -1    0    0  501    0  0.00000000000E+00  0.00000000000E+00  0.19988044654E+04  0.19988044654E+04  0.25500000920E-02 0.  1.
       -2   -1    0    0    0  501  0.00000000000E+00  0.00000000000E+00 -0.54264582134E+03  0.54264582135E+03  0.25500000920E-02 0. -1.
    10030    2    1    2    0    0  0.00000000000E+00  0.00000000000E+00  0.14561586441E+04  0.25414502868E+04  0.20829238016E+04 0.  0.
        5    1    3    3  502    0 -0.30918832696E+02  0.39613185190E+03  0.19026745100E+04  0.19437254949E+04  0.46999998093E+01 0.  1.
       -5    1    3    3    0  502  0.30918832696E+02 -0.39613185190E+03 -0.44651586595E+03  0.59772479189E+03  0.46999998093E+01 0. -1.
</event>
<event>
 5   0  0.5846187E-05  0.2086332E+04  0.7818609E-02  0.8567288E-01
        1   -1    0    0  501    0  0.00000000000E+00  0.00000000000E+00  0.76293509868E+03  0.76293509870E+03  0.50400001928E-02 0. -1.
       -1   -1    0    0    0  501  0.00000000000E+00  0.00000000000E+00 -0.14263271150E+04  0.14263271150E+04  0.50400001928E-02 0.  1.
    10030    2    1    2    0    0  0.00000000000E+00  0.00000000000E+00 -0.66339201632E+03  0.21892622137E+04  0.20863317265E+04 0.  0.
        5    1    3    3  502    0  0.90229963056E+03  0.52332123894E+03 -0.34510066387E+03  0.10986929965E+04  0.46999998093E+01 0. -1.
       -5    1    3    3    0  502 -0.90229963056E+03 -0.52332123894E+03 -0.31829135245E+03  0.10905692172E+04  0.46999998093E+01 0.  1.
</event>
<event>
 5   0  0.6221148E-05  0.2092097E+04  0.7818609E-02  0.8564733E-01
       -1   -1    0    0    0  501  0.00000000000E+00  0.00000000000E+00  0.10331227672E+04  0.10331227673E+04  0.50400001928E-02 0.  1.
        1   -1    0    0  501    0  0.00000000000E+00  0.00000000000E+00 -0.10591362005E+04  0.10591362005E+04  0.50400001928E-02 0. -1.
    10030    2    1    2    0    0  0.00000000000E+00  0.00000000000E+00 -0.26013433267E+02  0.20922589678E+04  0.20920972467E+04 0.  0.
        3    1    3    3  502    0 -0.10401287543E+04  0.17606657164E+02 -0.12274164108E+03  0.10474938380E+04  0.10100000352E+00 0. -1.
       -3    1    3    3    0  502  0.10401287543E+04 -0.17606657164E+02  0.96728207814E+02  0.10447651298E+04  0.10100000352E+00 0.  1.
</event>
<event>
 5   0  0.1235817E-04  0.2100075E+04  0.7818609E-02  0.8561210E-01
        2   -1    0    0  501    0  0.00000000000E+00  0.00000000000E+00  0.19741875271E+04  0.19741875271E+04  0.25500000920E-02 0. -1.
       -2   -1    0    0    0  501  0.00000000000E+00  0.00000000000E+00 -0.55849756759E+03  0.55849756759E+03  0.25500000920E-02 0.  1.
    10030    2    1    2    0    0  0.00000000000E+00  0.00000000000E+00  0.14156899595E+04  0.25326850947E+04  0.21000751718E+04 0.  0.
        1    1    3    3  502    0 -0.82462752627E+03  0.51196470659E+03  0.22475231482E+03  0.99630919945E+03  0.50400001928E-02 0.  1.
       -1    1    3    3    0  502  0.82462752627E+03 -0.51196470659E+03  0.11909376447E+04  0.15363758952E+04  0.50400001928E-02 0. -1.
</event>
<event>
 5   0  0.6052292E-05  0.1784903E+04  0.7818609E-02  0.8714369E-01
       -1   -1    0    0    0  501  0.00000000000E+00  0.00000000000E+00  0.13143289999E+04  0.13143289999E+04  0.50400001928E-02 0.  1.
        1   -1    0    0  501    0  0.00000000000E+00  0.00000000000E+00 -0.60598990689E+03  0.60598990691E+03  0.50400001928E-02 0. -1.
    10030    2    1    2    0    0  0.00000000000E+00  0.00000000000E+00  0.70833909298E+03  0.19203189068E+04  0.17849034800E+04 0.  0.
        1    1    3    3  502    0  0.39718490778E+03 -0.78423887233E+03  0.18859906028E+03  0.89908623914E+03  0.50400001928E-02 0. -1.
       -1    1    3    3    0  502 -0.39718490778E+03  0.78423887233E+03  0.51974003270E+03  0.10212326676E+04  0.50400001928E-02 0.  1.
</event>
<event>
 5   0  0.1281470E-04  0.2131098E+04  0.7818609E-02  0.8547667E-01
       -2   -1    0    0    0  501  0.00000000000E+00  0.00000000000E+00  0.76299713400E+03  0.76299713401E+03  0.25500000920E-02 0.  1.
        2   -1    0    0  501    0  0.00000000000E+00  0.00000000000E+00 -0.14880715781E+04  0.14880715781E+04  0.25500000920E-02 0. -1.
    10030    2    1    2    0    0  0.00000000000E+00  0.00000000000E+00 -0.72507444410E+03  0.22510687121E+04  0.21310976977E+04 0.  0.
        3    1    3    3  502    0 -0.36274629713E+03  0.42390605328E+03 -0.13214493384E+04  0.14344021689E+04  0.10100000352E+00 0. -1.
       -3    1    3    3    0  502  0.36274629713E+03 -0.42390605328E+03  0.59637489427E+03  0.81666654321E+03  0.10100000352E+00 0.  1.
</event>
<event>
 5   0  0.6052292E-05  0.2084437E+04  0.7818609E-02  0.8568130E-01
       -1   -1    0    0    0  501  0.00000000000E+00  0.00000000000E+00  0.31824615974E+03  0.31824615978E+03  0.50400001928E-02 0.  1.
        1   -1    0    0  501    0  0.00000000000E+00  0.00000000000E+00 -0.34131424068E+04  0.34131424068E+04  0.50400001928E-02 0. -1.
    10030    2    1    2    0    0  0.00000000000E+00  0.00000000000E+00 -0.30948962471E+04  0.37313885666E+04  0.20844370594E+04 0.  0.
        1    1    3    3  502    0  0.12646781873E+03  0.61267346719E+03 -0.55240422923E+02  0.62802419613E+03  0.50400001928E-02 0.  1.
       -1    1    3    3    0  502 -0.12646781873E+03 -0.61267346719E+03 -0.30396558241E+04  0.31033643704E+04  0.50400001928E-02 0. -1.
</event>
<event>
 5   0  0.6052292E-05  0.2104974E+04  0.7818609E-02  0.8559056E-01
        1   -1    0    0  501    0  0.00000000000E+00  0.00000000000E+00  0.86232816979E+03  0.86232816980E+03  0.50400001928E-02 0. -1.
       -1   -1    0    0    0  501  0.00000000000E+00  0.00000000000E+00 -0.12845787283E+04  0.12845787283E+04  0.50400001928E-02 0.  1.
    10030    2    1    2    0    0  0.00000000000E+00  0.00000000000E+00 -0.42225055848E+03  0.21469068981E+04  0.21049735616E+04 0.  0.
        1    1    3    3  502    0 -0.10485286537E+04  0.61906768033E+02 -0.27941916868E+03  0.10868853929E+04  0.50400001928E-02 0. -1.
       -1    1    3    3    0  502  0.10485286537E+04 -0.61906768033E+02 -0.14283138980E+03  0.10600215052E+04  0.50400001928E-02 0.  1.
</event>
<event>
 5   0  0.1235817E-04  0.2197186E+04  0.7818609E-02  0.8519600E-01
        2   -1    0    0  501    0  0.00000000000E+00  0.00000000000E+00  0.19449751507E+04  0.19449751507E+04  0.25500000920E-02 0.  1.
       -2   -1    0    0    0  501  0.00000000000E+00  0.00000000000E+00 -0.62052557125E+03  0.62052557125E+03  0.25500000920E-02 0. -1.
    10030    2    1    2    0    0  0.00000000000E+00  0.00000000000E+00  0.13244495795E+04  0.25655007220E+04  0.21971862156E+04 0.  0.
        1    1    3    3  502    0  0.54267871904E+03 -0.52609988999E+03 -0.26868145080E+03  0.80216644680E+03  0.50400001928E-02 0. -1.
       -1    1    3    3    0  502 -0.54267871904E+03  0.52609988999E+03  0.15931310303E+04  0.17633342752E+04  0.50400001928E-02 0.  1.
</event>
<event>
 5   0  0.6052292E-05  0.1880259E+04  0.7818609E-02  0.8664746E-01
       -1   -1    0    0    0  501  0.00000000000E+00  0.00000000000E+00  0.13651177746E+04  0.13651177746E+04  0.50400001928E-02 0.  1.
        1   -1    0    0  501    0  0.00000000000E+00  0.00000000000E+00 -0.64744841833E+03  0.64744841835E+03  0.50400001928E-02 0. -1.
    10030    2    1    2    0    0  0.00000000000E+00  0.00000000000E+00  0.71766935625E+03  0.20125661929E+04  0.18802588588E+04 0.  0.
        1    1    3    3  502    0  0.49231143101E+03  0.28981800193E+03 -0.44034884744E+03  0.72129891641E+03  0.50400001928E-02 0. -1.
       -1    1    3    3    0  502 -0.49231143101E+03 -0.28981800193E+03  0.11580182037E+04  0.12912672765E+04  0.50400001928E-02 0.  1.
</event>
<event>
 5   0  0.6052292E-05  0.2078121E+04  0.7818609E-02  0.8570943E-01
       -1   -1    0    0    0  501  0.00000000000E+00  0.00000000000E+00  0.54221899798E+03  0.54221899800E+03  0.50400001928E-02 0.  1.
        1   -1    0    0  501    0  0.00000000000E+00  0.00000000000E+00 -0.19911644132E+04  0.19911644132E+04  0.50400001928E-02 0. -1.
    10030    2    1    2    0    0  0.00000000000E+00  0.00000000000E+00 -0.14489454152E+04  0.25333834112E+04  0.20781214334E+04 0.  0.
        1    1    3    3  502    0  0.92787736972E+03 -0.28860732630E+03 -0.11730464348E+04  0.15232493362E+04  0.50400001928E-02 0. -1.
       -1    1    3    3    0  502 -0.92787736972E+03  0.28860732630E+03 -0.27589898039E+03  0.10101340750E+04  0.50400001928E-02 0.  1.
</event>
<event>
 5   0  0.1281470E-04  0.1583197E+04  0.7818609E-02  0.8830938E-01
       -2   -1    0    0    0  501  0.00000000000E+00  0.00000000000E+00  0.11882535739E+04  0.11882535739E+04  0.25500000920E-02 0.  1.
        2   -1    0    0  501    0  0.00000000000E+00  0.00000000000E+00 -0.52735245365E+03  0.52735245366E+03  0.25500000920E-02 0. -1.
    10030    2    1    2    0    0  0.00000000000E+00  0.00000000000E+00  0.66090112027E+03  0.17156060276E+04  0.15831973191E+04 0.  0.
        3    1    3    3  502    0  0.50230679753E+02  0.78767865217E+03  0.26482450489E+03  0.83252195699E+03  0.10100000352E+00 0.  1.
       -3    1    3    3    0  502 -0.50230679753E+02 -0.78767865217E+03  0.39607661537E+03  0.88308407059E+03  0.10100000352E+00 0. -1.
</event>
<event>
 5   0  0.1325673E-04  0.2132268E+04  0.7818609E-02  0.8547161E-01
        2   -1    0    0  501    0  0.00000000000E+00  0.00000000000E+00  0.22080551262E+04  0.22080551262E+04  0.25500000920E-02 0. -1.
       -2   -1    0    0    0  501  0.00000000000E+00  0.00000000000E+00 -0.51477045256E+03  0.51477045257E+03  0.25500000920E-02 0.  1.
    10030    2    1    2    0    0  0.00000000000E+00  0.00000000000E+00  0.16932846736E+04  0.27228255787E+04  0.21322678411E+04 0.  0.
        5    1    3    3  502    0  0.92184212956E+03  0.51739407915E+03  0.67002455209E+03  0.12515768196E+04  0.46999998093E+01 0.  1.
       -5    1    3    3    0  502 -0.92184212956E+03 -0.51739407915E+03  0.10232601215E+04  0.14712487591E+04  0.46999998093E+01 0. -1.
</event>
<event>
 5   0  0.1349252E-04  0.2094355E+04  0.7818609E-02  0.8563734E-01
        2   -1    0    0  501    0  0.00000000000E+00  0.00000000000E+00  0.11932483144E+04  0.11932483144E+04  0.25500000920E-02 0. -1.
       -2   -1    0    0    0  501  0.00000000000E+00  0.00000000000E+00 -0.91898827315E+03  0.91898827315E+03  0.25500000920E-02 0.  1.
    10030    2    1    2    0    0  0.00000000000E+00  0.00000000000E+00  0.27426004125E+03  0.21122365876E+04  0.20943554693E+04 0.  0.
        2    1    3    3  502    0  0.97928521618E+03  0.29635886557E+03 -0.87828383060E+02  0.10269089233E+04  0.25500000920E-02 0. -1.
       -2    1    3    3    0  502 -0.97928521618E+03 -0.29635886557E+03  0.36208842431E+03  0.10853276643E+04  0.25500000920E-02 0.  1.
</event>
<event>
 5   0  0.1349252E-04  0.2061097E+04  0.7818609E-02  0.8578577E-01
        2   -1    0    0  501    0  0.00000000000E+00  0.00000000000E+00  0.23708991794E+04  0.23708991794E+04  0.25500000920E-02 0.  1.
       -2   -1    0    0    0  501  0.00000000000E+00  0.00000000000E+00 -0.44794390896E+03  0.44794390897E+03  0.25500000920E-02 0. -1.
    10030    2    1    2    0    0  0.00000000000E+00  0.00000000000E+00  0.19229552705E+04  0.28188430884E+04  0.20610966462E+04 0.  0.
        2    1    3    3  502    0 -0.61659690299E+03 -0.77302952217E+03  0.13584791806E+04  0.16802476207E+04  0.25500000920E-02 0.  1.
       -2    1    3    3    0  502  0.61659690299E+03  0.77302952217E+03  0.56447608991E+03  0.11385954677E+04  0.25500000920E-02 0. -1.
</event>
<event>
 5   0  0.1281470E-04  0.2122474E+04  0.7818609E-02  0.8551408E-01
       -2   -1    0    0    0  501  0.00000000000E+00  0.00000000000E+00  0.12226072281E+04  0.12226072281E+04  0.25500000920E-02 0.  1.
        2   -1    0    0  501    0  0.00000000000E+00  0.00000000000E+00 -0.92116559479E+03  0.92116559479E+03  0.25500000920E-02 0. -1.
    10030    2    1    2    0    0  0.00000000000E+00  0.00000000000E+00  0.30144163327E+03  0.21437728229E+04  0.21224737590E+04 0.  0.
        3    1    3    3  502    0  0.30512878134E+02 -0.94866500925E+03 -0.32872927280E+03  0.10044696514E+04  0.10100000352E+00 0.  1.
       -3    1    3    3    0  502 -0.30512878134E+02  0.94866500925E+03  0.63017090607E+03  0.11393031715E+04  0.10100000352E+00 0. -1.
</event>
<event>
 5   0  0.5933905E-05  0.2141819E+04  0.7818609E-02  0.8543042E-01
        1   -1    0    0  501    0  0.00000000000E+00  0.00000000000E+00  0.12589208147E+04  0.12589208147E+04  0.50400001928E-02 0. -1.
       -1   -1    0    0    0  501  0.00000000000E+00  0.00000000000E+00 -0.91097611647E+03  0.91097611649E+03  0.50400001928E-02 0.  1.
    10030    2    1    2    0    0  0.00000000000E+00  0.00000000000E+00  0.34794469818E+03  0.21698969312E+04  0.21418186615E+04 0.  0.
        2    1    3    3  502    0 -0.61475538687E+03  0.87583671344E+03  0.21734314651E+03  0.10919030074E+04  0.25500000920E-02 0. -1.
       -2    1    3    3    0  502  0.61475538687E+03 -0.87583671344E+03  0.13060155167E+03  0.10779939237E+04  0.25500000920E-02 0.  1.
</event>
<event>
 5   0  0.1235817E-04  0.2098576E+04  0.7818609E-02  0.8561871E-01
        2   -1    0    0  501    0  0.00000000000E+00  0.00000000000E+00  0.96207822365E+03  0.96207822366E+03  0.25500000920E-02 0. -1.
       -2   -1    0    0    0  501  0.00000000000E+00  0.00000000000E+00 -0.11444031837E+04  0.11444031837E+04  0.25500000920E-02 0.  1.
    10030    2    1    2    0    0  0.00000000000E+00  0.00000000000E+00 -0.18232496003E+03  0.21064814073E+04  0.20985760716E+04 0.  0.
        1    1    3    3  502    0  0.50976755390E+03  0.89639770420E+03  0.10351030548E+03  0.10363909429E+04  0.50400001928E-02 0. -1.
       -1    1    3    3    0  502 -0.50976755390E+03 -0.89639770420E+03 -0.28583526552E+03  0.10700904645E+04  0.50400001928E-02 0.  1.
</event>
<event>
 5   0  0.6221148E-05  0.1545072E+04  0.7818609E-02  0.8855021E-01
       -1   -1    0    0    0  501  0.00000000000E+00  0.00000000000E+00  0.86295081865E+03  0.86295081866E+03  0.50400001928E-02 0.  1.
        1   -1    0    0  501    0  0.00000000000E+00  0.00000000000E+00 -0.69159464397E+03  0.69159464399E+03  0.50400001928E-02 0. -1.
    10030    2    1    2    0    0  0.00000000000E+00  0.00000000000E+00  0.17135617468E+03  0.15545454627E+04  0.15450723792E+04 0.  0.
        3    1    3    3  502    0 -0.26182757312E+03  0.16778596724E+03 -0.62583973193E+03  0.69884274992E+03  0.10100000352E+00 0. -1.
       -3    1    3    3    0  502  0.26182757312E+03 -0.16778596724E+03  0.79719590661E+03  0.85570271273E+03  0.10100000352E+00 0.  1.
</event>
<event>
 5   0  0.6221148E-05  0.2020837E+04  0.7818609E-02  0.8596940E-01
       -1   -1    0    0    0  501  0.00000000000E+00  0.00000000000E+00  0.86056072995E+03  0.86056072996E+03  0.50400001928E-02 0.  1.
        1   -1    0    0  501    0  0.00000000000E+00  0.00000000000E+00 -0.11863721944E+04  0.11863721944E+04  0.50400001928E-02 0. -1.
    10030    2    1    2    0    0  0.00000000000E+00  0.00000000000E+00 -0.32581146442E+03  0.20469329243E+04  0.20208367788E+04 0.  0.
        3    1    3    3  502    0 -0.91748925459E+03  0.42007905563E+03 -0.11034765919E+03  0.10151007641E+04  0.10100000352E+00 0. -1.
       -3    1    3    3    0  502  0.91748925459E+03 -0.42007905563E+03 -0.21546380524E+03  0.10318321602E+04  0.10100000352E+00 0.  1.
</event>
<event>
 5   0  0.6263616E-05  0.2090981E+04  0.7818609E-02  0.8565227E-01
       -1   -1    0    0    0  501  0.00000000000E+00  0.00000000000E+00  0.89636175194E+03  0.89636175196E+03  0.50400001928E-02 0. -1.
        1   -1    0    0  501    0  0.00000000000E+00  0.00000000000E+00 -0.12194296668E+04  0.12194296668E+04  0.50400001928E-02 0.  1.
    10030    2    1    2    0    0  0.00000000000E+00  0.00000000000E+00 -0.32306791481E+03  0.21157914187E+04  0.20909807388E+04 0.  0.
        4    1    3    3  502    0  0.86457470320E+03 -0.45329218631E+03 -0.54025467558E+03  0.11157239582E+04  0.12699999809E+01 0. -1.
       -4    1    3    3    0  502 -0.86457470320E+03  0.45329218631E+03  0.21718676077E+03  0.10000674605E+04  0.12699999809E+01 0.  1.
</event>
<event>
 5   0  0.1252477E-04  0.2072638E+04  0.7818609E-02  0.8573393E-01
       -2   -1    0    0    0  501  0.00000000000E+00  0.00000000000E+00  0.10802480963E+04  0.10802480963E+04  0.25500000920E-02 0.  1.
        2   -1    0    0  501    0  0.00000000000E+00  0.00000000000E+00 -0.99417586790E+03  0.99417586790E+03  0.25500000920E-02 0. -1.
    10030    2    1    2    0    0  0.00000000000E+00  0.00000000000E+00  0.86072228444E+02  0.20744239643E+04  0.20726375358E+04 0.  0.
        4    1    3    3  502    0 -0.25946150449E+03 -0.98840159690E+03 -0.12944055416E+03  0.10300555611E+04  0.12699999809E+01 0.  1.
       -4    1    3    3    0  502  0.25946150449E+03  0.98840159690E+03  0.21551278261E+03  0.10443684031E+04  0.12699999809E+01 0. -1.
</event>
<event>
 5   0  0.6221148E-05  0.2157975E+04  0.7818609E-02  0.8536126E-01
        1   -1    0    0  501    0  0.00000000000E+00  0.00000000000E+00  0.11599401118E+04  0.11599401118E+04  0.50400001928E-02 0. -1.
       -1   -1    0    0    0  501  0.00000000000E+00  0.00000000000E+00 -0.10036849547E+04  0.10036849548E+04  0.50400001928E-02 0.  1.
    10030    2    1    2    0    0  0.00000000000E+00  0.00000000000E+00  0.15625515704E+03  0.21636250666E+04  0.21579753832E+04 0.  0.
        3    1    3    3  502    0 -0.67119273899E+03  0.43913001150E+03  0.80173694433E+03  0.11340709845E+04  0.10100000352E+00 0. -1.
       -3    1    3    3    0  502  0.67119273899E+03 -0.43913001150E+03 -0.64548178729E+03  0.10295540820E+04  0.10100000352E+00 0.  1.
</event>
<event>
 5   0  0.1325673E-04  0.2104315E+04  0.7818609E-02  0.8559345E-01
       -2   -1    0    0    0  501  0.00000000000E+00  0.00000000000E+00  0.65373921058E+03  0.65373921058E+03  0.25500000920E-02 0. -1.
        2   -1    0    0  501    0  0.00000000000E+00  0.00000000000E+00 -0.16933892782E+04  0.16933892782E+04  0.25500000920E-02 0.  1.
    10030    2    1    2    0    0  0.00000000000E+00  0.00000000000E+00 -0.10396500676E+04  0.23471284888E+04  0.21043145867E+04 0.  0.
        5    1    3    3  502    0  0.41486288744E+03 -0.29115385112E+03 -0.15482418066E+04  0.16290968548E+04  0.46999998093E+01 0.  1.
       -5    1    3    3    0  502 -0.41486288744E+03  0.29115385112E+03  0.50859173904E+03  0.71803163399E+03  0.46999998093E+01 0. -1.
</event>
<event>
 5   0  0.6221148E-05  0.2139524E+04  0.7818609E-02  0.8544030E-01
        1   -1    0    0  501    0  0.00000000000E+00  0.00000000000E+00  0.12944999772E+04  0.12944999772E+04  0.50400001928E-02 0. -1.
       -1   -1    0    0    0  501  0.00000000000E+00  0.00000000000E+00 -0.88404090276E+03  0.88404090277E+03  0.50400001928E-02 0.  1.
    10030    2    1    2    0    0  0.00000000000E+00  0.00000000000E+00  0.41045907444E+03  0.21785408800E+04  0.21395241793E+04 0.  0.
        3    1    3    3  502    0 -0.10347540663E+03  0.87095878307E+03  0.82886452692E+03  0.12067695620E+04  0.10100000352E+00 0. -1.
       -3    1    3    3    0  502  0.10347540663E+03 -0.87095878307E+03 -0.41840545247E+03  0.97177131798E+03  0.10100000352E+00 0.  1.
</event>
<event>
 5   0  0.1235817E-04  0.2062103E+04  0.7818609E-02  0.8578124E-01
        2   -1    0    0  501    0  0.00000000000E+00  0.00000000000E+00  0.98654338242E+03  0.98654338243E+03  0.25500000920E-02 0.  1.
       -2   -1    0    0    0  501  0.00000000000E+00  0.00000000000E+00 -0.10775670942E+04  0.10775670942E+04  0.25500000920E-02 0. -1.
    10030    2    1    2    0    0  0.00000000000E+00  0.00000000000E+00 -0.91023711779E+02  0.20641104766E+04  0.20621025056E+04 0.  0.
        1    1    3    3  502    0 -0.34312051651E+03  0.19825151310E+03  0.90727179666E+03  0.99003912263E+03  0.50400001928E-02 0.  1.
       -1    1    3    3    0  502  0.34312051651E+03 -0.19825151310E+03 -0.99829550844E+03  0.10740713540E+04  0.50400001928E-02 0. -1.
</event>
<event>
 5   0  0.6221148E-05  0.2204176E+04  0.7818609E-02  0.8516692E-01
       -1   -1    0    0    0  501  0.00000000000E+00  0.00000000000E+00  0.94146950848E+03  0.94146950849E+03  0.50400001928E-02 0.  1.
        1   -1    0    0  501    0  0.00000000000E+00  0.00000000000E+00 -0.12901087110E+04  0.12901087110E+04  0.50400001928E-02 0. -1.
    10030    2    1    2    0    0  0.00000000000E+00  0.00000000000E+00 -0.34863920247E+03  0.22315782195E+04  0.22041760492E+04 0.  0.
        3    1    3    3  502    0  0.21238999402E+03  0.23435253241E+03 -0.12431751106E+04  0.12827762801E+04  0.10100000352E+00 0. -1.
       -3    1    3    3    0  502 -0.21238999402E+03 -0.23435253241E+03  0.89453590812E+03  0.94880193935E+03  0.10100000352E+00 0.  1.
</event>
<event>
 5   0  0.1325673E-04  0.2098252E+04  0.7818609E-02  0.8562014E-01
       -2   -1    0    0    0  501  0.00000000000E+00  0.00000000000E+00  0.12694255708E+04  0.12694255708E+04  0.25500000920E-02 0.  1.
        2   -1    0    0  501    0  0.00000000000E+00  0.00000000000E+00 -0.86705757350E+03  0.86705757351E+03  0.25500000920E-02 0. -1.
    10030    2    1    2    0    0  0.00000000000E+00  0.00000000000E+00  0.40236799731E+03  0.21364831443E+04  0.20982517058E+04 0.  0.
        5    1    3    3  502    0 -0.78636611805E+03 -0.64923238887E+03  0.45218849268E+03  0.11155137333E+04  0.46999998093E+01 0.  1.
       -5    1    3    3    0  502  0.78636611805E+03  0.64923238887E+03 -0.49820495373E+02  0.10209694110E+04  0.46999998093E+01 0. -1.
</event>
<event>
 5   0  0.1281470E-04  0.2131451E+04  0.7818609E-02  0.8547514E-01
        2   -1    0    0  501    0  0.00000000000E+00  0.00000000000E+00  0.42600069869E+03  0.42600069870E+03  0.25500000920E-02 0. -1.
       -2   -1    0    0    0  501  0.00000000000E+00  0.00000000000E+00 -0.26661253466E+04  0.26661253466E+04  0.25500000920E-02 0.  1.
    10030    2    1    2    0    0  0.00000000000E+00  0.00000000000E+00 -0.22401246480E+04  0.30921260453E+04  0.21314513933E+04 0.  0.
        3    1    3    3  502    0 -0.10340354315E+04  0.18226784750E+03 -0.85525077991E+03  0.13542173934E+04  0.10100000352E+00 0. -1.
       -3    1    3    3    0  502  0.10340354315E+04 -0.18226784750E+03 -0.13848738681E+04  0.17379086519E+04  0.10100000352E+00 0.  1.
</event>
<event>
 5   0  0.1281470E-04  0.2082908E+04  0.7818609E-02  0.8568810E-01
       -2   -1    0    0    0  501  0.00000000000E+00  0.00000000000E+00  0.57854347345E+03  0.57854347346E+03  0.25500000920E-02 0. -1.
        2   -1    0    0  501    0  0.00000000000E+00  0.00000000000E+00 -0.18747536284E+04  0.18747536284E+04  0.25500000920E-02 0.  1.
    10030    2    1    2    0    0  0.00000000000E+00  0.00000000000E+00 -0.12962101549E+04  0.24532971018E+04  0.20829080402E+04 0.  0.
        3    1    3    3  502    0  0.39499096854E+03  0.80603691792E+03 -0.26070544021E+02  0.89799390963E+03  0.10100000352E+00 0. -1.
       -3    1    3    3    0  502 -0.39499096854E+03 -0.80603691792E+03 -0.12701396109E+04  0.15553031922E+04  0.10100000352E+00 0.  1.
</event>
<event>
 5   0  0.6052292E-05  0.1983551E+04  0.7818609E-02  0.8614350E-01
        1   -1    0    0  501    0  0.00000000000E+00  0.00000000000E+00  0.16675955423E+04  0.16675955423E+04  0.50400001928E-02 0.  1.
       -1   -1    0    0    0  501  0.00000000000E+00  0.00000000000E+00 -0.58984253306E+03  0.58984253308E+03  0.50400001928E-02 0. -1.
    10030    2    1    2    0    0  0.00000000000E+00  0.00000000000E+00  0.10777530092E+04  0.22574380754E+04  0.19835511375E+04 0.  0.
        1    1    3    3  502    0  0.10086437527E+03 -0.17854195990E+03 -0.56545197479E+03  0.60148714821E+03  0.50400001928E-02 0. -1.
       -1    1    3    3    0  502 -0.10086437527E+03  0.17854195990E+03  0.16432049840E+04  0.16559509271E+04  0.50400001928E-02 0.  1.
</event>
<event>
 5   0  0.6263616E-05  0.2080585E+04  0.7818609E-02  0.8569845E-01
        1   -1    0    0  501    0  0.00000000000E+00  0.00000000000E+00  0.20184421115E+04  0.20184421115E+04  0.50400001928E-02 0.  1.
       -1   -1    0    0    0  501  0.00000000000E+00  0.00000000000E+00 -0.53616009051E+03  0.53616009054E+03  0.50400001928E-02 0. -1.
    10030    2    1    2    0    0  0.00000000000E+00  0.00000000000E+00  0.14822820210E+04  0.25546022020E+04  0.20805846344E+04 0.  0.
        4    1    3    3  502    0 -0.38305758502E+03 -0.16522290203E+03 -0.42895799996E+03  0.59836301642E+03  0.12699999809E+01 0. -1.
       -4    1    3    3    0  502  0.38305758502E+03  0.16522290203E+03  0.19112400209E+04  0.19562391856E+04  0.12699999809E+01 0.  1.
</event>
<event>
 5   0  0.6052292E-05  0.2100048E+04  0.7818609E-02  0.8561222E-01
       -1   -1    0    0    0  501  0.00000000000E+00  0.00000000000E+00  0.82246396383E+03  0.82246396384E+03  0.50400001928E-02 0. -1.
        1   -1    0    0  501    0  0.00000000000E+00  0.00000000000E+00 -0.13405454560E+04  0.13405454560E+04  0.50400001928E-02 0.  1.
    10030    2    1    2    0    0  0.00000000000E+00  0.00000000000E+00 -0.51808149216E+03  0.21630094198E+04  0.21000479323E+04 0.  0.
        1    1    3    3  502    0  0.76073393072E+03 -0.40607692194E+02 -0.10033295667E+04  0.12597758997E+04  0.50400001928E-02 0.  1.
       -1    1    3    3    0  502 -0.76073393072E+03  0.40607692194E+02  0.48524807456E+03  0.90323352013E+03  0.50400001928E-02 0. -1.
</event>
<event>
 5   0  0.5846187E-05  0.2105162E+04  0.7818609E-02  0.8558973E-01
        1   -1    0    0  501    0  0.00000000000E+00  0.00000000000E+00  0.22778475051E+04  0.22778475051E+04  0.50400001928E-02 0.  1.
       -1   -1    0    0    0  501  0.00000000000E+00  0.00000000000E+00 -0.48639194990E+03  0.48639194992E+03  0.50400001928E-02 0. -1.
    10030    2    1    2    0    0  0.00000000000E+00  0.00000000000E+00  0.17914555552E+04  0.27642394550E+04  0.21051619317E+04 0.  0.
        5    1    3    3  502    0 -0.38075021358E+03  0.71027176551E+03  0.17847961161E+04  0.19583094679E+04  0.46999998093E+01 0.  1.
       -5    1    3    3    0  502  0.38075021358E+03 -0.71027176551E+03  0.66594390985E+01  0.80592998712E+03  0.46999998093E+01 0. -1.
</event>
<event>
 5   0  0.6221148E-05  0.2111551E+04  0.7818609E-02  0.8556172E-01
        1   -1    0    0  501    0  0.00000000000E+00  0.00000000000E+00  0.93978939731E+03  0.93978939732E+03  0.50400001928E-02 0.  1.
       -1   -1    0    0    0  501  0.00000000000E+00  0.00000000000E+00 -0.11860761872E+04  0.11860761872E+04  0.50400001928E-02 0. -1.
    10030    2    1    2    0    0  0.00000000000E+00  0.00000000000E+00 -0.24628678986E+03  0.21258655845E+04  0.21115509230E+04 0.  0.
        3    1    3    3  502    0  0.90531276290E+02 -0.10274724510E+04 -0.34998454972E+03  0.10892129015E+04  0.10100000352E+00 0. -1.
       -3    1    3    3    0  502 -0.90531276290E+02  0.10274724510E+04  0.10369775986E+03  0.10366526830E+04  0.10100000352E+00 0.  1.
</event>
<event>
 5   0  0.6263616E-05  0.2039714E+04  0.7818609E-02  0.8588275E-01
        1   -1    0    0  501    0  0.00000000000E+00  0.00000000000E+00  0.23902779731E+04  0.23902779731E+04  0.50400001928E-02 0. -1.
       -1   -1    0    0    0  501  0.00000000000E+00  0.00000000000E+00 -0.43514100174E+03  0.43514100177E+03  0.50400001928E-02 0.  1.
    10030    2    1    2    0    0  0.00000000000E+00  0.00000000000E+00  0.19551369714E+04  0.28254189749E+04  0.20397136580E+04 0.  0.
        4    1    3    3  502    0 -0.97898001077E+03  0.20094516877E+03  0.12591620976E+04  0.16075669887E+04  0.12699999809E+01 0. -1.
       -4    1    3    3    0  502  0.97898001077E+03 -0.20094516877E+03  0.69597487378E+03  0.12178519862E+04  0.12699999809E+01 0.  1.
</event>
<event>
 5   0  0.5933905E-05  0.2016689E+04  0.7818609E-02  0.8598857E-01
        1   -1    0    0  501    0  0.00000000000E+00  0.00000000000E+00  0.94781866682E+03  0.94781866683E+03  0.50400001928E-02 0.  1.
       -1   -1    0    0    0  501  0.00000000000E+00  0.00000000000E+00 -0.10727356382E+04  0.10727356382E+04  0.50400001928E-02 0. -1.
    10030    2    1    2    0    0  0.00000000000E+00  0.00000000000E+00 -0.12491697139E+03  0.20205543050E+04  0.20166892299E+04 0.  0.
        2    1    3    3  502    0 -0.19212208410E+03 -0.93627694516E+03  0.25945692473E+03  0.99037533745E+03  0.25500000920E-02 0.  1.
       -2    1    3    3    0  502  0.19212208410E+03  0.93627694516E+03 -0.38437389612E+03  0.10301789676E+04  0.25500000920E-02 0. -1.
</event>
<event>
 5   0  0.1349252E-04  0.2055064E+04  0.7818609E-02  0.8581300E-01
       -2   -1    0    0    0  501  0.00000000000E+00  0.00000000000E+00  0.17827718509E+04  0.17827718509E+04  0.25500000920E-02 0. -1.
        2   -1    0    0  501    0  0.00000000000E+00  0.00000000000E+00 -0.59223633731E+03  0.59223633731E+03  0.25500000920E-02 0.  1.
    10030    2    1    2    0    0  0.00000000000E+00  0.00000000000E+00  0.11905355136E+04  0.23750081882E+04  0.20550642532E+04 0.  0.
        2    1    3    3  502    0 -0.26071878670E+03  0.75482215384E+03 -0.15199850739E+03  0.81291716424E+03  0.25500000920E-02 0.  1.
       -2    1    3    3    0  502  0.26071878670E+03 -0.75482215384E+03  0.13425340209E+04  0.15620910239E+04  0.25500000920E-02 0. -1.
</event>
<event>
 5   0  0.5846187E-05  0.2021280E+04  0.7818609E-02  0.8596736E-01
        1   -1    0    0  501    0  0.00000000000E+00  0.00000000000E+00  0.69585081682E+03  0.69585081684E+03  0.50400001928E-02 0. -1.
       -1   -1    0    0    0  501  0.00000000000E+00  0.00000000000E+00 -0.14678333610E+04  0.14678333610E+04  0.50400001928E-02 0.  1.
    10030    2    1    2    0    0  0.00000000000E+00  0.00000000000E+00 -0.77198254416E+03  0.21636841778E+04  0.20212798354E+04 0.  0.
        5    1    3    3  502    0 -0.21348473556E+03  0.42039947246E+03  0.57088764670E+03  0.74043652255E+03  0.46999998093E+01 0. -1.
       -5    1    3    3    0  502  0.21348473556E+03 -0.42039947246E+03 -0.13428701909E+04  0.14232476553E+04  0.46999998093E+01 0.  1.
</event>
<event>
 5   0  0.6221148E-05  0.1806485E+04  0.7818609E-02  0.8702859E-01
        1   -1    0    0  501    0  0.00000000000E+00  0.00000000000E+00  0.12891221120E+04  0.12891221120E+04  0.50400001928E-02 0. -1.
       -1   -1    0    0    0  501  0.00000000000E+00  0.00000000000E+00 -0.63287009162E+03  0.63287009164E+03  0.50400001928E-02 0.  1.
    10030    2    1    2    0    0  0.00000000000E+00  0.00000000000E+00  0.65625202037E+03  0.19219922036E+04  0.18064847956E+04 0.  0.
        3    1    3    3  502    0 -0.57867472530E+03  0.94701113501E+02  0.10590879897E+04  0.12105784232E+04  0.10100000352E+00 0. -1.
       -3    1    3    3    0  502  0.57867472530E+03 -0.94701113501E+02 -0.40283596933E+03  0.71141378044E+03  0.10100000352E+00 0.  1.
</event>
<event>
 5   0  0.1349252E-04  0.2119481E+04  0.7818609E-02  0.8552710E-01
        2   -1    0    0  501    0  0.00000000000E+00  0.00000000000E+00  0.20562237797E+04  0.20562237797E+04  0.25500000920E-02 0. -1.
       -2   -1    0    0    0  501  0.00000000000E+00  0.00000000000E+00 -0.54617111121E+03  0.54617111121E+03  0.25500000920E-02 0.  1.
    10030    2    1    2    0    0  0.00000000000E+00  0.00000000000E+00  0.15100526685E+04  0.26023948909E+04  0.21194810937E+04 0.  0.
        2    1    3    3  502    0  0.98711316012E+03 -0.26546411477E+03  0.41169821927E+03  0.11019795873E+04  0.25500000920E-02 0.  1.
       -2    1    3    3    0  502 -0.98711316012E+03  0.26546411477E+03  0.10983544492E+04  0.15004153036E+04  0.25500000920E-02 0. -1.
</event>
<event>
 5   0  0.5933905E-05  0.2146975E+04  0.7818609E-02  0.8540828E-01
       -1   -1    0    0    0  501  0.00000000000E+00  0.00000000000E+00  0.14572989288E+04  0.14572989288E+04  0.50400001928E-02 0. -1.
        1   -1    0    0  501    0  0.00000000000E+00  0.00000000000E+00 -0.79076146042E+03  0.79076146043E+03  0.50400001928E-02 0.  1.
    10030    2    1    2    0    0  0.00000000000E+00  0.00000000000E+00  0.66653746836E+03  0.22480603892E+04  0.21469753880E+04 0.  0.
        2    1    3    3  502    0 -0.51005511041E+03  0.39120799280E+03 -0.56696402505E+03  0.85711616190E+03  0.25500000920E-02 0.  1.
       -2    1    3    3    0  502  0.51005511041E+03 -0.39120799280E+03  0.12335014934E+04  0.13909442273E+04  0.25500000920E-02 0. -1.
</event>
<event>
 5   0  0.5846187E-05  0.2101091E+04  0.7818609E-02  0.8560763E-01
       -1   -1    0    0    0  501  0.00000000000E+00  0.00000000000E+00  0.54025218711E+03  0.54025218713E+03  0.50400001928E-02 0.  1.
        1   -1    0    0  501    0  0.00000000000E+00  0.00000000000E+00 -0.20428350555E+04  0.20428350555E+04  0.50400001928E-02 0. -1.
    10030    2    1    2    0    0  0.00000000000E+00  0.00000000000E+00 -0.15025828684E+04  0.25830872426E+04  0.21010912466E+04 0.  0.
        5    1    3    3  502    0 -0.82369795857E+03 -0.26181134614E+03 -0.17140864230E+02  0.86448794505E+03  0.46999998093E+01 0.  1.
       -5    1    3    3    0  502  0.82369795857E+03  0.26181134614E+03 -0.14854420041E+04  0.17185992976E+04  0.46999998093E+01 0. -1.
</event>
<event>
 5   0  0.1235817E-04  0.2142967E+04  0.7818609E-02  0.8542549E-01
       -2   -1    0    0    0  501  0.00000000000E+00  0.00000000000E+00  0.81050118572E+03  0.81050118572E+03  0.25500000920E-02 0.  1.
        2   -1    0    0  501    0  0.00000000000E+00  0.00000000000E+00 -0.14165019951E+04  0.14165019952E+04  0.25500000920E-02 0. -1.
    10030    2    1    2    0    0  0.00000000000E+00  0.00000000000E+00 -0.60600080943E+03  0.22270031809E+04  0.21429666788E+04 0.  0.
        1    1    3    3  502    0 -0.30545669263E+03 -0.96253177967E+03 -0.67524445577E+03  0.12147947535E+04  0.50400001928E-02 0. -1.
       -1    1    3    3    0  502  0.30545669263E+03  0.96253177967E+03  0.69243646339E+02  0.10122084274E+04  0.50400001928E-02 0.  1.
</event>
<event>
 5   0  0.1349252E-04  0.2090900E+04  0.7818609E-02  0.8565263E-01
        2   -1    0    0  501    0  0.00000000000E+00  0.00000000000E+00  0.19934908788E+04  0.19934908788E+04  0.25500000920E-02 0. -1.
       -2   -1    0    0    0  501  0.00000000000E+00  0.00000000000E+00 -0.54826700925E+03  0.54826700926E+03  0.25500000920E-02 0.  1.
    10030    2    1    2    0    0  0.00000000000E+00  0.00000000000E+00  0.14452238695E+04  0.25417578880E+04  0.20908995979E+04 0.  0.
        2    1    3    3  502    0  0.84988304958E+03  0.40550620400E+03  0.12746584351E+04  0.15847683129E+04  0.25500000920E-02 0. -1.
       -2    1    3    3    0  502 -0.84988304958E+03 -0.40550620400E+03  0.17056543441E+03  0.95698957511E+03  0.25500000920E-02 0.  1.
</event>
<event>
 5   0  0.1252477E-04  0.1997636E+04  0.7818609E-02  0.8607726E-01
       -2   -1    0    0    0  501  0.00000000000E+00  0.00000000000E+00  0.18224073577E+04  0.18224073577E+04  0.25500000920E-02 0. -1.
        2   -1    0    0  501    0  0.00000000000E+00  0.00000000000E+00 -0.54742857409E+03  0.54742857410E+03  0.25500000920E-02 0.  1.
    10030    2    1    2    0    0  0.00000000000E+00  0.00000000000E+00  0.12749787836E+04  0.23698359318E+04  0.19976364647E+04 0.  0.
        4    1    3    3  502    0 -0.35053645578E+03  0.50738585889E+03  0.15695775875E+04  0.16863841889E+04  0.12699999809E+01 0. -1.
       -4    1    3    3    0  502  0.35053645578E+03 -0.50738585889E+03 -0.29459880390E+03  0.68345174285E+03  0.12699999809E+01 0.  1.
</event>
<event>
 5   0  0.1325673E-04  0.1893328E+04  0.7818609E-02  0.8658185E-01
       -2   -1    0    0    0  501  0.00000000000E+00  0.00000000000E+00  0.94619418981E+03  0.94619418981E+03  0.25500000920E-02 0. -1.
        2   -1    0    0  501    0  0.00000000000E+00  0.00000000000E+00 -0.94713393118E+03  0.94713393118E+03  0.25500000920E-02 0.  1.
    10030    2    1    2    0    0  0.00000000000E+00  0.00000000000E+00 -0.93974137076E+00  0.18933281210E+04  0.18933278878E+04 0.  0.
        5    1    3    3  502    0  0.87406312243E+03 -0.19145396458E+03  0.30857639390E+03  0.94651066735E+03  0.46999998093E+01 0.  1.
       -5    1    3    3    0  502 -0.87406312243E+03  0.19145396458E+03 -0.30951613527E+03  0.94681745365E+03  0.46999998093E+01 0. -1.
</event>
<event>
 5   0  0.1252477E-04  0.2134717E+04  0.7818609E-02  0.8546103E-01
        2   -1    0    0  501    0  0.00000000000E+00  0.00000000000E+00  0.10859332223E+04  0.10859332223E+04  0.25500000920E-02 0.  1.
       -2   -1    0    0    0  501  0.00000000000E+00  0.00000000000E+00 -0.10491011259E+04  0.10491011259E+04  0.25500000920E-02 0. -1.
    10030    2    1    2    0    0  0.00000000000E+00  0.00000000000E+00  0.36832096312E+02  0.21350343482E+04  0.21347166240E+04 0.  0.
        4    1    3    3  502    0  0.37729219299E+03  0.91237865879E+03  0.42402287595E+03  0.10745144150E+04  0.12699999809E+01 0.  1.
       -4    1    3    3    0  502 -0.37729219299E+03 -0.91237865879E+03 -0.38719077963E+03  0.10605199332E+04  0.12699999809E+01 0. -1.
</event>
<event>
 5   0  0.1235817E-04  0.2128736E+04  0.7818609E-02  0.8548689E-01
        2   -1    0    0  501    0  0.00000000000E+00  0.00000000000E+00  0.20839332051E+04  0.20839332051E+04  0.25500000920E-02 0. -1.
       -2   -1    0    0    0  501  0.00000000000E+00  0.00000000000E+00 -0.54362560804E+03  0.54362560805E+03  0.25500000920E-02 0.  1.
    10030    2    1    2    0    0  0.00000000000E+00  0.00000000000E+00  0.15403075971E+04  0.26275588132E+04  0.21287362033E+04 0.  0.
        1    1    3    3  502    0  0.18474914970E+02 -0.65814397876E+03  0.18024127162E+04  0.19189023995E+04  0.50400001928E-02 0. -1.
       -1    1    3    3    0  502 -0.18474914970E+02  0.65814397876E+03 -0.26210511906E+03  0.70865641373E+03  0.50400001928E-02 0.  1.
</event>
<event>
 5   0  0.5933905E-05  0.2086927E+04  0.7818609E-02  0.8567024E-01
       -1   -1    0    0    0  501  0.00000000000E+00  0.00000000000E+00  0.92991536041E+03  0.92991536042E+03  0.50400001928E-02 0.  1.
        1   -1    0    0  501    0  0.00000000000E+00  0.00000000000E+00 -0.11708768846E+04  0.11708768846E+04  0.50400001928E-02 0. -1.
    10030    2    1    2    0    0  0.00000000000E+00  0.00000000000E+00 -0.24096152423E+03  0.21007922451E+04  0.20869273109E+04 0.  0.
        2    1    3    3  502    0 -0.11048900423E+03 -0.47252642031E+03  0.80941360908E+03  0.94373694879E+03  0.25500000920E-02 0.  1.
       -2    1    3    3    0  502  0.11048900423E+03  0.47252642031E+03 -0.10503751333E+04  0.11570552963E+04  0.25500000920E-02 0. -1.
</event>
<event>
 5   0  0.1349252E-04  0.1657364E+04  0.7818609E-02  0.8786062E-01
       -2   -1    0    0    0  501  0.00000000000E+00  0.00000000000E+00  0.35481731104E+03  0.35481731105E+03  0.25500000920E-02 0. -1.
        2   -1    0    0  501    0  0.00000000000E+00  0.00000000000E+00 -0.19354015017E+04  0.19354015017E+04  0.25500000920E-02 0.  1.
    10030    2    1    2    0    0  0.00000000000E+00  0.00000000000E+00 -0.15805841907E+04  0.22902188128E+04  0.16573641201E+04 0.  0.
        2    1    3    3  502    0 -0.62983742887E+03  0.42301270364E+03 -0.12508402745E+04  0.14629546564E+04  0.25500000920E-02 0.  1.
       -2    1    3    3    0  502  0.62983742887E+03 -0.42301270364E+03 -0.32974391621E+03  0.82726415644E+03  0.25500000920E-02 0. -1.
</event>
<event>
 5   0  0.1281470E-04  0.2046306E+04  0.7818609E-02  0.8585272E-01
        2   -1    0    0  501    0  0.00000000000E+00  0.00000000000E+00  0.11245587061E+04  0.11245587061E+04  0.25500000920E-02 0. -1.
       -2   -1    0    0    0  501  0.00000000000E+00  0.00000000000E+00 -0.93089158687E+03  0.93089158687E+03  0.25500000920E-02 0.  1.
    10030    2    1    2    0    0  0.00000000000E+00  0.00000000000E+00  0.19366711920E+03  0.20554502929E+04  0.20463061730E+04 0.  0.
        3    1    3    3  502    0  0.55064016568E+02  0.92701619039E+03 -0.33456338582E+03  0.98707838214E+03  0.10100000352E+00 0.  1.
       -3    1    3    3    0  502 -0.55064016568E+02 -0.92701619039E+03  0.52823050502E+03  0.10683719108E+04  0.10100000352E+00 0. -1.
</event>
<event>
 5   0  0.1325673E-04  0.1906706E+04  0.7818609E-02  0.8651526E-01
       -2   -1    0    0    0  501  0.00000000000E+00  0.00000000000E+00  0.48861683985E+03  0.48861683986E+03  0.25500000920E-02 0. -1.
        2   -1    0    0  501    0  0.00000000000E+00  0.00000000000E+00 -0.18601118952E+04  0.18601118952E+04  0.25500000920E-02 0.  1.
    10030    2    1    2    0    0  0.00000000000E+00  0.00000000000E+00 -0.13714950554E+04  0.23487287351E+04  0.19067060560E+04 0.  0.
        5    1    3    3  502    0  0.21367520196E+03 -0.25260512754E+03 -0.17871078122E+04  0.18174825624E+04  0.46999998093E+01 0.  1.
       -5    1    3    3    0  502 -0.21367520196E+03  0.25260512754E+03  0.41561275678E+03  0.53124617268E+03  0.46999998093E+01 0. -1.
</event>
<event>
 5   0  0.1235817E-04  0.1891954E+04  0.7818609E-02  0.8658872E-01
       -2   -1    0    0    0  501  0.00000000000E+00  0.00000000000E+00  0.77117388308E+03  0.77117388308E+03  0.25500000920E-02 0.  1.
        2   -1    0    0  501    0  0.00000000000E+00  0.00000000000E+00 -0.11604027895E+04  0.11604027895E+04  0.25500000920E-02 0. -1.
    10030    2    1    2    0    0  0.00000000000E+00  0.00000000000E+00 -0.38922890637E+03  0.19315766725E+04  0.18919538314E+04 0.  0.
        1    1    3    3  502    0 -0.41854222685E+03 -0.40278410040E+03  0.56765436579E+03  0.81218477344E+03  0.50400001928E-02 0.  1.
       -1    1    3    3    0  502  0.41854222685E+03  0.40278410040E+03 -0.95688327216E+03  0.11193918991E+04  0.50400001928E-02 0. -1.
</event>
<event>
 5   0  0.6052292E-05  0.2164254E+04  0.7818609E-02  0.8533456E-01
        1   -1    0    0  501    0  0.00000000000E+00  0.00000000000E+00  0.75667995299E+03  0.75667995301E+03  0.50400001928E-02 0. -1.
       -1   -1    0    0    0  501  0.00000000000E+00  0.00000000000E+00 -0.15475479919E+04  0.15475479919E+04  0.50400001928E-02 0.  1.
    10030    2    1    2    0    0  0.00000000000E+00  0.00000000000E+00 -0.79086803891E+03  0.23042279449E+04  0.21642537206E+04 0.  0.
        1    1    3    3  502    0  0.24722323012E+03  0.36443391070E+03  0.65696266348E+03  0.79090539384E+03  0.50400001928E-02 0. -1.
       -1    1    3    3    0  502 -0.24722323012E+03 -0.36443391070E+03 -0.14478307024E+04  0.15133225511E+04  0.50400001928E-02 0.  1.
</event>
<event>
 5   0  0.1349252E-04  0.2222357E+04  0.7818609E-02  0.8509180E-01
       -2   -1    0    0    0  501  0.00000000000E+00  0.00000000000E+00  0.71575072414E+03  0.71575072414E+03  0.25500000920E-02 0. -1.
        2   -1    0    0  501    0  0.00000000000E+00  0.00000000000E+00 -0.17250671318E+04  0.17250671318E+04  0.25500000920E-02 0.  1.
    10030    2    1    2    0    0  0.00000000000E+00  0.00000000000E+00 -0.10093164077E+04  0.24408178560E+04  0.22223573509E+04 0.  0.
        2    1    3    3  502    0 -0.33594017652E+03 -0.69526868756E+03  0.37292758632E+03  0.85751346039E+03  0.25500000920E-02 0. -1.
       -2    1    3    3    0  502  0.33594017652E+03  0.69526868756E+03 -0.13822439940E+04  0.15833043956E+04  0.25500000920E-02 0.  1.
</event>
<event>
 5   0  0.6221148E-05  0.2060995E+04  0.7818609E-02  0.8578623E-01
        1   -1    0    0  501    0  0.00000000000E+00  0.00000000000E+00  0.65575867492E+03  0.65575867494E+03  0.50400001928E-02 0. -1.
       -1   -1    0    0    0  501  0.00000000000E+00  0.00000000000E+00 -0.16193845706E+04  0.16193845706E+04  0.50400001928E-02 0.  1.
    10030    2    1    2    0    0  0.00000000000E+00  0.00000000000E+00 -0.96362589570E+03  0.22751432456E+04  0.20609953714E+04 0.  0.
        3    1    3    3  502    0  0.11937351713E+03  0.24809368355E+03 -0.15780329049E+04  0.16018702730E+04  0.10100000352E+00 0.  1.
       -3    1    3    3    0  502 -0.11937351713E+03 -0.24809368355E+03  0.61440700920E+03  0.67327297255E+03  0.10100000352E+00 0. -1.
</event>
<event>
 5   0  0.1325673E-04  0.2116457E+04  0.7818609E-02  0.8554028E-01
       -2   -1    0    0    0  501  0.00000000000E+00  0.00000000000E+00  0.80391589758E+03  0.80391589758E+03  0.25500000920E-02 0.  1.
        2   -1    0    0  501    0  0.00000000000E+00  0.00000000000E+00 -0.13929909951E+04  0.13929909952E+04  0.25500000920E-02 0. -1.
    10030    2    1    2    0    0  0.00000000000E+00  0.00000000000E+00 -0.58907509757E+03  0.21969068927E+04  0.21164570453E+04 0.  0.
        5    1    3    3  502    0 -0.50554997183E+03  0.66678689346E+03 -0.96695754842E+03  0.12787550687E+04  0.46999998093E+01 0. -1.
       -5    1    3    3    0  502  0.50554997183E+03 -0.66678689346E+03  0.37788245085E+03  0.91815182403E+03  0.46999998093E+01 0.  1.
</event>
<event>
 5   0  0.6263616E-05  0.2098899E+04  0.7818609E-02  0.8561729E-01
        1   -1    0    0  501    0  0.00000000000E+00  0.00000000000E+00  0.83706980084E+03  0.83706980085E+03  0.50400001928E-02 0.  1.
       -1   -1    0    0    0  501  0.00000000000E+00  0.00000000000E+00 -0.13157135037E+04  0.13157135037E+04  0.50400001928E-02 0. -1.
    10030    2    1    2    0    0  0.00000000000E+00  0.00000000000E+00 -0.47864370284E+03  0.21527833045E+04  0.20988987975E+04 0.  0.
        4    1    3    3  502    0  0.74814466325E+03  0.72421370241E+03 -0.37358904999E+03  0.11062442384E+04  0.12699999809E+01 0. -1.
       -4    1    3    3    0  502 -0.74814466325E+03 -0.72421370241E+03 -0.10505465284E+03  0.10465390661E+04  0.12699999809E+01 0.  1.
</event>
<event>
 5   0  0.1252477E-04  0.2186052E+04  0.7818609E-02  0.8524256E-01
        2   -1    0    0  501    0  0.00000000000E+00  0.00000000000E+00  0.20304353695E+04  0.20304353695E+04  0.25500000920E-02 0.  1.
       -2   -1    0    0    0  501  0.00000000000E+00  0.00000000000E+00 -0.58839872384E+03  0.58839872385E+03  0.25500000920E-02 0. -1.
    10030    2    1    2    0    0  0.00000000000E+00  0.00000000000E+00  0.14420366457E+04  0.26188340934E+04  0.21860517654E+04 0.  0.
        4    1    3    3  502    0 -0.74317455435E+03 -0.14256046695E+03  0.16658792568E+04  0.18296959354E+04  0.12699999809E+01 0.  1.
       -4    1    3    3    0  502  0.74317455435E+03  0.14256046695E+03 -0.22384261107E+03  0.78913815799E+03  0.12699999809E+01 0. -1.
</event>
<event>
 5   0  0.6052292E-05  0.2106152E+04  0.7818609E-02  0.8558538E-01
        1   -1    0    0  501    0  0.00000000000E+00  0.00000000000E+00  0.80517867956E+03  0.80517867958E+03  0.50400001928E-02 0.  1.
       -1   -1    0    0    0  501  0.00000000000E+00  0.00000000000E+00 -0.13772959135E+04  0.13772959136E+04  0.50400001928E-02 0. -1.
    10030    2    1    2    0    0  0.00000000000E+00  0.00000000000E+00 -0.57211723399E+03  0.21824745931E+04  0.21061522310E+04 0.  0.
        1    1    3    3  502    0 -0.26093426002E+03 -0.92233330794E+03  0.16584549882E+03  0.97277445921E+03  0.50400001928E-02 0.  1.
       -1    1    3    3    0  502  0.26093426002E+03  0.92233330794E+03 -0.73796273281E+03  0.12097001339E+04  0.50400001928E-02 0. -1.
</event>
<event>
 5   0  0.1235817E-04  0.1959739E+04  0.7818609E-02  0.8625679E-01
        2   -1    0    0  501    0  0.00000000000E+00  0.00000000000E+00  0.71796100324E+03  0.71796100324E+03  0.25500000920E-02 0. -1.
       -2   -1    0    0    0  501  0.00000000000E+00  0.00000000000E+00 -0.13373205600E+04  0.13373205600E+04  0.25500000920E-02 0.  1.
    10030    2    1    2    0    0  0.00000000000E+00  0.00000000000E+00 -0.61935955677E+03  0.20552815633E+04  0.19597387693E+04 0.  0.
        1    1    3    3  502    0 -0.19996328704E+03 -0.53988739533E+03 -0.11412292010E+04  0.12782283853E+04  0.50400001928E-02 0.  1.
       -1    1    3    3    0  502  0.19996328704E+03  0.53988739533E+03  0.52186964420E+03  0.77705317796E+03  0.50400001928E-02 0. -1.
</event>
<event>
 5   0  0.6263616E-05  0.2093171E+04  0.7818609E-02  0.8564258E-01
        1   -1    0    0  501    0  0.00000000000E+00  0.00000000000E+00  0.14716353380E+04  0.14716353380E+04  0.50400001928E-02 0.  1.
       -1   -1    0    0    0  501  0.00000000000E+00  0.00000000000E+00 -0.74430186723E+03  0.74430186724E+03  0.50400001928E-02 0. -1.
    10030    2    1    2    0    0  0.00000000000E+00  0.00000000000E+00  0.72733347075E+03  0.22159372052E+04  0.20931707336E+04 0.  0.
        4    1    3    3  502    0 -0.19885677129E+03  0.57338547582E+03  0.12663331584E+04  0.14042493369E+04  0.12699999809E+01 0.  1.
       -4    1    3    3    0  502  0.19885677129E+03 -0.57338547582E+03 -0.53899968763E+03  0.81168786829E+03  0.12699999809E+01 0. -1.
</event>
<event>
 5   0  0.1281470E-04  0.2089838E+04  0.7818609E-02  0.8565733E-01
        2   -1    0    0  501    0  0.00000000000E+00  0.00000000000E+00  0.19546063456E+04  0.19546063456E+04  0.25500000920E-02 0.  1.
       -2   -1    0    0    0  501  0.00000000000E+00  0.00000000000E+00 -0.55860621026E+03  0.55860621026E+03  0.25500000920E-02 0. -1.
    10030    2    1    2    0    0  0.00000000000E+00  0.00000000000E+00  0.13960001353E+04  0.25132125558E+04  0.20898375470E+04 0.  0.
        3    1    3    3  502    0  0.14884003078E+03 -0.92629530386E+03  0.12512934376E+04  0.15639410545E+04  0.10100000352E+00 0.  1.
       -3    1    3    3    0  502 -0.14884003078E+03  0.92629530386E+03  0.14470669772E+03  0.94927150135E+03  0.10100000352E+00 0. -1.
</event>
<event>
 5   0  0.6221148E-05  0.2093727E+04  0.7818609E-02  0.8564012E-01
       -1   -1    0    0    0  501  0.00000000000E+00  0.00000000000E+00  0.56298623980E+03  0.56298623982E+03  0.50400001928E-02 0. -1.
        1   -1    0    0  501    0  0.00000000000E+00  0.00000000000E+00 -0.19466250459E+04  0.19466250459E+04  0.50400001928E-02 0.  1.
    10030    2    1    2    0    0  0.00000000000E+00  0.00000000000E+00 -0.13836388061E+04  0.25096112857E+04  0.20937269305E+04 0.  0.
        3    1    3    3  502    0  0.56183598614E+03 -0.18571632107E+03  0.34329824221E+03  0.68410812050E+03  0.10100000352E+00 0. -1.
       -3    1    3    3    0  502 -0.56183598614E+03  0.18571632107E+03 -0.17269370483E+04  0.18255031652E+04  0.10100000352E+00 0.  1.
</event>
<event>
 5   0  0.1235817E-04  0.2089618E+04  0.7818609E-02  0.8565831E-01
        2   -1    0    0  501    0  0.00000000000E+00  0.00000000000E+00  0.68834453399E+03  0.68834453399E+03  0.25500000920E-02 0. -1.
       -2   -1    0    0    0  501  0.00000000000E+00  0.00000000000E+00 -0.15858708434E+04  0.15858708434E+04  0.25500000920E-02 0.  1.
    10030    2    1    2    0    0  0.00000000000E+00  0.00000000000E+00 -0.89752630936E+03  0.22742153774E+04  0.20896176939E+04 0.  0.
        1    1    3    3  502    0 -0.46787139427E+03 -0.25435677438E+03  0.52954804131E+03  0.75101407332E+03  0.50400001928E-02 0. -1.
       -1    1    3    3    0  502  0.46787139427E+03  0.25435677438E+03 -0.14270743507E+04  0.15232013040E+04  0.50400001928E-02 0.  1.
</event>
<event>
 5   0  0.6263616E-05  0.2306459E+04  0.7818609E-02  0.8475379E-01
        1   -1    0    0  501    0  0.00000000000E+00  0.00000000000E+00  0.90174102096E+03  0.90174102098E+03  0.50400001928E-02 0.  1.
       -1   -1    0    0    0  501  0.00000000000E+00  0.00000000000E+00 -0.14748560313E+04  0.14748560313E+04  0.50400001928E-02 0. -1.
    10030    2    1    2    0    0  0.00000000000E+00  0.00000000000E+00 -0.57311501034E+03  0.23765970523E+04  0.23064589166E+04 0.  0.
        4    1    3    3  502    0 -0.60118299206E+03  0.61967356007E+03 -0.10743459660E+04  0.13782732597E+04  0.12699999809E+01 0. -1.
       -4    1    3    3    0  502  0.60118299206E+03 -0.61967356007E+03  0.50123095564E+03  0.99832379256E+03  0.12699999809E+01 0.  1.
</event>
<event>
 5   0  0.1281470E-04  0.2090849E+04  0.7818609E-02  0.8565285E-01
       -2   -1    0    0    0  501  0.00000000000E+00  0.00000000000E+00  0.74088481031E+03  0.74088481031E+03  0.25500000920E-02 0. -1.
        2   -1    0    0  501    0  0.00000000000E+00  0.00000000000E+00 -0.14751444818E+04  0.14751444818E+04  0.25500000920E-02 0.  1.
    10030    2    1    2    0    0  0.00000000000E+00  0.00000000000E+00 -0.73425967153E+03  0.22160292921E+04  0.20908487651E+04 0.  0.
        3    1    3    3  502    0 -0.10153151531E+04 -0.20249787476E+03 -0.21338690868E+03  0.10570734281E+04  0.10100000352E+00 0. -1.
       -3    1    3    3    0  502  0.10153151531E+04  0.20249787476E+03 -0.52087276284E+03  0.11589558640E+04  0.10100000352E+00 0.  1.
</event>
<event>
 5   0  0.6263616E-05  0.2132772E+04  0.7818609E-02  0.8546943E-01
        1   -1    0    0  501    0  0.00000000000E+00  0.00000000000E+00  0.11085067007E+04  0.11085067007E+04  0.50400001928E-02 0.  1.
       -1   -1    0    0    0  501  0.00000000000E+00  0.00000000000E+00 -0.10258653862E+04  0.10258653862E+04  0.50400001928E-02 0. -1.
    10030    2    1    2    0    0  0.00000000000E+00  0.00000000000E+00  0.82641314475E+02  0.21343720869E+04  0.21327715814E+04 0.  0.
        4    1    3    3  502    0  0.11800586994E+03  0.22421471405E+03 -0.99530387667E+03  0.10270487053E+04  0.12699999809E+01 0. -1.
       -4    1    3    3    0  502 -0.11800586994E+03 -0.22421471405E+03  0.10779451911E+04  0.11073233816E+04  0.12699999809E+01 0.  1.
</event>
<event>
 5   0  0.5846187E-05  0.2031783E+04  0.7818609E-02  0.8591903E-01
        1   -1    0    0  501    0  0.00000000000E+00  0.00000000000E+00  0.16283120488E+04  0.16283120488E+04  0.50400001928E-02 0.  1.
       -1   -1    0    0    0  501  0.00000000000E+00  0.00000000000E+00 -0.63380714353E+03  0.63380714355E+03  0.50400001928E-02 0. -1.
    10030    2    1    2    0    0  0.00000000000E+00  0.00000000000E+00  0.99450490525E+03  0.22621191923E+04  0.20317832645E+04 0.  0.
        5    1    3    3  502    0  0.46761702237E+03  0.88872591937E+03  0.32652477226E+03  0.10560018732E+04  0.46999998093E+01 0. -1.
       -5    1    3    3    0  502 -0.46761702237E+03 -0.88872591937E+03  0.66798013299E+03  0.12061173191E+04  0.46999998093E+01 0.  1.
</event>
<event>
 5   0  0.6263616E-05  0.2112577E+04  0.7818609E-02  0.8555723E-01
       -1   -1    0    0    0  501  0.00000000000E+00  0.00000000000E+00  0.12389326049E+04  0.12389326049E+04  0.50400001928E-02 0. -1.
        1   -1    0    0  501    0  0.00000000000E+00  0.00000000000E+00 -0.90056999902E+03  0.90056999903E+03  0.50400001928E-02 0.  1.
    10030    2    1    2    0    0  0.00000000000E+00  0.00000000000E+00  0.33836260589E+03  0.21395026039E+04  0.21125771321E+04 0.  0.
        4    1    3    3  502    0  0.19588885624E+03 -0.78810259031E+03 -0.51490232447E+03  0.96156339027E+03  0.12699999809E+01 0.  1.
       -4    1    3    3    0  502 -0.19588885624E+03  0.78810259031E+03  0.85326493036E+03  0.11779392137E+04  0.12699999809E+01 0. -1.
</event>
<event>
 5   0  0.5846187E-05  0.2116300E+04  0.7818609E-02  0.8554097E-01
       -1   -1    0    0    0  501  0.00000000000E+00  0.00000000000E+00  0.10570845281E+04  0.10570845282E+04  0.50400001928E-02 0. -1.
        1   -1    0    0  501    0  0.00000000000E+00  0.00000000000E+00 -0.10592165016E+04  0.10592165016E+04  0.50400001928E-02 0.  1.
    10030    2    1    2    0    0  0.00000000000E+00  0.00000000000E+00 -0.21319734485E+01  0.21163010298E+04  0.21162999559E+04 0.  0.
        5    1    3    3  502    0 -0.39925980037E+03  0.97082568160E+03 -0.13428915130E+03  0.10582847246E+04  0.46999998093E+01 0. -1.
       -5    1    3    3    0  502  0.39925980037E+03 -0.97082568160E+03  0.13215717785E+03  0.10580163051E+04  0.46999998093E+01 0.  1.
</event>
<event>
 5   0  0.1349252E-04  0.2168008E+04  0.7818609E-02  0.8531863E-01
       -2   -1    0    0    0  501  0.00000000000E+00  0.00000000000E+00  0.63738390243E+03  0.63738390244E+03  0.25500000920E-02 0. -1.
        2   -1    0    0  501    0  0.00000000000E+00  0.00000000000E+00 -0.18435736164E+04  0.18435736164E+04  0.25500000920E-02 0.  1.
    10030    2    1    2    0    0  0.00000000000E+00  0.00000000000E+00 -0.12061897140E+04  0.24809575188E+04  0.21680075148E+04 0.  0.
        2    1    3    3  502    0 -0.32177972503E+03 -0.51399940138E+03 -0.16313080397E+04  0.17403745276E+04  0.25500000920E-02 0.  1.
       -2    1    3    3    0  502  0.32177972503E+03  0.51399940138E+03  0.42511832569E+03  0.74058299123E+03  0.25500000920E-02 0. -1.
</event>
<event>
 5   0  0.1252477E-04  0.2101475E+04  0.7818609E-02  0.8560594E-01
       -2   -1    0    0    0  501  0.00000000000E+00  0.00000000000E+00  0.74926270442E+03  0.74926270442E+03  0.25500000920E-02 0.  1.
        2   -1    0    0  501    0  0.00000000000E+00  0.00000000000E+00 -0.14735136305E+04  0.14735136305E+04  0.25500000920E-02 0. -1.
    10030    2    1    2    0    0  0.00000000000E+00  0.00000000000E+00 -0.72425092605E+03  0.22227763349E+04  0.21014745373E+04 0.  0.
        4    1    3    3  502    0 -0.66896196923E+03 -0.30803342288E+03  0.43056836372E+03  0.85310341379E+03  0.12699999809E+01 0.  1.
       -4    1    3    3    0  502  0.66896196923E+03  0.30803342288E+03 -0.11548192898E+04  0.13696729211E+04  0.12699999809E+01 0. -1.
</event>
<event>
 5   0  0.1281470E-04  0.1590169E+04  0.7818609E-02  0.8826611E-01
        2   -1    0    0  501    0  0.00000000000E+00  0.00000000000E+00  0.88300788178E+03  0.88300788179E+03  0.25500000920E-02 0. -1.
       -2   -1    0    0    0  501  0.00000000000E+00  0.00000000000E+00 -0.71591574483E+03  0.71591574483E+03  0.25500000920E-02 0.  1.
    10030    2    1    2    0    0  0.00000000000E+00  0.00000000000E+00  0.16709213696E+03  0.15989236266E+04  0.15901688532E+04 0.  0.
        3    1    3    3  502    0  0.61309168508E+03 -0.45710685706E+03  0.30230105894E+03  0.82232234162E+03  0.10100000352E+00 0. -1.
       -3    1    3    3    0  502 -0.61309168508E+03  0.45710685706E+03 -0.13520892198E+03  0.77660128500E+03  0.10100000352E+00 0.  1.
</event>
<event>
 5   0  0.1325673E-04  0.2096166E+04  0.7818609E-02  0.8562934E-01
       -2   -1    0    0    0  501  0.00000000000E+00  0.00000000000E+00  0.10164604783E+04  0.10164604783E+04  0.25500000920E-02 0.  1.
        2   -1    0    0  501    0  0.00000000000E+00  0.00000000000E+00 -0.10806893415E+04  0.10806893415E+04  0.25500000920E-02 0. -1.
    10030    2    1    2    0    0  0.00000000000E+00  0.00000000000E+00 -0.64228863151E+02  0.20971498198E+04  0.20961660287E+04 0.  0.
        5    1    3    3  502    0 -0.10078208293E+04 -0.18341483542E+03  0.18960205277E+03  0.10417844567E+04  0.46999998093E+01 0. -1.
       -5    1    3    3    0  502  0.10078208293E+04  0.18341483542E+03 -0.25383091593E+03  0.10553653631E+04  0.46999998093E+01 0.  1.
</event>
<event>
 5   0  0.6263616E-05  0.2130523E+04  0.7818609E-02  0.8547916E-01
       -1   -1    0    0    0  501  0.00000000000E+00  0.00000000000E+00  0.12833910109E+04  0.12833910109E+04  0.50400001928E-02 0. -1.
        1   -1    0    0  501    0  0.00000000000E+00  0.00000000000E+00 -0.88420581627E+03  0.88420581628E+03  0.50400001928E-02 0.  1.
    10030    2    1    2    0    0  0.00000000000E+00  0.00000000000E+00  0.39918519465E+03  0.21675968272E+04  0.21305227494E+04 0.  0.
        4    1    3    3  502    0  0.46652144464E+01 -0.15902743952E+03 -0.87204972444E+03  0.88644448531E+03  0.12699999809E+01 0.  1.
       -4    1    3    3    0  502 -0.46652144464E+01  0.15902743952E+03  0.12712349191E+04  0.12811523419E+04  0.12699999809E+01 0. -1.
</event>
<event>
 5   0  0.6052292E-05  0.2105520E+04  0.7818609E-02  0.8558816E-01
        1   -1    0    0  501    0  0.00000000000E+00  0.00000000000E+00  0.99329207066E+03  0.99329207067E+03  0.50400001928E-02 0. -1.
       -1   -1    0    0    0  501  0.00000000000E+00  0.00000000000E+00 -0.11157877651E+04  0.11157877651E+04  0.50400001928E-02 0.  1.
    10030    2    1    2    0    0  0.00000000000E+00  0.00000000000E+00 -0.12249569441E+03  0.21090798358E+04  0.21055195460E+04 0.  0.
        1    1    3    3  502    0 -0.45768978687E+03 -0.55551336349E+03 -0.83080996946E+03  0.10992362091E+04  0.50400001928E-02 0.  1.
       -1    1    3    3    0  502  0.45768978687E+03  0.55551336349E+03  0.70831427505E+03  0.10098436267E+04  0.50400001928E-02 0. -1.
</event>
<event>
 5   0  0.1281470E-04  0.2374659E+04  0.7818609E-02  0.8449052E-01
       -2   -1    0    0    0  501  0.00000000000E+00  0.00000000000E+00  0.64798096503E+03  0.64798096503E+03  0.25500000920E-02 0.  1.
        2   -1    0    0  501    0  0.00000000000E+00  0.00000000000E+00 -0.21756056925E+04  0.21756056925E+04  0.25500000920E-02 0. -1.
    10030    2    1    2    0    0  0.00000000000E+00  0.00000000000E+00 -0.15276247274E+04  0.28235866575E+04  0.23746587764E+04 0.  0.
        3    1    3    3  502    0  0.33175574541E+03  0.95772796022E+03 -0.28477485751E+02  0.10139604025E+04  0.10100000352E+00 0.  1.
       -3    1    3    3    0  502 -0.33175574541E+03 -0.95772796022E+03 -0.14991472417E+04  0.18096262550E+04  0.10100000352E+00 0. -1.
</event>
<event>
 5   0  0.1235817E-04  0.2061659E+04  0.7818609E-02  0.8578323E-01
        2   -1    0    0  501    0  0.00000000000E+00  0.00000000000E+00  0.17308178415E+04  0.17308178415E+04  0.25500000920E-02 0. -1.
       -2   -1    0    0    0  501  0.00000000000E+00  0.00000000000E+00 -0.61393506094E+03  0.61393506095E+03  0.25500000920E-02 0.  1.
    10030    2    1    2    0    0  0.00000000000E+00  0.00000000000E+00  0.11168827806E+04  0.23447529025E+04  0.20616592900E+04 0.  0.
        1    1    3    3  502    0 -0.26228400897E+03 -0.67812170374E+03 -0.27262883913E+03  0.77651041873E+03  0.50400001928E-02 0.  1.
       -1    1    3    3    0  502  0.26228400897E+03  0.67812170374E+03  0.13895116197E+04  0.15682424837E+04  0.50400001928E-02 0. -1.
</event>
<event>
 5   0  0.4615125E-05  0.2097940E+04  0.7818609E-02  0.8562152E-01
        3   -1    0    0  501    0  0.00000000000E+00  0.00000000000E+00  0.50575412876E+03  0.50575413885E+03  0.10100000352E+00 0.  1.
       -3   -1    0    0    0  501  0.00000000000E+00  0.00000000000E+00 -0.21756374757E+04  0.21756374780E+04  0.10100000352E+00 0. -1.
    10030    2    1    2    0    0  0.00000000000E+00  0.00000000000E+00 -0.16698833469E+04  0.26813916169E+04  0.20979396108E+04 0.  0.
        5    1    3    3  502    0 -0.64851633973E+03  0.73030185916E+03 -0.13239764591E+04  0.16452507416E+04  0.46999998093E+01 0.  1.
       -5    1    3    3    0  502  0.64851633973E+03 -0.73030185916E+03 -0.34590688778E+03  0.10361408753E+04  0.46999998093E+01 0. -1.
</event>
<event>
 5   0  0.1281470E-04  0.1952393E+04  0.7818609E-02  0.8629208E-01
       -2   -1    0    0    0  501  0.00000000000E+00  0.00000000000E+00  0.68657168651E+03  0.68657168652E+03  0.25500000920E-02 0.  1.
        2   -1    0    0  501    0  0.00000000000E+00  0.00000000000E+00 -0.13879969709E+04  0.13879969709E+04  0.25500000920E-02 0. -1.
    10030    2    1    2    0    0  0.00000000000E+00  0.00000000000E+00 -0.70142528440E+03  0.20745686574E+04  0.19523928101E+04 0.  0.
        3    1    3    3  502    0 -0.22938913991E+02  0.64978941482E+03  0.42300645080E+03  0.77568482324E+03  0.10100000352E+00 0.  1.
       -3    1    3    3    0  502  0.22938913991E+02 -0.64978941482E+03 -0.11244317352E+04  0.12988838342E+04  0.10100000352E+00 0. -1.
</event>
<event>
 5   0  0.6221148E-05  0.2088422E+04  0.7818609E-02  0.8566361E-01
        1   -1    0    0  501    0  0.00000000000E+00  0.00000000000E+00  0.98672398910E+03  0.98672398911E+03  0.50400001928E-02 0.  1.
       -1   -1    0    0    0  501  0.00000000000E+00  0.00000000000E+00 -0.11050477242E+04  0.11050477242E+04  0.50400001928E-02 0. -1.
    10030    2    1    2    0    0  0.00000000000E+00  0.00000000000E+00 -0.11832373510E+03  0.20917717133E+04  0.20884224655E+04 0.  0.
        3    1    3    3  502    0 -0.73364146188E+03 -0.39058006740E+03  0.57398677930E+03  0.10100709958E+04  0.10100000352E+00 0.  1.
       -3    1    3    3    0  502  0.73364146188E+03  0.39058006740E+03 -0.69231051440E+03  0.10817007175E+04  0.10100000352E+00 0. -1.
</event>
<event>
 5   0  0.1349252E-04  0.2071160E+04  0.7818609E-02  0.8574055E-01
        2   -1    0    0  501    0  0.00000000000E+00  0.00000000000E+00  0.13922585176E+04  0.13922585176E+04  0.25500000920E-02 0. -1.
       -2   -1    0    0    0  501  0.00000000000E+00  0.00000000000E+00 -0.77027786450E+03  0.77027786451E+03  0.25500000920E-02 0.  1.
    10030    2    1    2    0    0  0.00000000000E+00  0.00000000000E+00  0.62198065314E+03  0.21625363822E+04  0.20711599821E+04 0.  0.
        2    1    3    3  502    0 -0.39537887184E+03  0.94842675929E+03  0.44546754707E+03  0.11199460280E+04  0.25500000920E-02 0. -1.
       -2    1    3    3    0  502  0.39537887184E+03 -0.94842675929E+03  0.17651310607E+03  0.10425903542E+04  0.25500000920E-02 0.  1.
</event>
<event>
 5   0  0.6052292E-05  0.2091550E+04  0.7818609E-02  0.8564975E-01
        1   -1    0    0  501    0  0.00000000000E+00  0.00000000000E+00  0.16498076059E+04  0.16498076059E+04  0.50400001928E-02 0. -1.
       -1   -1    0    0    0  501  0.00000000000E+00  0.00000000000E+00 -0.66289267048E+03  0.66289267050E+03  0.50400001928E-02 0.  1.
    10030    2    1    2    0    0  0.00000000000E+00  0.00000000000E+00  0.98691493543E+03  0.23127002764E+04  0.20915500182E+04 0.  0.
        1    1    3    3  502    0  0.16367951266E+03 -0.78347555455E+03 -0.25077737285E+03  0.83875754434E+03  0.50400001928E-02 0.  1.
       -1    1    3    3    0  502 -0.16367951266E+03  0.78347555455E+03  0.12376923083E+04  0.14739427321E+04  0.50400001928E-02 0. -1.
</event>
<event>
 5   0  0.1281470E-04  0.2115353E+04  0.7818609E-02  0.8554510E-01
        2   -1    0    0  501    0  0.00000000000E+00  0.00000000000E+00  0.20002850207E+04  0.20002850207E+04  0.25500000920E-02 0. -1.
       -2   -1    0    0    0  501  0.00000000000E+00  0.00000000000E+00 -0.55926010777E+03  0.55926010778E+03  0.25500000920E-02 0.  1.
    10030    2    1    2    0    0  0.00000000000E+00  0.00000000000E+00  0.14410249130E+04  0.25595451285E+04  0.21153530356E+04 0.  0.
        3    1    3    3  502    0 -0.91707659141E+03 -0.35821688086E+03  0.25293385693E+03  0.10165256290E+04  0.10100000352E+00 0.  1.
       -3    1    3    3    0  502  0.91707659141E+03  0.35821688086E+03  0.11880910560E+04  0.15430194995E+04  0.10100000352E+00 0. -1.
</event>
<event>
 5   0  0.1349252E-04  0.2097067E+04  0.7818609E-02  0.8562537E-01
        2   -1    0    0  501    0  0.00000000000E+00  0.00000000000E+00  0.16871253363E+04  0.16871253363E+04  0.25500000920E-02 0.  1.
       -2   -1    0    0    0  501  0.00000000000E+00  0.00000000000E+00 -0.65165424990E+03  0.65165424991E+03  0.25500000920E-02 0. -1.
    10030    2    1    2    0    0  0.00000000000E+00  0.00000000000E+00  0.10354710864E+04  0.23387795862E+04  0.20970668998E+04 0.  0.
        2    1    3    3  502    0  0.64614789258E+03 -0.67797660094E+03  0.10435234821E+04  0.14021771030E+04  0.25500000920E-02 0.  1.
       -2    1    3    3    0  502 -0.64614789258E+03  0.67797660094E+03 -0.80523956744E+01  0.93660248322E+03  0.25500000920E-02 0. -1.
</event>
<event>
 5   0  0.6052292E-05  0.2111804E+04  0.7818609E-02  0.8556061E-01
       -1   -1    0    0    0  501  0.00000000000E+00  0.00000000000E+00  0.53124459555E+03  0.53124459558E+03  0.50400001928E-02 0.  1.
        1   -1    0    0  501    0  0.00000000000E+00  0.00000000000E+00 -0.20987107917E+04  0.20987107917E+04  0.50400001928E-02 0. -1.
    10030    2    1    2    0    0  0.00000000000E+00  0.00000000000E+00 -0.15674661961E+04  0.26299553873E+04  0.21118037463E+04 0.  0.
        1    1    3    3  502    0 -0.10466002760E+04 -0.11145521412E+03 -0.67854358817E+03  0.12522842344E+04  0.50400001928E-02 0.  1.
       -1    1    3    3    0  502  0.10466002760E+04  0.11145521412E+03 -0.88892260795E+03  0.13776711529E+04  0.50400001928E-02 0. -1.
</event>
<event>
 5   0  0.1325673E-04  0.2000390E+04  0.7818609E-02  0.8606438E-01
       -2   -1    0    0    0  501  0.00000000000E+00  0.00000000000E+00  0.76079903477E+03  0.76079903477E+03  0.25500000920E-02 0. -1.
        2   -1    0    0  501    0  0.00000000000E+00  0.00000000000E+00 -0.13149199012E+04  0.13149199012E+04  0.25500000920E-02 0.  1.
    10030    2    1    2    0    0  0.00000000000E+00  0.00000000000E+00 -0.55412086642E+03  0.20757189360E+04  0.20003897537E+04 0.  0.
        5    1    3    3  502    0 -0.76023006753E+03 -0.12515520469E+03  0.38472911902E+03  0.86119229319E+03  0.46999998093E+01 0. -1.
       -5    1    3    3    0  502  0.76023006753E+03  0.12515520469E+03 -0.93884998544E+03  0.12145266428E+04  0.46999998093E+01 0.  1.
</event>
<event>
 5   0  0.1349252E-04  0.2124402E+04  0.7818609E-02  0.8550570E-01
        2   -1    0    0  501    0  0.00000000000E+00  0.00000000000E+00  0.19100987326E+04  0.19100987326E+04  0.25500000920E-02 0.  1.
       -2   -1    0    0    0  501  0.00000000000E+00  0.00000000000E+00 -0.59068717648E+03  0.59068717648E+03  0.25500000920E-02 0. -1.
    10030    2    1    2    0    0  0.00000000000E+00  0.00000000000E+00  0.13194115561E+04  0.25007859091E+04  0.21244018708E+04 0.  0.
        2    1    3    3  502    0 -0.63375421044E+03 -0.73758681957E+03  0.11627206713E+04  0.15157829908E+04  0.25500000920E-02 0. -1.
       -2    1    3    3    0  502  0.63375421044E+03  0.73758681957E+03  0.15669088480E+03  0.98500291829E+03  0.25500000920E-02 0.  1.
</event>
<event>
 5   0  0.1325673E-04  0.2088257E+04  0.7818609E-02  0.8566434E-01
        2   -1    0    0  501    0  0.00000000000E+00  0.00000000000E+00  0.12410943357E+04  0.12410943357E+04  0.25500000920E-02 0. -1.
       -2   -1    0    0    0  501  0.00000000000E+00  0.00000000000E+00 -0.87842199342E+03  0.87842199343E+03  0.25500000920E-02 0.  1.
    10030    2    1    2    0    0  0.00000000000E+00  0.00000000000E+00  0.36267234229E+03  0.21195163291E+04  0.20882572259E+04 0.  0.
        5    1    3    3  502    0  0.29419589163E+03  0.60091482980E+02  0.11963154443E+04  0.12334321794E+04  0.46999998093E+01 0. -1.
       -5    1    3    3    0  502 -0.29419589163E+03 -0.60091482980E+02 -0.83364310197E+03  0.88608414975E+03  0.46999998093E+01 0.  1.
</event>
<event>
 5   0  0.6052292E-05  0.2107401E+04  0.7818609E-02  0.8557990E-01
       -1   -1    0    0    0  501  0.00000000000E+00  0.00000000000E+00  0.75668103573E+03  0.75668103574E+03  0.50400001928E-02 0.  1.
        1   -1    0    0  501    0  0.00000000000E+00  0.00000000000E+00 -0.14673089415E+04  0.14673089415E+04  0.50400001928E-02 0. -1.
    10030    2    1    2    0    0  0.00000000000E+00  0.00000000000E+00 -0.71062790576E+03  0.22239899772E+04  0.21074011005E+04 0.  0.
        1    1    3    3  502    0  0.97774043308E+03  0.80370590894E+02 -0.76109794624E+03  0.12416544890E+04  0.50400001928E-02 0. -1.
       -1    1    3    3    0  502 -0.97774043308E+03 -0.80370590894E+02  0.50470040475E+02  0.98233548820E+03  0.50400001928E-02 0.  1.
</event>
<event>
 5   0  0.1252477E-04  0.2093836E+04  0.7818609E-02  0.8563963E-01
       -2   -1    0    0    0  501  0.00000000000E+00  0.00000000000E+00  0.42992909946E+03  0.42992909947E+03  0.25500000920E-02 0. -1.
        2   -1    0    0  501    0  0.00000000000E+00  0.00000000000E+00 -0.25493453156E+04  0.25493453156E+04  0.25500000920E-02 0.  1.
    10030    2    1    2    0    0  0.00000000000E+00  0.00000000000E+00 -0.21194162162E+04  0.29792744151E+04  0.20938364175E+04 0.  0.
        4    1    3    3  502    0  0.88532987665E+03  0.28482346176E+03 -0.37568575531E+03  0.10030327983E+04  0.12699999809E+01 0. -1.
       -4    1    3    3    0  502 -0.88532987665E+03 -0.28482346176E+03 -0.17437304609E+04  0.19762416168E+04  0.12699999809E+01 0.  1.
</event>
<event>
 5   0  0.1281470E-04  0.1854563E+04  0.7818609E-02  0.8677810E-01
       -2   -1    0    0    0  501  0.00000000000E+00  0.00000000000E+00  0.34520179450E+03  0.34520179451E+03  0.25500000920E-02 0. -1.
        2   -1    0    0  501    0  0.00000000000E+00  0.00000000000E+00 -0.24908655522E+04  0.24908655522E+04  0.25500000920E-02 0.  1.
    10030    2    1    2    0    0  0.00000000000E+00  0.00000000000E+00 -0.21456637576E+04  0.28360673467E+04  0.18545633001E+04 0.  0.
        3    1    3    3  502    0  0.40902951285E+03  0.73730310292E+03 -0.48267656286E+03  0.97154396838E+03  0.10100000352E+00 0. -1.
       -3    1    3    3    0  502 -0.40902951285E+03 -0.73730310292E+03 -0.16629871948E+04  0.18645233783E+04  0.10100000352E+00 0.  1.
</event>
<event>
 5   0  0.1325673E-04  0.1804969E+04  0.7818609E-02  0.8703662E-01
        2   -1    0    0  501    0  0.00000000000E+00  0.00000000000E+00  0.12458471588E+04  0.12458471588E+04  0.25500000920E-02 0.  1.
       -2   -1    0    0    0  501  0.00000000000E+00  0.00000000000E+00 -0.65375431220E+03  0.65375431220E+03  0.25500000920E-02 0. -1.
    10030    2    1    2    0    0  0.00000000000E+00  0.00000000000E+00  0.59209284665E+03  0.18996014710E+04  0.18049686451E+04 0.  0.
        5    1    3    3  502    0 -0.35554401153E+03 -0.42182752817E+03  0.10477091055E+04  0.11840888765E+04  0.46999998093E+01 0.  1.
       -5    1    3    3    0  502  0.35554401153E+03  0.42182752817E+03 -0.45561625886E+03  0.71551259457E+03  0.46999998093E+01 0. -1.
</event>
<event>
 5   0  0.1281470E-04  0.2119252E+04  0.7818609E-02  0.8552810E-01
        2   -1    0    0  501    0  0.00000000000E+00  0.00000000000E+00  0.18301233458E+04  0.18301233458E+04  0.25500000920E-02 0. -1.
       -2   -1    0    0    0  501  0.00000000000E+00  0.00000000000E+00 -0.61351463665E+03  0.61351463665E+03  0.25500000920E-02 0.  1.
    10030    2    1    2    0    0  0.00000000000E+00  0.00000000000E+00  0.12166087091E+04  0.24436379824E+04  0.21192521884E+04 0.  0.
        3    1    3    3  502    0  0.46258067478E+03  0.95315730185E+03  0.62885762740E+03  0.12320518043E+04  0.10100000352E+00 0.  1.
       -3    1    3    3    0  502 -0.46258067478E+03 -0.95315730185E+03  0.58775108173E+03  0.12115861781E+04  0.10100000352E+00 0. -1.
</event>
<event>
 5   0  0.6221148E-05  0.2060244E+04  0.7818609E-02  0.8578961E-01
       -1   -1    0    0    0  501  0.00000000000E+00  0.00000000000E+00  0.76590065386E+03  0.76590065388E+03  0.50400001928E-02 0.  1.
        1   -1    0    0  501    0  0.00000000000E+00  0.00000000000E+00 -0.13854946964E+04  0.13854946964E+04  0.50400001928E-02 0. -1.
    10030    2    1    2    0    0  0.00000000000E+00  0.00000000000E+00 -0.61959404252E+03  0.21513953503E+04  0.20602439602E+04 0.  0.
        3    1    3    3  502    0 -0.54630328879E+03  0.60829650754E+03 -0.96416285099E+03  0.12641526561E+04  0.10100000352E+00 0. -1.
       -3    1    3    3    0  502  0.54630328879E+03 -0.60829650754E+03  0.34456880847E+03  0.88724269419E+03  0.10100000352E+00 0.  1.
</event>
<event>
 5   0  0.6221148E-05  0.2153682E+04  0.7818609E-02  0.8537958E-01
       -1   -1    0    0    0  501  0.00000000000E+00  0.00000000000E+00  0.82741210765E+03  0.82741210767E+03  0.50400001928E-02 0.  1.
        1   -1    0    0  501    0  0.00000000000E+00  0.00000000000E+00 -0.14014620416E+04  0.14014620416E+04  0.50400001928E-02 0. -1.
    10030    2    1    2    0    0  0.00000000000E+00  0.00000000000E+00 -0.57404993396E+03  0.22288741493E+04  0.21536821137E+04 0.  0.
        3    1    3    3  502    0 -0.94039277155E+03 -0.10524344439E+03  0.24489618349E+03  0.97743997169E+03  0.10100000352E+00 0.  1.
       -3    1    3    3    0  502  0.94039277155E+03  0.10524344439E+03 -0.81894611746E+03  0.12514341776E+04  0.10100000352E+00 0. -1.
</event>
<event>
 5   0  0.1252477E-04  0.2092518E+04  0.7818609E-02  0.8564546E-01
        2   -1    0    0  501    0  0.00000000000E+00  0.00000000000E+00  0.15098528073E+04  0.15098528073E+04  0.25500000920E-02 0.  1.
       -2   -1    0    0    0  501  0.00000000000E+00  0.00000000000E+00 -0.72500980967E+03  0.72500980967E+03  0.25500000920E-02 0. -1.
    10030    2    1    2    0    0  0.00000000000E+00  0.00000000000E+00  0.78484299768E+03  0.22348626170E+04  0.20925181925E+04 0.  0.
        4    1    3    3  502    0  0.74323086188E+03  0.64403633675E+03  0.11087713713E+02  0.98351383691E+03  0.12699999809E+01 0. -1.
       -4    1    3    3    0  502 -0.74323086188E+03 -0.64403633675E+03  0.77375528396E+03  0.12513487801E+04  0.12699999809E+01 0.  1.
</event>
<event>
 5   0  0.5846187E-05  0.2090040E+04  0.7818609E-02  0.8565643E-01
        1   -1    0    0  501    0  0.00000000000E+00  0.00000000000E+00  0.15112698301E+04  0.15112698302E+04  0.50400001928E-02 0.  1.
       -1   -1    0    0    0  501  0.00000000000E+00  0.00000000000E+00 -0.72261552150E+03  0.72261552151E+03  0.50400001928E-02 0. -1.
    10030    2    1    2    0    0  0.00000000000E+00  0.00000000000E+00  0.78865430864E+03  0.22338853517E+04  0.20900402259E+04 0.  0.
        5    1    3    3  502    0 -0.97142789753E+03  0.34721996262E+03  0.21608304201E+03  0.10540151012E+04  0.46999998093E+01 0. -1.
       -5    1    3    3    0  502  0.97142789753E+03 -0.34721996262E+03  0.57257126663E+03  0.11798702505E+04  0.46999998093E+01 0.  1.
</event>
<event>
 5   0  0.4615125E-05  0.2119653E+04  0.7818609E-02  0.8552635E-01
        3   -1    0    0  501    0  0.00000000000E+00  0.00000000000E+00  0.11111751232E+04  0.11111751278E+04  0.10100000352E+00 0. -1.
       -3   -1    0    0    0  501  0.00000000000E+00  0.00000000000E+00 -0.10108508870E+04  0.10108508920E+04  0.10100000352E+00 0.  1.
    10030    2    1    2    0    0  0.00000000000E+00  0.00000000000E+00  0.10032423621E+03  0.21220260199E+04  0.21196531501E+04 0.  0.
        3    1    3    3  502    0  0.10105248354E+03  0.59524862861E+03 -0.82184673834E+03  0.10197865491E+04  0.10100000352E+00 0.  1.
       -3    1    3    3    0  502 -0.10105248354E+03 -0.59524862861E+03  0.92217097455E+03  0.11022394707E+04  0.10100000352E+00 0. -1.
</event>
<event>
 5   0  0.6221148E-05  0.2096078E+04  0.7818609E-02  0.8562973E-01
        1   -1    0    0  501    0  0.00000000000E+00  0.00000000000E+00  0.10568521715E+04  0.10568521715E+04  0.50400001928E-02 0.  1.
       -1   -1    0    0    0  501  0.00000000000E+00  0.00000000000E+00 -0.10392990071E+04  0.10392990071E+04  0.50400001928E-02 0. -1.
    10030    2    1    2    0    0  0.00000000000E+00  0.00000000000E+00  0.17553164407E+02  0.20961511786E+04  0.20960776822E+04 0.  0.
        3    1    3    3  502    0  0.10244013424E+04 -0.16717051858E+03  0.15383789781E+03  0.10492903324E+04  0.10100000352E+00 0.  1.
       -3    1    3    3    0  502 -0.10244013424E+04  0.16717051858E+03 -0.13628473340E+03  0.10468608462E+04  0.10100000352E+00 0. -1.
</event>
<event>
 5   0  0.4615125E-05  0.2102375E+04  0.7818609E-02  0.8560198E-01
        3   -1    0    0  501    0  0.00000000000E+00  0.00000000000E+00  0.11902462618E+04  0.11902462661E+04  0.10100000352E+00 0. -1.
       -3   -1    0    0    0  501  0.00000000000E+00  0.00000000000E+00 -0.92837521237E+03  0.92837521786E+03  0.10100000352E+00 0.  1.
    10030    2    1    2    0    0  0.00000000000E+00  0.00000000000E+00  0.26187104945E+03  0.21186214840E+04  0.21023749774E+04 0.  0.
        2    1    3    3  502    0 -0.10149720509E+04 -0.27035610912E+03  0.88967004791E+02  0.10541232460E+04  0.25500000920E-02 0.  1.
       -2    1    3    3    0  502  0.10149720509E+04  0.27035610912E+03  0.17290404466E+03  0.10644982379E+04  0.25500000920E-02 0. -1.
</event>
<event>
 5   0  0.6221148E-05  0.2119551E+04  0.7818609E-02  0.8552680E-01
        1   -1    0    0  501    0  0.00000000000E+00  0.00000000000E+00  0.51024997845E+03  0.51024997847E+03  0.50400001928E-02 0.  1.
       -1   -1    0    0    0  501  0.00000000000E+00  0.00000000000E+00 -0.22011243889E+04  0.22011243890E+04  0.50400001928E-02 0. -1.
    10030    2    1    2    0    0  0.00000000000E+00  0.00000000000E+00 -0.16908744105E+04  0.27113743674E+04  0.21195505864E+04 0.  0.
        3    1    3    3  502    0  0.95656424748E+03 -0.24605220912E+03 -0.13368427454E+04  0.16621387984E+04  0.10100000352E+00 0. -1.
       -3    1    3    3    0  502 -0.95656424748E+03  0.24605220912E+03 -0.35403166514E+03  0.10492355690E+04  0.10100000352E+00 0.  1.
</event>
<event>
 5   0  0.1235817E-04  0.2102580E+04  0.7818609E-02  0.8560108E-01
        2   -1    0    0  501    0  0.00000000000E+00  0.00000000000E+00  0.14322674400E+04  0.14322674400E+04  0.25500000920E-02 0. -1.
       -2   -1    0    0    0  501  0.00000000000E+00  0.00000000000E+00 -0.77165069963E+03  0.77165069963E+03  0.25500000920E-02 0.  1.
    10030    2    1    2    0    0  0.00000000000E+00  0.00000000000E+00  0.66061674034E+03  0.22039181396E+04  0.21025795320E+04 0.  0.
        1    1    3    3  502    0 -0.14257344622E+03 -0.61451615716E+03  0.12118247540E+04  0.13661905172E+04  0.50400001928E-02 0. -1.
       -1    1    3    3    0  502  0.14257344622E+03  0.61451615716E+03 -0.55120801363E+03  0.83772762238E+03  0.50400001928E-02 0.  1.
</event>
<event>
 5   0  0.5933905E-05  0.1986526E+04  0.7818609E-02  0.8612946E-01
       -1   -1    0    0    0  501  0.00000000000E+00  0.00000000000E+00  0.89493575715E+03  0.89493575716E+03  0.50400001928E-02 0.  1.
        1   -1    0    0  501    0  0.00000000000E+00  0.00000000000E+00 -0.11023940048E+04  0.11023940048E+04  0.50400001928E-02 0. -1.
    10030    2    1    2    0    0  0.00000000000E+00  0.00000000000E+00 -0.20745824766E+03  0.19973297620E+04  0.19865264291E+04 0.  0.
        2    1    3    3  502    0  0.77307296244E+03  0.59874298167E+03  0.71681251702E+02  0.98044539124E+03  0.25500000920E-02 0.  1.
       -2    1    3    3    0  502 -0.77307296244E+03 -0.59874298167E+03 -0.27913949937E+03  0.10168843707E+04  0.25500000920E-02 0. -1.
</event>
<event>
 5   0  0.6221148E-05  0.2103207E+04  0.7818609E-02  0.8559832E-01
       -1   -1    0    0    0  501  0.00000000000E+00  0.00000000000E+00  0.53749870568E+03  0.53749870570E+03  0.50400001928E-02 0.  1.
        1   -1    0    0  501    0  0.00000000000E+00  0.00000000000E+00 -0.20574363914E+04  0.20574363914E+04  0.50400001928E-02 0. -1.
    10030    2    1    2    0    0  0.00000000000E+00  0.00000000000E+00 -0.15199376858E+04  0.25949350971E+04  0.21032065019E+04 0.  0.
        3    1    3    3  502    0 -0.31366434688E+03  0.98374837312E+03 -0.10058734780E+04  0.14415018723E+04  0.10100000352E+00 0. -1.
       -3    1    3    3    0  502  0.31366434688E+03 -0.98374837312E+03 -0.51406420780E+03  0.11534332248E+04  0.10100000352E+00 0.  1.
</event>
<event>
 5   0  0.5933905E-05  0.2096400E+04  0.7818609E-02  0.8562831E-01
        1   -1    0    0  501    0  0.00000000000E+00  0.00000000000E+00  0.10675741643E+04  0.10675741644E+04  0.50400001928E-02 0.  1.
       -1   -1    0    0    0  501  0.00000000000E+00  0.00000000000E+00 -0.10291774146E+04  0.10291774146E+04  0.50400001928E-02 0. -1.
    10030    2    1    2    0    0  0.00000000000E+00  0.00000000000E+00  0.38396749736E+02  0.20967515790E+04  0.20963999794E+04 0.  0.
        2    1    3    3  502    0  0.45570570800E+03  0.18341339726E+03 -0.90692401455E+03  0.10314161792E+04  0.25500000920E-02 0. -1.
       -2    1    3    3    0  502 -0.45570570800E+03 -0.18341339726E+03  0.94532076428E+03  0.10653353998E+04  0.25500000920E-02 0.  1.
</event>
<event>
 5   0  0.6221148E-05  0.2110616E+04  0.7818609E-02  0.8556581E-01
       -1   -1    0    0    0  501  0.00000000000E+00  0.00000000000E+00  0.12822093312E+04  0.12822093312E+04  0.50400001928E-02 0.  1.
        1   -1    0    0  501    0  0.00000000000E+00  0.00000000000E+00 -0.86855940730E+03  0.86855940732E+03  0.50400001928E-02 0. -1.
    10030    2    1    2    0    0  0.00000000000E+00  0.00000000000E+00  0.41364992392E+03  0.21507687386E+04  0.21106160018E+04 0.  0.
        3    1    3    3  502    0  0.78410419564E+03 -0.22714319162E+03 -0.47467411186E+03  0.94431400593E+03  0.10100000352E+00 0. -1.
       -3    1    3    3    0  502 -0.78410419564E+03  0.22714319162E+03  0.88832403578E+03  0.12064547326E+04  0.10100000352E+00 0.  1.
</event>
<event>
 5   0  0.1325673E-04  0.2035777E+04  0.7818609E-02  0.8590074E-01
        2   -1    0    0  501    0  0.00000000000E+00  0.00000000000E+00  0.28496936016E+04  0.28496936016E+04  0.25500000920E-02 0.  1.
       -2   -1    0    0    0  501  0.00000000000E+00  0.00000000000E+00 -0.36358197569E+03  0.36358197570E+03  0.25500000920E-02 0. -1.
    10030    2    1    2    0    0  0.00000000000E+00  0.00000000000E+00  0.24861116259E+04  0.32132755773E+04  0.20357772273E+04 0.  0.
        5    1    3    3  502    0 -0.71462651998E+03  0.71549349459E+03  0.14261309999E+04  0.17482830786E+04  0.46999998093E+01 0. -1.
       -5    1    3    3    0  502  0.71462651998E+03 -0.71549349459E+03  0.10599806260E+04  0.14649924987E+04  0.46999998093E+01 0.  1.
</event>
<event>
 5   0  0.1235817E-04  0.2112030E+04  0.7818609E-02  0.8555963E-01
        2   -1    0    0  501    0  0.00000000000E+00  0.00000000000E+00  0.88857346559E+03  0.88857346559E+03  0.25500000920E-02 0.  1.
       -2   -1    0    0    0  501  0.00000000000E+00  0.00000000000E+00 -0.12550087335E+04  0.12550087335E+04  0.25500000920E-02 0. -1.
    10030    2    1    2    0    0  0.00000000000E+00  0.00000000000E+00 -0.36643526788E+03  0.21435821991E+04  0.21120297911E+04 0.  0.
        1    1    3    3  502    0  0.25365486936E+02 -0.61935966618E+03 -0.10509270861E+04  0.12201219383E+04  0.50400001928E-02 0. -1.
       -1    1    3    3    0  502 -0.25365486936E+02  0.61935966618E+03  0.68449181820E+03  0.92346026077E+03  0.50400001928E-02 0.  1.
</event>
<event>
 5   0  0.6052292E-05  0.2085933E+04  0.7818609E-02  0.8567466E-01
       -1   -1    0    0    0  501  0.00000000000E+00  0.00000000000E+00  0.92645278740E+03  0.92645278742E+03  0.50400001928E-02 0.  1.
        1   -1    0    0  501    0  0.00000000000E+00  0.00000000000E+00 -0.11741328298E+04  0.11741328298E+04  0.50400001928E-02 0. -1.
    10030    2    1    2    0    0  0.00000000000E+00  0.00000000000E+00 -0.24768004241E+03  0.21005856172E+04  0.20859325329E+04 0.  0.
        1    1    3    3  502    0 -0.16095584782E+03 -0.72016402363E+03 -0.86606275480E+03  0.11378082884E+04  0.50400001928E-02 0. -1.
       -1    1    3    3    0  502  0.16095584782E+03  0.72016402363E+03  0.61838271240E+03  0.96277732883E+03  0.50400001928E-02 0.  1.
</event>
<event>
 5   0  0.1349252E-04  0.2048309E+04  0.7818609E-02  0.8584362E-01
        2   -1    0    0  501    0  0.00000000000E+00  0.00000000000E+00  0.14686397412E+04  0.14686397412E+04  0.25500000920E-02 0. -1.
       -2   -1    0    0    0  501  0.00000000000E+00  0.00000000000E+00 -0.71419285459E+03  0.71419285459E+03  0.25500000920E-02 0.  1.
    10030    2    1    2    0    0  0.00000000000E+00  0.00000000000E+00  0.75444688664E+03  0.21828325958E+04  0.20483085795E+04 0.  0.
        2    1    3    3  502    0 -0.80477961194E+03 -0.47161832385E+03 -0.73392241261E+02  0.93567114322E+03  0.25500000920E-02 0.  1.
       -2    1    3    3    0  502  0.80477961194E+03  0.47161832385E+03  0.82783912790E+03  0.12471614526E+04  0.25500000920E-02 0. -1.
</event>
<event>
 5   0  0.1325673E-04  0.1988596E+04  0.7818609E-02  0.8611971E-01
       -2   -1    0    0    0  501  0.00000000000E+00  0.00000000000E+00  0.17934594151E+04  0.17934594151E+04  0.25500000920E-02 0.  1.
        2   -1    0    0  501    0  0.00000000000E+00  0.00000000000E+00 -0.55124098993E+03  0.55124098993E+03  0.25500000920E-02 0. -1.
    10030    2    1    2    0    0  0.00000000000E+00  0.00000000000E+00  0.12422184251E+04  0.23447004050E+04  0.19885958296E+04 0.  0.
        5    1    3    3  502    0 -0.41443164030E+03 -0.36042431583E+02  0.16859068820E+04  0.17364782596E+04  0.46999998093E+01 0.  1.
       -5    1    3    3    0  502  0.41443164030E+03  0.36042431583E+02 -0.44368845687E+03  0.60822214537E+03  0.46999998093E+01 0. -1.
</event>
<event>
 5   0  0.5933905E-05  0.2102328E+04  0.7818609E-02  0.8560219E-01
        1   -1    0    0  501    0  0.00000000000E+00  0.00000000000E+00  0.87707506007E+03  0.87707506008E+03  0.50400001928E-02 0.  1.
       -1   -1    0    0    0  501  0.00000000000E+00  0.00000000000E+00 -0.12598076272E+04  0.12598076272E+04  0.50400001928E-02 0. -1.
    10030    2    1    2    0    0  0.00000000000E+00  0.00000000000E+00 -0.38273256710E+03  0.21368826873E+04  0.21023280908E+04 0.  0.
        2    1    3    3  502    0  0.82265002188E+03 -0.59909001163E+03 -0.45891107852E+03  0.11163607296E+04  0.25500000920E-02 0. -1.
       -2    1    3    3    0  502 -0.82265002188E+03  0.59909001163E+03  0.76178511422E+02  0.10205219577E+04  0.25500000920E-02 0.  1.
</event>
<event>
 5   0  0.1349252E-04  0.2068718E+04  0.7818609E-02  0.8575150E-01
       -2   -1    0    0    0  501  0.00000000000E+00  0.00000000000E+00  0.76941270459E+03  0.76941270460E+03  0.25500000920E-02 0. -1.
        2   -1    0    0  501    0  0.00000000000E+00  0.00000000000E+00 -0.13905396827E+04  0.13905396827E+04  0.25500000920E-02 0.  1.
    10030    2    1    2    0    0  0.00000000000E+00  0.00000000000E+00 -0.62112697806E+03  0.21599523873E+04  0.20687183453E+04 0.  0.
        2    1    3    3  502    0  0.43757110608E+03  0.90581900885E+03 -0.59278877849E+02  0.10077155030E+04  0.25500000920E-02 0. -1.
       -2    1    3    3    0  502 -0.43757110608E+03 -0.90581900885E+03 -0.56184810021E+03  0.11522368842E+04  0.25500000920E-02 0.  1.
</event>
<event>
 5   0  0.1281470E-04  0.1953991E+04  0.7818609E-02  0.8628439E-01
        2   -1    0    0  501    0  0.00000000000E+00  0.00000000000E+00  0.81168268417E+03  0.81168268417E+03  0.25500000920E-02 0. -1.
       -2   -1    0    0    0  501  0.00000000000E+00  0.00000000000E+00 -0.11759765663E+04  0.11759765663E+04  0.25500000920E-02 0.  1.
    10030    2    1    2    0    0  0.00000000000E+00  0.00000000000E+00 -0.36429388216E+03  0.19876592505E+04  0.19539905997E+04 0.  0.
        3    1    3    3  502    0  0.74095874663E+03  0.33548810416E+03 -0.73271940980E+03  0.10947373548E+04  0.10100000352E+00 0.  1.
       -3    1    3    3    0  502 -0.74095874663E+03 -0.33548810416E+03  0.36842552764E+03  0.89292189573E+03  0.10100000352E+00 0. -1.
</event>
<event>
 5   0  0.5846187E-05  0.1879619E+04  0.7818609E-02  0.8665068E-01
        1   -1    0    0  501    0  0.00000000000E+00  0.00000000000E+00  0.17836060909E+04  0.17836060909E+04  0.50400001928E-02 0. -1.
       -1   -1    0    0    0  501  0.00000000000E+00  0.00000000000E+00 -0.49519993869E+03  0.49519993871E+03  0.50400001928E-02 0.  1.
    10030    2    1    2    0    0  0.00000000000E+00  0.00000000000E+00  0.12884061522E+04  0.22788060296E+04  0.18796187133E+04 0.  0.
        5    1    3    3  502    0  0.39057521120E+03 -0.40086589553E+03 -0.27110289157E+03  0.62190138255E+03  0.46999998093E+01 0. -1.
       -5    1    3    3    0  502 -0.39057521120E+03  0.40086589553E+03  0.15595090437E+04  0.16569046470E+04  0.46999998093E+01 0.  1.
</event>
<event>
 5   0  0.5846187E-05  0.2072908E+04  0.7818609E-02  0.8573273E-01
        1   -1    0    0  501    0  0.00000000000E+00  0.00000000000E+00  0.12036616279E+04  0.12036616279E+04  0.50400001928E-02 0.  1.
       -1   -1    0    0    0  501  0.00000000000E+00  0.00000000000E+00 -0.89247385999E+03  0.89247386000E+03  0.50400001928E-02 0. -1.
    10030    2    1    2    0    0  0.00000000000E+00  0.00000000000E+00  0.31118776791E+03  0.20961354879E+04  0.20729076576E+04 0.  0.
        5    1    3    3  502    0 -0.50928956987E+03 -0.41239347218E+01  0.10683834248E+04  0.11835785167E+04  0.46999998093E+01 0.  1.
       -5    1    3    3    0  502  0.50928956987E+03  0.41239347218E+01 -0.75719565692E+03  0.91255697119E+03  0.46999998093E+01 0. -1.
</event>
<event>
 5   0  0.1235817E-04  0.2102845E+04  0.7818609E-02  0.8559991E-01
       -2   -1    0    0    0  501  0.00000000000E+00  0.00000000000E+00  0.97955784512E+03  0.97955784512E+03  0.25500000920E-02 0.  1.
        2   -1    0    0  501    0  0.00000000000E+00  0.00000000000E+00 -0.11285590725E+04  0.11285590725E+04  0.25500000920E-02 0. -1.
    10030    2    1    2    0    0  0.00000000000E+00  0.00000000000E+00 -0.14900122740E+03  0.21081169176E+04  0.21028446383E+04 0.  0.
        1    1    3    3  502    0  0.99241945075E+03  0.29950775345E+03 -0.25069003010E+03  0.10665114870E+04  0.50400001928E-02 0. -1.
       -1    1    3    3    0  502 -0.99241945075E+03 -0.29950775345E+03  0.10168880270E+03  0.10416054307E+04  0.50400001928E-02 0.  1.
</event>
<event>
 5   0  0.6263616E-05  0.2068566E+04  0.7818609E-02  0.8575218E-01
       -1   -1    0    0    0  501  0.00000000000E+00  0.00000000000E+00  0.42240790132E+03  0.42240790135E+03  0.50400001928E-02 0.  1.
        1   -1    0    0  501    0  0.00000000000E+00  0.00000000000E+00 -0.25324834383E+04  0.25324834383E+04  0.50400001928E-02 0. -1.
    10030    2    1    2    0    0  0.00000000000E+00  0.00000000000E+00 -0.21100755370E+04  0.29548913396E+04  0.20685657005E+04 0.  0.
        4    1    3    3  502    0 -0.59550674934E+03  0.82516054713E+03 -0.13192906393E+04  0.16661475387E+04  0.12699999809E+01 0. -1.
       -4    1    3    3    0  502  0.59550674934E+03 -0.82516054713E+03 -0.79078489768E+03  0.12887438009E+04  0.12699999809E+01 0.  1.
</event>
<event>
 5   0  0.5933905E-05  0.2086362E+04  0.7818609E-02  0.8567275E-01
        1   -1    0    0  501    0  0.00000000000E+00  0.00000000000E+00  0.83595858008E+03  0.83595858009E+03  0.50400001928E-02 0.  1.
       -1   -1    0    0    0  501  0.00000000000E+00  0.00000000000E+00 -0.13017714258E+04  0.13017714259E+04  0.50400001928E-02 0. -1.
    10030    2    1    2    0    0  0.00000000000E+00  0.00000000000E+00 -0.46581284577E+03  0.21377300059E+04  0.20863623777E+04 0.  0.
        2    1    3    3  502    0 -0.28933660918E+03  0.98936557135E+03 -0.39706039265E+03  0.11046342664E+04  0.25500000920E-02 0. -1.
       -2    1    3    3    0  502  0.28933660918E+03 -0.98936557135E+03 -0.68752453121E+02  0.10330957395E+04  0.25500000920E-02 0.  1.
</event>
<event>
 5   0  0.1252477E-04  0.2106937E+04  0.7818609E-02  0.8558194E-01
       -2   -1    0    0    0  501  0.00000000000E+00  0.00000000000E+00  0.85387952837E+03  0.85387952837E+03  0.25500000920E-02 0. -1.
        2   -1    0    0  501    0  0.00000000000E+00  0.00000000000E+00 -0.12997097854E+04  0.12997097854E+04  0.25500000920E-02 0.  1.
    10030    2    1    2    0    0  0.00000000000E+00  0.00000000000E+00 -0.44583025706E+03  0.21535893138E+04  0.21069367134E+04 0.  0.
        4    1    3    3  502    0 -0.10427373581E+04 -0.24284870365E+02 -0.71641464709E+02  0.10454783906E+04  0.12699999809E+01 0.  1.
       -4    1    3    3    0  502  0.10427373581E+04  0.24284870365E+02 -0.37418879235E+03  0.11081109232E+04  0.12699999809E+01 0. -1.
</event>
<event>
 5   0  0.1349252E-04  0.2111832E+04  0.7818609E-02  0.8556049E-01
        2   -1    0    0  501    0  0.00000000000E+00  0.00000000000E+00  0.15941398613E+04  0.15941398613E+04  0.25500000920E-02 0.  1.
       -2   -1    0    0    0  501  0.00000000000E+00  0.00000000000E+00 -0.69941075077E+03  0.69941075077E+03  0.25500000920E-02 0. -1.
    10030    2    1    2    0    0  0.00000000000E+00  0.00000000000E+00  0.89472911055E+03  0.22935506121E+04  0.21118319604E+04 0.  0.
        2    1    3    3  502    0  0.10148030760E+04  0.28454119323E+03  0.51749317870E+03  0.11741329412E+04  0.25500000920E-02 0.  1.
       -2    1    3    3    0  502 -0.10148030760E+04 -0.28454119323E+03  0.37723593185E+03  0.11194176709E+04  0.25500000920E-02 0. -1.
</event>
<event>
 5   0  0.1281470E-04  0.2285961E+04  0.7818609E-02  0.8483477E-01
       -2   -1    0    0    0  501  0.00000000000E+00  0.00000000000E+00  0.68800830854E+03  0.68800830855E+03  0.25500000920E-02 0. -1.
        2   -1    0    0  501    0  0.00000000000E+00  0.00000000000E+00 -0.18988203550E+04  0.18988203550E+04  0.25500000920E-02 0.  1.
    10030    2    1    2    0    0  0.00000000000E+00  0.00000000000E+00 -0.12108120464E+04  0.25868286635E+04  0.22859607876E+04 0.  0.
        3    1    3    3  502    0  0.12357600902E+03 -0.17309332255E+03 -0.18762318168E+04  0.18882473802E+04  0.10100000352E+00 0.  1.
       -3    1    3    3    0  502 -0.12357600902E+03  0.17309332255E+03  0.66541977039E+03  0.69858128328E+03  0.10100000352E+00 0. -1.
</event>
<event>
 5   0  0.4615125E-05  0.2135255E+04  0.7818609E-02  0.8545870E-01
       -4   -1    0    0    0  501  0.00000000000E+00  0.00000000000E+00  0.81921123432E+03  0.81921221874E+03  0.12699999809E+01 0.  1.
        4   -1    0    0  501    0  0.00000000000E+00  0.00000000000E+00 -0.13913712095E+04  0.13913717891E+04  0.12699999809E+01 0. -1.
    10030    2    1    2    0    0  0.00000000000E+00  0.00000000000E+00 -0.57215997519E+03  0.22105840079E+04  0.21352551647E+04 0.  0.
        1    1    3    3  502    0  0.53185593017E+03  0.80310810476E+03 -0.76273028494E+03  0.12286622180E+04  0.50400001928E-02 0. -1.
       -1    1    3    3    0  502 -0.53185593017E+03 -0.80310810476E+03  0.19057030975E+03  0.98192178984E+03  0.50400001928E-02 0.  1.
</event>
<event>
 5   0  0.1252477E-04  0.1701462E+04  0.7818609E-02  0.8760531E-01
        2   -1    0    0  501    0  0.00000000000E+00  0.00000000000E+00  0.22965485242E+04  0.22965485242E+04  0.25500000920E-02 0.  1.
       -2   -1    0    0    0  501  0.00000000000E+00  0.00000000000E+00 -0.31514387691E+03  0.31514387692E+03  0.25500000920E-02 0. -1.
    10030    2    1    2    0    0  0.00000000000E+00  0.00000000000E+00  0.19814046473E+04  0.26116924012E+04  0.17014619660E+04 0.  0.
        4    1    3    3  502    0  0.71489884886E+03 -0.43750896766E+02  0.16953638671E+04  0.18404496080E+04  0.12699999809E+01 0.  1.
       -4    1    3    3    0  502 -0.71489884886E+03  0.43750896766E+02  0.28604078025E+03  0.77124279312E+03  0.12699999809E+01 0. -1.
</event>
<event>
 5   0  0.1281470E-04  0.2086036E+04  0.7818609E-02  0.8567420E-01
       -2   -1    0    0    0  501  0.00000000000E+00  0.00000000000E+00  0.67090062324E+03  0.67090062324E+03  0.25500000920E-02 0.  1.
        2   -1    0    0  501    0  0.00000000000E+00  0.00000000000E+00 -0.16215314065E+04  0.16215314065E+04  0.25500000920E-02 0. -1.
    10030    2    1    2    0    0  0.00000000000E+00  0.00000000000E+00 -0.95063078325E+03  0.22924320297E+04  0.20860358877E+04 0.  0.
        3    1    3    3  502    0  0.22098146769E+02 -0.73724762618E+03 -0.12857535119E+04  0.14822902867E+04  0.10100000352E+00 0. -1.
       -3    1    3    3    0  502 -0.22098146769E+02  0.73724762618E+03  0.33512272864E+03  0.81014174306E+03  0.10100000352E+00 0.  1.
</event>
<event>
 5   0  0.6221148E-05  0.2080412E+04  0.7818609E-02  0.8569922E-01
        1   -1    0    0  501    0  0.00000000000E+00  0.00000000000E+00  0.88849446439E+03  0.88849446440E+03  0.50400001928E-02 0.  1.
       -1   -1    0    0    0  501  0.00000000000E+00  0.00000000000E+00 -0.12178221083E+04  0.12178221083E+04  0.50400001928E-02 0. -1.
    10030    2    1    2    0    0  0.00000000000E+00  0.00000000000E+00 -0.32932764387E+03  0.21063165727E+04  0.20804116918E+04 0.  0.
        3    1    3    3  502    0 -0.23672516954E+02  0.81587042017E+03  0.48820923907E+03  0.95108001866E+03  0.10100000352E+00 0.  1.
       -3    1    3    3    0  502  0.23672516954E+02 -0.81587042017E+03 -0.81753688293E+03  0.11552365540E+04  0.10100000352E+00 0. -1.
</event>
<event>
 5   0  0.1235817E-04  0.2103700E+04  0.7818609E-02  0.8559615E-01
        2   -1    0    0  501    0  0.00000000000E+00  0.00000000000E+00  0.94979651695E+03  0.94979651696E+03  0.25500000920E-02 0. -1.
       -2   -1    0    0    0  501  0.00000000000E+00  0.00000000000E+00 -0.11648687080E+04  0.11648687080E+04  0.25500000920E-02 0.  1.
    10030    2    1    2    0    0  0.00000000000E+00  0.00000000000E+00 -0.21507219104E+03  0.21146652250E+04  0.21036998280E+04 0.  0.
        1    1    3    3  502    0  0.18384926753E+03  0.56236905164E+03 -0.98174082827E+03  0.11462436728E+04  0.50400001928E-02 0.  1.
       -1    1    3    3    0  502 -0.18384926753E+03 -0.56236905164E+03  0.76666863724E+03  0.96842155220E+03  0.50400001928E-02 0. -1.
</event>
<event>
 5   0  0.5933905E-05  0.2179955E+04  0.7818609E-02  0.8526818E-01
        1   -1    0    0  501    0  0.00000000000E+00  0.00000000000E+00  0.13955381128E+04  0.13955381128E+04  0.50400001928E-02 0.  1.
       -1   -1    0    0    0  501  0.00000000000E+00  0.00000000000E+00 -0.85132142533E+03  0.85132142534E+03  0.50400001928E-02 0. -1.
    10030    2    1    2    0    0  0.00000000000E+00  0.00000000000E+00  0.54421668749E+03  0.22468595382E+04  0.21799554999E+04 0.  0.
        2    1    3    3  502    0 -0.39579761324E+02 -0.10608133807E+04  0.17213112374E+02  0.10616910462E+04  0.25500000920E-02 0.  1.
       -2    1    3    3    0  502  0.39579761324E+02  0.10608133807E+04  0.52700357512E+03  0.11851684920E+04  0.25500000920E-02 0. -1.
</event>
<event>
 5   0  0.6052292E-05  0.2112337E+04  0.7818609E-02  0.8555828E-01
       -1   -1    0    0    0  501  0.00000000000E+00  0.00000000000E+00  0.25354107079E+04  0.25354107079E+04  0.50400001928E-02 0. -1.
        1   -1    0    0  501    0  0.00000000000E+00  0.00000000000E+00 -0.43996509744E+03  0.43996509747E+03  0.50400001928E-02 0.  1.
    10030    2    1    2    0    0  0.00000000000E+00  0.00000000000E+00  0.20954456105E+04  0.29753758054E+04  0.21123373019E+04 0.  0.
        1    1    3    3  502    0 -0.79098217221E+03  0.69498347920E+03  0.93125024814E+03  0.14056606482E+04  0.50400001928E-02 0.  1.
       -1    1    3    3    0  502  0.79098217221E+03 -0.69498347920E+03  0.11641953624E+04  0.15697151572E+04  0.50400001928E-02 0. -1.
</event>
<event>
 5   0  0.1252477E-04  0.2084480E+04  0.7818609E-02  0.8568111E-01
        2   -1    0    0  501    0  0.00000000000E+00  0.00000000000E+00  0.14410806178E+04  0.14410806178E+04  0.25500000920E-02 0.  1.
       -2   -1    0    0    0  501  0.00000000000E+00  0.00000000000E+00 -0.75378460476E+03  0.75378460476E+03  0.25500000920E-02 0. -1.
    10030    2    1    2    0    0  0.00000000000E+00  0.00000000000E+00  0.68729601307E+03  0.21948652226E+04  0.20844801596E+04 0.  0.
        4    1    3    3  502    0 -0.38690693752E+03 -0.95155111849E+03  0.52938730405E+03  0.11555946694E+04  0.12699999809E+01 0. -1.
       -4    1    3    3    0  502  0.38690693752E+03  0.95155111849E+03  0.15790870901E+03  0.10392705532E+04  0.12699999809E+01 0.  1.
</event>
<event>
 5   0  0.1252477E-04  0.2093640E+04  0.7818609E-02  0.8564050E-01
       -2   -1    0    0    0  501  0.00000000000E+00  0.00000000000E+00  0.52086066391E+03  0.52086066391E+03  0.25500000920E-02 0.  1.
        2   -1    0    0  501    0  0.00000000000E+00  0.00000000000E+00 -0.21038870052E+04  0.21038870052E+04  0.25500000920E-02 0. -1.
    10030    2    1    2    0    0  0.00000000000E+00  0.00000000000E+00 -0.15830263413E+04  0.26247476691E+04  0.20936398758E+04 0.  0.
        4    1    3    3  502    0 -0.82152250644E+03 -0.62518804511E+03 -0.10089133346E+04  0.14434912712E+04  0.12699999809E+01 0. -1.
       -4    1    3    3    0  502  0.82152250644E+03  0.62518804511E+03 -0.57411300670E+03  0.11812563979E+04  0.12699999809E+01 0.  1.
</event>
<event>
 5   0  0.1252477E-04  0.2124540E+04  0.7818609E-02  0.8550510E-01
        2   -1    0    0  501    0  0.00000000000E+00  0.00000000000E+00  0.15130327811E+04  0.15130327811E+04  0.25500000920E-02 0. -1.
       -2   -1    0    0    0  501  0.00000000000E+00  0.00000000000E+00 -0.74579816820E+03  0.74579816821E+03  0.25500000920E-02 0.  1.
    10030    2    1    2    0    0  0.00000000000E+00  0.00000000000E+00  0.76723461285E+03  0.22588309493E+04  0.21245395516E+04 0.  0.
        4    1    3    3  502    0 -0.72032838962E+03 -0.71650148275E+03  0.71332905821E+03  0.12414053818E+04  0.12699999809E+01 0. -1.
       -4    1    3    3    0  502  0.72032838962E+03  0.71650148275E+03  0.53905554636E+02  0.10174255675E+04  0.12699999809E+01 0.  1.
</event>
<event>
 5   0  0.4615125E-05  0.2193439E+04  0.7818609E-02  0.8521164E-01
        3   -1    0    0  501    0  0.00000000000E+00  0.00000000000E+00  0.12596330237E+04  0.12596330277E+04  0.10100000352E+00 0. -1.
       -3   -1    0    0    0  501  0.00000000000E+00  0.00000000000E+00 -0.95487603174E+03  0.95487603709E+03  0.10100000352E+00 0.  1.
    10030    2    1    2    0    0  0.00000000000E+00  0.00000000000E+00  0.30475699192E+03  0.22145090648E+04  0.21934387555E+04 0.  0.
        3    1    3    3  502    0 -0.39731874002E+03  0.41079699394E+03 -0.79265647942E+03  0.97720041750E+03  0.10100000352E+00 0.  1.
       -3    1    3    3    0  502  0.39731874002E+03 -0.41079699394E+03  0.10974134713E+04  0.12373086473E+04  0.10100000352E+00 0. -1.
</event>
<event>
 5   0  0.6052292E-05  0.2076604E+04  0.7818609E-02  0.8571620E-01
        1   -1    0    0  501    0  0.00000000000E+00  0.00000000000E+00  0.11514766063E+04  0.11514766064E+04  0.50400001928E-02 0.  1.
       -1   -1    0    0    0  501  0.00000000000E+00  0.00000000000E+00 -0.93625117911E+03  0.93625117912E+03  0.50400001928E-02 0. -1.
    10030    2    1    2    0    0  0.00000000000E+00  0.00000000000E+00  0.21522542724E+03  0.20877277855E+04  0.20766042766E+04 0.  0.
        1    1    3    3  502    0  0.39767127519E+02  0.20409212646E+03 -0.91510542022E+03  0.93843111130E+03  0.50400001928E-02 0. -1.
       -1    1    3    3    0  502 -0.39767127519E+02 -0.20409212646E+03  0.11303308475E+04  0.11492966742E+04  0.50400001928E-02 0.  1.
</event>
<event>
 5   0  0.4615125E-05  0.2110432E+04  0.7818609E-02  0.8556662E-01
       -3   -1    0    0    0  501  0.00000000000E+00  0.00000000000E+00  0.63219253802E+03  0.63219254609E+03  0.10100000352E+00 0.  1.
        3   -1    0    0  501    0  0.00000000000E+00  0.00000000000E+00 -0.17612998472E+04  0.17612998501E+04  0.10100000352E+00 0. -1.
    10030    2    1    2    0    0  0.00000000000E+00  0.00000000000E+00 -0.11291073092E+04  0.23934923962E+04  0.21104318361E+04 0.  0.
        5    1    3    3  502    0  0.25206934470E+03 -0.57881265082E+03  0.39436552580E+03  0.74438518069E+03  0.46999998093E+01 0.  1.
       -5    1    3    3    0  502 -0.25206934470E+03  0.57881265082E+03 -0.15234728350E+04  0.16491072155E+04  0.46999998093E+01 0. -1.
</event>
<event>
 5   0  0.1281470E-04  0.2104635E+04  0.7818609E-02  0.8559204E-01
        2   -1    0    0  501    0  0.00000000000E+00  0.00000000000E+00  0.13104599943E+04  0.13104599943E+04  0.25500000920E-02 0.  1.
       -2   -1    0    0    0  501  0.00000000000E+00  0.00000000000E+00 -0.84502531543E+03  0.84502531543E+03  0.25500000920E-02 0. -1.
    10030    2    1    2    0    0  0.00000000000E+00  0.00000000000E+00  0.46543467891E+03  0.21554853098E+04  0.21046347617E+04 0.  0.
        3    1    3    3  502    0  0.51049048924E+03 -0.31500657446E+03  0.11182124734E+04  0.12689479215E+04  0.10100000352E+00 0.  1.
       -3    1    3    3    0  502 -0.51049048924E+03  0.31500657446E+03 -0.65277779453E+03  0.88653738826E+03  0.10100000352E+00 0. -1.
</event>
<event>
 5   0  0.1235817E-04  0.1969161E+04  0.7818609E-02  0.8621176E-01
       -2   -1    0    0    0  501  0.00000000000E+00  0.00000000000E+00  0.53107271056E+03  0.53107271057E+03  0.25500000920E-02 0. -1.
        2   -1    0    0  501    0  0.00000000000E+00  0.00000000000E+00 -0.18253604244E+04  0.18253604244E+04  0.25500000920E-02 0.  1.
    10030    2    1    2    0    0  0.00000000000E+00  0.00000000000E+00 -0.12942877139E+04  0.23564331350E+04  0.19691613528E+04 0.  0.
        1    1    3    3  502    0  0.71362073471E+03 -0.57749511566E+03 -0.22128465539E+03  0.94431036230E+03  0.50400001928E-02 0. -1.
       -1    1    3    3    0  502 -0.71362073471E+03  0.57749511566E+03 -0.10730030585E+04  0.14121227727E+04  0.50400001928E-02 0.  1.
</event>
<event>
 5   0  0.4615125E-05  0.2170247E+04  0.7818609E-02  0.8530915E-01
       -4   -1    0    0    0  501  0.00000000000E+00  0.00000000000E+00  0.94279500864E+03  0.94279586402E+03  0.12699999809E+01 0. -1.
        4   -1    0    0  501    0  0.00000000000E+00  0.00000000000E+00 -0.12489369205E+04  0.12489375662E+04  0.12699999809E+01 0.  1.
    10030    2    1    2    0    0  0.00000000000E+00  0.00000000000E+00 -0.30614191182E+03  0.21917334302E+04  0.21702471193E+04 0.  0.
        5    1    3    3  502    0 -0.10322844583E+04  0.17305330015E+02  0.18424238725E+03  0.10487506971E+04  0.46999998093E+01 0. -1.
       -5    1    3    3    0  502  0.10322844583E+04 -0.17305330015E+02 -0.49038429908E+03  0.11429827331E+04  0.46999998093E+01 0.  1.
</event>
<event>
 5   0  0.6052292E-05  0.2059671E+04  0.7818609E-02  0.8579220E-01
        1   -1    0    0  501    0  0.00000000000E+00  0.00000000000E+00  0.19956207881E+04  0.19956207881E+04  0.50400001928E-02 0.  1.
       -1   -1    0    0    0  501  0.00000000000E+00  0.00000000000E+00 -0.53144397747E+03  0.53144397749E+03  0.50400001928E-02 0. -1.
    10030    2    1    2    0    0  0.00000000000E+00  0.00000000000E+00  0.14641768106E+04  0.25270647656E+04  0.20596705068E+04 0.  0.
        1    1    3    3  502    0 -0.87938506706E+02  0.98820558237E+03  0.39323178127E+03  0.10671994602E+04  0.50400001928E-02 0. -1.
       -1    1    3    3    0  502  0.87938506706E+02 -0.98820558237E+03  0.10709450293E+04  0.14598653054E+04  0.50400001928E-02 0.  1.
</event>
<event>
 5   0  0.5933905E-05  0.2098081E+04  0.7818609E-02  0.8562089E-01
       -1   -1    0    0    0  501  0.00000000000E+00  0.00000000000E+00  0.12360487504E+04  0.12360487504E+04  0.50400001928E-02 0. -1.
        1   -1    0    0  501    0  0.00000000000E+00  0.00000000000E+00 -0.89032528111E+03  0.89032528112E+03  0.50400001928E-02 0.  1.
    10030    2    1    2    0    0  0.00000000000E+00  0.00000000000E+00  0.34572346930E+03  0.21263740315E+04  0.20980805048E+04 0.  0.
        2    1    3    3  502    0  0.79659658248E+03  0.67284393056E+03  0.56419442486E+02  0.10442548653E+04  0.25500000920E-02 0.  1.
       -2    1    3    3    0  502 -0.79659658248E+03 -0.67284393056E+03  0.28930402682E+03  0.10821191663E+04  0.25500000920E-02 0. -1.
</event>
<event>
 5   0  0.1281470E-04  0.1929121E+04  0.7818609E-02  0.8640495E-01
       -2   -1    0    0    0  501  0.00000000000E+00  0.00000000000E+00  0.48109941631E+03  0.48109941632E+03  0.25500000920E-02 0. -1.
        2   -1    0    0  501    0  0.00000000000E+00  0.00000000000E+00 -0.19338562906E+04  0.19338562906E+04  0.25500000920E-02 0.  1.
    10030    2    1    2    0    0  0.00000000000E+00  0.00000000000E+00 -0.14527568743E+04  0.24149557070E+04  0.19291211809E+04 0.  0.
        3    1    3    3  502    0  0.46293243586E+03  0.10439321422E+03 -0.17776076418E+04  0.18398623105E+04  0.10100000352E+00 0.  1.
       -3    1    3    3    0  502 -0.46293243586E+03 -0.10439321422E+03  0.32485076743E+03  0.57509339646E+03  0.10100000352E+00 0. -1.
</event>
<event>
 5   0  0.5933905E-05  0.2086271E+04  0.7818609E-02  0.8567315E-01
       -1   -1    0    0    0  501  0.00000000000E+00  0.00000000000E+00  0.52902815385E+03  0.52902815387E+03  0.50400001928E-02 0.  1.
        1   -1    0    0  501    0  0.00000000000E+00  0.00000000000E+00 -0.20568507349E+04  0.20568507349E+04  0.50400001928E-02 0. -1.
    10030    2    1    2    0    0  0.00000000000E+00  0.00000000000E+00 -0.15278225810E+04  0.25858788888E+04  0.20862712643E+04 0.  0.
        2    1    3    3  502    0  0.58071757076E+03 -0.51048638688E+03 -0.16318110065E+04  0.18057232371E+04  0.25500000920E-02 0. -1.
       -2    1    3    3    0  502 -0.58071757076E+03  0.51048638688E+03  0.10398842543E+03  0.78015565166E+03  0.25500000920E-02 0.  1.
</event>
<event>
 5   0  0.1252477E-04  0.2109240E+04  0.7818609E-02  0.8557184E-01
        2   -1    0    0  501    0  0.00000000000E+00  0.00000000000E+00  0.13563144516E+04  0.13563144516E+04  0.25500000920E-02 0. -1.
       -2   -1    0    0    0  501  0.00000000000E+00  0.00000000000E+00 -0.82003365599E+03  0.82003365600E+03  0.25500000920E-02 0.  1.
    10030    2    1    2    0    0  0.00000000000E+00  0.00000000000E+00  0.53628079556E+03  0.21763481076E+04  0.21092401460E+04 0.  0.
        4    1    3    3  502    0 -0.34660084407E+03  0.14334858684E+03 -0.74888753860E+03  0.83756499499E+03  0.12699999809E+01 0.  1.
       -4    1    3    3    0  502  0.34660084407E+03 -0.14334858684E+03  0.12851683342E+04  0.13387831126E+04  0.12699999809E+01 0. -1.
</event>
<event>
 5   0  0.6221148E-05  0.2123961E+04  0.7818609E-02  0.8550761E-01
        1   -1    0    0  501    0  0.00000000000E+00  0.00000000000E+00  0.18030787245E+04  0.18030787245E+04  0.50400001928E-02 0.  1.
       -1   -1    0    0    0  501  0.00000000000E+00  0.00000000000E+00 -0.62548714403E+03  0.62548714405E+03  0.50400001928E-02 0. -1.
    10030    2    1    2    0    0  0.00000000000E+00  0.00000000000E+00  0.11775915804E+04  0.24285658685E+04  0.21239609807E+04 0.  0.
        3    1    3    3  502    0 -0.31725640506E+03  0.76254998334E+03 -0.17452887734E+03  0.84415309208E+03  0.10100000352E+00 0. -1.
       -3    1    3    3    0  502  0.31725640506E+03 -0.76254998334E+03  0.13521204578E+04  0.15844127764E+04  0.10100000352E+00 0.  1.
</event>
<event>
 5   0  0.6052292E-05  0.2069028E+04  0.7818609E-02  0.8575011E-01
       -1   -1    0    0    0  501  0.00000000000E+00  0.00000000000E+00  0.66144839415E+03  0.66144839417E+03  0.50400001928E-02 0.  1.
        1   -1    0    0  501    0  0.00000000000E+00  0.00000000000E+00 -0.16179942078E+04  0.16179942078E+04  0.50400001928E-02 0. -1.
    10030    2    1    2    0    0  0.00000000000E+00  0.00000000000E+00 -0.95654581361E+03  0.22794426019E+04  0.20690284391E+04 0.  0.
        1    1    3    3  502    0  0.12372932812E+03 -0.10643676567E+03 -0.16037210208E+04  0.16120046044E+04  0.50400001928E-02 0. -1.
       -1    1    3    3    0  502 -0.12372932812E+03  0.10643676567E+03  0.64717520724E+03  0.66743799758E+03  0.50400001928E-02 0.  1.
</event>
<event>
 5   0  0.1252477E-04  0.2125874E+04  0.7818609E-02  0.8549931E-01
        2   -1    0    0  501    0  0.00000000000E+00  0.00000000000E+00  0.21555485223E+04  0.21555485223E+04  0.25500000920E-02 0.  1.
       -2   -1    0    0    0  501  0.00000000000E+00  0.00000000000E+00 -0.52415178911E+03  0.52415178912E+03  0.25500000920E-02 0. -1.
    10030    2    1    2    0    0  0.00000000000E+00  0.00000000000E+00  0.16313967332E+04  0.26797003114E+04  0.21258735752E+04 0.  0.
        4    1    3    3  502    0 -0.45059756836E+03  0.10428531294E+03  0.20220597414E+04  0.20742807924E+04  0.12699999809E+01 0.  1.
       -4    1    3    3    0  502  0.45059756836E+03 -0.10428531294E+03 -0.39066300821E+03  0.60541951900E+03  0.12699999809E+01 0. -1.
</event>
<event>
 5   0  0.1325673E-04  0.2115327E+04  0.7818609E-02  0.8554522E-01
        2   -1    0    0  501    0  0.00000000000E+00  0.00000000000E+00  0.10385753250E+04  0.10385753250E+04  0.25500000920E-02 0. -1.
       -2   -1    0    0    0  501  0.00000000000E+00  0.00000000000E+00 -0.10771020396E+04  0.10771020396E+04  0.25500000920E-02 0.  1.
    10030    2    1    2    0    0  0.00000000000E+00  0.00000000000E+00 -0.38526714669E+02  0.21156773646E+04  0.21153265477E+04 0.  0.
        5    1    3    3  502    0 -0.31397675137E+03  0.21624006580E+03  0.96745402962E+03  0.10398704515E+04  0.46999998093E+01 0. -1.
       -5    1    3    3    0  502  0.31397675137E+03 -0.21624006580E+03 -0.10059807443E+04  0.10758069131E+04  0.46999998093E+01 0.  1.
</event>
<event>
 5   0  0.5933905E-05  0.2169463E+04  0.7818609E-02  0.8531247E-01
        1   -1    0    0  501    0  0.00000000000E+00  0.00000000000E+00  0.13957041342E+04  0.13957041342E+04  0.50400001928E-02 0.  1.
       -1   -1    0    0    0  501  0.00000000000E+00  0.00000000000E+00 -0.84304591610E+03  0.84304591611E+03  0.50400001928E-02 0. -1.
    10030    2    1    2    0    0  0.00000000000E+00  0.00000000000E+00  0.55265821813E+03  0.22387500503E+04  0.21694632244E+04 0.  0.
        2    1    3    3  502    0 -0.94271287659E+03  0.14415188020E+03  0.80970728802E+03  0.12510448531E+04  0.25500000920E-02 0.  1.
       -2    1    3    3    0  502  0.94271287659E+03 -0.14415188020E+03 -0.25704906990E+03  0.98770519721E+03  0.25500000920E-02 0. -1.
</event>
<event>
 5   0  0.5933905E-05  0.2132662E+04  0.7818609E-02  0.8546990E-01
       -1   -1    0    0    0  501  0.00000000000E+00  0.00000000000E+00  0.73780036144E+03  0.73780036145E+03  0.50400001928E-02 0.  1.
        1   -1    0    0  501    0  0.00000000000E+00  0.00000000000E+00 -0.15411509090E+04  0.15411509091E+04  0.50400001928E-02 0. -1.
    10030    2    1    2    0    0  0.00000000000E+00  0.00000000000E+00 -0.80335054761E+03  0.22789512705E+04  0.21326619026E+04 0.  0.
        2    1    3    3  502    0  0.15120389865E+02 -0.15014201585E+03  0.72633286111E+03  0.74184275709E+03  0.25500000920E-02 0.  1.
       -2    1    3    3    0  502 -0.15120389865E+02  0.15014201585E+03 -0.15296834087E+04  0.15371085134E+04  0.25500000920E-02 0. -1.
</event>
<event>
 5   0  0.6052292E-05  0.2124338E+04  0.7818609E-02  0.8550597E-01
        1   -1    0    0  501    0  0.00000000000E+00  0.00000000000E+00  0.20379044835E+04  0.20379044836E+04  0.50400001928E-02 0.  1.
       -1   -1    0    0    0  501  0.00000000000E+00  0.00000000000E+00 -0.55360954650E+03  0.55360954653E+03  0.50400001928E-02 0. -1.
    10030    2    1    2    0    0  0.00000000000E+00  0.00000000000E+00  0.14842949370E+04  0.25915140301E+04  0.21243383695E+04 0.  0.
        1    1    3    3  502    0 -0.83876339677E+02 -0.10587395567E+04  0.72330035397E+03  0.12849622918E+04  0.50400001928E-02 0.  1.
       -1    1    3    3    0  502  0.83876339677E+02  0.10587395567E+04  0.76099458307E+03  0.13065517383E+04  0.50400001928E-02 0. -1.
</event>
<event>
 5   0  0.5846187E-05  0.2115596E+04  0.7818609E-02  0.8554404E-01
        1   -1    0    0  501    0  0.00000000000E+00  0.00000000000E+00  0.23040716078E+04  0.23040716078E+04  0.50400001928E-02 0.  1.
       -1   -1    0    0    0  501  0.00000000000E+00  0.00000000000E+00 -0.48563460944E+03  0.48563460946E+03  0.50400001928E-02 0. -1.
    10030    2    1    2    0    0  0.00000000000E+00  0.00000000000E+00  0.18184369983E+04  0.27897062172E+04  0.21155962898E+04 0.  0.
        5    1    3    3  502    0  0.43721940320E+03  0.93913448254E+03  0.11913591520E+04  0.15787631558E+04  0.46999998093E+01 0.  1.
       -5    1    3    3    0  502 -0.43721940320E+03 -0.93913448254E+03  0.62707784629E+03  0.12109430615E+04  0.46999998093E+01 0. -1.
</event>
<event>
 5   0  0.6221148E-05  0.2111130E+04  0.7818609E-02  0.8556356E-01
        1   -1    0    0  501    0  0.00000000000E+00  0.00000000000E+00  0.11295105204E+04  0.11295105205E+04  0.50400001928E-02 0. -1.
       -1   -1    0    0    0  501  0.00000000000E+00  0.00000000000E+00 -0.98646036282E+03  0.98646036283E+03  0.50400001928E-02 0.  1.
    10030    2    1    2    0    0  0.00000000000E+00  0.00000000000E+00  0.14305015762E+03  0.21159708833E+04  0.21111298945E+04 0.  0.
        3    1    3    3  502    0  0.94245706934E+03 -0.46383854662E+03 -0.32857009853E+02  0.10509286932E+04  0.10100000352E+00 0.  1.
       -3    1    3    3    0  502 -0.94245706934E+03  0.46383854662E+03  0.17590716748E+03  0.10650421901E+04  0.10100000352E+00 0. -1.
</event>
<event>
 5   0  0.1235817E-04  0.2103067E+04  0.7818609E-02  0.8559893E-01
        2   -1    0    0  501    0  0.00000000000E+00  0.00000000000E+00  0.23359536807E+04  0.23359536807E+04  0.25500000920E-02 0. -1.
       -2   -1    0    0    0  501  0.00000000000E+00  0.00000000000E+00 -0.47334976557E+03  0.47334976558E+03  0.25500000920E-02 0.  1.
    10030    2    1    2    0    0  0.00000000000E+00  0.00000000000E+00  0.18626039151E+04  0.28093034463E+04  0.21030674047E+04 0.  0.
        1    1    3    3  502    0 -0.81411735680E+03  0.10352523760E+03  0.18095095280E+04  0.19869145119E+04  0.50400001928E-02 0. -1.
       -1    1    3    3    0  502  0.81411735680E+03 -0.10352523760E+03  0.53094387117E+02  0.82238893441E+03  0.50400001928E-02 0.  1.
</event>
<event>
 5   0  0.5846187E-05  0.2106114E+04  0.7818609E-02  0.8558555E-01
        1   -1    0    0  501    0  0.00000000000E+00  0.00000000000E+00  0.15911221735E+04  0.15911221735E+04  0.50400001928E-02 0. -1.
       -1   -1    0    0    0  501  0.00000000000E+00  0.00000000000E+00 -0.69694748453E+03  0.69694748454E+03  0.50400001928E-02 0.  1.
    10030    2    1    2    0    0  0.00000000000E+00  0.00000000000E+00  0.89417468896E+03  0.22880696580E+04  0.21061135738E+04 0.  0.
        5    1    3    3  502    0  0.56449066369E+03 -0.66850165811E+03  0.10836831586E+04  0.13928156570E+04  0.46999998093E+01 0. -1.
       -5    1    3    3    0  502 -0.56449066369E+03  0.66850165811E+03 -0.18950846961E+03  0.89525400102E+03  0.46999998093E+01 0.  1.
</event>
<event>
 5   0  0.6052292E-05  0.2096293E+04  0.7818609E-02  0.8562878E-01
       -1   -1    0    0    0  501  0.00000000000E+00  0.00000000000E+00  0.11100420055E+04  0.11100420055E+04  0.50400001928E-02 0. -1.
        1   -1    0    0  501    0  0.00000000000E+00  0.00000000000E+00 -0.98970220145E+03  0.98970220147E+03  0.50400001928E-02 0.  1.
    10030    2    1    2    0    0  0.00000000000E+00  0.00000000000E+00  0.12033980401E+03  0.20997442069E+04  0.20962929342E+04 0.  0.
        1    1    3    3  502    0 -0.66683881551E+03  0.61766219092E+03 -0.46263810221E+03  0.10199091144E+04  0.50400001928E-02 0. -1.
       -1    1    3    3    0  502  0.66683881551E+03 -0.61766219092E+03  0.58297790622E+03  0.10798350926E+04  0.50400001928E-02 0.  1.
</event>
<event>
 5   0  0.6052292E-05  0.2099923E+04  0.7818609E-02  0.8561277E-01
       -1   -1    0    0    0  501  0.00000000000E+00  0.00000000000E+00  0.14518186875E+04  0.14518186875E+04  0.50400001928E-02 0. -1.
        1   -1    0    0  501    0  0.00000000000E+00  0.00000000000E+00 -0.75933700006E+03  0.75933700008E+03  0.50400001928E-02 0.  1.
    10030    2    1    2    0    0  0.00000000000E+00  0.00000000000E+00  0.69248168741E+03  0.22111556876E+04  0.20999234718E+04 0.  0.
        1    1    3    3  502    0  0.80349959701E+03  0.48386248128E+03 -0.15065055208E+03  0.94996320563E+03  0.50400001928E-02 0. -1.
       -1    1    3    3    0  502 -0.80349959701E+03 -0.48386248128E+03  0.84313223949E+03  0.12611924819E+04  0.50400001928E-02 0.  1.
</event>
<event>
 5   0  0.5933905E-05  0.2108165E+04  0.7818609E-02  0.8557655E-01
        1   -1    0    0  501    0  0.00000000000E+00  0.00000000000E+00  0.19488943476E+04  0.19488943476E+04  0.50400001928E-02 0.  1.
       -1   -1    0    0    0  501  0.00000000000E+00  0.00000000000E+00 -0.57011296508E+03  0.57011296510E+03  0.50400001928E-02 0. -1.
    10030    2    1    2    0    0  0.00000000000E+00  0.00000000000E+00  0.13787813825E+04  0.25190073127E+04  0.21081650174E+04 0.  0.
        2    1    3    3  502    0  0.36364042703E+03  0.10024290749E+03  0.18654885118E+04  0.19032420730E+04  0.25500000920E-02 0.  1.
       -2    1    3    3    0  502 -0.36364042703E+03 -0.10024290749E+03 -0.48670712932E+03  0.61576523969E+03  0.25500000920E-02 0. -1.
</event>
<event>
 5   0  0.6221148E-05  0.2096468E+04  0.7818609E-02  0.8562801E-01
        1   -1    0    0  501    0  0.00000000000E+00  0.00000000000E+00  0.13797778988E+04  0.13797778988E+04  0.50400001928E-02 0. -1.
       -1   -1    0    0    0  501  0.00000000000E+00  0.00000000000E+00 -0.79635570267E+03  0.79635570269E+03  0.50400001928E-02 0.  1.
    10030    2    1    2    0    0  0.00000000000E+00  0.00000000000E+00  0.58342219611E+03  0.21761336015E+04  0.20964675033E+04 0.  0.
        3    1    3    3  502    0 -0.40829369791E+03 -0.60896425264E+03 -0.48592546797E+03  0.87958215953E+03  0.10100000352E+00 0.  1.
       -3    1    3    3    0  502  0.40829369791E+03  0.60896425264E+03  0.10693476641E+04  0.12965514419E+04  0.10100000352E+00 0. -1.
</event>
<event>
 5   0  0.1235817E-04  0.2080732E+04  0.7818609E-02  0.8569779E-01
       -2   -1    0    0    0  501  0.00000000000E+00  0.00000000000E+00  0.10886320929E+04  0.10886320929E+04  0.25500000920E-02 0. -1.
        2   -1    0    0  501    0  0.00000000000E+00  0.00000000000E+00 -0.99424030125E+03  0.99424030125E+03  0.25500000920E-02 0.  1.
    10030    2    1    2    0    0  0.00000000000E+00  0.00000000000E+00  0.94391791609E+02  0.20828723941E+04  0.20807324671E+04 0.  0.
        1    1    3    3  502    0 -0.38556915045E+03 -0.17632831630E+03  0.99822911253E+03  0.10845352028E+04  0.50400001928E-02 0. -1.
       -1    1    3    3    0  502  0.38556915045E+03  0.17632831630E+03 -0.90383732092E+03  0.99833719134E+03  0.50400001928E-02 0.  1.
</event>
<event>
 5   0  0.1281470E-04  0.2100922E+04  0.7818609E-02  0.8560837E-01
        2   -1    0    0  501    0  0.00000000000E+00  0.00000000000E+00  0.94608359911E+03  0.94608359911E+03  0.25500000920E-02 0. -1.
       -2   -1    0    0    0  501  0.00000000000E+00  0.00000000000E+00 -0.11663541311E+04  0.11663541311E+04  0.25500000920E-02 0.  1.
    10030    2    1    2    0    0  0.00000000000E+00  0.00000000000E+00 -0.22027053198E+03  0.21124377302E+04  0.21009221920E+04 0.  0.
        3    1    3    3  502    0 -0.92400240980E+03  0.82914502426E+02  0.38532647649E+03  0.10045555095E+04  0.10100000352E+00 0. -1.
       -3    1    3    3    0  502  0.92400240980E+03 -0.82914502426E+02 -0.60559700848E+03  0.11078822207E+04  0.10100000352E+00 0.  1.
</event>
<event>
 5   0  0.6221148E-05  0.1848291E+04  0.7818609E-02  0.8681032E-01
        1   -1    0    0  501    0  0.00000000000E+00  0.00000000000E+00  0.56953940420E+03  0.56953940423E+03  0.50400001928E-02 0. -1.
       -1   -1    0    0    0  501  0.00000000000E+00  0.00000000000E+00 -0.14995364538E+04  0.14995364538E+04  0.50400001928E-02 0.  1.
    10030    2    1    2    0    0  0.00000000000E+00  0.00000000000E+00 -0.92999704959E+03  0.20690758580E+04  0.18482912092E+04 0.  0.
        3    1    3    3  502    0  0.28625138212E+03  0.82995466873E+03 -0.78805439096E+03  0.11797433362E+04  0.10100000352E+00 0.  1.
       -3    1    3    3    0  502 -0.28625138212E+03 -0.82995466873E+03 -0.14194265863E+03  0.88933252186E+03  0.10100000352E+00 0. -1.
</event>
<event>
 5   0  0.1325673E-04  0.2087494E+04  0.7818609E-02  0.8566772E-01
       -2   -1    0    0    0  501  0.00000000000E+00  0.00000000000E+00  0.61866614726E+03  0.61866614726E+03  0.25500000920E-02 0. -1.
        2   -1    0    0  501    0  0.00000000000E+00  0.00000000000E+00 -0.17608977799E+04  0.17608977799E+04  0.25500000920E-02 0.  1.
    10030    2    1    2    0    0  0.00000000000E+00  0.00000000000E+00 -0.11422316327E+04  0.23795639272E+04  0.20874940433E+04 0.  0.
        5    1    3    3  502    0  0.50561901919E+03  0.63478512320E+03 -0.13192877545E+04  0.15489173685E+04  0.46999998093E+01 0.  1.
       -5    1    3    3    0  502 -0.50561901919E+03 -0.63478512320E+03  0.17705612185E+03  0.83064655870E+03  0.46999998093E+01 0. -1.
</event>
<event>
 5   0  0.6263616E-05  0.2083837E+04  0.7818609E-02  0.8568397E-01
       -1   -1    0    0    0  501  0.00000000000E+00  0.00000000000E+00  0.58041049408E+03  0.58041049410E+03  0.50400001928E-02 0. -1.
        1   -1    0    0  501    0  0.00000000000E+00  0.00000000000E+00 -0.18703907214E+04  0.18703907214E+04  0.50400001928E-02 0.  1.
    10030    2    1    2    0    0  0.00000000000E+00  0.00000000000E+00 -0.12899802273E+04  0.24508012155E+04  0.20838372324E+04 0.  0.
        4    1    3    3  502    0  0.83366027006E+03 -0.37152710466E+03 -0.12360561386E+04  0.15365084530E+04  0.12699999809E+01 0.  1.
       -4    1    3    3    0  502 -0.83366027006E+03  0.37152710466E+03 -0.53924088708E+02  0.91429276253E+03  0.12699999809E+01 0. -1.
</event>
<event>
 5   0  0.5933905E-05  0.2133886E+04  0.7818609E-02  0.8546462E-01
        1   -1    0    0  501    0  0.00000000000E+00  0.00000000000E+00  0.11169005349E+04  0.11169005349E+04  0.50400001928E-02 0. -1.
       -1   -1    0    0    0  501  0.00000000000E+00  0.00000000000E+00 -0.10192197699E+04  0.10192197699E+04  0.50400001928E-02 0.  1.
    10030    2    1    2    0    0  0.00000000000E+00  0.00000000000E+00  0.97680764918E+02  0.21361203048E+04  0.21338857572E+04 0.  0.
        2    1    3    3  502    0  0.46946208850E+03  0.72573648030E+03 -0.57733764138E+03  0.10394262088E+04  0.25500000920E-02 0.  1.
       -2    1    3    3    0  502 -0.46946208850E+03 -0.72573648030E+03  0.67501840630E+03  0.10966940960E+04  0.25500000920E-02 0. -1.
</event>
<event>
 5   0  0.6052292E-05  0.2093077E+04  0.7818609E-02  0.8564299E-01
        1   -1    0    0  501    0  0.00000000000E+00  0.00000000000E+00  0.16385830204E+04  0.16385830205E+04  0.50400001928E-02 0.  1.
       -1   -1    0    0    0  501  0.00000000000E+00  0.00000000000E+00 -0.66840846382E+03  0.66840846384E+03  0.50400001928E-02 0. -1.
    10030    2    1    2    0    0  0.00000000000E+00  0.00000000000E+00  0.97017455663E+03  0.23069914843E+04  0.20930769308E+04 0.  0.
        1    1    3    3  502    0  0.65392909983E+02  0.10134776832E+04  0.76355288592E+03  0.12706007463E+04  0.50400001928E-02 0. -1.
       -1    1    3    3    0  502 -0.65392909983E+02 -0.10134776832E+04  0.20662167071E+03  0.10363907380E+04  0.50400001928E-02 0.  1.
</event>
<event>
 5   0  0.5846187E-05  0.2090614E+04  0.7818609E-02  0.8565389E-01
       -1   -1    0    0    0  501  0.00000000000E+00  0.00000000000E+00  0.62229249064E+03  0.62229249066E+03  0.50400001928E-02 0.  1.
        1   -1    0    0  501    0  0.00000000000E+00  0.00000000000E+00 -0.17558725652E+04  0.17558725652E+04  0.50400001928E-02 0. -1.
    10030    2    1    2    0    0  0.00000000000E+00  0.00000000000E+00 -0.11335800746E+04  0.23781650559E+04  0.20906136055E+04 0.  0.
        5    1    3    3  502    0  0.75722966730E+03 -0.71815195975E+03 -0.63413817445E+03  0.12211848020E+04  0.46999998093E+01 0. -1.
       -5    1    3    3    0  502 -0.75722966730E+03  0.71815195975E+03 -0.49944190015E+03  0.11569802539E+04  0.46999998093E+01 0.  1.
</event>
<event>
 5   0  0.1325673E-04  0.2099040E+04  0.7818609E-02  0.8561666E-01
       -2   -1    0    0    0  501  0.00000000000E+00  0.00000000000E+00  0.75896601644E+03  0.75896601644E+03  0.25500000920E-02 0.  1.
        2   -1    0    0  501    0  0.00000000000E+00  0.00000000000E+00 -0.14513068815E+04  0.14513068815E+04  0.25500000920E-02 0. -1.
    10030    2    1    2    0    0  0.00000000000E+00  0.00000000000E+00 -0.69234086511E+03  0.22102728980E+04  0.20990403546E+04 0.  0.
        5    1    3    3  502    0 -0.29665166845E+03 -0.71569051788E+03 -0.10916824268E+04  0.13386589337E+04  0.46999998093E+01 0. -1.
       -5    1    3    3    0  502  0.29665166845E+03  0.71569051788E+03  0.39934156174E+03  0.87161396426E+03  0.46999998093E+01 0.  1.
</event>
<event>
 5   0  0.1252477E-04  0.2223811E+04  0.7818609E-02  0.8508582E-01
        2   -1    0    0  501    0  0.00000000000E+00  0.00000000000E+00  0.17789395619E+04  0.17789395619E+04  0.25500000920E-02 0. -1.
       -2   -1    0    0    0  501  0.00000000000E+00  0.00000000000E+00 -0.69498339795E+03  0.69498339796E+03  0.25500000920E-02 0.  1.
    10030    2    1    2    0    0  0.00000000000E+00  0.00000000000E+00  0.10839561640E+04  0.24739229599E+04  0.22238106588E+04 0.  0.
        4    1    3    3  502    0  0.10972979707E+04  0.28074856730E+02  0.34459435562E+03  0.11504772562E+04  0.12699999809E+01 0. -1.
       -4    1    3    3    0  502 -0.10972979707E+04 -0.28074856730E+02  0.73936180836E+03  0.13234457037E+04  0.12699999809E+01 0.  1.
</event>
<event>
 5   0  0.5846187E-05  0.2064741E+04  0.7818609E-02  0.8576936E-01
        1   -1    0    0  501    0  0.00000000000E+00  0.00000000000E+00  0.14146010792E+04  0.14146010792E+04  0.50400001928E-02 0. -1.
       -1   -1    0    0    0  501  0.00000000000E+00  0.00000000000E+00 -0.75342017966E+03  0.75342017968E+03  0.50400001928E-02 0.  1.
    10030    2    1    2    0    0  0.00000000000E+00  0.00000000000E+00  0.66118089953E+03  0.21680212589E+04  0.20647411453E+04 0.  0.
        5    1    3    3  502    0  0.55765905309E+03  0.76111783792E+03 -0.10927045018E+03  0.94986636111E+03  0.46999998093E+01 0.  1.
       -5    1    3    3    0  502 -0.55765905309E+03 -0.76111783792E+03  0.77045134971E+03  0.12181548978E+04  0.46999998093E+01 0. -1.
</event>
<event>
 5   0  0.4615125E-05  0.2103395E+04  0.7818609E-02  0.8559749E-01
       -3   -1    0    0    0  501  0.00000000000E+00  0.00000000000E+00  0.12564462049E+04  0.12564462090E+04  0.10100000352E+00 0. -1.
        3   -1    0    0  501    0  0.00000000000E+00  0.00000000000E+00 -0.88031438097E+03  0.88031438677E+03  0.10100000352E+00 0.  1.
    10030    2    1    2    0    0  0.00000000000E+00  0.00000000000E+00  0.37613182395E+03  0.21367605957E+04  0.21033950401E+04 0.  0.
        2    1    3    3  502    0  0.97567670645E+03  0.37166381939E+03  0.31651789998E+03  0.10909915725E+04  0.25500000920E-02 0. -1.
       -2    1    3    3    0  502 -0.97567670645E+03 -0.37166381939E+03  0.59613923966E+02  0.10457690233E+04  0.25500000920E-02 0.  1.
</event>
<event>
 5   0  0.1235817E-04  0.2081544E+04  0.7818609E-02  0.8569417E-01
       -2   -1    0    0    0  501  0.00000000000E+00  0.00000000000E+00  0.90014035723E+03  0.90014035724E+03  0.25500000920E-02 0.  1.
        2   -1    0    0  501    0  0.00000000000E+00  0.00000000000E+00 -0.12033746441E+04  0.12033746441E+04  0.25500000920E-02 0. -1.
    10030    2    1    2    0    0  0.00000000000E+00  0.00000000000E+00 -0.30323428684E+03  0.21035150013E+04  0.20815437368E+04 0.  0.
        1    1    3    3  502    0 -0.84156532081E+03 -0.15071671905E+03 -0.75139541657E+03  0.11382191312E+04  0.50400001928E-02 0. -1.
       -1    1    3    3    0  502  0.84156532081E+03  0.15071671905E+03  0.44816112973E+03  0.96529587010E+03  0.50400001928E-02 0.  1.
</event>
<event>
 5   0  0.1252477E-04  0.2067459E+04  0.7818609E-02  0.8575715E-01
        2   -1    0    0  501    0  0.00000000000E+00  0.00000000000E+00  0.13415317979E+04  0.13415317979E+04  0.25500000920E-02 0. -1.
       -2   -1    0    0    0  501  0.00000000000E+00  0.00000000000E+00 -0.79654945700E+03  0.79654945700E+03  0.25500000920E-02 0.  1.
    10030    2    1    2    0    0  0.00000000000E+00  0.00000000000E+00  0.54498234093E+03  0.21380812549E+04  0.20674587543E+04 0.  0.
        4    1    3    3  502    0  0.10931649692E+02 -0.10336705299E+04  0.27172634838E+03  0.10688456795E+04  0.12699999809E+01 0.  1.
       -4    1    3    3    0  502 -0.10931649692E+02  0.10336705299E+04  0.27325599255E+03  0.10692355754E+04  0.12699999809E+01 0. -1.
</event>
<event>
 5   0  0.1252477E-04  0.2035843E+04  0.7818609E-02  0.8590044E-01
       -2   -1    0    0    0  501  0.00000000000E+00  0.00000000000E+00  0.62314926919E+03  0.62314926920E+03  0.25500000920E-02 0. -1.
        2   -1    0    0  501    0  0.00000000000E+00  0.00000000000E+00 -0.16627858357E+04  0.16627858357E+04  0.25500000920E-02 0.  1.
    10030    2    1    2    0    0  0.00000000000E+00  0.00000000000E+00 -0.10396365665E+04  0.22859351049E+04  0.20358426052E+04 0.  0.
        4    1    3    3  502    0  0.77628655192E+03 -0.65595724844E+03 -0.58394287178E+03  0.11721312268E+04  0.12699999809E+01 0. -1.
       -4    1    3    3    0  502 -0.77628655192E+03  0.65595724844E+03 -0.45569369470E+03  0.11138038781E+04  0.12699999809E+01 0.  1.
</event>
<event>
 5   0  0.6263616E-05  0.2295427E+04  0.7818609E-02  0.8479726E-01
        1   -1    0    0  501    0  0.00000000000E+00  0.00000000000E+00  0.72494177449E+03  0.72494177450E+03  0.50400001928E-02 0.  1.
       -1   -1    0    0    0  501  0.00000000000E+00  0.00000000000E+00 -0.18170378689E+04  0.18170378689E+04  0.50400001928E-02 0. -1.
    10030    2    1    2    0    0  0.00000000000E+00  0.00000000000E+00 -0.10920960944E+04  0.25419796434E+04  0.22954273302E+04 0.  0.
        4    1    3    3  502    0 -0.23755470134E+02 -0.61878717322E+03 -0.16161657238E+04  0.17307383245E+04  0.12699999809E+01 0. -1.
       -4    1    3    3    0  502  0.23755470134E+02  0.61878717322E+03  0.52406962943E+03  0.81124131890E+03  0.12699999809E+01 0.  1.
</event>
<event>
 5   0  0.6221148E-05  0.1524779E+04  0.7818609E-02  0.8868140E-01
       -1   -1    0    0    0  501  0.00000000000E+00  0.00000000000E+00  0.45097280183E+03  0.45097280186E+03  0.50400001928E-02 0. -1.
        1   -1    0    0  501    0  0.00000000000E+00  0.00000000000E+00 -0.12888532156E+04  0.12888532156E+04  0.50400001928E-02 0.  1.
    10030    2    1    2    0    0  0.00000000000E+00  0.00000000000E+00 -0.83788041373E+03  0.17398260174E+04  0.15247789949E+04 0.  0.
        3    1    3    3  502    0  0.16806991465E+03 -0.48846133403E+03 -0.10587299359E+04  0.11780284625E+04  0.10100000352E+00 0.  1.
       -3    1    3    3    0  502 -0.16806991465E+03  0.48846133403E+03  0.22084952220E+03  0.56179755492E+03  0.10100000352E+00 0. -1.
</event>
<event>
 5   0  0.6221148E-05  0.2028940E+04  0.7818609E-02  0.8593209E-01
        1   -1    0    0  501    0  0.00000000000E+00  0.00000000000E+00  0.15009601682E+04  0.15009601682E+04  0.50400001928E-02 0. -1.
       -1   -1    0    0    0  501  0.00000000000E+00  0.00000000000E+00 -0.68566046134E+03  0.68566046136E+03  0.50400001928E-02 0.  1.
    10030    2    1    2    0    0  0.00000000000E+00  0.00000000000E+00  0.81529970687E+03  0.21866206296E+04  0.20289396654E+04 0.  0.
        3    1    3    3  502    0  0.74688551088E+03 -0.68057551067E+03  0.50481202249E+03  0.11295380385E+04  0.10100000352E+00 0. -1.
       -3    1    3    3    0  502 -0.74688551088E+03  0.68057551067E+03  0.31048768437E+03  0.10570825911E+04  0.10100000352E+00 0.  1.
</event>
<event>
 5   0  0.1252477E-04  0.2104255E+04  0.7818609E-02  0.8559371E-01
       -2   -1    0    0    0  501  0.00000000000E+00  0.00000000000E+00  0.14248489378E+04  0.14248489378E+04  0.25500000920E-02 0. -1.
        2   -1    0    0  501    0  0.00000000000E+00  0.00000000000E+00 -0.77690493530E+03  0.77690493530E+03  0.25500000920E-02 0.  1.
    10030    2    1    2    0    0  0.00000000000E+00  0.00000000000E+00  0.64794400253E+03  0.22017538731E+04  0.21042549008E+04 0.  0.
        4    1    3    3  502    0  0.52016265585E+03  0.63696998041E+03  0.10106340448E+04  0.13029515455E+04  0.12699999809E+01 0. -1.
       -4    1    3    3    0  502 -0.52016265585E+03 -0.63696998041E+03 -0.36269004228E+03  0.89880232764E+03  0.12699999809E+01 0.  1.
</event>
<event>
 5   0  0.6263616E-05  0.2107322E+04  0.7818609E-02  0.8558025E-01
        1   -1    0    0  501    0  0.00000000000E+00  0.00000000000E+00  0.85166104466E+03  0.85166104468E+03  0.50400001928E-02 0.  1.
       -1   -1    0    0    0  501  0.00000000000E+00  0.00000000000E+00 -0.13035720084E+04  0.13035720084E+04  0.50400001928E-02 0. -1.
    10030    2    1    2    0    0  0.00000000000E+00  0.00000000000E+00 -0.45191096370E+03  0.21552330531E+04  0.21073219958E+04 0.  0.
        4    1    3    3  502    0 -0.76588999321E+03  0.31387920207E+03 -0.89276982425E+03  0.12174346829E+04  0.12699999809E+01 0.  1.
       -4    1    3    3    0  502  0.76588999321E+03 -0.31387920207E+03  0.44085886055E+03  0.93779837013E+03  0.12699999809E+01 0. -1.
</event>
<event>
 5   0  0.1235817E-04  0.2027811E+04  0.7818609E-02  0.8593727E-01
       -2   -1    0    0    0  501  0.00000000000E+00  0.00000000000E+00  0.85605956762E+03  0.85605956763E+03  0.25500000920E-02 0. -1.
        2   -1    0    0  501    0  0.00000000000E+00  0.00000000000E+00 -0.12008566457E+04  0.12008566457E+04  0.25500000920E-02 0.  1.
    10030    2    1    2    0    0  0.00000000000E+00  0.00000000000E+00 -0.34479707808E+03  0.20569162133E+04  0.20278114517E+04 0.  0.
        1    1    3    3  502    0 -0.39494587518E+03 -0.54402422996E+03  0.59748134238E+03  0.89940455948E+03  0.50400001928E-02 0. -1.
       -1    1    3    3    0  502  0.39494587518E+03  0.54402422996E+03 -0.94227842046E+03  0.11575116539E+04  0.50400001928E-02 0.  1.
</event>
<event>
 5   0  0.5846187E-05  0.2065932E+04  0.7818609E-02  0.8576401E-01
       -1   -1    0    0    0  501  0.00000000000E+00  0.00000000000E+00  0.10983212822E+04  0.10983212822E+04  0.50400001928E-02 0.  1.
        1   -1    0    0  501    0  0.00000000000E+00  0.00000000000E+00 -0.97149938428E+03  0.97149938429E+03  0.50400001928E-02 0. -1.
    10030    2    1    2    0    0  0.00000000000E+00  0.00000000000E+00  0.12682189788E+03  0.20698206665E+04  0.20659317020E+04 0.  0.
        5    1    3    3  502    0  0.34165709007E+03 -0.91080052519E+03  0.41149725375E+03  0.10562382514E+04  0.46999998093E+01 0.  1.
       -5    1    3    3    0  502 -0.34165709007E+03  0.91080052519E+03 -0.28467535588E+03  0.10135824151E+04  0.46999998093E+01 0. -1.
</event>
<event>
 5   0  0.1281470E-04  0.2098537E+04  0.7818609E-02  0.8561888E-01
        2   -1    0    0  501    0  0.00000000000E+00  0.00000000000E+00  0.20631085085E+04  0.20631085085E+04  0.25500000920E-02 0.  1.
       -2   -1    0    0    0  501  0.00000000000E+00  0.00000000000E+00 -0.53364344592E+03  0.53364344593E+03  0.25500000920E-02 0. -1.
    10030    2    1    2    0    0  0.00000000000E+00  0.00000000000E+00  0.15294650626E+04  0.25967519544E+04  0.20985369511E+04 0.  0.
        3    1    3    3  502    0  0.62266354625E+03 -0.48594115725E+02 -0.27858373559E+03  0.68387147027E+03  0.10100000352E+00 0. -1.
       -3    1    3    3    0  502 -0.62266354625E+03  0.48594115725E+02  0.18080487982E+04  0.19128804842E+04  0.10100000352E+00 0.  1.
</event>
<event>
 5   0  0.1235817E-04  0.2147267E+04  0.7818609E-02  0.8540703E-01
       -2   -1    0    0    0  501  0.00000000000E+00  0.00000000000E+00  0.52312137903E+03  0.52312137903E+03  0.25500000920E-02 0. -1.
        2   -1    0    0  501    0  0.00000000000E+00  0.00000000000E+00 -0.22034835664E+04  0.22034835664E+04  0.25500000920E-02 0.  1.
    10030    2    1    2    0    0  0.00000000000E+00  0.00000000000E+00 -0.16803621874E+04  0.27266049454E+04  0.21472674374E+04 0.  0.
        1    1    3    3  502    0  0.48849889661E+03  0.94845206766E+03 -0.68729318814E+03  0.12690801484E+04  0.50400001928E-02 0. -1.
       -1    1    3    3    0  502 -0.48849889661E+03 -0.94845206766E+03 -0.99306899923E+03  0.14575247970E+04  0.50400001928E-02 0.  1.
</event>
<event>
 5   0  0.5846187E-05  0.2087627E+04  0.7818609E-02  0.8566713E-01
       -1   -1    0    0    0  501  0.00000000000E+00  0.00000000000E+00  0.58385679957E+03  0.58385679959E+03  0.50400001928E-02 0. -1.
        1   -1    0    0  501    0  0.00000000000E+00  0.00000000000E+00 -0.18661197857E+04  0.18661197857E+04  0.50400001928E-02 0.  1.
    10030    2    1    2    0    0  0.00000000000E+00  0.00000000000E+00 -0.12822629861E+04  0.24499765853E+04  0.20876270986E+04 0.  0.
        5    1    3    3  502    0 -0.50936537070E+03 -0.48394542244E+03  0.26477668290E+03  0.75085620100E+03  0.46999998093E+01 0. -1.
       -5    1    3    3    0  502  0.50936537070E+03  0.48394542244E+03 -0.15470396690E+04  0.16991203843E+04  0.46999998093E+01 0.  1.
</event>
<event>
 5   0  0.5933905E-05  0.2098542E+04  0.7818609E-02  0.8561886E-01
        1   -1    0    0  501    0  0.00000000000E+00  0.00000000000E+00  0.10162494646E+04  0.10162494647E+04  0.50400001928E-02 0.  1.
       -1   -1    0    0    0  501  0.00000000000E+00  0.00000000000E+00 -0.10833659439E+04  0.10833659439E+04  0.50400001928E-02 0. -1.
    10030    2    1    2    0    0  0.00000000000E+00  0.00000000000E+00 -0.67116479292E+02  0.20996154086E+04  0.20985424090E+04 0.  0.
        2    1    3    3  502    0  0.88456668875E+03 -0.21822950257E+02 -0.59779303422E+03  0.10678440803E+04  0.25500000920E-02 0. -1.
       -2    1    3    3    0  502 -0.88456668875E+03  0.21822950257E+02  0.53067655493E+03  0.10317713283E+04  0.25500000920E-02 0.  1.
</event>
<event>
 5   0  0.1349252E-04  0.2042557E+04  0.7818609E-02  0.8586979E-01
        2   -1    0    0  501    0  0.00000000000E+00  0.00000000000E+00  0.20177486343E+04  0.20177486343E+04  0.25500000920E-02 0.  1.
       -2   -1    0    0    0  501  0.00000000000E+00  0.00000000000E+00 -0.51691735662E+03  0.51691735662E+03  0.25500000920E-02 0. -1.
    10030    2    1    2    0    0  0.00000000000E+00  0.00000000000E+00  0.15008312777E+04  0.25346659910E+04  0.20425565259E+04 0.  0.
        2    1    3    3  502    0  0.25794984166E+03  0.97880291535E+03  0.91881660225E+03  0.13670468962E+04  0.25500000920E-02 0.  1.
       -2    1    3    3    0  502 -0.25794984166E+03 -0.97880291535E+03  0.58201467546E+03  0.11676190947E+04  0.25500000920E-02 0. -1.
</event>
<event>
 5   0  0.1349252E-04  0.2114760E+04  0.7818609E-02  0.8554769E-01
       -2   -1    0    0    0  501  0.00000000000E+00  0.00000000000E+00  0.65907814061E+03  0.65907814061E+03  0.25500000920E-02 0.  1.
        2   -1    0    0  501    0  0.00000000000E+00  0.00000000000E+00 -0.16963877010E+04  0.16963877010E+04  0.25500000920E-02 0. -1.
    10030    2    1    2    0    0  0.00000000000E+00  0.00000000000E+00 -0.10373095604E+04  0.23554658417E+04  0.21147596097E+04 0.  0.
        2    1    3    3  502    0  0.59220188949E+03 -0.13050633625E+03  0.44614726836E+03  0.75284949810E+03  0.25500000920E-02 0.  1.
       -2    1    3    3    0  502 -0.59220188949E+03  0.13050633625E+03 -0.14834568288E+04  0.16026163436E+04  0.25500000920E-02 0. -1.
</event>
<event>
 5   0  0.6221148E-05  0.2127977E+04  0.7818609E-02  0.8549018E-01
       -1   -1    0    0    0  501  0.00000000000E+00  0.00000000000E+00  0.86265814211E+03  0.86265814213E+03  0.50400001928E-02 0. -1.
        1   -1    0    0  501    0  0.00000000000E+00  0.00000000000E+00 -0.13123066600E+04  0.13123066600E+04  0.50400001928E-02 0.  1.
    10030    2    1    2    0    0  0.00000000000E+00  0.00000000000E+00 -0.44964851785E+03  0.21749648021E+04  0.21279774672E+04 0.  0.
        3    1    3    3  502    0 -0.35268027675E+03 -0.96348452954E+03 -0.51280119823E+03  0.11470182629E+04  0.10100000352E+00 0.  1.
       -3    1    3    3    0  502  0.35268027675E+03  0.96348452954E+03  0.63152680374E+02  0.10279465392E+04  0.10100000352E+00 0. -1.
</event>
<event>
 5   0  0.5933905E-05  0.2091514E+04  0.7818609E-02  0.8564991E-01
        1   -1    0    0  501    0  0.00000000000E+00  0.00000000000E+00  0.86927164835E+03  0.86927164837E+03  0.50400001928E-02 0.  1.
       -1   -1    0    0    0  501  0.00000000000E+00  0.00000000000E+00 -0.12580740081E+04  0.12580740081E+04  0.50400001928E-02 0. -1.
    10030    2    1    2    0    0  0.00000000000E+00  0.00000000000E+00 -0.38880235973E+03  0.21273456565E+04  0.20915143478E+04 0.  0.
        2    1    3    3  502    0  0.66200303767E+03 -0.85569281392E+01  0.62896482229E+03  0.91319110299E+03  0.25500000920E-02 0.  1.
       -2    1    3    3    0  502 -0.66200303767E+03  0.85569281392E+01 -0.10177671820E+04  0.12141545535E+04  0.25500000920E-02 0. -1.
</event>
<event>
 5   0  0.1235817E-04  0.2094060E+04  0.7818609E-02  0.8563865E-01
       -2   -1    0    0    0  501  0.00000000000E+00  0.00000000000E+00  0.14340994968E+04  0.14340994968E+04  0.25500000920E-02 0. -1.
        2   -1    0    0  501    0  0.00000000000E+00  0.00000000000E+00 -0.76443184011E+03  0.76443184012E+03  0.25500000920E-02 0.  1.
    10030    2    1    2    0    0  0.00000000000E+00  0.00000000000E+00  0.66966765664E+03  0.21985313369E+04  0.20940595189E+04 0.  0.
        1    1    3    3  502    0  0.18716241550E+03  0.45472804107E+03  0.13053225946E+04  0.13948743446E+04  0.50400001928E-02 0. -1.
       -1    1    3    3    0  502 -0.18716241550E+03 -0.45472804107E+03 -0.63565493796E+03  0.80365699231E+03  0.50400001928E-02 0.  1.
</event>
<event>
 5   0  0.6263616E-05  0.2114452E+04  0.7818609E-02  0.8554904E-01
       -1   -1    0    0    0  501  0.00000000000E+00  0.00000000000E+00  0.20163746685E+04  0.20163746686E+04  0.50400001928E-02 0. -1.
        1   -1    0    0  501    0  0.00000000000E+00  0.00000000000E+00 -0.55432488202E+03  0.55432488204E+03  0.50400001928E-02 0.  1.
    10030    2    1    2    0    0  0.00000000000E+00  0.00000000000E+00  0.14620497865E+04  0.25706995506E+04  0.21144518441E+04 0.  0.
        4    1    3    3  502    0  0.82843458528E+02 -0.52635752287E+02  0.20108226071E+04  0.20132170105E+04  0.12699999809E+01 0. -1.
       -4    1    3    3    0  502 -0.82843458528E+02  0.52635752287E+02 -0.54877282058E+03  0.55748254013E+03  0.12699999809E+01 0.  1.
</event>
<event>
 5   0  0.1235817E-04  0.2082159E+04  0.7818609E-02  0.8569143E-01
       -2   -1    0    0    0  501  0.00000000000E+00  0.00000000000E+00  0.49810562981E+03  0.49810562982E+03  0.25500000920E-02 0.  1.
        2   -1    0    0  501    0  0.00000000000E+00  0.00000000000E+00 -0.21759377625E+04  0.21759377625E+04  0.25500000920E-02 0. -1.
    10030    2    1    2    0    0  0.00000000000E+00  0.00000000000E+00 -0.16778321327E+04  0.26740433923E+04  0.20821593115E+04 0.  0.
        1    1    3    3  502    0  0.66827490493E+02 -0.75360086403E+03  0.79550105805E+02  0.76072885782E+03  0.50400001928E-02 0.  1.
       -1    1    3    3    0  502 -0.66827490493E+02  0.75360086403E+03 -0.17573822385E+04  0.19133145345E+04  0.50400001928E-02 0. -1.
</event>
<event>
 5   0  0.6052292E-05  0.2076477E+04  0.7818609E-02  0.8571677E-01
       -1   -1    0    0    0  501  0.00000000000E+00  0.00000000000E+00  0.66402137965E+03  0.66402137967E+03  0.50400001928E-02 0. -1.
        1   -1    0    0  501    0  0.00000000000E+00  0.00000000000E+00 -0.16233496615E+04  0.16233496615E+04  0.50400001928E-02 0.  1.
    10030    2    1    2    0    0  0.00000000000E+00  0.00000000000E+00 -0.95932828185E+03  0.22873710412E+04  0.20764767101E+04 0.  0.
        1    1    3    3  502    0  0.94620274426E+01 -0.85665420202E+03  0.16641290647E+03  0.87271943216E+03  0.50400001928E-02 0. -1.
       -1    1    3    3    0  502 -0.94620274426E+01  0.85665420202E+03 -0.11257411883E+04  0.14146516090E+04  0.50400001928E-02 0.  1.
</event>
<event>
 5   0  0.1252477E-04  0.2103507E+04  0.7818609E-02  0.8559700E-01
        2   -1    0    0  501    0  0.00000000000E+00  0.00000000000E+00  0.99873133596E+03  0.99873133596E+03  0.25500000920E-02 0.  1.
       -2   -1    0    0    0  501  0.00000000000E+00  0.00000000000E+00 -0.11075909451E+04  0.11075909451E+04  0.25500000920E-02 0. -1.
    10030    2    1    2    0    0  0.00000000000E+00  0.00000000000E+00 -0.10885960915E+03  0.21063222811E+04  0.21035073419E+04 0.  0.
        4    1    3    3  502    0 -0.91311893731E+03 -0.35212487627E+03  0.33132077883E+03  0.10332246578E+04  0.12699999809E+01 0. -1.
       -4    1    3    3    0  502  0.91311893731E+03  0.35212487627E+03 -0.44018038797E+03  0.10730976232E+04  0.12699999809E+01 0.  1.
</event>
<event>
 5   0  0.4615125E-05  0.2117478E+04  0.7818609E-02  0.8553583E-01
        3   -1    0    0  501    0  0.00000000000E+00  0.00000000000E+00  0.90213065508E+03  0.90213066074E+03  0.10100000352E+00 0. -1.
       -3   -1    0    0    0  501  0.00000000000E+00  0.00000000000E+00 -0.12425346979E+04  0.12425347020E+04  0.10100000352E+00 0.  1.
    10030    2    1    2    0    0  0.00000000000E+00  0.00000000000E+00 -0.34040404281E+03  0.21446653627E+04  0.21174783602E+04 0.  0.
        2    1    3    3  502    0 -0.10348637528E+03  0.50885497032E+02  0.89575057095E+03  0.90314331589E+03  0.25500000920E-02 0. -1.
       -2    1    3    3    0  502  0.10348637528E+03 -0.50885497032E+02 -0.12361546138E+04  0.12415220468E+04  0.25500000920E-02 0.  1.
</event>
<event>
 5   0  0.1281470E-04  0.2073227E+04  0.7818609E-02  0.8573130E-01
       -2   -1    0    0    0  501  0.00000000000E+00  0.00000000000E+00  0.18383826830E+04  0.18383826830E+04  0.25500000920E-02 0. -1.
        2   -1    0    0  501    0  0.00000000000E+00  0.00000000000E+00 -0.58451778298E+03  0.58451778299E+03  0.25500000920E-02 0.  1.
    10030    2    1    2    0    0  0.00000000000E+00  0.00000000000E+00  0.12538649001E+04  0.24229004660E+04  0.20732268281E+04 0.  0.
        3    1    3    3  502    0  0.87753654977E+02 -0.91898573630E+03  0.75884214381E+02  0.92627960772E+03  0.10100000352E+00 0.  1.
       -3    1    3    3    0  502 -0.87753654977E+02  0.91898573630E+03  0.11779806857E+04  0.14966208583E+04  0.10100000352E+00 0. -1.
</event>
<event>
 5   0  0.1349252E-04  0.2108387E+04  0.7818609E-02  0.8557558E-01
        2   -1    0    0  501    0  0.00000000000E+00  0.00000000000E+00  0.15842780431E+04  0.15842780431E+04  0.25500000920E-02 0.  1.
       -2   -1    0    0    0  501  0.00000000000E+00  0.00000000000E+00 -0.70147037873E+03  0.70147037874E+03  0.25500000920E-02 0. -1.
    10030    2    1    2    0    0  0.00000000000E+00  0.00000000000E+00  0.88280766436E+03  0.22857484218E+04  0.21083871740E+04 0.  0.
        2    1    3    3  502    0 -0.76237188338E+03  0.72170145337E+03  0.54572903639E+03  0.11831669610E+04  0.25500000920E-02 0. -1.
       -2    1    3    3    0  502  0.76237188338E+03 -0.72170145337E+03  0.33707862796E+03  0.11025814608E+04  0.25500000920E-02 0.  1.
</event>
<event>
 5   0  0.1235817E-04  0.2127330E+04  0.7818609E-02  0.8549299E-01
       -2   -1    0    0    0  501  0.00000000000E+00  0.00000000000E+00  0.13758014271E+04  0.13758014271E+04  0.25500000920E-02 0.  1.
        2   -1    0    0  501    0  0.00000000000E+00  0.00000000000E+00 -0.82234469622E+03  0.82234469622E+03  0.25500000920E-02 0. -1.
    10030    2    1    2    0    0  0.00000000000E+00  0.00000000000E+00  0.55345673093E+03  0.21981461234E+04  0.21273297879E+04 0.  0.
        1    1    3    3  502    0  0.45092421334E+03  0.95724798358E+02 -0.71376785022E+03  0.84968254497E+03  0.50400001928E-02 0. -1.
       -1    1    3    3    0  502 -0.45092421334E+03 -0.95724798358E+02  0.12672245811E+04  0.13484635784E+04  0.50400001928E-02 0.  1.
</event>
<event>
 5   0  0.5933905E-05  0.1601891E+04  0.7818609E-02  0.8819387E-01
        1   -1    0    0  501    0  0.00000000000E+00  0.00000000000E+00  0.12523351857E+04  0.12523351857E+04  0.50400001928E-02 0.  1.
       -1   -1    0    0    0  501  0.00000000000E+00  0.00000000000E+00 -0.51225367127E+03  0.51225367129E+03  0.50400001928E-02 0. -1.
    10030    2    1    2    0    0  0.00000000000E+00  0.00000000000E+00  0.74008151440E+03  0.17645888570E+04  0.16018905038E+04 0.  0.
        2    1    3    3  502    0 -0.74399289462E+03  0.72261196713E+02  0.68695166253E+03  0.10152091875E+04  0.25500000920E-02 0.  1.
       -2    1    3    3    0  502  0.74399289462E+03 -0.72261196713E+02  0.53129851866E+02  0.74937966943E+03  0.25500000920E-02 0. -1.
</event>
<event>
 5   0  0.1349252E-04  0.2081306E+04  0.7818609E-02  0.8569523E-01
       -2   -1    0    0    0  501  0.00000000000E+00  0.00000000000E+00  0.72648564299E+03  0.72648564299E+03  0.25500000920E-02 0.  1.
        2   -1    0    0  501    0  0.00000000000E+00  0.00000000000E+00 -0.14906811141E+04  0.14906811141E+04  0.25500000920E-02 0. -1.
    10030    2    1    2    0    0  0.00000000000E+00  0.00000000000E+00 -0.76419547107E+03  0.22171667571E+04  0.20813057706E+04 0.  0.
        2    1    3    3  502    0  0.41943187497E+02 -0.78274553616E+03 -0.11112550958E+04  0.13599035603E+04  0.25500000920E-02 0. -1.
       -2    1    3    3    0  502 -0.41943187497E+02  0.78274553616E+03  0.34705962474E+03  0.85726319675E+03  0.25500000920E-02 0.  1.
</event>
<event>
 5   0  0.6221148E-05  0.2089674E+04  0.7818609E-02  0.8565806E-01
       -1   -1    0    0    0  501  0.00000000000E+00  0.00000000000E+00  0.13142177059E+04  0.13142177059E+04  0.50400001928E-02 0.  1.
        1   -1    0    0  501    0  0.00000000000E+00  0.00000000000E+00 -0.83067202534E+03  0.83067202535E+03  0.50400001928E-02 0. -1.
    10030    2    1    2    0    0  0.00000000000E+00  0.00000000000E+00  0.48354568059E+03  0.21448897313E+04  0.20896735473E+04 0.  0.
        3    1    3    3  502    0 -0.53870201507E+03  0.21050326064E+03  0.11349218261E+04  0.12737970974E+04  0.10100000352E+00 0.  1.
       -3    1    3    3    0  502  0.53870201507E+03 -0.21050326064E+03 -0.65137614547E+03  0.87109263392E+03  0.10100000352E+00 0. -1.
</event>
<event>
 5   0  0.6263616E-05  0.2104171E+04  0.7818609E-02  0.8559408E-01
        1   -1    0    0  501    0  0.00000000000E+00  0.00000000000E+00  0.11283386277E+04  0.11283386277E+04  0.50400001928E-02 0.  1.
       -1   -1    0    0    0  501  0.00000000000E+00  0.00000000000E+00 -0.98098518504E+03  0.98098518505E+03  0.50400001928E-02 0. -1.
    10030    2    1    2    0    0  0.00000000000E+00  0.00000000000E+00  0.14735344264E+03  0.21093238127E+04  0.21041705991E+04 0.  0.
        4    1    3    3  502    0 -0.16125817549E+03 -0.82049669474E+03 -0.56637175788E+03  0.10099493088E+04  0.12699999809E+01 0. -1.
       -4    1    3    3    0  502  0.16125817549E+03  0.82049669474E+03  0.71372520052E+03  0.10993745040E+04  0.12699999809E+01 0.  1.
</event>
<event>
 5   0  0.5933905E-05  0.2099686E+04  0.7818609E-02  0.8561382E-01
        1   -1    0    0  501    0  0.00000000000E+00  0.00000000000E+00  0.79841703244E+03  0.79841703245E+03  0.50400001928E-02 0. -1.
       -1   -1    0    0    0  501  0.00000000000E+00  0.00000000000E+00 -0.13804446400E+04  0.13804446400E+04  0.50400001928E-02 0.  1.
    10030    2    1    2    0    0  0.00000000000E+00  0.00000000000E+00 -0.58202760752E+03  0.21788616724E+04  0.20996861793E+04 0.  0.
        2    1    3    3  502    0  0.68095881262E+03  0.72516928570E+03  0.57191230044E+02  0.99641669708E+03  0.25500000920E-02 0. -1.
       -2    1    3    3    0  502 -0.68095881262E+03 -0.72516928570E+03 -0.63921883757E+03  0.11824449753E+04  0.25500000920E-02 0.  1.
</event>
<event>
 5   0  0.5846187E-05  0.1888917E+04  0.7818609E-02  0.8660393E-01
        1   -1    0    0  501    0  0.00000000000E+00  0.00000000000E+00  0.19375476468E+04  0.19375476468E+04  0.50400001928E-02 0.  1.
       -1   -1    0    0    0  501  0.00000000000E+00  0.00000000000E+00 -0.46037691334E+03  0.46037691337E+03  0.50400001928E-02 0. -1.
    10030    2    1    2    0    0  0.00000000000E+00  0.00000000000E+00  0.14771707335E+04  0.23979245602E+04  0.18889173673E+04 0.  0.
        5    1    3    3  502    0 -0.89064606960E+03 -0.89117938491E+02  0.35608132214E+03  0.96333193980E+03  0.46999998093E+01 0.  1.
       -5    1    3    3    0  502  0.89064606960E+03  0.89117938491E+02  0.11210894113E+04  0.14345926204E+04  0.46999998093E+01 0. -1.
</event>
<event>
 5   0  0.1235817E-04  0.2109905E+04  0.7818609E-02  0.8556893E-01
        2   -1    0    0  501    0  0.00000000000E+00  0.00000000000E+00  0.16286351456E+04  0.16286351456E+04  0.25500000920E-02 0.  1.
       -2   -1    0    0    0  501  0.00000000000E+00  0.00000000000E+00 -0.68334805670E+03  0.68334805671E+03  0.25500000920E-02 0. -1.
    10030    2    1    2    0    0  0.00000000000E+00  0.00000000000E+00  0.94528708889E+03  0.23119832023E+04  0.21099048906E+04 0.  0.
        1    1    3    3  502    0  0.13817331394E+03 -0.96160634620E+03  0.21979714975E+02  0.97173130938E+03  0.50400001928E-02 0.  1.
       -1    1    3    3    0  502 -0.13817331394E+03  0.96160634620E+03  0.92330737392E+03  0.13402518929E+04  0.50400001928E-02 0. -1.
</event>
<event>
 5   0  0.1252477E-04  0.2105251E+04  0.7818609E-02  0.8558934E-01
        2   -1    0    0  501    0  0.00000000000E+00  0.00000000000E+00  0.15049309011E+04  0.15049309011E+04  0.25500000920E-02 0. -1.
       -2   -1    0    0    0  501  0.00000000000E+00  0.00000000000E+00 -0.73626034059E+03  0.73626034060E+03  0.25500000920E-02 0.  1.
    10030    2    1    2    0    0  0.00000000000E+00  0.00000000000E+00  0.76867056055E+03  0.22411912417E+04  0.21052514699E+04 0.  0.
        4    1    3    3  502    0  0.57622473413E+03 -0.56469323975E+03 -0.33541751971E+03  0.87373904838E+03  0.12699999809E+01 0.  1.
       -4    1    3    3    0  502 -0.57622473413E+03  0.56469323975E+03  0.11040880803E+04  0.13674521934E+04  0.12699999809E+01 0. -1.
</event>
<event>
 5   0  0.1281470E-04  0.2060115E+04  0.7818609E-02  0.8579019E-01
        2   -1    0    0  501    0  0.00000000000E+00  0.00000000000E+00  0.18213679824E+04  0.18213679824E+04  0.25500000920E-02 0. -1.
       -2   -1    0    0    0  501  0.00000000000E+00  0.00000000000E+00 -0.58253942446E+03  0.58253942447E+03  0.25500000920E-02 0.  1.
    10030    2    1    2    0    0  0.00000000000E+00  0.00000000000E+00  0.12388285579E+04  0.24039074069E+04  0.20601151970E+04 0.  0.
        3    1    3    3  502    0  0.98121289475E+03  0.18433165481E+03  0.91521721317E+03  0.13543926540E+04  0.10100000352E+00 0. -1.
       -3    1    3    3    0  502 -0.98121289475E+03 -0.18433165481E+03  0.32361134478E+03  0.10495147529E+04  0.10100000352E+00 0.  1.
</event>
<event>
 5   0  0.5933905E-05  0.2104196E+04  0.7818609E-02  0.8559397E-01
       -1   -1    0    0    0  501  0.00000000000E+00  0.00000000000E+00  0.92392118655E+03  0.92392118656E+03  0.50400001928E-02 0. -1.
        1   -1    0    0  501    0  0.00000000000E+00  0.00000000000E+00 -0.11980573350E+04  0.11980573350E+04  0.50400001928E-02 0.  1.
    10030    2    1    2    0    0  0.00000000000E+00  0.00000000000E+00 -0.27413614843E+03  0.21219785216E+04  0.21041963354E+04 0.  0.
        2    1    3    3  502    0  0.92247523508E+03  0.47304730061E+03  0.43825197774E+02  0.10376198514E+04  0.25500000920E-02 0. -1.
       -2    1    3    3    0  502 -0.92247523508E+03 -0.47304730061E+03 -0.31796134620E+03  0.10843586702E+04  0.25500000920E-02 0.  1.
</event>
<event>
 5   0  0.4615125E-05  0.2070916E+04  0.7818609E-02  0.8574164E-01
        4   -1    0    0  501    0  0.00000000000E+00  0.00000000000E+00  0.97178402152E+03  0.97178485139E+03  0.12699999809E+01 0.  1.
       -4   -1    0    0    0  501  0.00000000000E+00  0.00000000000E+00 -0.11033024413E+04  0.11033031722E+04  0.12699999809E+01 0. -1.
    10030    2    1    2    0    0  0.00000000000E+00  0.00000000000E+00 -0.13151841973E+03  0.20750880236E+04  0.20709160318E+04 0.  0.
        3    1    3    3  502    0 -0.74547494823E+03 -0.71835869728E+03 -0.85828941979E+02  0.10388160250E+04  0.10100000352E+00 0. -1.
       -3    1    3    3    0  502  0.74547494823E+03  0.71835869728E+03 -0.45689477753E+02  0.10362719985E+04  0.10100000352E+00 0.  1.
</event>
<event>
 5   0  0.4615125E-05  0.2117205E+04  0.7818609E-02  0.8553702E-01
       -3   -1    0    0    0  501  0.00000000000E+00  0.00000000000E+00  0.13919159702E+04  0.13919159739E+04  0.10100000352E+00 0.  1.
        3   -1    0    0  501    0  0.00000000000E+00  0.00000000000E+00 -0.80510561774E+03  0.80510562408E+03  0.10100000352E+00 0. -1.
    10030    2    1    2    0    0  0.00000000000E+00  0.00000000000E+00  0.58681035249E+03  0.21970215980E+04  0.21172051181E+04 0.  0.
        4    1    3    3  502    0  0.47743348359E+03  0.51977064473E+03  0.11121579010E+04  0.13171943911E+04  0.12699999809E+01 0.  1.
       -4    1    3    3    0  502 -0.47743348359E+03 -0.51977064473E+03 -0.52534754847E+03  0.87982720688E+03  0.12699999809E+01 0. -1.
</event>
<event>
 5   0  0.4615125E-05  0.2093281E+04  0.7818609E-02  0.8564209E-01
        3   -1    0    0  501    0  0.00000000000E+00  0.00000000000E+00  0.18304986543E+04  0.18304986571E+04  0.10100000352E+00 0. -1.
       -3   -1    0    0    0  501  0.00000000000E+00  0.00000000000E+00 -0.59844667462E+03  0.59844668315E+03  0.10100000352E+00 0.  1.
    10030    2    1    2    0    0  0.00000000000E+00  0.00000000000E+00  0.12320519797E+04  0.24289453403E+04  0.20932805319E+04 0.  0.
        2    1    3    3  502    0  0.25218087176E+03 -0.85743451170E+03  0.12480371058E+04  0.15350523611E+04  0.25500000920E-02 0. -1.
       -2    1    3    3    0  502 -0.25218087176E+03  0.85743451170E+03 -0.15985126068E+02  0.89389297916E+03  0.25500000920E-02 0.  1.
</event>
<event>
 5   0  0.6263616E-05  0.2108652E+04  0.7818609E-02  0.8557442E-01
       -1   -1    0    0    0  501  0.00000000000E+00  0.00000000000E+00  0.17902490932E+04  0.17902490933E+04  0.50400001928E-02 0.  1.
        1   -1    0    0  501    0  0.00000000000E+00  0.00000000000E+00 -0.62092111205E+03  0.62092111207E+03  0.50400001928E-02 0. -1.
    10030    2    1    2    0    0  0.00000000000E+00  0.00000000000E+00  0.11693279812E+04  0.24111702053E+04  0.21086521362E+04 0.  0.
        4    1    3    3  502    0 -0.30459895259E+03  0.76203593836E+03 -0.17220503515E+03  0.83853174079E+03  0.12699999809E+01 0. -1.
       -4    1    3    3    0  502  0.30459895259E+03 -0.76203593836E+03  0.13415330163E+04  0.15726384645E+04  0.12699999809E+01 0.  1.
</event>
<event>
 5   0  0.6052292E-05  0.2045103E+04  0.7818609E-02  0.8585819E-01
       -1   -1    0    0    0  501  0.00000000000E+00  0.00000000000E+00  0.29451535793E+04  0.29451535793E+04  0.50400001928E-02 0. -1.
        1   -1    0    0  501    0  0.00000000000E+00  0.00000000000E+00 -0.35502789774E+03  0.35502789778E+03  0.50400001928E-02 0.  1.
    10030    2    1    2    0    0  0.00000000000E+00  0.00000000000E+00  0.25901256816E+04  0.33001814771E+04  0.20451031112E+04 0.  0.
        1    1    3    3  502    0 -0.53099865776E+03  0.44690992896E+03  0.25068678894E+04  0.26011679443E+04  0.50400001928E-02 0. -1.
       -1    1    3    3    0  502  0.53099865776E+03 -0.44690992896E+03  0.83257792154E+02  0.69901353286E+03  0.50400001928E-02 0.  1.
</event>
<event>
 5   0  0.1252477E-04  0.2106920E+04  0.7818609E-02  0.8558201E-01
       -2   -1    0    0    0  501  0.00000000000E+00  0.00000000000E+00  0.57973442038E+03  0.57973442038E+03  0.25500000920E-02 0.  1.
        2   -1    0    0  501    0  0.00000000000E+00  0.00000000000E+00 -0.19142871972E+04  0.19142871973E+04  0.25500000920E-02 0. -1.
    10030    2    1    2    0    0  0.00000000000E+00  0.00000000000E+00 -0.13345527769E+04  0.24940216176E+04  0.21069201966E+04 0.  0.
        4    1    3    3  502    0  0.31339647150E+03  0.37872255964E+03 -0.17701966607E+04  0.18371842466E+04  0.12699999809E+01 0. -1.
       -4    1    3    3    0  502 -0.31339647150E+03 -0.37872255964E+03  0.43564388384E+03  0.65683737101E+03  0.12699999809E+01 0.  1.
</event>
<event>
 5   0  0.1325673E-04  0.2112383E+04  0.7818609E-02  0.8555808E-01
        2   -1    0    0  501    0  0.00000000000E+00  0.00000000000E+00  0.15897490611E+04  0.15897490611E+04  0.25500000920E-02 0. -1.
       -2   -1    0    0    0  501  0.00000000000E+00  0.00000000000E+00 -0.70170836240E+03  0.70170836241E+03  0.25500000920E-02 0.  1.
    10030    2    1    2    0    0  0.00000000000E+00  0.00000000000E+00  0.88804069867E+03  0.22914574235E+04  0.21123827402E+04 0.  0.
        5    1    3    3  502    0  0.36064945366E+03  0.63387365046E+03  0.12727579084E+04  0.14669010248E+04  0.46999998093E+01 0. -1.
       -5    1    3    3    0  502 -0.36064945366E+03 -0.63387365046E+03 -0.38471720971E+03  0.82455639869E+03  0.46999998093E+01 0.  1.
</event>
<event>
 5   0  0.5846187E-05  0.2078758E+04  0.7818609E-02  0.8570659E-01
       -1   -1    0    0    0  501  0.00000000000E+00  0.00000000000E+00  0.11899477197E+04  0.11899477197E+04  0.50400001928E-02 0. -1.
        1   -1    0    0  501    0  0.00000000000E+00  0.00000000000E+00 -0.90786221092E+03  0.90786221093E+03  0.50400001928E-02 0.  1.
    10030    2    1    2    0    0  0.00000000000E+00  0.00000000000E+00  0.28208550879E+03  0.20978099307E+04  0.20787578673E+04 0.  0.
        5    1    3    3  502    0 -0.60729544653E+03 -0.62604217513E+03  0.71151114204E+03  0.11256139479E+04  0.46999998093E+01 0. -1.
       -5    1    3    3    0  502  0.60729544653E+03  0.62604217513E+03 -0.42942563325E+03  0.97219598277E+03  0.46999998093E+01 0.  1.
</event>
<event>
 5   0  0.1235817E-04  0.2123150E+04  0.7818609E-02  0.8551113E-01
       -2   -1    0    0    0  501  0.00000000000E+00  0.00000000000E+00  0.20053551495E+04  0.20053551495E+04  0.25500000920E-02 0. -1.
        2   -1    0    0  501    0  0.00000000000E+00  0.00000000000E+00 -0.56196621967E+03  0.56196621968E+03  0.25500000920E-02 0.  1.
    10030    2    1    2    0    0  0.00000000000E+00  0.00000000000E+00  0.14433889298E+04  0.25673213692E+04  0.21231503503E+04 0.  0.
        1    1    3    3  502    0  0.10143670599E+04 -0.29921349261E+03  0.61039117690E+03  0.12210842048E+04  0.50400001928E-02 0.  1.
       -1    1    3    3    0  502 -0.10143670599E+04  0.29921349261E+03  0.83299775290E+03  0.13462371644E+04  0.50400001928E-02 0. -1.
</event>
<event>
 5   0  0.1349252E-04  0.2132428E+04  0.7818609E-02  0.8547091E-01
       -2   -1    0    0    0  501  0.00000000000E+00  0.00000000000E+00  0.10485662310E+04  0.10485662310E+04  0.25500000920E-02 0.  1.
        2   -1    0    0  501    0  0.00000000000E+00  0.00000000000E+00 -0.10841591973E+04  0.10841591973E+04  0.25500000920E-02 0. -1.
    10030    2    1    2    0    0  0.00000000000E+00  0.00000000000E+00 -0.35592966342E+02  0.21327254283E+04  0.21324284029E+04 0.  0.
        2    1    3    3  502    0  0.60881700327E+03 -0.62050482999E+03 -0.63523839765E+03  0.10766671767E+04  0.25500000920E-02 0. -1.
       -2    1    3    3    0  502 -0.60881700327E+03  0.62050482999E+03  0.59964543131E+03  0.10560582516E+04  0.25500000920E-02 0.  1.
</event>
<event>
 5   0  0.1349252E-04  0.2082627E+04  0.7818609E-02  0.8568935E-01
       -2   -1    0    0    0  501  0.00000000000E+00  0.00000000000E+00  0.19971215452E+04  0.19971215452E+04  0.25500000920E-02 0. -1.
        2   -1    0    0  501    0  0.00000000000E+00  0.00000000000E+00 -0.54294835093E+03  0.54294835093E+03  0.25500000920E-02 0.  1.
    10030    2    1    2    0    0  0.00000000000E+00  0.00000000000E+00  0.14541731943E+04  0.25400698962E+04  0.20826270426E+04 0.  0.
        2    1    3    3  502    0  0.27711185535E+03  0.53468809656E+03  0.17631776564E+04  0.18631902181E+04  0.25500000920E-02 0. -1.
       -2    1    3    3    0  502 -0.27711185535E+03 -0.53468809656E+03 -0.30900446206E+03  0.67687967805E+03  0.25500000920E-02 0.  1.
</event>
<event>
 5   0  0.6263616E-05  0.2097926E+04  0.7818609E-02  0.8562158E-01
       -1   -1    0    0    0  501  0.00000000000E+00  0.00000000000E+00  0.51889362639E+03  0.51889362642E+03  0.50400001928E-02 0.  1.
        1   -1    0    0  501    0  0.00000000000E+00  0.00000000000E+00 -0.21205179370E+04  0.21205179370E+04  0.50400001928E-02 0. -1.
    10030    2    1    2    0    0  0.00000000000E+00  0.00000000000E+00 -0.16016243106E+04  0.26394115635E+04  0.20979258731E+04 0.  0.
        4    1    3    3  502    0  0.84211702918E+03 -0.62383118067E+03 -0.85700872593E+03  0.13538064862E+04  0.12699999809E+01 0. -1.
       -4    1    3    3    0  502 -0.84211702918E+03  0.62383118067E+03 -0.74461558470E+03  0.12856050773E+04  0.12699999809E+01 0.  1.
</event>
<event>
 5   0  0.6052292E-05  0.2402517E+04  0.7818609E-02  0.8438562E-01
        1   -1    0    0  501    0  0.00000000000E+00  0.00000000000E+00  0.18263047531E+04  0.18263047531E+04  0.50400001928E-02 0.  1.
       -1   -1    0    0    0  501  0.00000000000E+00  0.00000000000E+00 -0.79013240269E+03  0.79013240271E+03  0.50400001928E-02 0. -1.
    10030    2    1    2    0    0  0.00000000000E+00  0.00000000000E+00  0.10361723504E+04  0.26164371558E+04  0.24025174819E+04 0.  0.
        1    1    3    3  502    0 -0.65005288386E+03  0.46403632993E+03 -0.45909516092E+03  0.92123115129E+03  0.50400001928E-02 0. -1.
       -1    1    3    3    0  502  0.65005288386E+03 -0.46403632993E+03  0.14952675113E+04  0.16952060045E+04  0.50400001928E-02 0.  1.
</event>
<event>
 5   0  0.1325673E-04  0.2077582E+04  0.7818609E-02  0.8571183E-01
       -2   -1    0    0    0  501  0.00000000000E+00  0.00000000000E+00  0.74733745658E+03  0.74733745659E+03  0.25500000920E-02 0. -1.
        2   -1    0    0  501    0  0.00000000000E+00  0.00000000000E+00 -0.14439089407E+04  0.14439089407E+04  0.25500000920E-02 0.  1.
    10030    2    1    2    0    0  0.00000000000E+00  0.00000000000E+00 -0.69657148416E+03  0.21912463973E+04  0.20775824752E+04 0.  0.
        5    1    3    3  502    0  0.48580741719E+03  0.48641861455E+03 -0.11696420533E+04  0.13567227197E+04  0.46999998093E+01 0.  1.
       -5    1    3    3    0  502 -0.48580741719E+03 -0.48641861455E+03  0.47307056916E+03  0.83452367766E+03  0.46999998093E+01 0. -1.
</event>
<event>
 5   0  0.5846187E-05  0.2069901E+04  0.7818609E-02  0.8574620E-01
        1   -1    0    0  501    0  0.00000000000E+00  0.00000000000E+00  0.14151793862E+04  0.14151793862E+04  0.50400001928E-02 0.  1.
       -1   -1    0    0    0  501  0.00000000000E+00  0.00000000000E+00 -0.75688077479E+03  0.75688077480E+03  0.50400001928E-02 0. -1.
    10030    2    1    2    0    0  0.00000000000E+00  0.00000000000E+00  0.65829861141E+03  0.21720601610E+04  0.20699005486E+04 0.  0.
        5    1    3    3  502    0  0.84522836263E+03 -0.56436702865E+03  0.12411156639E+03  0.10238881281E+04  0.46999998093E+01 0. -1.
       -5    1    3    3    0  502 -0.84522836263E+03  0.56436702865E+03  0.53418704502E+03  0.11481720329E+04  0.46999998093E+01 0.  1.
</event>
<event>
 5   0  0.1349252E-04  0.2098245E+04  0.7818609E-02  0.8562017E-01
       -2   -1    0    0    0  501  0.00000000000E+00  0.00000000000E+00  0.67915051563E+03  0.67915051564E+03  0.25500000920E-02 0. -1.
        2   -1    0    0  501    0  0.00000000000E+00  0.00000000000E+00 -0.16206387672E+04  0.16206387672E+04  0.25500000920E-02 0.  1.
    10030    2    1    2    0    0  0.00000000000E+00  0.00000000000E+00 -0.94148825156E+03  0.22997892828E+04  0.20982446515E+04 0.  0.
        2    1    3    3  502    0 -0.60922838102E+03  0.64223787004E+03  0.14639258841E+03  0.89725107517E+03  0.25500000920E-02 0.  1.
       -2    1    3    3    0  502  0.60922838102E+03 -0.64223787004E+03 -0.10878808400E+04  0.14025382077E+04  0.25500000920E-02 0. -1.
</event>
<event>
 5   0  0.1252477E-04  0.2090851E+04  0.7818609E-02  0.8565284E-01
       -2   -1    0    0    0  501  0.00000000000E+00  0.00000000000E+00  0.49495569178E+03  0.49495569178E+03  0.25500000920E-02 0.  1.
        2   -1    0    0  501    0  0.00000000000E+00  0.00000000000E+00 -0.22081049775E+04  0.22081049775E+04  0.25500000920E-02 0. -1.
    10030    2    1    2    0    0  0.00000000000E+00  0.00000000000E+00 -0.17131492858E+04  0.27030606693E+04  0.20908506658E+04 0.  0.
        4    1    3    3  502    0  0.27871194306E+03  0.45577983514E+03 -0.20182993132E+04  0.20878096982E+04  0.12699999809E+01 0. -1.
       -4    1    3    3    0  502 -0.27871194306E+03 -0.45577983514E+03  0.30515002744E+03  0.61525097113E+03  0.12699999809E+01 0.  1.
</event>
<event>
 5   0  0.6263616E-05  0.2094894E+04  0.7818609E-02  0.8563496E-01
       -1   -1    0    0    0  501  0.00000000000E+00  0.00000000000E+00  0.51404951432E+03  0.51404951434E+03  0.50400001928E-02 0.  1.
        1   -1    0    0  501    0  0.00000000000E+00  0.00000000000E+00 -0.21343177183E+04  0.21343177183E+04  0.50400001928E-02 0. -1.
    10030    2    1    2    0    0  0.00000000000E+00  0.00000000000E+00 -0.16202682040E+04  0.26483672326E+04  0.20948937792E+04 0.  0.
        4    1    3    3  502    0  0.35559056307E+03  0.32805784368E+03 -0.19846013604E+04  0.20427214127E+04  0.12699999809E+01 0. -1.
       -4    1    3    3    0  502 -0.35559056307E+03 -0.32805784368E+03  0.36433315646E+03  0.60564581989E+03  0.12699999809E+01 0.  1.
</event>
<event>
 5   0  0.1325673E-04  0.2068391E+04  0.7818609E-02  0.8575296E-01
        2   -1    0    0  501    0  0.00000000000E+00  0.00000000000E+00  0.11672479563E+04  0.11672479563E+04  0.25500000920E-02 0. -1.
       -2   -1    0    0    0  501  0.00000000000E+00  0.00000000000E+00 -0.91630976895E+03  0.91630976896E+03  0.25500000920E-02 0.  1.
    10030    2    1    2    0    0  0.00000000000E+00  0.00000000000E+00  0.25093818732E+03  0.20835577252E+04  0.20683913606E+04 0.  0.
        5    1    3    3  502    0  0.12564097623E+03 -0.24967226380E+03  0.11284691137E+04  0.11625775349E+04  0.46999998093E+01 0. -1.
       -5    1    3    3    0  502 -0.12564097623E+03  0.24967226380E+03 -0.87753092635E+03  0.92098019030E+03  0.46999998093E+01 0.  1.
</event>
<event>
 5   0  0.1281470E-04  0.2110054E+04  0.7818609E-02  0.8556827E-01
       -2   -1    0    0    0  501  0.00000000000E+00  0.00000000000E+00  0.48934254292E+03  0.48934254292E+03  0.25500000920E-02 0.  1.
        2   -1    0    0  501    0  0.00000000000E+00  0.00000000000E+00 -0.22746478774E+04  0.22746478774E+04  0.25500000920E-02 0. -1.
    10030    2    1    2    0    0  0.00000000000E+00  0.00000000000E+00 -0.17853053345E+04  0.27639904204E+04  0.21100540056E+04 0.  0.
        3    1    3    3  502    0 -0.28206869082E+03 -0.25933235307E+03  0.39497796729E+03  0.55029412184E+03  0.10100000352E+00 0.  1.
       -3    1    3    3    0  502  0.28206869082E+03  0.25933235307E+03 -0.21802833018E+04  0.22136962985E+04  0.10100000352E+00 0. -1.
</event>
<event>
 5   0  0.1252477E-04  0.2120607E+04  0.7818609E-02  0.8552220E-01
       -2   -1    0    0    0  501  0.00000000000E+00  0.00000000000E+00  0.48397116418E+03  0.48397116419E+03  0.25500000920E-02 0.  1.
        2   -1    0    0  501    0  0.00000000000E+00  0.00000000000E+00 -0.23229557262E+04  0.23229557262E+04  0.25500000920E-02 0. -1.
    10030    2    1    2    0    0  0.00000000000E+00  0.00000000000E+00 -0.18389845620E+04  0.28069268903E+04  0.21206070708E+04 0.  0.
        4    1    3    3  502    0 -0.16509271925E+03  0.28477810730E+03 -0.22536088193E+04  0.22775224476E+04  0.12699999809E+01 0. -1.
       -4    1    3    3    0  502  0.16509271925E+03 -0.28477810730E+03  0.41462425727E+03  0.52940444271E+03  0.12699999809E+01 0.  1.
</event>
<event>
 5   0  0.5933905E-05  0.2068681E+04  0.7818609E-02  0.8575167E-01
       -1   -1    0    0    0  501  0.00000000000E+00  0.00000000000E+00  0.53594571766E+03  0.53594571768E+03  0.50400001928E-02 0.  1.
        1   -1    0    0  501    0  0.00000000000E+00  0.00000000000E+00 -0.19962096552E+04  0.19962096552E+04  0.50400001928E-02 0. -1.
    10030    2    1    2    0    0  0.00000000000E+00  0.00000000000E+00 -0.14602639376E+04  0.25321553729E+04  0.20686807548E+04 0.  0.
        2    1    3    3  502    0 -0.76681894713E+03 -0.49505596196E+03 -0.13257374233E+04  0.16095562800E+04  0.25500000920E-02 0. -1.
       -2    1    3    3    0  502  0.76681894713E+03  0.49505596196E+03 -0.13452651432E+03  0.92259909289E+03  0.25500000920E-02 0.  1.
</event>
<event>
 5   0  0.1281470E-04  0.2111293E+04  0.7818609E-02  0.8556285E-01
       -2   -1    0    0    0  501  0.00000000000E+00  0.00000000000E+00  0.61773984851E+03  0.61773984852E+03  0.25500000920E-02 0. -1.
        2   -1    0    0  501    0  0.00000000000E+00  0.00000000000E+00 -0.18039783967E+04  0.18039783967E+04  0.25500000920E-02 0.  1.
    10030    2    1    2    0    0  0.00000000000E+00  0.00000000000E+00 -0.11862385482E+04  0.24217182452E+04  0.21112928186E+04 0.  0.
        3    1    3    3  502    0 -0.79673246271E+02 -0.48056980059E+03 -0.16673516960E+04  0.17370540716E+04  0.10100000352E+00 0.  1.
       -3    1    3    3    0  502  0.79673246271E+02  0.48056980059E+03  0.48111314781E+03  0.68466417360E+03  0.10100000352E+00 0. -1.
</event>
<event>
 5   0  0.5846187E-05  0.2004196E+04  0.7818609E-02  0.8604661E-01
        1   -1    0    0  501    0  0.00000000000E+00  0.00000000000E+00  0.11231866159E+04  0.11231866159E+04  0.50400001928E-02 0.  1.
       -1   -1    0    0    0  501  0.00000000000E+00  0.00000000000E+00 -0.89406372619E+03  0.89406372621E+03  0.50400001928E-02 0. -1.
    10030    2    1    2    0    0  0.00000000000E+00  0.00000000000E+00  0.22912288968E+03  0.20172503421E+04  0.20041960094E+04 0.  0.
        5    1    3    3  502    0 -0.15083468051E+03 -0.62111980618E+03  0.89136389498E+03  0.10968557780E+04  0.46999998093E+01 0.  1.
       -5    1    3    3    0  502  0.15083468051E+03  0.62111980618E+03 -0.66224100530E+03  0.92039456408E+03  0.46999998093E+01 0. -1.
</event>
<event>
 5   0  0.1252477E-04  0.2137838E+04  0.7818609E-02  0.8544756E-01
        2   -1    0    0  501    0  0.00000000000E+00  0.00000000000E+00  0.18193394658E+04  0.18193394658E+04  0.25500000920E-02 0. -1.
       -2   -1    0    0    0  501  0.00000000000E+00  0.00000000000E+00 -0.62802363769E+03  0.62802363770E+03  0.25500000920E-02 0.  1.
    10030    2    1    2    0    0  0.00000000000E+00  0.00000000000E+00  0.11913158281E+04  0.24473631035E+04  0.21378383377E+04 0.  0.
        4    1    3    3  502    0  0.58716680206E+03 -0.46650141661E+03 -0.27633251418E+03  0.79921817824E+03  0.12699999809E+01 0.  1.
       -4    1    3    3    0  502 -0.58716680206E+03  0.46650141661E+03  0.14676483423E+04  0.16481449252E+04  0.12699999809E+01 0. -1.
</event>
<event>
 5   0  0.6052292E-05  0.2111949E+04  0.7818609E-02  0.8555998E-01
       -1   -1    0    0    0  501  0.00000000000E+00  0.00000000000E+00  0.12738998118E+04  0.12738998118E+04  0.50400001928E-02 0. -1.
        1   -1    0    0  501    0  0.00000000000E+00  0.00000000000E+00 -0.87532950459E+03  0.87532950460E+03  0.50400001928E-02 0.  1.
    10030    2    1    2    0    0  0.00000000000E+00  0.00000000000E+00  0.39857030721E+03  0.21492293164E+04  0.21119489494E+04 0.  0.
        1    1    3    3  502    0 -0.72389300173E+03  0.51239918721E+03 -0.38398851611E+03  0.96644771485E+03  0.50400001928E-02 0.  1.
       -1    1    3    3    0  502  0.72389300173E+03 -0.51239918721E+03  0.78255882332E+03  0.11827816016E+04  0.50400001928E-02 0. -1.
</event>
<event>
 5   0  0.1325673E-04  0.2044808E+04  0.7818609E-02  0.8585953E-01
        2   -1    0    0  501    0  0.00000000000E+00  0.00000000000E+00  0.12866533743E+04  0.12866533743E+04  0.25500000920E-02 0. -1.
       -2   -1    0    0    0  501  0.00000000000E+00  0.00000000000E+00 -0.81242518900E+03  0.81242518900E+03  0.25500000920E-02 0.  1.
    10030    2    1    2    0    0  0.00000000000E+00  0.00000000000E+00  0.47422818534E+03  0.20990785633E+04  0.20448076788E+04 0.  0.
        5    1    3    3  502    0  0.34789697545E+03  0.86864027908E+03 -0.18578993130E+03  0.95399592690E+03  0.46999998093E+01 0.  1.
       -5    1    3    3    0  502 -0.34789697545E+03 -0.86864027908E+03  0.66001811665E+03  0.11450826364E+04  0.46999998093E+01 0. -1.
</event>
<event>
 5   0  0.5846187E-05  0.2096274E+04  0.7818609E-02  0.8562887E-01
       -1   -1    0    0    0  501  0.00000000000E+00  0.00000000000E+00  0.72494639620E+03  0.72494639622E+03  0.50400001928E-02 0. -1.
        1   -1    0    0  501    0  0.00000000000E+00  0.00000000000E+00 -0.15154095730E+04  0.15154095730E+04  0.50400001928E-02 0.  1.
    10030    2    1    2    0    0  0.00000000000E+00  0.00000000000E+00 -0.79046317675E+03  0.22403559692E+04  0.20962735592E+04 0.  0.
        5    1    3    3  502    0 -0.25983372234E+03  0.91725575430E+03 -0.86070966488E+03  0.12844122778E+04  0.46999998093E+01 0. -1.
       -5    1    3    3    0  502  0.25983372234E+03 -0.91725575430E+03  0.70246488137E+02  0.95594369141E+03  0.46999998093E+01 0.  1.
</event>
<event>
 5   0  0.5846187E-05  0.2098723E+04  0.7818609E-02  0.8561806E-01
        1   -1    0    0  501    0  0.00000000000E+00  0.00000000000E+00  0.11628615200E+04  0.11628615200E+04  0.50400001928E-02 0. -1.
       -1   -1    0    0    0  501  0.00000000000E+00  0.00000000000E+00 -0.94693937143E+03  0.94693937144E+03  0.50400001928E-02 0.  1.
    10030    2    1    2    0    0  0.00000000000E+00  0.00000000000E+00  0.21592214854E+03  0.21098008914E+04  0.20987228086E+04 0.  0.
        5    1    3    3  502    0 -0.56934233026E+03  0.82550465275E+03 -0.20274747296E+03  0.10231017782E+04  0.46999998093E+01 0. -1.
       -5    1    3    3    0  502  0.56934233026E+03 -0.82550465275E+03  0.41866962150E+03  0.10866991132E+04  0.46999998093E+01 0.  1.
</event>
<event>
 5   0  0.1325673E-04  0.2109024E+04  0.7818609E-02  0.8557279E-01
       -2   -1    0    0    0  501  0.00000000000E+00  0.00000000000E+00  0.65156927095E+03  0.65156927095E+03  0.25500000920E-02 0. -1.
        2   -1    0    0  501    0  0.00000000000E+00  0.00000000000E+00 -0.17066422597E+04  0.17066422597E+04  0.25500000920E-02 0.  1.
    10030    2    1    2    0    0  0.00000000000E+00  0.00000000000E+00 -0.10550729888E+04  0.23582115307E+04  0.21090240899E+04 0.  0.
        5    1    3    3  502    0 -0.90110013310E+03 -0.17720748063E+02  0.84572431971E+02  0.90524585668E+03  0.46999998093E+01 0. -1.
       -5    1    3    3    0  502  0.90110013310E+03  0.17720748063E+02 -0.11396454207E+04  0.14529656740E+04  0.46999998093E+01 0.  1.
</event>
<event>
 5   0  0.6263616E-05  0.2025493E+04  0.7818609E-02  0.8594794E-01
        1   -1    0    0  501    0  0.00000000000E+00  0.00000000000E+00  0.74650821952E+03  0.74650821954E+03  0.50400001928E-02 0. -1.
       -1   -1    0    0    0  501  0.00000000000E+00  0.00000000000E+00 -0.13739371225E+04  0.13739371225E+04  0.50400001928E-02 0.  1.
    10030    2    1    2    0    0  0.00000000000E+00  0.00000000000E+00 -0.62742890295E+03  0.21204453420E+04  0.20254928833E+04 0.  0.
        4    1    3    3  502    0 -0.57416913097E+03 -0.14363667357E+03  0.54660843105E+03  0.80565754185E+03  0.12699999809E+01 0. -1.
       -4    1    3    3    0  502  0.57416913097E+03  0.14363667357E+03 -0.11740373340E+04  0.13147878002E+04  0.12699999809E+01 0.  1.
</event>
<event>
 5   0  0.6263616E-05  0.2062304E+04  0.7818609E-02  0.8578033E-01
       -1   -1    0    0    0  501  0.00000000000E+00  0.00000000000E+00  0.11530002700E+04  0.11530002700E+04  0.50400001928E-02 0. -1.
        1   -1    0    0  501    0  0.00000000000E+00  0.00000000000E+00 -0.92218048397E+03  0.92218048398E+03  0.50400001928E-02 0.  1.
    10030    2    1    2    0    0  0.00000000000E+00  0.00000000000E+00  0.23081978601E+03  0.20751807540E+04  0.20623039029E+04 0.  0.
        4    1    3    3  502    0  0.39809246982E+03  0.54290250819E+03 -0.67052521622E+03  0.95017178784E+03  0.12699999809E+01 0.  1.
       -4    1    3    3    0  502 -0.39809246982E+03 -0.54290250819E+03  0.90134500223E+03  0.11250089661E+04  0.12699999809E+01 0. -1.
</event>
<event>
 5   0  0.5846187E-05  0.2071651E+04  0.7818609E-02  0.8573835E-01
        1   -1    0    0  501    0  0.00000000000E+00  0.00000000000E+00  0.15858477143E+04  0.15858477143E+04  0.50400001928E-02 0.  1.
       -1   -1    0    0    0  501  0.00000000000E+00  0.00000000000E+00 -0.67656830801E+03  0.67656830803E+03  0.50400001928E-02 0. -1.
    10030    2    1    2    0    0  0.00000000000E+00  0.00000000000E+00  0.90927940627E+03  0.22624160223E+04  0.20716508440E+04 0.  0.
        5    1    3    3  502    0  0.10312952103E+04 -0.64942204264E+02  0.37645906645E+03  0.10997867154E+04  0.46999998093E+01 0. -1.
       -5    1    3    3    0  502 -0.10312952103E+04  0.64942204264E+02  0.53282033981E+03  0.11626293069E+04  0.46999998093E+01 0.  1.
</event>
<event>
 5   0  0.6263616E-05  0.1873304E+04  0.7818609E-02  0.8668260E-01
       -1   -1    0    0    0  501  0.00000000000E+00  0.00000000000E+00  0.71449753527E+03  0.71449753529E+03  0.50400001928E-02 0.  1.
        1   -1    0    0  501    0  0.00000000000E+00  0.00000000000E+00 -0.12278795992E+04  0.12278795992E+04  0.50400001928E-02 0. -1.
    10030    2    1    2    0    0  0.00000000000E+00  0.00000000000E+00 -0.51338206395E+03  0.19423771345E+04  0.18733039767E+04 0.  0.
        4    1    3    3  502    0  0.27554142778E+02 -0.52869835202E+03  0.54447935928E+03  0.75943437096E+03  0.12699999809E+01 0.  1.
       -4    1    3    3    0  502 -0.27554142778E+02  0.52869835202E+03 -0.10578614232E+04  0.11829427636E+04  0.12699999809E+01 0. -1.
</event>
<event>
 5   0  0.6263616E-05  0.2061871E+04  0.7818609E-02  0.8578228E-01
        1   -1    0    0  501    0  0.00000000000E+00  0.00000000000E+00  0.18023283712E+04  0.18023283712E+04  0.50400001928E-02 0.  1.
       -1   -1    0    0    0  501  0.00000000000E+00  0.00000000000E+00 -0.58969718686E+03  0.58969718688E+03  0.50400001928E-02 0. -1.
    10030    2    1    2    0    0  0.00000000000E+00  0.00000000000E+00  0.12126311843E+04  0.23920255581E+04  0.20618709662E+04 0.  0.
        4    1    3    3  502    0 -0.52431342641E+03  0.17333060649E+03  0.16162753405E+04  0.17080092673E+04  0.12699999809E+01 0.  1.
       -4    1    3    3    0  502  0.52431342641E+03 -0.17333060649E+03 -0.40364415615E+03  0.68401629071E+03  0.12699999809E+01 0. -1.
</event>
<event>
 5   0  0.6263616E-05  0.2110217E+04  0.7818609E-02  0.8556756E-01
        1   -1    0    0  501    0  0.00000000000E+00  0.00000000000E+00  0.29098552215E+04  0.29098552215E+04  0.50400001928E-02 0. -1.
       -1   -1    0    0    0  501  0.00000000000E+00  0.00000000000E+00 -0.38258041297E+03  0.38258041301E+03  0.50400001928E-02 0.  1.
    10030    2    1    2    0    0  0.00000000000E+00  0.00000000000E+00  0.25272748085E+04  0.32924356345E+04  0.21102166831E+04 0.  0.
        4    1    3    3  502    0 -0.59774287186E+03 -0.22660592308E+03  0.25733112891E+04  0.26515239747E+04  0.12699999809E+01 0. -1.
       -4    1    3    3    0  502  0.59774287186E+03  0.22660592308E+03 -0.46036480516E+02  0.64091165980E+03  0.12699999809E+01 0.  1.
</event>
<event>
 5   0  0.6052292E-05  0.2010623E+04  0.7818609E-02  0.8601670E-01
       -1   -1    0    0    0  501  0.00000000000E+00  0.00000000000E+00  0.45203532594E+03  0.45203532596E+03  0.50400001928E-02 0. -1.
        1   -1    0    0  501    0  0.00000000000E+00  0.00000000000E+00 -0.22357790879E+04  0.22357790880E+04  0.50400001928E-02 0.  1.
    10030    2    1    2    0    0  0.00000000000E+00  0.00000000000E+00 -0.17837437620E+04  0.26878144139E+04  0.20106229172E+04 0.  0.
        1    1    3    3  502    0  0.34640318277E+03 -0.68150541623E+03 -0.17645992559E+04  0.19230848477E+04  0.50400001928E-02 0.  1.
       -1    1    3    3    0  502 -0.34640318277E+03  0.68150541623E+03 -0.19144506130E+02  0.76472956627E+03  0.50400001928E-02 0. -1.
</event>
<event>
 5   0  0.1349252E-04  0.2101867E+04  0.7818609E-02  0.8560421E-01
        2   -1    0    0  501    0  0.00000000000E+00  0.00000000000E+00  0.18690120621E+04  0.18690120621E+04  0.25500000920E-02 0.  1.
       -2   -1    0    0    0  501  0.00000000000E+00  0.00000000000E+00 -0.59093325097E+03  0.59093325098E+03  0.25500000920E-02 0. -1.
    10030    2    1    2    0    0  0.00000000000E+00  0.00000000000E+00  0.12780788112E+04  0.24599453131E+04  0.21018671452E+04 0.  0.
        2    1    3    3  502    0 -0.26287481971E+02 -0.10251614503E+04  0.90800463020E+03  0.13697150942E+04  0.25500000920E-02 0. -1.
       -2    1    3    3    0  502  0.26287481971E+02  0.10251614503E+04  0.37007418095E+03  0.10902302189E+04  0.25500000920E-02 0.  1.
</event>
<event>
 5   0  0.6052292E-05  0.2096281E+04  0.7818609E-02  0.8562883E-01
       -1   -1    0    0    0  501  0.00000000000E+00  0.00000000000E+00  0.58945746255E+03  0.58945746257E+03  0.50400001928E-02 0.  1.
        1   -1    0    0  501    0  0.00000000000E+00  0.00000000000E+00 -0.18637453017E+04  0.18637453017E+04  0.50400001928E-02 0. -1.
    10030    2    1    2    0    0  0.00000000000E+00  0.00000000000E+00 -0.12742878391E+04  0.24532027642E+04  0.20962810655E+04 0.  0.
        1    1    3    3  502    0 -0.96176820833E+03 -0.12191715524E+03 -0.11033979548E+04  0.14687916550E+04  0.50400001928E-02 0. -1.
       -1    1    3    3    0  502  0.96176820833E+03  0.12191715524E+03 -0.17088988433E+03  0.98441110918E+03  0.50400001928E-02 0.  1.
</event>
<event>
 5   0  0.6263616E-05  0.2093939E+04  0.7818609E-02  0.8563918E-01
       -1   -1    0    0    0  501  0.00000000000E+00  0.00000000000E+00  0.77077330023E+03  0.77077330025E+03  0.50400001928E-02 0. -1.
        1   -1    0    0  501    0  0.00000000000E+00  0.00000000000E+00 -0.14221370318E+04  0.14221370318E+04  0.50400001928E-02 0.  1.
    10030    2    1    2    0    0  0.00000000000E+00  0.00000000000E+00 -0.65136373160E+03  0.21929103321E+04  0.20939391141E+04 0.  0.
        4    1    3    3  502    0  0.46583145493E+03  0.64286265010E+03  0.38912756384E+03  0.88413415562E+03  0.12699999809E+01 0. -1.
       -4    1    3    3    0  502 -0.46583145493E+03 -0.64286265010E+03 -0.10404912954E+04  0.13087761765E+04  0.12699999809E+01 0.  1.
</event>
<event>
 5   0  0.1325673E-04  0.2104576E+04  0.7818609E-02  0.8559230E-01
        2   -1    0    0  501    0  0.00000000000E+00  0.00000000000E+00  0.82301323871E+03  0.82301323871E+03  0.25500000920E-02 0.  1.
       -2   -1    0    0    0  501  0.00000000000E+00  0.00000000000E+00 -0.13454337642E+04  0.13454337642E+04  0.25500000920E-02 0. -1.
    10030    2    1    2    0    0  0.00000000000E+00  0.00000000000E+00 -0.52242052550E+03  0.21684470029E+04  0.21045757765E+04 0.  0.
        5    1    3    3  502    0 -0.49996882495E+03 -0.46693536123E+03 -0.10850320744E+04  0.12826979964E+04  0.46999998093E+01 0. -1.
       -5    1    3    3    0  502  0.49996882495E+03  0.46693536123E+03  0.56261154894E+03  0.88574900649E+03  0.46999998093E+01 0.  1.
</event>
<event>
 5   0  0.1325673E-04  0.2119236E+04  0.7818609E-02  0.8552817E-01
       -2   -1    0    0    0  501  0.00000000000E+00  0.00000000000E+00  0.96608833312E+03  0.96608833312E+03  0.25500000920E-02 0. -1.
        2   -1    0    0  501    0  0.00000000000E+00  0.00000000000E+00 -0.11622029762E+04  0.11622029762E+04  0.25500000920E-02 0.  1.
    10030    2    1    2    0    0  0.00000000000E+00  0.00000000000E+00 -0.19611464304E+03  0.21282913093E+04  0.21192364059E+04 0.  0.
        5    1    3    3  502    0 -0.59392642764E+03 -0.87646116875E+03 -0.55027262134E+02  0.10601805843E+04  0.46999998093E+01 0.  1.
       -5    1    3    3    0  502  0.59392642764E+03  0.87646116875E+03 -0.14108738091E+03  0.10681107250E+04  0.46999998093E+01 0. -1.
</event>
<event>
 5   0  0.6221148E-05  0.2177839E+04  0.7818609E-02  0.8527709E-01
       -1   -1    0    0    0  501  0.00000000000E+00  0.00000000000E+00  0.99559230505E+03  0.99559230507E+03  0.50400001928E-02 0. -1.
        1   -1    0    0  501    0  0.00000000000E+00  0.00000000000E+00 -0.11909951580E+04  0.11909951580E+04  0.50400001928E-02 0.  1.
    10030    2    1    2    0    0  0.00000000000E+00  0.00000000000E+00 -0.19540285297E+03  0.21865874631E+04  0.21778389424E+04 0.  0.
        3    1    3    3  502    0  0.14310655580E+03  0.81959509315E+03 -0.80304038737E+03  0.11563258524E+04  0.10100000352E+00 0.  1.
       -3    1    3    3    0  502 -0.14310655580E+03 -0.81959509315E+03  0.60763753440E+03  0.10302616107E+04  0.10100000352E+00 0. -1.
</event>
<event>
 5   0  0.6263616E-05  0.2119586E+04  0.7818609E-02  0.8552665E-01
        1   -1    0    0  501    0  0.00000000000E+00  0.00000000000E+00  0.16934953852E+04  0.16934953852E+04  0.50400001928E-02 0.  1.
       -1   -1    0    0    0  501  0.00000000000E+00  0.00000000000E+00 -0.66322042756E+03  0.66322042758E+03  0.50400001928E-02 0. -1.
    10030    2    1    2    0    0  0.00000000000E+00  0.00000000000E+00  0.10302749576E+04  0.23567158127E+04  0.21195855571E+04 0.  0.
        4    1    3    3  502    0  0.26629314703E+03 -0.88904350997E+03  0.10840971579E+04  0.14270874758E+04  0.12699999809E+01 0.  1.
       -4    1    3    3    0  502 -0.26629314703E+03  0.88904350997E+03 -0.53822200324E+02  0.92962833698E+03  0.12699999809E+01 0. -1.
</event>
<event>
 5   0  0.6263616E-05  0.2149547E+04  0.7818609E-02  0.8539726E-01
       -1   -1    0    0    0  501  0.00000000000E+00  0.00000000000E+00  0.82500352348E+03  0.82500352349E+03  0.50400001928E-02 0. -1.
        1   -1    0    0  501    0  0.00000000000E+00  0.00000000000E+00 -0.14001613231E+04  0.14001613231E+04  0.50400001928E-02 0.  1.
    10030    2    1    2    0    0  0.00000000000E+00  0.00000000000E+00 -0.57515779959E+03  0.22251648466E+04  0.21495469523E+04 0.  0.
        4    1    3    3  502    0  0.61857442834E+03 -0.16843488053E+03  0.60539791018E+03  0.88176690510E+03  0.12699999809E+01 0. -1.
       -4    1    3    3    0  502 -0.61857442834E+03  0.16843488053E+03 -0.11805557098E+04  0.13433979415E+04  0.12699999809E+01 0.  1.
</event>
<event>
 5   0  0.1252477E-04  0.2375104E+04  0.7818609E-02  0.8448883E-01
       -2   -1    0    0    0  501  0.00000000000E+00  0.00000000000E+00  0.78305788497E+03  0.78305788498E+03  0.25500000920E-02 0.  1.
        2   -1    0    0  501    0  0.00000000000E+00  0.00000000000E+00 -0.18009905011E+04  0.18009905011E+04  0.25500000920E-02 0. -1.
    10030    2    1    2    0    0  0.00000000000E+00  0.00000000000E+00 -0.10179326161E+04  0.25840483861E+04  0.23751040505E+04 0.  0.
        4    1    3    3  502    0  0.13017432290E+03  0.52029698178E+03 -0.16617163386E+04  0.17461263146E+04  0.12699999809E+01 0. -1.
       -4    1    3    3    0  502 -0.13017432290E+03 -0.52029698178E+03  0.64378372250E+03  0.83792207147E+03  0.12699999809E+01 0.  1.
</event>
<event>
 5   0  0.4615125E-05  0.2070847E+04  0.7818609E-02  0.8574195E-01
       -3   -1    0    0    0  501  0.00000000000E+00  0.00000000000E+00  0.66027297322E+03  0.66027298094E+03  0.10100000352E+00 0. -1.
        3   -1    0    0  501    0  0.00000000000E+00  0.00000000000E+00 -0.16237250532E+04  0.16237250564E+04  0.10100000352E+00 0.  1.
    10030    2    1    2    0    0  0.00000000000E+00  0.00000000000E+00 -0.96345208003E+03  0.22839980373E+04  0.20708469581E+04 0.  0.
        4    1    3    3  502    0 -0.23866101177E+03 -0.19233877437E+03  0.60908559133E+03  0.68186520158E+03  0.12699999809E+01 0. -1.
       -4    1    3    3    0  502  0.23866101177E+03  0.19233877437E+03 -0.15725376714E+04  0.16021328357E+04  0.12699999809E+01 0.  1.
</event>
<event>
 5   0  0.6221148E-05  0.2116590E+04  0.7818609E-02  0.8553970E-01
       -1   -1    0    0    0  501  0.00000000000E+00  0.00000000000E+00  0.86805010620E+03  0.86805010622E+03  0.50400001928E-02 0. -1.
        1   -1    0    0  501    0  0.00000000000E+00  0.00000000000E+00 -0.12902351872E+04  0.12902351872E+04  0.50400001928E-02 0.  1.
    10030    2    1    2    0    0  0.00000000000E+00  0.00000000000E+00 -0.42218508097E+03  0.21582852934E+04  0.21165904576E+04 0.  0.
        3    1    3    3  502    0 -0.10343958564E+04  0.69850551114E+02 -0.42772734425E+03  0.11215188712E+04  0.10100000352E+00 0.  1.
       -3    1    3    3    0  502  0.10343958564E+04 -0.69850551114E+02  0.55422632752E+01  0.10367664222E+04  0.10100000352E+00 0. -1.
</event>
<event>
 5   0  0.1349252E-04  0.2213567E+04  0.7818609E-02  0.8512802E-01
       -2   -1    0    0    0  501  0.00000000000E+00  0.00000000000E+00  0.98356440260E+03  0.98356440261E+03  0.25500000920E-02 0.  1.
        2   -1    0    0  501    0  0.00000000000E+00  0.00000000000E+00 -0.12454392249E+04  0.12454392249E+04  0.25500000920E-02 0. -1.
    10030    2    1    2    0    0  0.00000000000E+00  0.00000000000E+00 -0.26187482229E+03  0.22290036275E+04  0.22135669741E+04 0.  0.
        2    1    3    3  502    0 -0.10363353151E+04 -0.76049012093E+02 -0.51463976388E+03  0.11595811417E+04  0.25500000920E-02 0. -1.
       -2    1    3    3    0  502  0.10363353151E+04  0.76049012093E+02  0.25276494159E+03  0.10694224858E+04  0.25500000920E-02 0.  1.
</event>
<event>
 5   0  0.1325673E-04  0.2066154E+04  0.7818609E-02  0.8576301E-01
        2   -1    0    0  501    0  0.00000000000E+00  0.00000000000E+00  0.16434172904E+04  0.16434172904E+04  0.25500000920E-02 0.  1.
       -2   -1    0    0    0  501  0.00000000000E+00  0.00000000000E+00 -0.64940803741E+03  0.64940803742E+03  0.25500000920E-02 0. -1.
    10030    2    1    2    0    0  0.00000000000E+00  0.00000000000E+00  0.99400925303E+03  0.22928253279E+04  0.20661542994E+04 0.  0.
        5    1    3    3  502    0 -0.51955357239E+03  0.50415917197E+03 -0.32080776553E+03  0.79186621199E+03  0.46999998093E+01 0.  1.
       -5    1    3    3    0  502  0.51955357239E+03 -0.50415917197E+03  0.13148170186E+04  0.15009591159E+04  0.46999998093E+01 0. -1.
</event>
<event>
 5   0  0.1281470E-04  0.1598534E+04  0.7818609E-02  0.8821449E-01
       -2   -1    0    0    0  501  0.00000000000E+00  0.00000000000E+00  0.88482562900E+03  0.88482562901E+03  0.25500000920E-02 0. -1.
        2   -1    0    0  501    0  0.00000000000E+00  0.00000000000E+00 -0.72198138382E+03  0.72198138382E+03  0.25500000920E-02 0.  1.
    10030    2    1    2    0    0  0.00000000000E+00  0.00000000000E+00  0.16284424519E+03  0.16068070128E+04  0.15985338684E+04 0.  0.
        3    1    3    3  502    0 -0.34113711379E+03 -0.64812109634E+02  0.80504547153E+03  0.87674019036E+03  0.10100000352E+00 0. -1.
       -3    1    3    3    0  502  0.34113711379E+03  0.64812109634E+02 -0.64220122634E+03  0.73006682247E+03  0.10100000352E+00 0.  1.
</event>
<event>
 5   0  0.5933905E-05  0.2163439E+04  0.7818609E-02  0.8533801E-01
       -1   -1    0    0    0  501  0.00000000000E+00  0.00000000000E+00  0.16076722269E+04  0.16076722269E+04  0.50400001928E-02 0.  1.
        1   -1    0    0  501    0  0.00000000000E+00  0.00000000000E+00 -0.72783317589E+03  0.72783317591E+03  0.50400001928E-02 0. -1.
    10030    2    1    2    0    0  0.00000000000E+00  0.00000000000E+00  0.87983905100E+03  0.23355054028E+04  0.21634390980E+04 0.  0.
        2    1    3    3  502    0  0.65939233217E+03 -0.50641301380E+03 -0.30711841093E+03  0.88632618522E+03  0.25500000920E-02 0. -1.
       -2    1    3    3    0  502 -0.65939233217E+03  0.50641301380E+03  0.11869574619E+04  0.14491792176E+04  0.25500000920E-02 0.  1.
</event>
<event>
 5   0  0.1281470E-04  0.2066250E+04  0.7818609E-02  0.8576258E-01
       -2   -1    0    0    0  501  0.00000000000E+00  0.00000000000E+00  0.73618118599E+03  0.73618118600E+03  0.25500000920E-02 0.  1.
        2   -1    0    0  501    0  0.00000000000E+00  0.00000000000E+00 -0.14498437544E+04  0.14498437544E+04  0.25500000920E-02 0. -1.
    10030    2    1    2    0    0  0.00000000000E+00  0.00000000000E+00 -0.71366256841E+03  0.21860249404E+04  0.20662504152E+04 0.  0.
        3    1    3    3  502    0 -0.47419498435E+03  0.48604345998E+03 -0.11805852479E+04  0.13619400376E+04  0.10100000352E+00 0. -1.
       -3    1    3    3    0  502  0.47419498435E+03 -0.48604345998E+03  0.46692267953E+03  0.82408490280E+03  0.10100000352E+00 0.  1.
</event>
<event>
 5   0  0.5846187E-05  0.2098806E+04  0.7818609E-02  0.8561770E-01
       -1   -1    0    0    0  501  0.00000000000E+00  0.00000000000E+00  0.16110043308E+04  0.16110043308E+04  0.50400001928E-02 0.  1.
        1   -1    0    0  501    0  0.00000000000E+00  0.00000000000E+00 -0.68357762761E+03  0.68357762763E+03  0.50400001928E-02 0. -1.
    10030    2    1    2    0    0  0.00000000000E+00  0.00000000000E+00  0.92742670321E+03  0.22945819585E+04  0.20988058687E+04 0.  0.
        5    1    3    3  502    0  0.67174552570E+03  0.68276893269E+03  0.93243460433E+03  0.13367392596E+04  0.46999998093E+01 0.  1.
       -5    1    3    3    0  502 -0.67174552570E+03 -0.68276893269E+03 -0.50079011179E+01  0.95784269889E+03  0.46999998093E+01 0. -1.
</event>
<event>
 5   0  0.6221148E-05  0.1966027E+04  0.7818609E-02  0.8622671E-01
        1   -1    0    0  501    0  0.00000000000E+00  0.00000000000E+00  0.15684696195E+04  0.15684696195E+04  0.50400001928E-02 0. -1.
       -1   -1    0    0    0  501  0.00000000000E+00  0.00000000000E+00 -0.61608817147E+03  0.61608817149E+03  0.50400001928E-02 0.  1.
    10030    2    1    2    0    0  0.00000000000E+00  0.00000000000E+00  0.95238144802E+03  0.21845577910E+04  0.19660270394E+04 0.  0.
        3    1    3    3  502    0  0.89585142699E+03 -0.38787220993E+03  0.34794541886E+03  0.10363689764E+04  0.10100000352E+00 0. -1.
       -3    1    3    3    0  502 -0.89585142699E+03  0.38787220993E+03  0.60443602916E+03  0.11481888146E+04  0.10100000352E+00 0.  1.
</event>
<event>
 5   0  0.6263616E-05  0.2142339E+04  0.7818609E-02  0.8542819E-01
       -1   -1    0    0    0  501  0.00000000000E+00  0.00000000000E+00  0.87660240423E+03  0.87660240425E+03  0.50400001928E-02 0.  1.
        1   -1    0    0  501    0  0.00000000000E+00  0.00000000000E+00 -0.13089220052E+04  0.13089220052E+04  0.50400001928E-02 0. -1.
    10030    2    1    2    0    0  0.00000000000E+00  0.00000000000E+00 -0.43231960100E+03  0.21855244095E+04  0.21423390738E+04 0.  0.
        4    1    3    3  502    0  0.42521820392E+03  0.49937617964E+03  0.64779749836E+03  0.92186240921E+03  0.12699999809E+01 0.  1.
       -4    1    3    3    0  502 -0.42521820392E+03 -0.49937617964E+03 -0.10801170994E+04  0.12636620003E+04  0.12699999809E+01 0. -1.
</event>
<event>
 5   0  0.1252477E-04  0.2051060E+04  0.7818609E-02  0.8583114E-01
       -2   -1    0    0    0  501  0.00000000000E+00  0.00000000000E+00  0.89662826953E+03  0.89662826953E+03  0.25500000920E-02 0. -1.
        2   -1    0    0  501    0  0.00000000000E+00  0.00000000000E+00 -0.11729627958E+04  0.11729627958E+04  0.25500000920E-02 0.  1.
    10030    2    1    2    0    0  0.00000000000E+00  0.00000000000E+00 -0.27633452629E+03  0.20695910654E+04  0.20510598254E+04 0.  0.
        4    1    3    3  502    0 -0.31444711970E+03 -0.41144328358E+03 -0.10313469876E+04  0.11540540665E+04  0.12699999809E+01 0.  1.
       -4    1    3    3    0  502  0.31444711970E+03  0.41144328358E+03  0.75501246129E+03  0.91553699887E+03  0.12699999809E+01 0. -1.
</event>
<event>
 5   0  0.6263616E-05  0.2106056E+04  0.7818609E-02  0.8558580E-01
       -1   -1    0    0    0  501  0.00000000000E+00  0.00000000000E+00  0.66726252142E+03  0.66726252143E+03  0.50400001928E-02 0. -1.
        1   -1    0    0  501    0  0.00000000000E+00  0.00000000000E+00 -0.16618164447E+04  0.16618164447E+04  0.50400001928E-02 0.  1.
    10030    2    1    2    0    0  0.00000000000E+00  0.00000000000E+00 -0.99455392331E+03  0.23290789662E+04  0.21060558692E+04 0.  0.
        4    1    3    3  502    0 -0.45912609662E+03 -0.77682985149E+02 -0.15417692165E+04  0.16105543606E+04  0.12699999809E+01 0.  1.
       -4    1    3    3    0  502  0.45912609662E+03  0.77682985149E+02  0.54721529317E+03  0.71852460553E+03  0.12699999809E+01 0. -1.
</event>
<event>
 5   0  0.1325673E-04  0.2111578E+04  0.7818609E-02  0.8556160E-01
       -2   -1    0    0    0  501  0.00000000000E+00  0.00000000000E+00  0.56037189529E+03  0.56037189530E+03  0.25500000920E-02 0.  1.
        2   -1    0    0  501    0  0.00000000000E+00  0.00000000000E+00 -0.19891983229E+04  0.19891983229E+04  0.25500000920E-02 0. -1.
    10030    2    1    2    0    0  0.00000000000E+00  0.00000000000E+00 -0.14288264276E+04  0.25495702182E+04  0.21115783995E+04 0.  0.
        5    1    3    3  502    0  0.59486395102E+03 -0.23952936636E+03  0.29826300946E+03  0.70726257527E+03  0.46999998093E+01 0.  1.
       -5    1    3    3    0  502 -0.59486395102E+03  0.23952936636E+03 -0.17270894370E+04  0.18423076429E+04  0.46999998093E+01 0. -1.
</event>
<event>
 5   0  0.6221148E-05  0.2110412E+04  0.7818609E-02  0.8556671E-01
        1   -1    0    0  501    0  0.00000000000E+00  0.00000000000E+00  0.16376485361E+04  0.16376485361E+04  0.50400001928E-02 0.  1.
       -1   -1    0    0    0  501  0.00000000000E+00  0.00000000000E+00 -0.67991360440E+03  0.67991360442E+03  0.50400001928E-02 0. -1.
    10030    2    1    2    0    0  0.00000000000E+00  0.00000000000E+00  0.95773493167E+03  0.23175621405E+04  0.21104118261E+04 0.  0.
        3    1    3    3  502    0 -0.56233927106E+03 -0.65552840130E+03 -0.18686944577E+03  0.88366460869E+03  0.10100000352E+00 0. -1.
       -3    1    3    3    0  502  0.56233927106E+03  0.65552840130E+03  0.11446043774E+04  0.14338975318E+04  0.10100000352E+00 0.  1.
</event>
<event>
 5   0  0.1349252E-04  0.2100997E+04  0.7818609E-02  0.8560804E-01
        2   -1    0    0  501    0  0.00000000000E+00  0.00000000000E+00  0.10682220526E+04  0.10682220526E+04  0.25500000920E-02 0. -1.
       -2   -1    0    0    0  501  0.00000000000E+00  0.00000000000E+00 -0.10330687480E+04  0.10330687480E+04  0.25500000920E-02 0.  1.
    10030    2    1    2    0    0  0.00000000000E+00  0.00000000000E+00  0.35153304526E+02  0.21012908006E+04  0.21009967334E+04 0.  0.
        2    1    3    3  502    0 -0.74422514046E+03 -0.27869383644E+03  0.70469937971E+03  0.10621405415E+04  0.25500000920E-02 0. -1.
       -2    1    3    3    0  502  0.74422514046E+03  0.27869383644E+03 -0.66954607518E+03  0.10391502591E+04  0.25500000920E-02 0.  1.
</event>
<event>
 5   0  0.1252477E-04  0.2166055E+04  0.7818609E-02  0.8532691E-01
        2   -1    0    0  501    0  0.00000000000E+00  0.00000000000E+00  0.69286822962E+03  0.69286822962E+03  0.25500000920E-02 0. -1.
       -2   -1    0    0    0  501  0.00000000000E+00  0.00000000000E+00 -0.16928876630E+04  0.16928876630E+04  0.25500000920E-02 0.  1.
    10030    2    1    2    0    0  0.00000000000E+00  0.00000000000E+00 -0.10000194334E+04  0.23857558926E+04  0.21660545497E+04 0.  0.
        4    1    3    3  502    0  0.48930649389E+03  0.96434101358E+03 -0.56583824496E+03  0.12204707976E+04  0.12699999809E+01 0. -1.
       -4    1    3    3    0  502 -0.48930649389E+03 -0.96434101358E+03 -0.43418118844E+03  0.11652850950E+04  0.12699999809E+01 0.  1.
</event>
<event>
 5   0  0.1349252E-04  0.2104241E+04  0.7818609E-02  0.8559377E-01
       -2   -1    0    0    0  501  0.00000000000E+00  0.00000000000E+00  0.93876058747E+03  0.93876058747E+03  0.25500000920E-02 0.  1.
        2   -1    0    0  501    0  0.00000000000E+00  0.00000000000E+00 -0.11791694002E+04  0.11791694002E+04  0.25500000920E-02 0. -1.
    10030    2    1    2    0    0  0.00000000000E+00  0.00000000000E+00 -0.24040881275E+03  0.21179299877E+04  0.21042412018E+04 0.  0.
        2    1    3    3  502    0  0.94759058763E+03  0.39424265143E+03 -0.35323282150E+03  0.10854163331E+04  0.25500000920E-02 0. -1.
       -2    1    3    3    0  502 -0.94759058763E+03 -0.39424265143E+03  0.11282400875E+03  0.10325136546E+04  0.25500000920E-02 0.  1.
</event>
<event>
 5   0  0.6263616E-05  0.2086686E+04  0.7818609E-02  0.8567131E-01
       -1   -1    0    0    0  501  0.00000000000E+00  0.00000000000E+00  0.14048417091E+04  0.14048417092E+04  0.50400001928E-02 0. -1.
        1   -1    0    0  501    0  0.00000000000E+00  0.00000000000E+00 -0.77486647427E+03  0.77486647429E+03  0.50400001928E-02 0.  1.
    10030    2    1    2    0    0  0.00000000000E+00  0.00000000000E+00  0.62997523487E+03  0.21797081834E+04  0.20866861212E+04 0.  0.
        4    1    3    3  502    0 -0.23896712286E+03 -0.66222673499E+03  0.11193225513E+04  0.13223214893E+04  0.12699999809E+01 0. -1.
       -4    1    3    3    0  502  0.23896712286E+03  0.66222673499E+03 -0.48934731640E+03  0.85738669415E+03  0.12699999809E+01 0.  1.
</event>
<event>
 5   0  0.1325673E-04  0.2127116E+04  0.7818609E-02  0.8549392E-01
       -2   -1    0    0    0  501  0.00000000000E+00  0.00000000000E+00  0.85207850890E+03  0.85207850890E+03  0.25500000920E-02 0.  1.
        2   -1    0    0  501    0  0.00000000000E+00  0.00000000000E+00 -0.13275252950E+04  0.13275252950E+04  0.25500000920E-02 0. -1.
    10030    2    1    2    0    0  0.00000000000E+00  0.00000000000E+00 -0.47544678610E+03  0.21796038039E+04  0.21271161453E+04 0.  0.
        5    1    3    3  502    0 -0.74161339127E+03  0.62749985028E+03  0.20584062996E+03  0.99304528555E+03  0.46999998093E+01 0. -1.
       -5    1    3    3    0  502  0.74161339127E+03 -0.62749985028E+03 -0.68128741606E+03  0.11865585184E+04  0.46999998093E+01 0.  1.
</event>
<event>
 5   0  0.5933905E-05  0.2091514E+04  0.7818609E-02  0.8564991E-01
       -1   -1    0    0    0  501  0.00000000000E+00  0.00000000000E+00  0.89075713070E+03  0.89075713071E+03  0.50400001928E-02 0. -1.
        1   -1    0    0  501    0  0.00000000000E+00  0.00000000000E+00 -0.12277279499E+04  0.12277279499E+04  0.50400001928E-02 0.  1.
    10030    2    1    2    0    0  0.00000000000E+00  0.00000000000E+00 -0.33697081923E+03  0.21184850806E+04  0.20915137350E+04 0.  0.
        2    1    3    3  502    0  0.62790537320E+03  0.80617905830E+03 -0.39365279683E+03  0.10950581520E+04  0.25500000920E-02 0.  1.
       -2    1    3    3    0  502 -0.62790537320E+03 -0.80617905830E+03  0.56681977600E+02  0.10234269287E+04  0.25500000920E-02 0. -1.
</event>
<event>
 5   0  0.6052292E-05  0.2098272E+04  0.7818609E-02  0.8562005E-01
       -1   -1    0    0    0  501  0.00000000000E+00  0.00000000000E+00  0.12137331925E+04  0.12137331925E+04  0.50400001928E-02 0.  1.
        1   -1    0    0  501    0  0.00000000000E+00  0.00000000000E+00 -0.90686052692E+03  0.90686052693E+03  0.50400001928E-02 0. -1.
    10030    2    1    2    0    0  0.00000000000E+00  0.00000000000E+00  0.30687266554E+03  0.21205937194E+04  0.20982723584E+04 0.  0.
        1    1    3    3  502    0  0.18105776610E+03  0.10269959740E+04  0.26947974203E+03  0.10770895862E+04  0.50400001928E-02 0. -1.
       -1    1    3    3    0  502 -0.18105776610E+03 -0.10269959740E+04  0.37392923514E+02  0.10435041332E+04  0.50400001928E-02 0.  1.
</event>
<event>
 5   0  0.5846187E-05  0.2134600E+04  0.7818609E-02  0.8546153E-01
       -1   -1    0    0    0  501  0.00000000000E+00  0.00000000000E+00  0.73552010390E+03  0.73552010392E+03  0.50400001928E-02 0.  1.
        1   -1    0    0  501    0  0.00000000000E+00  0.00000000000E+00 -0.15487401855E+04  0.15487401855E+04  0.50400001928E-02 0. -1.
    10030    2    1    2    0    0  0.00000000000E+00  0.00000000000E+00 -0.81322008162E+03  0.22842602894E+04  0.21346002363E+04 0.  0.
        5    1    3    3  502    0 -0.99337251628E+03  0.30749464857E+03 -0.14941449392E+03  0.10505658932E+04  0.46999998093E+01 0.  1.
       -5    1    3    3    0  502  0.99337251628E+03 -0.30749464857E+03 -0.66380558770E+03  0.12336943962E+04  0.46999998093E+01 0. -1.
</event>
<event>
 5   0  0.6263616E-05  0.2109072E+04  0.7818609E-02  0.8557258E-01
       -1   -1    0    0    0  501  0.00000000000E+00  0.00000000000E+00  0.64773483345E+03  0.64773483346E+03  0.50400001928E-02 0. -1.
        1   -1    0    0  501    0  0.00000000000E+00  0.00000000000E+00 -0.17168230223E+04  0.17168230223E+04  0.50400001928E-02 0.  1.
    10030    2    1    2    0    0  0.00000000000E+00  0.00000000000E+00 -0.10690881888E+04  0.23645578558E+04  0.21090719044E+04 0.  0.
        4    1    3    3  502    0  0.24412060305E+03 -0.58684381087E+03  0.40885356704E+03  0.75574028566E+03  0.12699999809E+01 0. -1.
       -4    1    3    3    0  502 -0.24412060305E+03  0.58684381087E+03 -0.14779417559E+04  0.16088175701E+04  0.12699999809E+01 0.  1.
</event>
<event>
 5   0  0.1235817E-04  0.2038582E+04  0.7818609E-02  0.8588792E-01
       -2   -1    0    0    0  501  0.00000000000E+00  0.00000000000E+00  0.45959041129E+03  0.45959041130E+03  0.25500000920E-02 0.  1.
        2   -1    0    0  501    0  0.00000000000E+00  0.00000000000E+00 -0.22606081131E+04  0.22606081131E+04  0.25500000920E-02 0. -1.
    10030    2    1    2    0    0  0.00000000000E+00  0.00000000000E+00 -0.18010177018E+04  0.27201985244E+04  0.20385816761E+04 0.  0.
        1    1    3    3  502    0 -0.89866428143E+03 -0.35415556672E+03 -0.13348013126E+04  0.16476401914E+04  0.50400001928E-02 0. -1.
       -1    1    3    3    0  502  0.89866428143E+03  0.35415556672E+03 -0.46621638927E+03  0.10725583331E+04  0.50400001928E-02 0.  1.
</event>
<event>
 5   0  0.6052292E-05  0.2128643E+04  0.7818609E-02  0.8548730E-01
        1   -1    0    0  501    0  0.00000000000E+00  0.00000000000E+00  0.14103581122E+04  0.14103581122E+04  0.50400001928E-02 0.  1.
       -1   -1    0    0    0  501  0.00000000000E+00  0.00000000000E+00 -0.80318654960E+03  0.80318654961E+03  0.50400001928E-02 0. -1.
    10030    2    1    2    0    0  0.00000000000E+00  0.00000000000E+00  0.60717156262E+03  0.22135446618E+04  0.21286433857E+04 0.  0.
        1    1    3    3  502    0  0.49274421889E+03 -0.90976901972E+02  0.12800301940E+04  0.13746093844E+04  0.50400001928E-02 0.  1.
       -1    1    3    3    0  502 -0.49274421889E+03  0.90976901972E+02 -0.67285863139E+03  0.83893527748E+03  0.50400001928E-02 0. -1.
</event>
<event>
 5   0  0.1281470E-04  0.2102323E+04  0.7818609E-02  0.8560221E-01
       -2   -1    0    0    0  501  0.00000000000E+00  0.00000000000E+00  0.63762720805E+03  0.63762720806E+03  0.25500000920E-02 0. -1.
        2   -1    0    0  501    0  0.00000000000E+00  0.00000000000E+00 -0.17328937755E+04  0.17328937755E+04  0.25500000920E-02 0.  1.
    10030    2    1    2    0    0  0.00000000000E+00  0.00000000000E+00 -0.10952665675E+04  0.23705209836E+04  0.21023227345E+04 0.  0.
        3    1    3    3  502    0  0.10145010706E+02  0.20571037909E+03 -0.17099194854E+04  0.17222788212E+04  0.10100000352E+00 0.  1.
       -3    1    3    3    0  502 -0.10145010706E+02 -0.20571037909E+03  0.61465291794E+03  0.64824216235E+03  0.10100000352E+00 0. -1.
</event>
<event>
 5   0  0.1235817E-04  0.2168276E+04  0.7818609E-02  0.8531749E-01
        2   -1    0    0  501    0  0.00000000000E+00  0.00000000000E+00  0.18946446675E+04  0.18946446675E+04  0.25500000920E-02 0. -1.
       -2   -1    0    0    0  501  0.00000000000E+00  0.00000000000E+00 -0.62035678476E+03  0.62035678476E+03  0.25500000920E-02 0.  1.
    10030    2    1    2    0    0  0.00000000000E+00  0.00000000000E+00  0.12742878828E+04  0.25150014523E+04  0.21682764346E+04 0.  0.
        1    1    3    3  502    0  0.59734645698E+03  0.70740064474E+01  0.16865133041E+04  0.17891897485E+04  0.50400001928E-02 0. -1.
       -1    1    3    3    0  502 -0.59734645698E+03 -0.70740064474E+01 -0.41222542138E+03  0.72581170374E+03  0.50400001928E-02 0.  1.
</event>
<event>
 5   0  0.1235817E-04  0.2113946E+04  0.7818609E-02  0.8555125E-01
        2   -1    0    0  501    0  0.00000000000E+00  0.00000000000E+00  0.65864185192E+03  0.65864185193E+03  0.25500000920E-02 0. -1.
       -2   -1    0    0    0  501  0.00000000000E+00  0.00000000000E+00 -0.16962050990E+04  0.16962050990E+04  0.25500000920E-02 0.  1.
    10030    2    1    2    0    0  0.00000000000E+00  0.00000000000E+00 -0.10375632470E+04  0.23548469509E+04  0.21139457587E+04 0.  0.
        1    1    3    3  502    0  0.64572942388E+03 -0.83667013567E+03 -0.50270574433E+03  0.11703403224E+04  0.50400001928E-02 0. -1.
       -1    1    3    3    0  502 -0.64572942388E+03  0.83667013567E+03 -0.53485750271E+03  0.11845066285E+04  0.50400001928E-02 0.  1.
</event>
<event>
 5   0  0.1325673E-04  0.2093376E+04  0.7818609E-02  0.8564167E-01
       -2   -1    0    0    0  501  0.00000000000E+00  0.00000000000E+00  0.74667068349E+03  0.74667068349E+03  0.25500000920E-02 0.  1.
        2   -1    0    0  501    0  0.00000000000E+00  0.00000000000E+00 -0.14672540588E+04  0.14672540588E+04  0.25500000920E-02 0. -1.
    10030    2    1    2    0    0  0.00000000000E+00  0.00000000000E+00 -0.72058337534E+03  0.22139247423E+04  0.20933758296E+04 0.  0.
        5    1    3    3  502    0 -0.35888690040E+03  0.77925836125E+03  0.27381030203E+03  0.90057624461E+03  0.46999998093E+01 0.  1.
       -5    1    3    3    0  502  0.35888690040E+03 -0.77925836125E+03 -0.99439367737E+03  0.13133484977E+04  0.46999998093E+01 0. -1.
</event>
<event>
 5   0  0.5846187E-05  0.2129337E+04  0.7818609E-02  0.8548429E-01
        1   -1    0    0  501    0  0.00000000000E+00  0.00000000000E+00  0.18343688143E+04  0.18343688143E+04  0.50400001928E-02 0.  1.
       -1   -1    0    0    0  501  0.00000000000E+00  0.00000000000E+00 -0.61793418249E+03  0.61793418251E+03  0.50400001928E-02 0. -1.
    10030    2    1    2    0    0  0.00000000000E+00  0.00000000000E+00  0.12164346318E+04  0.24523029968E+04  0.21293371679E+04 0.  0.
        5    1    3    3  502    0  0.47951271957E+02  0.10395334099E+04  0.34923633094E+03  0.10976871775E+04  0.46999998093E+01 0.  1.
       -5    1    3    3    0  502 -0.47951271957E+02 -0.10395334099E+04  0.86719830087E+03  0.13546158193E+04  0.46999998093E+01 0. -1.
</event>
<event>
 5   0  0.1281470E-04  0.2079596E+04  0.7818609E-02  0.8570285E-01
       -2   -1    0    0    0  501  0.00000000000E+00  0.00000000000E+00  0.99020449317E+03  0.99020449317E+03  0.25500000920E-02 0.  1.
        2   -1    0    0  501    0  0.00000000000E+00  0.00000000000E+00 -0.10918749521E+04  0.10918749521E+04  0.25500000920E-02 0. -1.
    10030    2    1    2    0    0  0.00000000000E+00  0.00000000000E+00 -0.10167045889E+03  0.20820794452E+04  0.20795956179E+04 0.  0.
        3    1    3    3  502    0  0.23470591298E+03 -0.77936586574E+03 -0.69866405081E+03  0.10726739879E+04  0.10100000352E+00 0. -1.
       -3    1    3    3    0  502 -0.23470591298E+03  0.77936586574E+03  0.59699359192E+03  0.10094054573E+04  0.10100000352E+00 0.  1.
</event>
<event>
 5   0  0.5933905E-05  0.2094697E+04  0.7818609E-02  0.8563583E-01
       -1   -1    0    0    0  501  0.00000000000E+00  0.00000000000E+00  0.12291680088E+04  0.12291680088E+04  0.50400001928E-02 0.  1.
        1   -1    0    0  501    0  0.00000000000E+00  0.00000000000E+00 -0.89242356426E+03  0.89242356427E+03  0.50400001928E-02 0. -1.
    10030    2    1    2    0    0  0.00000000000E+00  0.00000000000E+00  0.33674444454E+03  0.21215915731E+04  0.20946966325E+04 0.  0.
        2    1    3    3  502    0 -0.25042742721E+03 -0.98956629803E+03  0.40586774146E+03  0.10984916832E+04  0.25500000920E-02 0. -1.
       -2    1    3    3    0  502  0.25042742721E+03  0.98956629803E+03 -0.69123296920E+02  0.10230998899E+04  0.25500000920E-02 0.  1.
</event>
<event>
 5   0  0.6052292E-05  0.2119428E+04  0.7818609E-02  0.8552733E-01
        1   -1    0    0  501    0  0.00000000000E+00  0.00000000000E+00  0.23101094586E+04  0.23101094586E+04  0.50400001928E-02 0. -1.
       -1   -1    0    0    0  501  0.00000000000E+00  0.00000000000E+00 -0.48612152108E+03  0.48612152111E+03  0.50400001928E-02 0.  1.
    10030    2    1    2    0    0  0.00000000000E+00  0.00000000000E+00  0.18239879375E+04  0.27962309797E+04  0.21194281530E+04 0.  0.
        1    1    3    3  502    0 -0.76564495893E+03  0.64961645240E+03  0.13589736745E+04  0.16896813861E+04  0.50400001928E-02 0. -1.
       -1    1    3    3    0  502  0.76564495893E+03 -0.64961645240E+03  0.46501426299E+03  0.11065495936E+04  0.50400001928E-02 0.  1.
</event>
<event>
 5   0  0.6221148E-05  0.2000781E+04  0.7818609E-02  0.8606255E-01
        1   -1    0    0  501    0  0.00000000000E+00  0.00000000000E+00  0.13084502355E+04  0.13084502355E+04  0.50400001928E-02 0.  1.
       -1   -1    0    0    0  501  0.00000000000E+00  0.00000000000E+00 -0.76486012456E+03  0.76486012457E+03  0.50400001928E-02 0. -1.
    10030    2    1    2    0    0  0.00000000000E+00  0.00000000000E+00  0.54359011096E+03  0.20733103601E+04  0.20007812575E+04 0.  0.
        3    1    3    3  502    0 -0.17243227472E+03 -0.92936224648E+03 -0.67700445132E+02  0.94764467762E+03  0.10100000352E+00 0. -1.
       -3    1    3    3    0  502  0.17243227472E+03  0.92936224648E+03  0.61129055609E+03  0.11256656825E+04  0.10100000352E+00 0.  1.
</event>
<event>
 5   0  0.6221148E-05  0.1784899E+04  0.7818609E-02  0.8714371E-01
        1   -1    0    0  501    0  0.00000000000E+00  0.00000000000E+00  0.92558137163E+03  0.92558137165E+03  0.50400001928E-02 0.  1.
       -1   -1    0    0    0  501  0.00000000000E+00  0.00000000000E+00 -0.86050355863E+03  0.86050355865E+03  0.50400001928E-02 0. -1.
    10030    2    1    2    0    0  0.00000000000E+00  0.00000000000E+00  0.65077813000E+02  0.17860849303E+04  0.17848989485E+04 0.  0.
        3    1    3    3  502    0 -0.66608948914E+02  0.86243160998E+03  0.25232323044E+03  0.90105052954E+03  0.10100000352E+00 0.  1.
       -3    1    3    3    0  502  0.66608948914E+02 -0.86243160998E+03 -0.18724541744E+03  0.88503440075E+03  0.10100000352E+00 0. -1.
</event>
<event>
 5   0  0.1349252E-04  0.1588349E+04  0.7818609E-02  0.8827738E-01
        2   -1    0    0  501    0  0.00000000000E+00  0.00000000000E+00  0.55146164765E+03  0.55146164766E+03  0.25500000920E-02 0.  1.
       -2   -1    0    0    0  501  0.00000000000E+00  0.00000000000E+00 -0.11437113169E+04  0.11437113169E+04  0.25500000920E-02 0. -1.
    10030    2    1    2    0    0  0.00000000000E+00  0.00000000000E+00 -0.59224966923E+03  0.16951729645E+04  0.15883487366E+04 0.  0.
        2    1    3    3  502    0  0.58437778915E+03 -0.48220424272E+03 -0.42004753962E+02  0.75880348676E+03  0.25500000920E-02 0.  1.
       -2    1    3    3    0  502 -0.58437778915E+03  0.48220424272E+03 -0.55024491527E+03  0.93636947779E+03  0.25500000920E-02 0. -1.
</event>
<event>
 5   0  0.5846187E-05  0.2020429E+04  0.7818609E-02  0.8597129E-01
       -1   -1    0    0    0  501  0.00000000000E+00  0.00000000000E+00  0.12068410189E+04  0.12068410189E+04  0.50400001928E-02 0.  1.
        1   -1    0    0  501    0  0.00000000000E+00  0.00000000000E+00 -0.84562381439E+03  0.84562381440E+03  0.50400001928E-02 0. -1.
    10030    2    1    2    0    0  0.00000000000E+00  0.00000000000E+00  0.36121720448E+03  0.20524648333E+04  0.20204291680E+04 0.  0.
        5    1    3    3  502    0  0.99841052870E+03  0.14053309604E+03  0.11685783175E+03  0.10150127968E+04  0.46999998093E+01 0. -1.
       -5    1    3    3    0  502 -0.99841052870E+03 -0.14053309604E+03  0.24435937274E+03  0.10374520364E+04  0.46999998093E+01 0.  1.
</event>
<event>
 5   0  0.1325673E-04  0.2107007E+04  0.7818609E-02  0.8558163E-01
       -2   -1    0    0    0  501  0.00000000000E+00  0.00000000000E+00  0.10241392293E+04  0.10241392293E+04  0.25500000920E-02 0. -1.
        2   -1    0    0  501    0  0.00000000000E+00  0.00000000000E+00 -0.10837094143E+04  0.10837094143E+04  0.25500000920E-02 0.  1.
    10030    2    1    2    0    0  0.00000000000E+00  0.00000000000E+00 -0.59570184986E+02  0.21078486435E+04  0.21070067150E+04 0.  0.
        5    1    3    3  502    0 -0.67861342374E+03  0.32694500353E+03  0.70701312072E+03  0.10331015715E+04  0.46999998093E+01 0. -1.
       -5    1    3    3    0  502  0.67861342374E+03 -0.32694500353E+03 -0.76658330571E+03  0.10747470720E+04  0.46999998093E+01 0.  1.
</event>
<event>
 5   0  0.5933905E-05  0.2009386E+04  0.7818609E-02  0.8602245E-01
       -1   -1    0    0    0  501  0.00000000000E+00  0.00000000000E+00  0.54877599259E+03  0.54877599261E+03  0.50400001928E-02 0. -1.
        1   -1    0    0  501    0  0.00000000000E+00  0.00000000000E+00 -0.18393806319E+04  0.18393806320E+04  0.50400001928E-02 0.  1.
    10030    2    1    2    0    0  0.00000000000E+00  0.00000000000E+00 -0.12906046394E+04  0.23881566246E+04  0.20093859083E+04 0.  0.
        2    1    3    3  502    0  0.14576836210E+03 -0.53623197943E+03  0.34950529657E+03  0.65646561486E+03  0.25500000920E-02 0. -1.
       -2    1    3    3    0  502 -0.14576836210E+03  0.53623197943E+03 -0.16401099359E+04  0.17316910097E+04  0.25500000920E-02 0.  1.
</event>
<event>
 5   0  0.4615125E-05  0.2121209E+04  0.7818609E-02  0.8551958E-01
        4   -1    0    0  501    0  0.00000000000E+00  0.00000000000E+00  0.77866864560E+03  0.77866968128E+03  0.12699999809E+01 0.  1.
       -4   -1    0    0    0  501  0.00000000000E+00  0.00000000000E+00 -0.14446200943E+04  0.14446206525E+04  0.12699999809E+01 0. -1.
    10030    2    1    2    0    0  0.00000000000E+00  0.00000000000E+00 -0.66595144866E+03  0.22232903338E+04  0.21212092250E+04 0.  0.
        4    1    3    3  502    0  0.47586993544E+02  0.63206293564E+03 -0.12242586637E+04  0.13786148719E+04  0.12699999809E+01 0. -1.
       -4    1    3    3    0  502 -0.47586993544E+02 -0.63206293564E+03  0.55830721505E+03  0.84467546185E+03  0.12699999809E+01 0.  1.
</event>
<event>
 5   0  0.6052292E-05  0.1859867E+04  0.7818609E-02  0.8675095E-01
        1   -1    0    0  501    0  0.00000000000E+00  0.00000000000E+00  0.19615081436E+04  0.19615081436E+04  0.50400001928E-02 0. -1.
       -1   -1    0    0    0  501  0.00000000000E+00  0.00000000000E+00 -0.44087330344E+03  0.44087330347E+03  0.50400001928E-02 0.  1.
    10030    2    1    2    0    0  0.00000000000E+00  0.00000000000E+00  0.15206348401E+04  0.24023814470E+04  0.18598672802E+04 0.  0.
        1    1    3    3  502    0 -0.29919817638E+03  0.60462262771E+03  0.15870915903E+04  0.17245137827E+04  0.50400001928E-02 0. -1.
       -1    1    3    3    0  502  0.29919817638E+03 -0.60462262771E+03 -0.66456750186E+02  0.67786766434E+03  0.50400001928E-02 0.  1.
</event>
<event>
 5   0  0.5933905E-05  0.2066368E+04  0.7818609E-02  0.8576205E-01
       -1   -1    0    0    0  501  0.00000000000E+00  0.00000000000E+00  0.65489987791E+03  0.65489987793E+03  0.50400001928E-02 0. -1.
        1   -1    0    0  501    0  0.00000000000E+00  0.00000000000E+00 -0.16299724829E+04  0.16299724829E+04  0.50400001928E-02 0.  1.
    10030    2    1    2    0    0  0.00000000000E+00  0.00000000000E+00 -0.97507260502E+03  0.22848723609E+04  0.20663676150E+04 0.  0.
        2    1    3    3  502    0  0.37476128182E+03 -0.58671043089E+03  0.35659840345E+03  0.78220046625E+03  0.25500000920E-02 0. -1.
       -2    1    3    3    0  502 -0.37476128182E+03  0.58671043089E+03 -0.13316710085E+04  0.15026718946E+04  0.25500000920E-02 0.  1.
</event>
<event>
 5   0  0.1235817E-04  0.1781349E+04  0.7818609E-02  0.8716281E-01
        2   -1    0    0  501    0  0.00000000000E+00  0.00000000000E+00  0.73114054151E+03  0.73114054151E+03  0.25500000920E-02 0.  1.
       -2   -1    0    0    0  501  0.00000000000E+00  0.00000000000E+00 -0.10850183682E+04  0.10850183682E+04  0.25500000920E-02 0. -1.
    10030    2    1    2    0    0  0.00000000000E+00  0.00000000000E+00 -0.35387782674E+03  0.18161589098E+04  0.17813488342E+04 0.  0.
        1    1    3    3  502    0 -0.68894459244E+03 -0.54440464794E+03 -0.24757730440E+02  0.87842701313E+03  0.50400001928E-02 0. -1.
       -1    1    3    3    0  502  0.68894459244E+03  0.54440464794E+03 -0.32912009630E+03  0.93773189663E+03  0.50400001928E-02 0.  1.
</event>
<event>
 5   0  0.1235817E-04  0.2088974E+04  0.7818609E-02  0.8566116E-01
        2   -1    0    0  501    0  0.00000000000E+00  0.00000000000E+00  0.24283800093E+04  0.24283800093E+04  0.25500000920E-02 0. -1.
       -2   -1    0    0    0  501  0.00000000000E+00  0.00000000000E+00 -0.44925138173E+03  0.44925138174E+03  0.25500000920E-02 0.  1.
    10030    2    1    2    0    0  0.00000000000E+00  0.00000000000E+00  0.19791286275E+04  0.28776313910E+04  0.20889739822E+04 0.  0.
        1    1    3    3  502    0 -0.34593948886E+03  0.42945299758E+03 -0.23236996634E+03  0.59841441190E+03  0.50400001928E-02 0.  1.
       -1    1    3    3    0  502  0.34593948886E+03 -0.42945299758E+03  0.22114985939E+04  0.22792169791E+04  0.50400001928E-02 0. -1.
</event>
<event>
 5   0  0.4615125E-05  0.2108441E+04  0.7818609E-02  0.8557534E-01
       -3   -1    0    0    0  501  0.00000000000E+00  0.00000000000E+00  0.11041494315E+04  0.11041494361E+04  0.10100000352E+00 0. -1.
        3   -1    0    0  501    0  0.00000000000E+00  0.00000000000E+00 -0.10065489697E+04  0.10065489748E+04  0.10100000352E+00 0.  1.
    10030    2    1    2    0    0  0.00000000000E+00  0.00000000000E+00  0.97600461750E+02  0.21106984109E+04  0.21084406398E+04 0.  0.
        4    1    3    3  502    0 -0.45616109534E+03  0.59587505582E+03  0.79001786824E+03  0.10896237296E+04  0.12699999809E+01 0. -1.
       -4    1    3    3    0  502  0.45616109534E+03 -0.59587505582E+03 -0.69241740649E+03  0.10210746813E+04  0.12699999809E+01 0.  1.
</event>
<event>
 5   0  0.6263616E-05  0.2223548E+04  0.7818609E-02  0.8508690E-01
        1   -1    0    0  501    0  0.00000000000E+00  0.00000000000E+00  0.15181628710E+04  0.15181628710E+04  0.50400001928E-02 0.  1.
       -1   -1    0    0    0  501  0.00000000000E+00  0.00000000000E+00 -0.81416908587E+03  0.81416908588E+03  0.50400001928E-02 0. -1.
    10030    2    1    2    0    0  0.00000000000E+00  0.00000000000E+00  0.70399378515E+03  0.23323319569E+04  0.22235478649E+04 0.  0.
        4    1    3    3  502    0 -0.15057512956E+03 -0.10283652893E+04  0.76606490499E+03  0.12911487480E+04  0.12699999809E+01 0. -1.
       -4    1    3    3    0  502  0.15057512956E+03  0.10283652893E+04 -0.62071119843E+02  0.10411832090E+04  0.12699999809E+01 0.  1.
</event>
<event>
 5   0  0.1325673E-04  0.1984110E+04  0.7818609E-02  0.8614086E-01
       -2   -1    0    0    0  501  0.00000000000E+00  0.00000000000E+00  0.69455670737E+03  0.69455670738E+03  0.25500000920E-02 0.  1.
        2   -1    0    0  501    0  0.00000000000E+00  0.00000000000E+00 -0.14169804449E+04  0.14169804449E+04  0.25500000920E-02 0. -1.
    10030    2    1    2    0    0  0.00000000000E+00  0.00000000000E+00 -0.72242373750E+03  0.21115371523E+04  0.19841101504E+04 0.  0.
        5    1    3    3  502    0  0.18054677260E+03 -0.40410263104E+03 -0.13060694354E+04  0.13790342757E+04  0.46999998093E+01 0. -1.
       -5    1    3    3    0  502 -0.18054677260E+03  0.40410263104E+03  0.58364569788E+03  0.73250287656E+03  0.46999998093E+01 0.  1.
</event>
<event>
 5   0  0.5846187E-05  0.1997207E+04  0.7818609E-02  0.8607927E-01
        1   -1    0    0  501    0  0.00000000000E+00  0.00000000000E+00  0.14378793246E+04  0.14378793246E+04  0.50400001928E-02 0.  1.
       -1   -1    0    0    0  501  0.00000000000E+00  0.00000000000E+00 -0.69352782135E+03  0.69352782137E+03  0.50400001928E-02 0. -1.
    10030    2    1    2    0    0  0.00000000000E+00  0.00000000000E+00  0.74435150326E+03  0.21314071460E+04  0.19972073657E+04 0.  0.
        5    1    3    3  502    0  0.59251197546E+03  0.70069947105E+03 -0.48164522128E+02  0.91890810257E+03  0.46999998093E+01 0. -1.
       -5    1    3    3    0  502 -0.59251197546E+03 -0.70069947105E+03  0.79251602539E+03  0.12124990434E+04  0.46999998093E+01 0.  1.
</event>
<event>
 5   0  0.5933905E-05  0.2107372E+04  0.7818609E-02  0.8558003E-01
       -1   -1    0    0    0  501  0.00000000000E+00  0.00000000000E+00  0.66501290328E+03  0.66501290329E+03  0.50400001928E-02 0.  1.
        1   -1    0    0  501    0  0.00000000000E+00  0.00000000000E+00 -0.16695232657E+04  0.16695232657E+04  0.50400001928E-02 0. -1.
    10030    2    1    2    0    0  0.00000000000E+00  0.00000000000E+00 -0.10045103624E+04  0.23345361690E+04  0.21073723108E+04 0.  0.
        2    1    3    3  502    0  0.49665610668E+03 -0.82492707414E+03 -0.28250302738E+02  0.96331201880E+03  0.25500000920E-02 0.  1.
       -2    1    3    3    0  502 -0.49665610668E+03  0.82492707414E+03 -0.97626005970E+03  0.13712241502E+04  0.25500000920E-02 0. -1.
</event>
<event>
 5   0  0.1325673E-04  0.2147430E+04  0.7818609E-02  0.8540633E-01
       -2   -1    0    0    0  501  0.00000000000E+00  0.00000000000E+00  0.66266898054E+03  0.66266898054E+03  0.25500000920E-02 0. -1.
        2   -1    0    0  501    0  0.00000000000E+00  0.00000000000E+00 -0.17397277809E+04  0.17397277809E+04  0.25500000920E-02 0.  1.
    10030    2    1    2    0    0  0.00000000000E+00  0.00000000000E+00 -0.10770588003E+04  0.24023967614E+04  0.21474297520E+04 0.  0.
        5    1    3    3  502    0 -0.24259131103E+03 -0.82117414100E+03  0.18620127165E+03  0.87628221345E+03  0.46999998093E+01 0.  1.
       -5    1    3    3    0  502  0.24259131103E+03  0.82117414100E+03 -0.12632600720E+04  0.15261145480E+04  0.46999998093E+01 0. -1.
</event>
<event>
 5   0  0.1235817E-04  0.2009706E+04  0.7818609E-02  0.8602096E-01
       -2   -1    0    0    0  501  0.00000000000E+00  0.00000000000E+00  0.14884117992E+04  0.14884117992E+04  0.25500000920E-02 0. -1.
        2   -1    0    0  501    0  0.00000000000E+00  0.00000000000E+00 -0.67839369376E+03  0.67839369377E+03  0.25500000920E-02 0.  1.
    10030    2    1    2    0    0  0.00000000000E+00  0.00000000000E+00  0.81001810542E+03  0.21668054930E+04  0.20097056285E+04 0.  0.
        1    1    3    3  502    0 -0.96867646636E+03  0.24848980510E+03  0.29910713044E+03  0.10438133718E+04  0.50400001928E-02 0.  1.
       -1    1    3    3    0  502  0.96867646636E+03 -0.24848980510E+03  0.51091097498E+03  0.11229921211E+04  0.50400001928E-02 0. -1.
</event>
<event>
 5   0  0.5933905E-05  0.2109861E+04  0.7818609E-02  0.8556912E-01
       -1   -1    0    0    0  501  0.00000000000E+00  0.00000000000E+00  0.12962592615E+04  0.12962592615E+04  0.50400001928E-02 0. -1.
        1   -1    0    0  501    0  0.00000000000E+00  0.00000000000E+00 -0.85853043199E+03  0.85853043200E+03  0.50400001928E-02 0.  1.
    10030    2    1    2    0    0  0.00000000000E+00  0.00000000000E+00  0.43772882954E+03  0.21547896935E+04  0.21098606815E+04 0.  0.
        2    1    3    3  502    0  0.66616180295E+02 -0.82389642378E+02 -0.85308273700E+03  0.85963708902E+03  0.25500000920E-02 0.  1.
       -2    1    3    3    0  502 -0.66616180295E+02  0.82389642378E+02  0.12908115665E+04  0.12951526045E+04  0.25500000920E-02 0. -1.
</event>
<event>
 5   0  0.5846187E-05  0.2107940E+04  0.7818609E-02  0.8557754E-01
       -1   -1    0    0    0  501  0.00000000000E+00  0.00000000000E+00  0.83000086277E+03  0.83000086279E+03  0.50400001928E-02 0. -1.
        1   -1    0    0  501    0  0.00000000000E+00  0.00000000000E+00 -0.13383751936E+04  0.13383751936E+04  0.50400001928E-02 0.  1.
    10030    2    1    2    0    0  0.00000000000E+00  0.00000000000E+00 -0.50837433087E+03  0.21683760564E+04  0.21079398146E+04 0.  0.
        5    1    3    3  502    0  0.75895071927E+03 -0.31288058182E+03 -0.93414556016E+03  0.12436038237E+04  0.46999998093E+01 0.  1.
       -5    1    3    3    0  502 -0.75895071927E+03  0.31288058182E+03  0.42577122929E+03  0.92477223274E+03  0.46999998093E+01 0. -1.
</event>
<event>
 5   0  0.6221148E-05  0.2071820E+04  0.7818609E-02  0.8573759E-01
       -1   -1    0    0    0  501  0.00000000000E+00  0.00000000000E+00  0.18281109993E+04  0.18281109994E+04  0.50400001928E-02 0. -1.
        1   -1    0    0  501    0  0.00000000000E+00  0.00000000000E+00 -0.58700456040E+03  0.58700456042E+03  0.50400001928E-02 0.  1.
    10030    2    1    2    0    0  0.00000000000E+00  0.00000000000E+00  0.12411064390E+04  0.24151155598E+04  0.20718199667E+04 0.  0.
        3    1    3    3  502    0  0.31774477636E+03  0.31004779510E+01 -0.52879040233E+03  0.61692029928E+03  0.10100000352E+00 0.  1.
       -3    1    3    3    0  502 -0.31774477636E+03 -0.31004779510E+01  0.17698968413E+04  0.17981952605E+04  0.10100000352E+00 0. -1.
</event>
<event>
 5   0  0.6221148E-05  0.2088614E+04  0.7818609E-02  0.8566276E-01
       -1   -1    0    0    0  501  0.00000000000E+00  0.00000000000E+00  0.40636179888E+03  0.40636179891E+03  0.50400001928E-02 0. -1.
        1   -1    0    0  501    0  0.00000000000E+00  0.00000000000E+00 -0.26837585203E+04  0.26837585203E+04  0.50400001928E-02 0.  1.
    10030    2    1    2    0    0  0.00000000000E+00  0.00000000000E+00 -0.22773967214E+04  0.30901203192E+04  0.20886138371E+04 0.  0.
        3    1    3    3  502    0  0.52161200880E+03  0.34211932898E+03 -0.23778266780E+04  0.24582889260E+04  0.10100000352E+00 0.  1.
       -3    1    3    3    0  502 -0.52161200880E+03 -0.34211932898E+03  0.10042995663E+03  0.63183139315E+03  0.10100000352E+00 0. -1.
</event>
<event>
 5   0  0.5846187E-05  0.2101629E+04  0.7818609E-02  0.8560526E-01
       -1   -1    0    0    0  501  0.00000000000E+00  0.00000000000E+00  0.11196702935E+04  0.11196702935E+04  0.50400001928E-02 0.  1.
        1   -1    0    0  501    0  0.00000000000E+00  0.00000000000E+00 -0.98619267529E+03  0.98619267531E+03  0.50400001928E-02 0. -1.
    10030    2    1    2    0    0  0.00000000000E+00  0.00000000000E+00  0.13347761816E+03  0.21058629688E+04  0.21016285515E+04 0.  0.
        5    1    3    3  502    0  0.78647939543E+03 -0.60957940305E+03  0.40513460659E+03  0.10743802993E+04  0.46999998093E+01 0.  1.
       -5    1    3    3    0  502 -0.78647939543E+03  0.60957940305E+03 -0.27165698844E+03  0.10314826695E+04  0.46999998093E+01 0. -1.
</event>
<event>
 5   0  0.6263616E-05  0.1698683E+04  0.7818609E-02  0.8762116E-01
        1   -1    0    0  501    0  0.00000000000E+00  0.00000000000E+00  0.77939640291E+03  0.77939640293E+03  0.50400001928E-02 0. -1.
       -1   -1    0    0    0  501  0.00000000000E+00  0.00000000000E+00 -0.92556398008E+03  0.92556398009E+03  0.50400001928E-02 0.  1.
    10030    2    1    2    0    0  0.00000000000E+00  0.00000000000E+00 -0.14616757717E+03  0.17049603830E+04  0.16986832980E+04 0.  0.
        4    1    3    3  502    0  0.43395702955E+03 -0.53989246977E+03  0.42023732648E+03  0.81018738936E+03  0.12699999809E+01 0. -1.
       -4    1    3    3    0  502 -0.43395702955E+03  0.53989246977E+03 -0.56640490365E+03  0.89477299366E+03  0.12699999809E+01 0.  1.
</event>
<event>
 5   0  0.5846187E-05  0.1895457E+04  0.7818609E-02  0.8657121E-01
       -1   -1    0    0    0  501  0.00000000000E+00  0.00000000000E+00  0.84891970568E+03  0.84891970570E+03  0.50400001928E-02 0.  1.
        1   -1    0    0  501    0  0.00000000000E+00  0.00000000000E+00 -0.10580377708E+04  0.10580377708E+04  0.50400001928E-02 0. -1.
    10030    2    1    2    0    0  0.00000000000E+00  0.00000000000E+00 -0.20911806512E+03  0.19069574765E+04  0.18954567925E+04 0.  0.
        5    1    3    3  502    0  0.65921240887E+03  0.18227286949E+03  0.55545699870E+03  0.88110099669E+03  0.46999998093E+01 0.  1.
       -5    1    3    3    0  502 -0.65921240887E+03 -0.18227286949E+03 -0.76457506383E+03  0.10258564798E+04  0.46999998093E+01 0. -1.
</event>
<event>
 5   0  0.1252477E-04  0.2064979E+04  0.7818609E-02  0.8576829E-01
        2   -1    0    0  501    0  0.00000000000E+00  0.00000000000E+00  0.14441586055E+04  0.14441586055E+04  0.25500000920E-02 0.  1.
       -2   -1    0    0    0  501  0.00000000000E+00  0.00000000000E+00 -0.73817018704E+03  0.73817018704E+03  0.25500000920E-02 0. -1.
    10030    2    1    2    0    0  0.00000000000E+00  0.00000000000E+00  0.70598841842E+03  0.21823287925E+04  0.20649792521E+04 0.  0.
        4    1    3    3  502    0 -0.42005375901E+03  0.61528850934E+03  0.11084662293E+04  0.13355613443E+04  0.12699999809E+01 0.  1.
       -4    1    3    3    0  502  0.42005375901E+03 -0.61528850934E+03 -0.40247781083E+03  0.84676744818E+03  0.12699999809E+01 0. -1.
</event>
<event>
 5   0  0.5846187E-05  0.1686919E+04  0.7818609E-02  0.8768860E-01
        1   -1    0    0  501    0  0.00000000000E+00  0.00000000000E+00  0.45546934605E+03  0.45546934608E+03  0.50400001928E-02 0. -1.
       -1   -1    0    0    0  501  0.00000000000E+00  0.00000000000E+00 -0.15619573568E+04  0.15619573568E+04  0.50400001928E-02 0.  1.
    10030    2    1    2    0    0  0.00000000000E+00  0.00000000000E+00 -0.11064880107E+04  0.20174267028E+04  0.16869187246E+04 0.  0.
        5    1    3    3  502    0  0.56454730831E+03 -0.59973069479E+03 -0.33595728495E+03  0.88953918233E+03  0.46999998093E+01 0. -1.
       -5    1    3    3    0  502 -0.56454730831E+03  0.59973069479E+03 -0.77053072575E+03  0.11278875205E+04  0.46999998093E+01 0.  1.
</event>
<event>
 5   0  0.1281470E-04  0.2080245E+04  0.7818609E-02  0.8569996E-01
       -2   -1    0    0    0  501  0.00000000000E+00  0.00000000000E+00  0.59748156729E+03  0.59748156730E+03  0.25500000920E-02 0. -1.
        2   -1    0    0  501    0  0.00000000000E+00  0.00000000000E+00 -0.18106914178E+04  0.18106914178E+04  0.25500000920E-02 0.  1.
    10030    2    1    2    0    0  0.00000000000E+00  0.00000000000E+00 -0.12132098505E+04  0.24081729851E+04  0.20802449338E+04 0.  0.
        3    1    3    3  502    0 -0.22287656045E+02  0.10326234391E+04 -0.46460251850E+03  0.11325473134E+04  0.10100000352E+00 0.  1.
       -3    1    3    3    0  502  0.22287656045E+02 -0.10326234391E+04 -0.74860733202E+03  0.12756256717E+04  0.10100000352E+00 0. -1.
</event>
<event>
 5   0  0.1281470E-04  0.2049729E+04  0.7818609E-02  0.8583717E-01
        2   -1    0    0  501    0  0.00000000000E+00  0.00000000000E+00  0.21994341599E+04  0.21994341599E+04  0.25500000920E-02 0. -1.
       -2   -1    0    0    0  501  0.00000000000E+00  0.00000000000E+00 -0.47755341407E+03  0.47755341408E+03  0.25500000920E-02 0.  1.
    10030    2    1    2    0    0  0.00000000000E+00  0.00000000000E+00  0.17218807458E+04  0.26769875740E+04  0.20497290476E+04 0.  0.
        3    1    3    3  502    0  0.42152312929E+03  0.93321026399E+03  0.80577533183E+03  0.13030107601E+04  0.10100000352E+00 0. -1.
       -3    1    3    3    0  502 -0.42152312929E+03 -0.93321026399E+03  0.91610541401E+03  0.13739768139E+04  0.10100000352E+00 0.  1.
</event>
<event>
 5   0  0.4615125E-05  0.2141180E+04  0.7818609E-02  0.8543317E-01
        4   -1    0    0  501    0  0.00000000000E+00  0.00000000000E+00  0.10485132980E+04  0.10485140671E+04  0.12699999809E+01 0. -1.
       -4   -1    0    0    0  501  0.00000000000E+00  0.00000000000E+00 -0.10931302439E+04  0.10931309816E+04  0.12699999809E+01 0.  1.
    10030    2    1    2    0    0  0.00000000000E+00  0.00000000000E+00 -0.44616945892E+02  0.21416450487E+04  0.21411802453E+04 0.  0.
        4    1    3    3  502    0  0.34018490890E+02 -0.19585277580E+03 -0.10745092807E+04  0.10927430506E+04  0.12699999809E+01 0.  1.
       -4    1    3    3    0  502 -0.34018490890E+02  0.19585277580E+03  0.10298923348E+04  0.10489019981E+04  0.12699999809E+01 0. -1.
</event>
<event>
 5   0  0.1325673E-04  0.2113508E+04  0.7818609E-02  0.8555316E-01
       -2   -1    0    0    0  501  0.00000000000E+00  0.00000000000E+00  0.97972482514E+03  0.97972482514E+03  0.25500000920E-02 0. -1.
        2   -1    0    0  501    0  0.00000000000E+00  0.00000000000E+00 -0.11398393685E+04  0.11398393685E+04  0.25500000920E-02 0.  1.
    10030    2    1    2    0    0  0.00000000000E+00  0.00000000000E+00 -0.16011454336E+03  0.21195641936E+04  0.21135079143E+04 0.  0.
        5    1    3    3  502    0 -0.27553698062E+03 -0.23412550852E+03 -0.10758635650E+04  0.11350065559E+04  0.46999998093E+01 0.  1.
       -5    1    3    3    0  502  0.27553698062E+03  0.23412550852E+03  0.91574902164E+03  0.98455763775E+03  0.46999998093E+01 0. -1.
</event>
<event>
 5   0  0.5846187E-05  0.2090640E+04  0.7818609E-02  0.8565378E-01
       -1   -1    0    0    0  501  0.00000000000E+00  0.00000000000E+00  0.57798464978E+03  0.57798464980E+03  0.50400001928E-02 0.  1.
        1   -1    0    0  501    0  0.00000000000E+00  0.00000000000E+00 -0.18905244546E+04  0.18905244547E+04  0.50400001928E-02 0. -1.
    10030    2    1    2    0    0  0.00000000000E+00  0.00000000000E+00 -0.13125398049E+04  0.24685091045E+04  0.20906402032E+04 0.  0.
        5    1    3    3  502    0  0.24379698851E+03 -0.61593115085E+03  0.29850084872E+03  0.72658998127E+03  0.46999998093E+01 0.  1.
       -5    1    3    3    0  502 -0.24379698851E+03  0.61593115085E+03 -0.16110406536E+04  0.17419191232E+04  0.46999998093E+01 0. -1.
</event>
<event>
 5   0  0.5933905E-05  0.2061259E+04  0.7818609E-02  0.8578504E-01
       -1   -1    0    0    0  501  0.00000000000E+00  0.00000000000E+00  0.91899239559E+03  0.91899239560E+03  0.50400001928E-02 0. -1.
        1   -1    0    0  501    0  0.00000000000E+00  0.00000000000E+00 -0.11558275087E+04  0.11558275087E+04  0.50400001928E-02 0.  1.
    10030    2    1    2    0    0  0.00000000000E+00  0.00000000000E+00 -0.23683511314E+03  0.20748199043E+04  0.20612585390E+04 0.  0.
        2    1    3    3  502    0  0.45887808958E+03 -0.53716159115E+03  0.63690929307E+03  0.95119142327E+03  0.25500000920E-02 0. -1.
       -2    1    3    3    0  502 -0.45887808958E+03  0.53716159115E+03 -0.87374440621E+03  0.11236284811E+04  0.25500000920E-02 0.  1.
</event>
<event>
 5   0  0.1325673E-04  0.2091098E+04  0.7818609E-02  0.8565175E-01
        2   -1    0    0  501    0  0.00000000000E+00  0.00000000000E+00  0.16111120517E+04  0.16111120517E+04  0.25500000920E-02 0.  1.
       -2   -1    0    0    0  501  0.00000000000E+00  0.00000000000E+00 -0.67852061710E+03  0.67852061710E+03  0.25500000920E-02 0. -1.
    10030    2    1    2    0    0  0.00000000000E+00  0.00000000000E+00  0.93259143464E+03  0.22896326688E+04  0.20910980308E+04 0.  0.
        5    1    3    3  502    0  0.88663017044E+03 -0.50208219684E+03  0.20962314369E+03  0.10402708993E+04  0.46999998093E+01 0. -1.
       -5    1    3    3    0  502 -0.88663017044E+03  0.50208219684E+03  0.72296829094E+03  0.12493617696E+04  0.46999998093E+01 0.  1.
</event>
<event>
 5   0  0.1235817E-04  0.2092458E+04  0.7818609E-02  0.8564573E-01
       -2   -1    0    0    0  501  0.00000000000E+00  0.00000000000E+00  0.90299580496E+03  0.90299580496E+03  0.25500000920E-02 0.  1.
        2   -1    0    0  501    0  0.00000000000E+00  0.00000000000E+00 -0.12121813858E+04  0.12121813858E+04  0.25500000920E-02 0. -1.
    10030    2    1    2    0    0  0.00000000000E+00  0.00000000000E+00 -0.30918558087E+03  0.21151771908E+04  0.20924576041E+04 0.  0.
        1    1    3    3  502    0  0.23291104371E+03  0.73259303777E+03  0.56279913892E+03  0.95272398105E+03  0.50400001928E-02 0.  1.
       -1    1    3    3    0  502 -0.23291104371E+03 -0.73259303777E+03 -0.87198471979E+03  0.11624532097E+04  0.50400001928E-02 0. -1.
</event>
<event>
 5   0  0.5933905E-05  0.2115729E+04  0.7818609E-02  0.8554346E-01
       -1   -1    0    0    0  501  0.00000000000E+00  0.00000000000E+00  0.99504622080E+03  0.99504622081E+03  0.50400001928E-02 0. -1.
        1   -1    0    0  501    0  0.00000000000E+00  0.00000000000E+00 -0.11246487051E+04  0.11246487052E+04  0.50400001928E-02 0.  1.
    10030    2    1    2    0    0  0.00000000000E+00  0.00000000000E+00 -0.12960248435E+03  0.21196949260E+04  0.21157291356E+04 0.  0.
        2    1    3    3  502    0 -0.38832775210E+03  0.63696319445E+03 -0.81624506274E+03  0.11057922755E+04  0.25500000920E-02 0.  1.
       -2    1    3    3    0  502  0.38832775210E+03 -0.63696319445E+03  0.68664257840E+03  0.10139026505E+04  0.25500000920E-02 0. -1.
</event>
<event>
 5   0  0.1235817E-04  0.2004821E+04  0.7818609E-02  0.8604370E-01
       -2   -1    0    0    0  501  0.00000000000E+00  0.00000000000E+00  0.17053034683E+04  0.17053034683E+04  0.25500000920E-02 0.  1.
        2   -1    0    0  501    0  0.00000000000E+00  0.00000000000E+00 -0.58923623656E+03  0.58923623656E+03  0.25500000920E-02 0. -1.
    10030    2    1    2    0    0  0.00000000000E+00  0.00000000000E+00  0.11160672318E+04  0.22945397049E+04  0.20048207879E+04 0.  0.
        1    1    3    3  502    0  0.72745186720E+03 -0.21732794090E+03 -0.19108275024E+03  0.78289863358E+03  0.50400001928E-02 0.  1.
       -1    1    3    3    0  502 -0.72745186720E+03  0.21732794090E+03  0.13071499820E+04  0.15116410713E+04  0.50400001928E-02 0. -1.
</event>
<event>
 5   0  0.6263616E-05  0.2062779E+04  0.7818609E-02  0.8577819E-01
        1   -1    0    0  501    0  0.00000000000E+00  0.00000000000E+00  0.95766340414E+03  0.95766340415E+03  0.50400001928E-02 0. -1.
       -1   -1    0    0    0  501  0.00000000000E+00  0.00000000000E+00 -0.11107918969E+04  0.11107918969E+04  0.50400001928E-02 0.  1.
    10030    2    1    2    0    0  0.00000000000E+00  0.00000000000E+00 -0.15312849279E+03  0.20684553011E+04  0.20627794350E+04 0.  0.
        4    1    3    3  502    0 -0.56356226218E+03 -0.35391455521E+03 -0.86670779050E+03  0.10927222624E+04  0.12699999809E+01 0.  1.
       -4    1    3    3    0  502  0.56356226218E+03  0.35391455521E+03  0.71357929772E+03  0.97573303868E+03  0.12699999809E+01 0. -1.
</event>
<event>
 5   0  0.1281470E-04  0.2112737E+04  0.7818609E-02  0.8555653E-01
        2   -1    0    0  501    0  0.00000000000E+00  0.00000000000E+00  0.18232733917E+04  0.18232733917E+04  0.25500000920E-02 0.  1.
       -2   -1    0    0    0  501  0.00000000000E+00  0.00000000000E+00 -0.61203902046E+03  0.61203902047E+03  0.25500000920E-02 0. -1.
    10030    2    1    2    0    0  0.00000000000E+00  0.00000000000E+00  0.12112343713E+04  0.24353124122E+04  0.21127370501E+04 0.  0.
        3    1    3    3  502    0 -0.89599090338E+03 -0.55691271423E+03  0.54287298139E+03  0.11864495583E+04  0.10100000352E+00 0. -1.
       -3    1    3    3    0  502  0.89599090338E+03  0.55691271423E+03  0.66836138988E+03  0.12488628539E+04  0.10100000352E+00 0.  1.
</event>
<event>
 5   0  0.6263616E-05  0.2103181E+04  0.7818609E-02  0.8559844E-01
       -1   -1    0    0    0  501  0.00000000000E+00  0.00000000000E+00  0.82714211603E+03  0.82714211605E+03  0.50400001928E-02 0.  1.
        1   -1    0    0  501    0  0.00000000000E+00  0.00000000000E+00 -0.13369435203E+04  0.13369435204E+04  0.50400001928E-02 0. -1.
    10030    2    1    2    0    0  0.00000000000E+00  0.00000000000E+00 -0.50980140431E+03  0.21640856364E+04  0.21031807269E+04 0.  0.
        4    1    3    3  502    0  0.45084007254E+03 -0.94777771760E+03 -0.32238427199E+03  0.10979401644E+04  0.12699999809E+01 0. -1.
       -4    1    3    3    0  502 -0.45084007254E+03  0.94777771760E+03 -0.18741713233E+03  0.10661454720E+04  0.12699999809E+01 0.  1.
</event>
<event>
 5   0  0.1281470E-04  0.2130520E+04  0.7818609E-02  0.8547917E-01
        2   -1    0    0  501    0  0.00000000000E+00  0.00000000000E+00  0.16794810561E+04  0.16794810561E+04  0.25500000920E-02 0. -1.
       -2   -1    0    0    0  501  0.00000000000E+00  0.00000000000E+00 -0.67567223399E+03  0.67567223399E+03  0.25500000920E-02 0.  1.
    10030    2    1    2    0    0  0.00000000000E+00  0.00000000000E+00  0.10038088221E+04  0.23551532901E+04  0.21305198588E+04 0.  0.
        3    1    3    3  502    0  0.35108537296E+03 -0.40080971741E+03  0.15215870606E+04  0.16121837866E+04  0.10100000352E+00 0. -1.
       -3    1    3    3    0  502 -0.35108537296E+03  0.40080971741E+03 -0.51777823847E+03  0.74296950349E+03  0.10100000352E+00 0.  1.
</event>
<event>
 5   0  0.1252477E-04  0.2096804E+04  0.7818609E-02  0.8562653E-01
       -2   -1    0    0    0  501  0.00000000000E+00  0.00000000000E+00  0.11475951648E+04  0.11475951648E+04  0.25500000920E-02 0. -1.
        2   -1    0    0  501    0  0.00000000000E+00  0.00000000000E+00 -0.95778229908E+03  0.95778229908E+03  0.25500000920E-02 0.  1.
    10030    2    1    2    0    0  0.00000000000E+00  0.00000000000E+00  0.18981286574E+03  0.21053774639E+04  0.20968036011E+04 0.  0.
        4    1    3    3  502    0  0.58066252199E+03  0.52270019918E+03 -0.60706616535E+03  0.98940153865E+03  0.12699999809E+01 0.  1.
       -4    1    3    3    0  502 -0.58066252199E+03 -0.52270019918E+03  0.79687903109E+03  0.11159759253E+04  0.12699999809E+01 0. -1.
</event>
<event>
 5   0  0.1349252E-04  0.2105052E+04  0.7818609E-02  0.8559021E-01
        2   -1    0    0  501    0  0.00000000000E+00  0.00000000000E+00  0.14764572036E+04  0.14764572036E+04  0.25500000920E-02 0.  1.
       -2   -1    0    0    0  501  0.00000000000E+00  0.00000000000E+00 -0.75031689483E+03  0.75031689484E+03  0.25500000920E-02 0. -1.
    10030    2    1    2    0    0  0.00000000000E+00  0.00000000000E+00  0.72614030880E+03  0.22267740985E+04  0.21050518135E+04 0.  0.
        2    1    3    3  502    0  0.74871483239E+02  0.20509505507E+01  0.14736345338E+04  0.14755367446E+04  0.25500000920E-02 0.  1.
       -2    1    3    3    0  502 -0.74871483239E+02 -0.20509505507E+01 -0.74749422502E+03  0.75123735387E+03  0.25500000920E-02 0. -1.
</event>
<event>
 5   0  0.1349252E-04  0.2266902E+04  0.7818609E-02  0.8491087E-01
       -2   -1    0    0    0  501  0.00000000000E+00  0.00000000000E+00  0.59938040012E+03  0.59938040012E+03  0.25500000920E-02 0.  1.
        2   -1    0    0  501    0  0.00000000000E+00  0.00000000000E+00 -0.21433988734E+04  0.21433988734E+04  0.25500000920E-02 0. -1.
    10030    2    1    2    0    0  0.00000000000E+00  0.00000000000E+00 -0.15440184733E+04  0.27427792735E+04  0.22669020926E+04 0.  0.
        2    1    3    3  502    0  0.82484244428E+03 -0.58337124767E+03 -0.15031052633E+03  0.10214109481E+04  0.25500000920E-02 0. -1.
       -2    1    3    3    0  502 -0.82484244428E+03  0.58337124767E+03 -0.13937079469E+04  0.17213683255E+04  0.25500000920E-02 0.  1.
</event>
<event>
 5   0  0.6263616E-05  0.2062364E+04  0.7818609E-02  0.8578006E-01
       -1   -1    0    0    0  501  0.00000000000E+00  0.00000000000E+00  0.10171311446E+04  0.10171311446E+04  0.50400001928E-02 0. -1.
        1   -1    0    0  501    0  0.00000000000E+00  0.00000000000E+00 -0.10454269281E+04  0.10454269281E+04  0.50400001928E-02 0.  1.
    10030    2    1    2    0    0  0.00000000000E+00  0.00000000000E+00 -0.28295783466E+02  0.20625580727E+04  0.20623639718E+04 0.  0.
        4    1    3    3  502    0 -0.60515651467E+02  0.57046850320E+03  0.84280976835E+03  0.10195226215E+04  0.12699999809E+01 0. -1.
       -4    1    3    3    0  502  0.60515651467E+02 -0.57046850320E+03 -0.87110555182E+03  0.10430354512E+04  0.12699999809E+01 0.  1.
</event>
<event>
 5   0  0.1349252E-04  0.2197725E+04  0.7818609E-02  0.8519375E-01
       -2   -1    0    0    0  501  0.00000000000E+00  0.00000000000E+00  0.84972172848E+03  0.84972172849E+03  0.25500000920E-02 0. -1.
        2   -1    0    0  501    0  0.00000000000E+00  0.00000000000E+00 -0.14210525855E+04  0.14210525855E+04  0.25500000920E-02 0.  1.
    10030    2    1    2    0    0  0.00000000000E+00  0.00000000000E+00 -0.57133085706E+03  0.22707743140E+04  0.21977254235E+04 0.  0.
        2    1    3    3  502    0  0.44539590281E+03  0.41331599028E+03 -0.12316806161E+04  0.13734062612E+04  0.25500000920E-02 0.  1.
       -2    1    3    3    0  502 -0.44539590281E+03 -0.41331599028E+03  0.66034975905E+03  0.89736805289E+03  0.25500000920E-02 0. -1.
</event>
<event>
 5   0  0.1325673E-04  0.2118824E+04  0.7818609E-02  0.8552996E-01
       -2   -1    0    0    0  501  0.00000000000E+00  0.00000000000E+00  0.24502366617E+04  0.24502366617E+04  0.25500000920E-02 0. -1.
        2   -1    0    0  501    0  0.00000000000E+00  0.00000000000E+00 -0.45805951566E+03  0.45805951567E+03  0.25500000920E-02 0.  1.
    10030    2    1    2    0    0  0.00000000000E+00  0.00000000000E+00  0.19921771461E+04  0.29082961774E+04  0.21188244085E+04 0.  0.
        5    1    3    3  502    0  0.66382340896E+03  0.29925770234E+03  0.20522902613E+04  0.21776441622E+04  0.46999998093E+01 0. -1.
       -5    1    3    3    0  502 -0.66382340896E+03 -0.29925770234E+03 -0.60113115199E+02  0.73065201520E+03  0.46999998093E+01 0.  1.
</event>
<event>
 5   0  0.1325673E-04  0.2012514E+04  0.7818609E-02  0.8600792E-01
        2   -1    0    0  501    0  0.00000000000E+00  0.00000000000E+00  0.18451948274E+04  0.18451948274E+04  0.25500000920E-02 0.  1.
       -2   -1    0    0    0  501  0.00000000000E+00  0.00000000000E+00 -0.54875131559E+03  0.54875131560E+03  0.25500000920E-02 0. -1.
    10030    2    1    2    0    0  0.00000000000E+00  0.00000000000E+00  0.12964435118E+04  0.23939461430E+04  0.20125139394E+04 0.  0.
        5    1    3    3  502    0 -0.72283259860E+03 -0.45276856168E+03  0.12833068734E+04  0.15409039416E+04  0.46999998093E+01 0.  1.
       -5    1    3    3    0  502  0.72283259860E+03  0.45276856168E+03  0.13136638414E+02  0.85304220137E+03  0.46999998093E+01 0. -1.
</event>
<event>
 5   0  0.1281470E-04  0.2087710E+04  0.7818609E-02  0.8566676E-01
        2   -1    0    0  501    0  0.00000000000E+00  0.00000000000E+00  0.17031804276E+04  0.17031804276E+04  0.25500000920E-02 0. -1.
       -2   -1    0    0    0  501  0.00000000000E+00  0.00000000000E+00 -0.63976400375E+03  0.63976400376E+03  0.25500000920E-02 0.  1.
    10030    2    1    2    0    0  0.00000000000E+00  0.00000000000E+00  0.10634164239E+04  0.23429444314E+04  0.20877102572E+04 0.  0.
        3    1    3    3  502    0  0.45100098140E+03 -0.36670905394E+03 -0.44133078247E+03  0.72982894244E+03  0.10100000352E+00 0.  1.
       -3    1    3    3    0  502 -0.45100098140E+03  0.36670905394E+03  0.15047472063E+04  0.16131154889E+04  0.10100000352E+00 0. -1.
</event>
<event>
 5   0  0.5846187E-05  0.2025822E+04  0.7818609E-02  0.8594642E-01
        1   -1    0    0  501    0  0.00000000000E+00  0.00000000000E+00  0.15826578421E+04  0.15826578421E+04  0.50400001928E-02 0. -1.
       -1   -1    0    0    0  501  0.00000000000E+00  0.00000000000E+00 -0.64826958708E+03  0.64826958710E+03  0.50400001928E-02 0.  1.
    10030    2    1    2    0    0  0.00000000000E+00  0.00000000000E+00  0.93438825498E+03  0.22309274292E+04  0.20258222487E+04 0.  0.
        5    1    3    3  502    0 -0.48198218625E+03 -0.60683498718E+02  0.14459885342E+04  0.15254160894E+04  0.46999998093E+01 0. -1.
       -5    1    3    3    0  502  0.48198218625E+03  0.60683498718E+02 -0.51160027918E+03  0.70551133977E+03  0.46999998093E+01 0.  1.
</event>
<event>
 5   0  0.6052292E-05  0.2104856E+04  0.7818609E-02  0.8559107E-01
        1   -1    0    0  501    0  0.00000000000E+00  0.00000000000E+00  0.11017884857E+04  0.11017884857E+04  0.50400001928E-02 0.  1.
       -1   -1    0    0    0  501  0.00000000000E+00  0.00000000000E+00 -0.10052787411E+04  0.10052787411E+04  0.50400001928E-02 0. -1.
    10030    2    1    2    0    0  0.00000000000E+00  0.00000000000E+00  0.96509744677E+02  0.21070672268E+04  0.21048558543E+04 0.  0.
        1    1    3    3  502    0 -0.79576373412E+03  0.68752011733E+02  0.73427608801E+03  0.10849553600E+04  0.50400001928E-02 0.  1.
       -1    1    3    3    0  502  0.79576373412E+03 -0.68752011733E+02 -0.63776634333E+03  0.10221118669E+04  0.50400001928E-02 0. -1.
</event>
<event>
 5   0  0.1281470E-04  0.2086941E+04  0.7818609E-02  0.8567018E-01
        2   -1    0    0  501    0  0.00000000000E+00  0.00000000000E+00  0.12944739915E+04  0.12944739915E+04  0.25500000920E-02 0. -1.
       -2   -1    0    0    0  501  0.00000000000E+00  0.00000000000E+00 -0.84113719970E+03  0.84113719970E+03  0.25500000920E-02 0.  1.
    10030    2    1    2    0    0  0.00000000000E+00  0.00000000000E+00  0.45333679180E+03  0.21356111912E+04  0.20869405629E+04 0.  0.
        3    1    3    3  502    0 -0.13561944192E+03 -0.47125249917E+03 -0.71587609258E+03  0.86772699689E+03  0.10100000352E+00 0.  1.
       -3    1    3    3    0  502  0.13561944192E+03  0.47125249917E+03  0.11692128844E+04  0.12678841943E+04  0.10100000352E+00 0. -1.
</event>
<event>
 5   0  0.5933905E-05  0.1534676E+04  0.7818609E-02  0.8861716E-01
       -1   -1    0    0    0  501  0.00000000000E+00  0.00000000000E+00  0.26766127963E+03  0.26766127968E+03  0.50400001928E-02 0. -1.
        1   -1    0    0  501    0  0.00000000000E+00  0.00000000000E+00 -0.21998231111E+04  0.21998231111E+04  0.50400001928E-02 0.  1.
    10030    2    1    2    0    0  0.00000000000E+00  0.00000000000E+00 -0.19321618315E+04  0.24674843908E+04  0.15346758211E+04 0.  0.
        2    1    3    3  502    0  0.28263315866E+03  0.56708578712E+03 -0.27017160623E+03  0.68881092410E+03  0.25500000920E-02 0. -1.
       -2    1    3    3    0  502 -0.28263315866E+03 -0.56708578712E+03 -0.16619902252E+04  0.17786734667E+04  0.25500000920E-02 0.  1.
</event>
<event>
 5   0  0.1252477E-04  0.2061885E+04  0.7818609E-02  0.8578221E-01
        2   -1    0    0  501    0  0.00000000000E+00  0.00000000000E+00  0.13225291706E+04  0.13225291706E+04  0.25500000920E-02 0. -1.
       -2   -1    0    0    0  501  0.00000000000E+00  0.00000000000E+00 -0.80364423185E+03  0.80364423185E+03  0.25500000920E-02 0.  1.
    10030    2    1    2    0    0  0.00000000000E+00  0.00000000000E+00  0.51888493872E+03  0.21261734024E+04  0.20618854860E+04 0.  0.
        4    1    3    3  502    0  0.10158712758E+04  0.13945413665E+03  0.14934545483E+03  0.10362179225E+04  0.12699999809E+01 0.  1.
       -4    1    3    3    0  502 -0.10158712758E+04 -0.13945413665E+03  0.36953948389E+03  0.10899554799E+04  0.12699999809E+01 0. -1.
</event>
<event>
 5   0  0.6263616E-05  0.1591446E+04  0.7818609E-02  0.8825821E-01
       -1   -1    0    0    0  501  0.00000000000E+00  0.00000000000E+00  0.11096411510E+04  0.11096411510E+04  0.50400001928E-02 0. -1.
        1   -1    0    0  501    0  0.00000000000E+00  0.00000000000E+00 -0.57061222712E+03  0.57061222714E+03  0.50400001928E-02 0.  1.
    10030    2    1    2    0    0  0.00000000000E+00  0.00000000000E+00  0.53902892391E+03  0.16802533782E+04  0.15914456428E+04 0.  0.
        4    1    3    3  502    0  0.54301885724E+03 -0.81543880389E+02  0.87754555953E+03  0.10351843825E+04  0.12699999809E+01 0. -1.
       -4    1    3    3    0  502 -0.54301885724E+03  0.81543880389E+02 -0.33851663561E+03  0.64506899572E+03  0.12699999809E+01 0.  1.
</event>
<event>
 5   0  0.1252477E-04  0.2160866E+04  0.7818609E-02  0.8534895E-01
        2   -1    0    0  501    0  0.00000000000E+00  0.00000000000E+00  0.75505008513E+03  0.75505008514E+03  0.25500000920E-02 0. -1.
       -2   -1    0    0    0  501  0.00000000000E+00  0.00000000000E+00 -0.15460376633E+04  0.15460376633E+04  0.25500000920E-02 0.  1.
    10030    2    1    2    0    0  0.00000000000E+00  0.00000000000E+00 -0.79098757815E+03  0.23010877484E+04  0.21608663719E+04 0.  0.
        4    1    3    3  502    0 -0.31657655662E+03 -0.10314211303E+04 -0.33446899398E+03  0.11295669015E+04  0.12699999809E+01 0.  1.
       -4    1    3    3    0  502  0.31657655662E+03  0.10314211303E+04 -0.45651858417E+03  0.11715208469E+04  0.12699999809E+01 0. -1.
</event>
<event>
 5   0  0.1235817E-04  0.2081646E+04  0.7818609E-02  0.8569372E-01
       -2   -1    0    0    0  501  0.00000000000E+00  0.00000000000E+00  0.14880879467E+04  0.14880879467E+04  0.25500000920E-02 0. -1.
        2   -1    0    0  501    0  0.00000000000E+00  0.00000000000E+00 -0.72798970090E+03  0.72798970090E+03  0.25500000920E-02 0.  1.
    10030    2    1    2    0    0  0.00000000000E+00  0.00000000000E+00  0.76009824577E+03  0.22160776476E+04  0.20816461747E+04 0.  0.
        1    1    3    3  502    0 -0.99407487463E+03  0.27533216559E+03  0.23207625642E+03  0.10572852248E+04  0.50400001928E-02 0.  1.
       -1    1    3    3    0  502  0.99407487463E+03 -0.27533216559E+03  0.52802198935E+03  0.11587924228E+04  0.50400001928E-02 0. -1.
</event>
<event>
 5   0  0.1349252E-04  0.2111066E+04  0.7818609E-02  0.8556384E-01
        2   -1    0    0  501    0  0.00000000000E+00  0.00000000000E+00  0.19895280482E+04  0.19895280482E+04  0.25500000920E-02 0.  1.
       -2   -1    0    0    0  501  0.00000000000E+00  0.00000000000E+00 -0.56000705645E+03  0.56000705646E+03  0.25500000920E-02 0. -1.
    10030    2    1    2    0    0  0.00000000000E+00  0.00000000000E+00  0.14295209918E+04  0.25495351047E+04  0.21110658408E+04 0.  0.
        2    1    3    3  502    0 -0.10090102103E+03 -0.98897842900E+03  0.28625586559E+03  0.10345055677E+04  0.25500000920E-02 0.  1.
       -2    1    3    3    0  502  0.10090102103E+03  0.98897842900E+03  0.11432651262E+04  0.15150295370E+04  0.25500000920E-02 0. -1.
</event>
<event>
 5   0  0.6221148E-05  0.2085943E+04  0.7818609E-02  0.8567461E-01
        1   -1    0    0  501    0  0.00000000000E+00  0.00000000000E+00  0.12070239248E+04  0.12070239248E+04  0.50400001928E-02 0. -1.
       -1   -1    0    0    0  501  0.00000000000E+00  0.00000000000E+00 -0.90121580784E+03  0.90121580785E+03  0.50400001928E-02 0.  1.
    10030    2    1    2    0    0  0.00000000000E+00  0.00000000000E+00  0.30580811697E+03  0.21082397327E+04  0.20859425126E+04 0.  0.
        3    1    3    3  502    0 -0.31637473262E+03 -0.81222641111E+03 -0.42591683259E+03  0.97015971511E+03  0.10100000352E+00 0.  1.
       -3    1    3    3    0  502  0.31637473262E+03  0.81222641111E+03  0.73172494956E+03  0.11380800176E+04  0.10100000352E+00 0. -1.
</event>
<event>
 5   0  0.4615125E-05  0.2097907E+04  0.7818609E-02  0.8562166E-01
        3   -1    0    0  501    0  0.00000000000E+00  0.00000000000E+00  0.11307072668E+04  0.11307072713E+04  0.10100000352E+00 0. -1.
       -3   -1    0    0    0  501  0.00000000000E+00  0.00000000000E+00 -0.97311054206E+03  0.97311054730E+03  0.10100000352E+00 0.  1.
    10030    2    1    2    0    0  0.00000000000E+00  0.00000000000E+00  0.15759672474E+03  0.21038178186E+04  0.20979067392E+04 0.  0.
        5    1    3    3  502    0 -0.97787738955E+03  0.35163004373E+03  0.22200550933E+03  0.10626365384E+04  0.46999998093E+01 0. -1.
       -5    1    3    3    0  502  0.97787738955E+03 -0.35163004373E+03 -0.64408784599E+02  0.10411812802E+04  0.46999998093E+01 0.  1.
</event>
<event>
 5   0  0.6052292E-05  0.2136342E+04  0.7818609E-02  0.8545401E-01
       -1   -1    0    0    0  501  0.00000000000E+00  0.00000000000E+00  0.12116474063E+04  0.12116474063E+04  0.50400001928E-02 0.  1.
        1   -1    0    0  501    0  0.00000000000E+00  0.00000000000E+00 -0.94168406504E+03  0.94168406505E+03  0.50400001928E-02 0. -1.
    10030    2    1    2    0    0  0.00000000000E+00  0.00000000000E+00  0.26996334129E+03  0.21533314714E+04  0.21363417845E+04 0.  0.
        1    1    3    3  502    0 -0.47404210803E+00  0.94432901274E+03 -0.36821951827E+03  0.10135793618E+04  0.50400001928E-02 0. -1.
       -1    1    3    3    0  502  0.47404210803E+00 -0.94432901274E+03  0.63818285956E+03  0.11397521096E+04  0.50400001928E-02 0.  1.
</event>
<event>
 5   0  0.5933905E-05  0.2090953E+04  0.7818609E-02  0.8565239E-01
        1   -1    0    0  501    0  0.00000000000E+00  0.00000000000E+00  0.13805197531E+04  0.13805197531E+04  0.50400001928E-02 0. -1.
       -1   -1    0    0    0  501  0.00000000000E+00  0.00000000000E+00 -0.79174610670E+03  0.79174610672E+03  0.50400001928E-02 0.  1.
    10030    2    1    2    0    0  0.00000000000E+00  0.00000000000E+00  0.58877364640E+03  0.21722658598E+04  0.20909530265E+04 0.  0.
        2    1    3    3  502    0 -0.38835962669E+03  0.38053428561E+03  0.12220803533E+04  0.13375761407E+04  0.25500000920E-02 0. -1.
       -2    1    3    3    0  502  0.38835962669E+03 -0.38053428561E+03 -0.63330670693E+03  0.83468971913E+03  0.25500000920E-02 0.  1.
</event>
<event>
 5   0  0.1349252E-04  0.2081447E+04  0.7818609E-02  0.8569461E-01
       -2   -1    0    0    0  501  0.00000000000E+00  0.00000000000E+00  0.77462251203E+03  0.77462251203E+03  0.25500000920E-02 0.  1.
        2   -1    0    0  501    0  0.00000000000E+00  0.00000000000E+00 -0.13982360015E+04  0.13982360015E+04  0.25500000920E-02 0. -1.
    10030    2    1    2    0    0  0.00000000000E+00  0.00000000000E+00 -0.62361348947E+03  0.21728585135E+04  0.20814466929E+04 0.  0.
        2    1    3    3  502    0 -0.10703304346E+03 -0.48539878831E+03 -0.12663132915E+04  0.13603739958E+04  0.25500000920E-02 0. -1.
       -2    1    3    3    0  502  0.10703304346E+03  0.48539878831E+03  0.64269980204E+03  0.81248451778E+03  0.25500000920E-02 0.  1.
</event>
<event>
 5   0  0.1325673E-04  0.2090061E+04  0.7818609E-02  0.8565634E-01
        2   -1    0    0  501    0  0.00000000000E+00  0.00000000000E+00  0.10180143869E+04  0.10180143869E+04  0.25500000920E-02 0. -1.
       -2   -1    0    0    0  501  0.00000000000E+00  0.00000000000E+00 -0.10727632475E+04  0.10727632475E+04  0.25500000920E-02 0.  1.
    10030    2    1    2    0    0  0.00000000000E+00  0.00000000000E+00 -0.54748860625E+02  0.20907776344E+04  0.20900606878E+04 0.  0.
        5    1    3    3  502    0  0.99011894758E+03 -0.12430858792E+03 -0.33776811191E+03  0.10535167501E+04  0.46999998093E+01 0.  1.
       -5    1    3    3    0  502 -0.99011894758E+03  0.12430858792E+03  0.28301925129E+03  0.10372608842E+04  0.46999998093E+01 0. -1.
</event>
<event>
 5   0  0.6052292E-05  0.2104343E+04  0.7818609E-02  0.8559333E-01
        1   -1    0    0  501    0  0.00000000000E+00  0.00000000000E+00  0.20306843178E+04  0.20306843178E+04  0.50400001928E-02 0.  1.
       -1   -1    0    0    0  501  0.00000000000E+00  0.00000000000E+00 -0.54516841254E+03  0.54516841256E+03  0.50400001928E-02 0. -1.
    10030    2    1    2    0    0  0.00000000000E+00  0.00000000000E+00  0.14855159052E+04  0.25758527303E+04  0.21043430765E+04 0.  0.
        1    1    3    3  502    0  0.57162359746E+03  0.83223467789E+03  0.38026757706E+03  0.10788751209E+04  0.50400001928E-02 0. -1.
       -1    1    3    3    0  502 -0.57162359746E+03 -0.83223467789E+03  0.11052483282E+04  0.14969776095E+04  0.50400001928E-02 0.  1.
</event>
<event>
 5   0  0.1235817E-04  0.2107239E+04  0.7818609E-02  0.8558061E-01
       -2   -1    0    0    0  501  0.00000000000E+00  0.00000000000E+00  0.52475762452E+03  0.52475762453E+03  0.25500000920E-02 0.  1.
        2   -1    0    0  501    0  0.00000000000E+00  0.00000000000E+00 -0.21154805812E+04  0.21154805812E+04  0.25500000920E-02 0. -1.
    10030    2    1    2    0    0  0.00000000000E+00  0.00000000000E+00 -0.15907229567E+04  0.26402382057E+04  0.21072394876E+04 0.  0.
        1    1    3    3  502    0 -0.30922901675E+03 -0.10050316833E+04 -0.87850302827E+03  0.13702112392E+04  0.50400001928E-02 0. -1.
       -1    1    3    3    0  502  0.30922901675E+03  0.10050316833E+04 -0.71221992841E+03  0.12700269665E+04  0.50400001928E-02 0.  1.
</event>
<event>
 5   0  0.6052292E-05  0.1970249E+04  0.7818609E-02  0.8620658E-01
        1   -1    0    0  501    0  0.00000000000E+00  0.00000000000E+00  0.60924599039E+03  0.60924599041E+03  0.50400001928E-02 0.  1.
       -1   -1    0    0    0  501  0.00000000000E+00  0.00000000000E+00 -0.15929034981E+04  0.15929034981E+04  0.50400001928E-02 0. -1.
    10030    2    1    2    0    0  0.00000000000E+00  0.00000000000E+00 -0.98365750770E+03  0.22021494885E+04  0.19702487856E+04 0.  0.
        1    1    3    3  502    0 -0.67859234022E+02 -0.93790361978E+03 -0.81998780208E+03  0.12476570327E+04  0.50400001928E-02 0.  1.
       -1    1    3    3    0  502  0.67859234022E+02  0.93790361978E+03 -0.16366970562E+03  0.95449245581E+03  0.50400001928E-02 0. -1.
</event>
<event>
 5   0  0.1325673E-04  0.2101601E+04  0.7818609E-02  0.8560539E-01
        2   -1    0    0  501    0  0.00000000000E+00  0.00000000000E+00  0.54669506512E+03  0.54669506513E+03  0.25500000920E-02 0. -1.
       -2   -1    0    0    0  501  0.00000000000E+00  0.00000000000E+00 -0.20197389376E+04  0.20197389376E+04  0.25500000920E-02 0.  1.
    10030    2    1    2    0    0  0.00000000000E+00  0.00000000000E+00 -0.14730438724E+04  0.25664340027E+04  0.21016006376E+04 0.  0.
        5    1    3    3  502    0  0.98914831750E+02  0.10226305871E+04 -0.10057410563E+04  0.14377394144E+04  0.46999998093E+01 0.  1.
       -5    1    3    3    0  502 -0.98914831750E+02 -0.10226305871E+04 -0.46730281614E+03  0.11286945882E+04  0.46999998093E+01 0. -1.
</event>
<event>
 5   0  0.1235817E-04  0.1988691E+04  0.7818609E-02  0.8611926E-01
        2   -1    0    0  501    0  0.00000000000E+00  0.00000000000E+00  0.10768251064E+04  0.10768251064E+04  0.25500000920E-02 0.  1.
       -2   -1    0    0    0  501  0.00000000000E+00  0.00000000000E+00 -0.91818316076E+03  0.91818316076E+03  0.25500000920E-02 0. -1.
    10030    2    1    2    0    0  0.00000000000E+00  0.00000000000E+00  0.15864194568E+03  0.19950082672E+04  0.19886907048E+04 0.  0.
        1    1    3    3  502    0 -0.79224453276E+03 -0.51724398813E+03 -0.22747720540E+03  0.97310771344E+03  0.50400001928E-02 0.  1.
       -1    1    3    3    0  502  0.79224453276E+03  0.51724398813E+03  0.38611915108E+03  0.10219005538E+04  0.50400001928E-02 0. -1.
</event>
<event>
 5   0  0.1325673E-04  0.2062245E+04  0.7818609E-02  0.8578060E-01
       -2   -1    0    0    0  501  0.00000000000E+00  0.00000000000E+00  0.59873817736E+03  0.59873817736E+03  0.25500000920E-02 0. -1.
        2   -1    0    0  501    0  0.00000000000E+00  0.00000000000E+00 -0.17757573490E+04  0.17757573490E+04  0.25500000920E-02 0.  1.
    10030    2    1    2    0    0  0.00000000000E+00  0.00000000000E+00 -0.11770191717E+04  0.23744955264E+04  0.20622451053E+04 0.  0.
        5    1    3    3  502    0 -0.90600822956E+03 -0.34492242982E+03 -0.18408783197E+03  0.98677900996E+03  0.46999998093E+01 0. -1.
       -5    1    3    3    0  502  0.90600822956E+03  0.34492242982E+03 -0.99293133971E+03  0.13877165164E+04  0.46999998093E+01 0.  1.
</event>
<event>
 5   0  0.1325673E-04  0.2101334E+04  0.7818609E-02  0.8560656E-01
        2   -1    0    0  501    0  0.00000000000E+00  0.00000000000E+00  0.96163132910E+03  0.96163132911E+03  0.25500000920E-02 0. -1.
       -2   -1    0    0    0  501  0.00000000000E+00  0.00000000000E+00 -0.11479457816E+04  0.11479457816E+04  0.25500000920E-02 0.  1.
    10030    2    1    2    0    0  0.00000000000E+00  0.00000000000E+00 -0.18631445249E+03  0.21095771107E+04  0.21013335077E+04 0.  0.
        5    1    3    3  502    0  0.48373285424E+03 -0.32622264723E+03 -0.97034691819E+03  0.11322605360E+04  0.46999998093E+01 0.  1.
       -5    1    3    3    0  502 -0.48373285424E+03  0.32622264723E+03  0.78403246570E+03  0.97731657466E+03  0.46999998093E+01 0. -1.
</event>
<event>
 5   0  0.4615125E-05  0.2096000E+04  0.7818609E-02  0.8563008E-01
       -4   -1    0    0    0  501  0.00000000000E+00  0.00000000000E+00  0.87607656973E+03  0.87607749025E+03  0.12699999809E+01 0.  1.
        4   -1    0    0  501    0  0.00000000000E+00  0.00000000000E+00 -0.12536598928E+04  0.12536605361E+04  0.12699999809E+01 0. -1.
    10030    2    1    2    0    0  0.00000000000E+00  0.00000000000E+00 -0.37758332306E+03  0.21297380263E+04  0.20959997364E+04 0.  0.
        4    1    3    3  502    0  0.50669233180E+03 -0.57882778064E+03 -0.91195219233E+03  0.11930788460E+04  0.12699999809E+01 0. -1.
       -4    1    3    3    0  502 -0.50669233180E+03  0.57882778064E+03  0.53436886927E+03  0.93665918033E+03  0.12699999809E+01 0.  1.
</event>
<event>
 5   0  0.1235817E-04  0.2088184E+04  0.7818609E-02  0.8566466E-01
        2   -1    0    0  501    0  0.00000000000E+00  0.00000000000E+00  0.11244675992E+04  0.11244675992E+04  0.25500000920E-02 0.  1.
       -2   -1    0    0    0  501  0.00000000000E+00  0.00000000000E+00 -0.96946132390E+03  0.96946132390E+03  0.25500000920E-02 0. -1.
    10030    2    1    2    0    0  0.00000000000E+00  0.00000000000E+00  0.15500627532E+03  0.20939289231E+04  0.20881837538E+04 0.  0.
        1    1    3    3  502    0 -0.32529807437E+03  0.47012716007E+03 -0.79856494239E+03  0.98211218863E+03  0.50400001928E-02 0. -1.
       -1    1    3    3    0  502  0.32529807437E+03 -0.47012716007E+03  0.95357121771E+03  0.11118167345E+04  0.50400001928E-02 0.  1.
</event>
<event>
 5   0  0.5933905E-05  0.2094956E+04  0.7818609E-02  0.8563468E-01
        1   -1    0    0  501    0  0.00000000000E+00  0.00000000000E+00  0.69616261331E+03  0.69616261332E+03  0.50400001928E-02 0. -1.
       -1   -1    0    0    0  501  0.00000000000E+00  0.00000000000E+00 -0.15760835637E+04  0.15760835637E+04  0.50400001928E-02 0.  1.
    10030    2    1    2    0    0  0.00000000000E+00  0.00000000000E+00 -0.87992095038E+03  0.22722461770E+04  0.20949562788E+04 0.  0.
        2    1    3    3  502    0 -0.31404234599E+03  0.23161695861E+03  0.61438482303E+03  0.72783083293E+03  0.25500000920E-02 0. -1.
       -2    1    3    3    0  502  0.31404234599E+03 -0.23161695861E+03 -0.14943057734E+04  0.15444153441E+04  0.25500000920E-02 0.  1.
</event>
<event>
 5   0  0.1252477E-04  0.2019457E+04  0.7818609E-02  0.8597578E-01
        2   -1    0    0  501    0  0.00000000000E+00  0.00000000000E+00  0.13716306993E+04  0.13716306993E+04  0.25500000920E-02 0.  1.
       -2   -1    0    0    0  501  0.00000000000E+00  0.00000000000E+00 -0.74331339584E+03  0.74331339584E+03  0.25500000920E-02 0. -1.
    10030    2    1    2    0    0  0.00000000000E+00  0.00000000000E+00  0.62831730349E+03  0.21149440952E+04  0.20194568309E+04 0.  0.
        4    1    3    3  502    0 -0.77291673832E+03 -0.18245153778E+03 -0.33891403270E+03  0.86345421562E+03  0.12699999809E+01 0. -1.
       -4    1    3    3    0  502  0.77291673832E+03  0.18245153778E+03  0.96723133619E+03  0.12514898796E+04  0.12699999809E+01 0.  1.
</event>
<event>
 5   0  0.6221148E-05  0.2097506E+04  0.7818609E-02  0.8562343E-01
        1   -1    0    0  501    0  0.00000000000E+00  0.00000000000E+00  0.83728600467E+03  0.83728600469E+03  0.50400001928E-02 0. -1.
       -1   -1    0    0    0  501  0.00000000000E+00  0.00000000000E+00 -0.13136287954E+04  0.13136287954E+04  0.50400001928E-02 0.  1.
    10030    2    1    2    0    0  0.00000000000E+00  0.00000000000E+00 -0.47634279074E+03  0.21509148001E+04  0.20975061437E+04 0.  0.
        3    1    3    3  502    0 -0.45468951784E+02  0.30946640291E+03 -0.12646828991E+04  0.13027892099E+04  0.10100000352E+00 0.  1.
       -3    1    3    3    0  502  0.45468951784E+02 -0.30946640291E+03  0.78834010834E+03  0.84812559018E+03  0.10100000352E+00 0. -1.
</event>
<event>
 5   0  0.1281470E-04  0.1698720E+04  0.7818609E-02  0.8762095E-01
        2   -1    0    0  501    0  0.00000000000E+00  0.00000000000E+00  0.74670374910E+03  0.74670374911E+03  0.25500000920E-02 0. -1.
       -2   -1    0    0    0  501  0.00000000000E+00  0.00000000000E+00 -0.96612904722E+03  0.96612904722E+03  0.25500000920E-02 0.  1.
    10030    2    1    2    0    0  0.00000000000E+00  0.00000000000E+00 -0.21942529811E+03  0.17128327963E+04  0.16987197317E+04 0.  0.
        3    1    3    3  502    0 -0.50002625397E+03  0.25932579120E+03 -0.75071118151E+03  0.93853258275E+03  0.10100000352E+00 0.  1.
       -3    1    3    3    0  502  0.50002625397E+03 -0.25932579120E+03  0.53128588340E+03  0.77430021357E+03  0.10100000352E+00 0. -1.
</event>
<event>
 5   0  0.6263616E-05  0.2022576E+04  0.7818609E-02  0.8596138E-01
       -1   -1    0    0    0  501  0.00000000000E+00  0.00000000000E+00  0.95880905319E+03  0.95880905320E+03  0.50400001928E-02 0. -1.
        1   -1    0    0  501    0  0.00000000000E+00  0.00000000000E+00 -0.10666388761E+04  0.10666388761E+04  0.50400001928E-02 0.  1.
    10030    2    1    2    0    0  0.00000000000E+00  0.00000000000E+00 -0.10782982292E+03  0.20254479293E+04  0.20225755965E+04 0.  0.
        4    1    3    3  502    0 -0.68491911745E+03 -0.27964574884E+03  0.63654626678E+03  0.97596552446E+03  0.12699999809E+01 0. -1.
       -4    1    3    3    0  502  0.68491911745E+03  0.27964574884E+03 -0.74437608971E+03  0.10494824049E+04  0.12699999809E+01 0.  1.
</event>
<event>
 5   0  0.1235817E-04  0.2077029E+04  0.7818609E-02  0.8571430E-01
        2   -1    0    0  501    0  0.00000000000E+00  0.00000000000E+00  0.73420467066E+03  0.73420467067E+03  0.25500000920E-02 0.  1.
       -2   -1    0    0    0  501  0.00000000000E+00  0.00000000000E+00 -0.14689532134E+04  0.14689532134E+04  0.25500000920E-02 0. -1.
    10030    2    1    2    0    0  0.00000000000E+00  0.00000000000E+00 -0.73474854276E+03  0.22031578841E+04  0.20770289457E+04 0.  0.
        1    1    3    3  502    0 -0.10025583363E+04  0.20122224482E+03 -0.17497986331E+03  0.10374158097E+04  0.50400001928E-02 0.  1.
       -1    1    3    3    0  502  0.10025583363E+04 -0.20122224482E+03 -0.55976867945E+03  0.11657420744E+04  0.50400001928E-02 0. -1.
</event>
<event>
 5   0  0.5846187E-05  0.2110967E+04  0.7818609E-02  0.8556428E-01
       -1   -1    0    0    0  501  0.00000000000E+00  0.00000000000E+00  0.85615024205E+03  0.85615024207E+03  0.50400001928E-02 0.  1.
        1   -1    0    0  501    0  0.00000000000E+00  0.00000000000E+00 -0.13012261397E+04  0.13012261398E+04  0.50400001928E-02 0. -1.
    10030    2    1    2    0    0  0.00000000000E+00  0.00000000000E+00 -0.44507589769E+03  0.21573763818E+04  0.21109666739E+04 0.  0.
        5    1    3    3  502    0 -0.83061908648E+03 -0.22092776517E+03 -0.84861189641E+03  0.12078499017E+04  0.46999998093E+01 0. -1.
       -5    1    3    3    0  502  0.83061908648E+03  0.22092776517E+03  0.40353599871E+03  0.94952648015E+03  0.46999998093E+01 0.  1.
</event>
<event>
 5   0  0.6263616E-05  0.1880677E+04  0.7818609E-02  0.8664535E-01
        1   -1    0    0  501    0  0.00000000000E+00  0.00000000000E+00  0.19826011663E+04  0.19826011663E+04  0.50400001928E-02 0. -1.
       -1   -1    0    0    0  501  0.00000000000E+00  0.00000000000E+00 -0.44599793897E+03  0.44599793900E+03  0.50400001928E-02 0.  1.
    10030    2    1    2    0    0  0.00000000000E+00  0.00000000000E+00  0.15366032273E+04  0.24285991053E+04  0.18806765102E+04 0.  0.
        4    1    3    3  502    0 -0.45670059745E+03  0.85521485963E+02 -0.28740222795E+03  0.54634331130E+03  0.12699999809E+01 0.  1.
       -4    1    3    3    0  502  0.45670059745E+03 -0.85521485963E+02  0.18240054553E+04  0.18822557940E+04  0.12699999809E+01 0. -1.
</event>
<event>
 5   0  0.1281470E-04  0.2069307E+04  0.7818609E-02  0.8574886E-01
        2   -1    0    0  501    0  0.00000000000E+00  0.00000000000E+00  0.20184975493E+04  0.20184975493E+04  0.25500000920E-02 0.  1.
       -2   -1    0    0    0  501  0.00000000000E+00  0.00000000000E+00 -0.53034883585E+03  0.53034883586E+03  0.25500000920E-02 0. -1.
    10030    2    1    2    0    0  0.00000000000E+00  0.00000000000E+00  0.14881487135E+04  0.25488463852E+04  0.20693069617E+04 0.  0.
        3    1    3    3  502    0  0.21955970426E+03 -0.95054094265E+03  0.11685747491E+04  0.15222685380E+04  0.10100000352E+00 0. -1.
       -3    1    3    3    0  502 -0.21955970426E+03  0.95054094265E+03  0.31957396435E+03  0.10265778472E+04  0.10100000352E+00 0.  1.
</event>
<event>
 5   0  0.5846187E-05  0.2168260E+04  0.7818609E-02  0.8531756E-01
        1   -1    0    0  501    0  0.00000000000E+00  0.00000000000E+00  0.16207942724E+04  0.16207942724E+04  0.50400001928E-02 0.  1.
       -1   -1    0    0    0  501  0.00000000000E+00  0.00000000000E+00 -0.72516158566E+03  0.72516158568E+03  0.50400001928E-02 0. -1.
    10030    2    1    2    0    0  0.00000000000E+00  0.00000000000E+00  0.89563268672E+03  0.23459558581E+04  0.21682598964E+04 0.  0.
        5    1    3    3  502    0 -0.19440089878E+03  0.41803416734E+03 -0.61380608399E+03  0.76767458813E+03  0.46999998093E+01 0. -1.
       -5    1    3    3    0  502  0.19440089878E+03 -0.41803416734E+03  0.15094387707E+04  0.15782812699E+04  0.46999998093E+01 0.  1.
</event>
<event>
 5   0  0.6221148E-05  0.2093471E+04  0.7818609E-02  0.8564125E-01
        1   -1    0    0  501    0  0.00000000000E+00  0.00000000000E+00  0.90838550975E+03  0.90838550976E+03  0.50400001928E-02 0.  1.
       -1   -1    0    0    0  501  0.00000000000E+00  0.00000000000E+00 -0.12061565136E+04  0.12061565136E+04  0.50400001928E-02 0. -1.
    10030    2    1    2    0    0  0.00000000000E+00  0.00000000000E+00 -0.29777100383E+03  0.21145420234E+04  0.20934708973E+04 0.  0.
        3    1    3    3  502    0 -0.57090545848E+03  0.27804249698E+03  0.69160429069E+03  0.93891276365E+03  0.10100000352E+00 0.  1.
       -3    1    3    3    0  502  0.57090545848E+03 -0.27804249698E+03 -0.98937529452E+03  0.11756292597E+04  0.10100000352E+00 0. -1.
</event>
<event>
 5   0  0.5933905E-05  0.2093521E+04  0.7818609E-02  0.8564103E-01
       -1   -1    0    0    0  501  0.00000000000E+00  0.00000000000E+00  0.72150069882E+03  0.72150069884E+03  0.50400001928E-02 0.  1.
        1   -1    0    0  501    0  0.00000000000E+00  0.00000000000E+00 -0.15186503532E+04  0.15186503532E+04  0.50400001928E-02 0. -1.
    10030    2    1    2    0    0  0.00000000000E+00  0.00000000000E+00 -0.79714965436E+03  0.22401510520E+04  0.20935207581E+04 0.  0.
        2    1    3    3  502    0 -0.87266347873E+03 -0.34799177912E+03 -0.89249709044E+03  0.12958359780E+04  0.25500000920E-02 0. -1.
       -2    1    3    3    0  502  0.87266347873E+03  0.34799177912E+03  0.95347436082E+02  0.94431507402E+03  0.25500000920E-02 0.  1.
</event>
<event>
 5   0  0.1349252E-04  0.2103062E+04  0.7818609E-02  0.8559896E-01
        2   -1    0    0  501    0  0.00000000000E+00  0.00000000000E+00  0.14451324244E+04  0.14451324244E+04  0.25500000920E-02 0.  1.
       -2   -1    0    0    0  501  0.00000000000E+00  0.00000000000E+00 -0.76513254039E+03  0.76513254040E+03  0.25500000920E-02 0. -1.
    10030    2    1    2    0    0  0.00000000000E+00  0.00000000000E+00  0.67999988398E+03  0.22102649648E+04  0.21030623796E+04 0.  0.
        2    1    3    3  502    0 -0.54866519681E+03 -0.84787813637E+03  0.32175605097E+02  0.10104286723E+04  0.25500000920E-02 0. -1.
       -2    1    3    3    0  502  0.54866519681E+03  0.84787813637E+03  0.64782427888E+03  0.11998362924E+04  0.25500000920E-02 0.  1.
</event>
<event>
 5   0  0.5933905E-05  0.1980863E+04  0.7818609E-02  0.8615621E-01
       -1   -1    0    0    0  501  0.00000000000E+00  0.00000000000E+00  0.14657958642E+04  0.14657958642E+04  0.50400001928E-02 0.  1.
        1   -1    0    0  501    0  0.00000000000E+00  0.00000000000E+00 -0.66922989458E+03  0.66922989460E+03  0.50400001928E-02 0. -1.
    10030    2    1    2    0    0  0.00000000000E+00  0.00000000000E+00  0.79656596960E+03  0.21350257588E+04  0.19808628541E+04 0.  0.
        2    1    3    3  502    0 -0.21000607657E+03  0.41833540241E+03 -0.54248535163E+03  0.71651756283E+03  0.25500000920E-02 0. -1.
       -2    1    3    3    0  502  0.21000607657E+03 -0.41833540241E+03  0.13390513212E+04  0.14185081960E+04  0.25500000920E-02 0.  1.
</event>
<event>
 5   0  0.5933905E-05  0.2384320E+04  0.7818609E-02  0.8445397E-01
       -1   -1    0    0    0  501  0.00000000000E+00  0.00000000000E+00  0.15115841839E+04  0.15115841839E+04  0.50400001928E-02 0.  1.
        1   -1    0    0  501    0  0.00000000000E+00  0.00000000000E+00 -0.94023591955E+03  0.94023591956E+03  0.50400001928E-02 0. -1.
    10030    2    1    2    0    0  0.00000000000E+00  0.00000000000E+00  0.57134826434E+03  0.24518201035E+04  0.23843202345E+04 0.  0.
        2    1    3    3  502    0  0.27282588707E+03 -0.80153800479E+03 -0.57733988051E+03  0.10248016761E+04  0.25500000920E-02 0. -1.
       -2    1    3    3    0  502 -0.27282588707E+03  0.80153800479E+03  0.11486881449E+04  0.14270184273E+04  0.25500000920E-02 0.  1.
</event>
<event>
 5   0  0.6221148E-05  0.1607458E+04  0.7818609E-02  0.8815979E-01
        1   -1    0    0  501    0  0.00000000000E+00  0.00000000000E+00  0.32795616177E+03  0.32795616181E+03  0.50400001928E-02 0.  1.
       -1   -1    0    0    0  501  0.00000000000E+00  0.00000000000E+00 -0.19697165856E+04  0.19697165856E+04  0.50400001928E-02 0. -1.
    10030    2    1    2    0    0  0.00000000000E+00  0.00000000000E+00 -0.16417604238E+04  0.22976727474E+04  0.16074584800E+04 0.  0.
        3    1    3    3  502    0 -0.69224848985E+03  0.40697303959E+03 -0.86926125416E+03  0.11834061707E+04  0.10100000352E+00 0. -1.
       -3    1    3    3    0  502  0.69224848985E+03 -0.40697303959E+03 -0.77249916966E+03  0.11142665767E+04  0.10100000352E+00 0.  1.
</event>
<event>
 5   0  0.1235817E-04  0.1937746E+04  0.7818609E-02  0.8636293E-01
       -2   -1    0    0    0  501  0.00000000000E+00  0.00000000000E+00  0.81852939914E+03  0.81852939914E+03  0.25500000920E-02 0. -1.
        2   -1    0    0  501    0  0.00000000000E+00  0.00000000000E+00 -0.11468305694E+04  0.11468305694E+04  0.25500000920E-02 0.  1.
    10030    2    1    2    0    0  0.00000000000E+00  0.00000000000E+00 -0.32830117027E+03  0.19653599685E+04  0.19377456354E+04 0.  0.
        1    1    3    3  502    0  0.71921461291E+01 -0.46691544759E+03  0.69685976099E+03  0.83885355615E+03  0.50400001928E-02 0. -1.
       -1    1    3    3    0  502 -0.71921461291E+01  0.46691544759E+03 -0.10251609313E+04  0.11265064124E+04  0.50400001928E-02 0.  1.
</event>
<event>
 5   0  0.1252477E-04  0.2121721E+04  0.7818609E-02  0.8551735E-01
       -2   -1    0    0    0  501  0.00000000000E+00  0.00000000000E+00  0.96531592334E+03  0.96531592335E+03  0.25500000920E-02 0.  1.
        2   -1    0    0  501    0  0.00000000000E+00  0.00000000000E+00 -0.11658613869E+04  0.11658613869E+04  0.25500000920E-02 0. -1.
    10030    2    1    2    0    0  0.00000000000E+00  0.00000000000E+00 -0.20054546352E+03  0.21311773102E+04  0.21217205859E+04 0.  0.
        4    1    3    3  502    0 -0.35113187609E+03 -0.95678085353E+03  0.19548787031E+03  0.10377573495E+04  0.12699999809E+01 0. -1.
       -4    1    3    3    0  502  0.35113187609E+03  0.95678085353E+03 -0.39603333383E+03  0.10934199607E+04  0.12699999809E+01 0.  1.
</event>
<event>
 5   0  0.6052292E-05  0.2113220E+04  0.7818609E-02  0.8555442E-01
       -1   -1    0    0    0  501  0.00000000000E+00  0.00000000000E+00  0.65949801778E+03  0.65949801780E+03  0.50400001928E-02 0.  1.
        1   -1    0    0  501    0  0.00000000000E+00  0.00000000000E+00 -0.16928403667E+04  0.16928403667E+04  0.50400001928E-02 0. -1.
    10030    2    1    2    0    0  0.00000000000E+00  0.00000000000E+00 -0.10333423489E+04  0.23523383845E+04  0.21132201648E+04 0.  0.
        1    1    3    3  502    0  0.67317948431E+03 -0.48964497052E+03  0.20773610876E+03  0.85794936107E+03  0.50400001928E-02 0.  1.
       -1    1    3    3    0  502 -0.67317948431E+03  0.48964497052E+03 -0.12410784576E+04  0.14943890234E+04  0.50400001928E-02 0. -1.
</event>
<event>
 5   0  0.1235817E-04  0.2089226E+04  0.7818609E-02  0.8566004E-01
       -2   -1    0    0    0  501  0.00000000000E+00  0.00000000000E+00  0.57167612952E+03  0.57167612952E+03  0.25500000920E-02 0.  1.
        2   -1    0    0  501    0  0.00000000000E+00  0.00000000000E+00 -0.19088025194E+04  0.19088025194E+04  0.25500000920E-02 0. -1.
    10030    2    1    2    0    0  0.00000000000E+00  0.00000000000E+00 -0.13371263899E+04  0.24804786490E+04  0.20892264945E+04 0.  0.
        1    1    3    3  502    0  0.54203313082E+03 -0.85556977910E+03 -0.36489717916E+03  0.10765451747E+04  0.50400001928E-02 0. -1.
       -1    1    3    3    0  502 -0.54203313082E+03  0.85556977910E+03 -0.97222921075E+03  0.14039334742E+04  0.50400001928E-02 0.  1.
</event>
<event>
 5   0  0.1252477E-04  0.2071444E+04  0.7818609E-02  0.8573928E-01
        2   -1    0    0  501    0  0.00000000000E+00  0.00000000000E+00  0.18343061190E+04  0.18343061190E+04  0.25500000920E-02 0. -1.
       -2   -1    0    0    0  501  0.00000000000E+00  0.00000000000E+00 -0.58480962861E+03  0.58480962861E+03  0.25500000920E-02 0.  1.
    10030    2    1    2    0    0  0.00000000000E+00  0.00000000000E+00  0.12494964904E+04  0.24191157476E+04  0.20714438252E+04 0.  0.
        4    1    3    3  502    0 -0.10190808314E+04 -0.17930070429E+03  0.57195225145E+03  0.11822882366E+04  0.12699999809E+01 0.  1.
       -4    1    3    3    0  502  0.10190808314E+04  0.17930070429E+03  0.67754423892E+03  0.12368275110E+04  0.12699999809E+01 0. -1.
</event>
<event>
 5   0  0.1325673E-04  0.2114711E+04  0.7818609E-02  0.8554791E-01
       -2   -1    0    0    0  501  0.00000000000E+00  0.00000000000E+00  0.69037649252E+03  0.69037649253E+03  0.25500000920E-02 0.  1.
        2   -1    0    0  501    0  0.00000000000E+00  0.00000000000E+00 -0.16194072954E+04  0.16194072954E+04  0.25500000920E-02 0. -1.
    10030    2    1    2    0    0  0.00000000000E+00  0.00000000000E+00 -0.92903080283E+03  0.23097837879E+04  0.21147110711E+04 0.  0.
        5    1    3    3  502    0 -0.66649195403E+03  0.28319055337E+02  0.43150227093E+03  0.79449971271E+03  0.46999998093E+01 0.  1.
       -5    1    3    3    0  502  0.66649195403E+03 -0.28319055337E+02 -0.13605330738E+04  0.15152840752E+04  0.46999998093E+01 0. -1.
</event>
<event>
 5   0  0.1235817E-04  0.2144628E+04  0.7818609E-02  0.8541835E-01
       -2   -1    0    0    0  501  0.00000000000E+00  0.00000000000E+00  0.15596909919E+04  0.15596909919E+04  0.25500000920E-02 0.  1.
        2   -1    0    0  501    0  0.00000000000E+00  0.00000000000E+00 -0.73723385597E+03  0.73723385597E+03  0.25500000920E-02 0. -1.
    10030    2    1    2    0    0  0.00000000000E+00  0.00000000000E+00  0.82245713591E+03  0.22969248478E+04  0.21446277104E+04 0.  0.
        1    1    3    3  502    0 -0.34487300751E+03  0.32204297011E+03  0.14425248293E+04  0.15177374440E+04  0.50400001928E-02 0.  1.
       -1    1    3    3    0  502  0.34487300751E+03 -0.32204297011E+03 -0.62006769336E+03  0.77918740383E+03  0.50400001928E-02 0. -1.
</event>
<event>
 5   0  0.1325673E-04  0.2047938E+04  0.7818609E-02  0.8584530E-01
       -2   -1    0    0    0  501  0.00000000000E+00  0.00000000000E+00  0.67419201780E+03  0.67419201781E+03  0.25500000920E-02 0.  1.
        2   -1    0    0  501    0  0.00000000000E+00  0.00000000000E+00 -0.15552135840E+04  0.15552135840E+04  0.25500000920E-02 0. -1.
    10030    2    1    2    0    0  0.00000000000E+00  0.00000000000E+00 -0.88102156618E+03  0.22294056018E+04  0.20479380697E+04 0.  0.
        5    1    3    3  502    0  0.18111545497E+03  0.10076259011E+04 -0.46166821251E+03  0.11230638419E+04  0.46999998093E+01 0. -1.
       -5    1    3    3    0  502 -0.18111545497E+03 -0.10076259011E+04 -0.41935335367E+03  0.11063417599E+04  0.46999998093E+01 0.  1.
</event>
<event>
 5   0  0.1235817E-04  0.2282664E+04  0.7818609E-02  0.8484788E-01
        2   -1    0    0  501    0  0.00000000000E+00  0.00000000000E+00  0.12483760333E+04  0.12483760333E+04  0.25500000920E-02 0.  1.
       -2   -1    0    0    0  501  0.00000000000E+00  0.00000000000E+00 -0.10434668198E+04  0.10434668198E+04  0.25500000920E-02 0. -1.
    10030    2    1    2    0    0  0.00000000000E+00  0.00000000000E+00  0.20490921359E+03  0.22918428531E+04  0.22826642060E+04 0.  0.
        1    1    3    3  502    0  0.72658580380E+03  0.86231449785E+03  0.27958891698E+03  0.11617586608E+04  0.50400001928E-02 0.  1.
       -1    1    3    3    0  502 -0.72658580380E+03 -0.86231449785E+03 -0.74679703389E+02  0.11300841923E+04  0.50400001928E-02 0. -1.
</event>
<event>
 5   0  0.6263616E-05  0.2106991E+04  0.7818609E-02  0.8558170E-01
        1   -1    0    0  501    0  0.00000000000E+00  0.00000000000E+00  0.15220898094E+04  0.15220898094E+04  0.50400001928E-02 0.  1.
       -1   -1    0    0    0  501  0.00000000000E+00  0.00000000000E+00 -0.72916344282E+03  0.72916344283E+03  0.50400001928E-02 0. -1.
    10030    2    1    2    0    0  0.00000000000E+00  0.00000000000E+00  0.79292636654E+03  0.22512532522E+04  0.21069905037E+04 0.  0.
        4    1    3    3  502    0  0.63805432052E+03 -0.23641831637E+03 -0.46286973820E+03  0.82295622222E+03  0.12699999809E+01 0. -1.
       -4    1    3    3    0  502 -0.63805432052E+03  0.23641831637E+03  0.12557961047E+04  0.14282970300E+04  0.12699999809E+01 0.  1.
</event>
<event>
 5   0  0.6221148E-05  0.2627780E+04  0.7818609E-02  0.8358826E-01
        1   -1    0    0  501    0  0.00000000000E+00  0.00000000000E+00  0.10385196926E+04  0.10385196926E+04  0.50400001928E-02 0. -1.
       -1   -1    0    0    0  501  0.00000000000E+00  0.00000000000E+00 -0.16622760597E+04  0.16622760597E+04  0.50400001928E-02 0.  1.
    10030    2    1    2    0    0  0.00000000000E+00  0.00000000000E+00 -0.62375636716E+03  0.27007957523E+04  0.26277796122E+04 0.  0.
        3    1    3    3  502    0  0.72762354179E+03 -0.29602267291E+03  0.77059153044E+03  0.11003984544E+04  0.10100000352E+00 0. -1.
       -3    1    3    3    0  502 -0.72762354179E+03  0.29602267291E+03 -0.13943478976E+04  0.16003972979E+04  0.10100000352E+00 0.  1.
</event>
<event>
 5   0  0.1235817E-04  0.2099858E+04  0.7818609E-02  0.8561306E-01
        2   -1    0    0  501    0  0.00000000000E+00  0.00000000000E+00  0.15052160409E+04  0.15052160409E+04  0.25500000920E-02 0.  1.
       -2   -1    0    0    0  501  0.00000000000E+00  0.00000000000E+00 -0.73235376780E+03  0.73235376780E+03  0.25500000920E-02 0. -1.
    10030    2    1    2    0    0  0.00000000000E+00  0.00000000000E+00  0.77286227311E+03  0.22375698087E+04  0.20998577465E+04 0.  0.
        1    1    3    3  502    0 -0.24671045888E+03  0.94570561305E+03 -0.22293360261E+02  0.97761042906E+03  0.50400001928E-02 0. -1.
       -1    1    3    3    0  502  0.24671045888E+03 -0.94570561305E+03  0.79515563337E+03  0.12599593797E+04  0.50400001928E-02 0.  1.
</event>
<event>
 5   0  0.5933905E-05  0.2093822E+04  0.7818609E-02  0.8563970E-01
       -1   -1    0    0    0  501  0.00000000000E+00  0.00000000000E+00  0.11672144604E+04  0.11672144604E+04  0.50400001928E-02 0.  1.
        1   -1    0    0  501    0  0.00000000000E+00  0.00000000000E+00 -0.93900707291E+03  0.93900707292E+03  0.50400001928E-02 0. -1.
    10030    2    1    2    0    0  0.00000000000E+00  0.00000000000E+00  0.22820738748E+03  0.21062215333E+04  0.20938219924E+04 0.  0.
        2    1    3    3  502    0  0.94499005393E+03 -0.38734894409E+03 -0.11742717654E+03  0.10280245855E+04  0.25500000920E-02 0. -1.
       -2    1    3    3    0  502 -0.94499005393E+03  0.38734894409E+03  0.34563456402E+03  0.10781969479E+04  0.25500000920E-02 0.  1.
</event>
<event>
 5   0  0.1349252E-04  0.2091620E+04  0.7818609E-02  0.8564944E-01
        2   -1    0    0  501    0  0.00000000000E+00  0.00000000000E+00  0.68942724122E+03  0.68942724122E+03  0.25500000920E-02 0. -1.
       -2   -1    0    0    0  501  0.00000000000E+00  0.00000000000E+00 -0.15864163979E+04  0.15864163979E+04  0.25500000920E-02 0.  1.
    10030    2    1    2    0    0  0.00000000000E+00  0.00000000000E+00 -0.89698915666E+03  0.22758436391E+04  0.20916201191E+04 0.  0.
        2    1    3    3  502    0  0.30670342160E+03 -0.76306400299E+03  0.25446125426E+03  0.86086246951E+03  0.25500000920E-02 0. -1.
       -2    1    3    3    0  502 -0.30670342160E+03  0.76306400299E+03 -0.11514504109E+04  0.14149811696E+04  0.25500000920E-02 0.  1.
</event>
<event>
 5   0  0.6263616E-05  0.2086710E+04  0.7818609E-02  0.8567120E-01
       -1   -1    0    0    0  501  0.00000000000E+00  0.00000000000E+00  0.69999321668E+03  0.69999321670E+03  0.50400001928E-02 0. -1.
        1   -1    0    0  501    0  0.00000000000E+00  0.00000000000E+00 -0.15551430470E+04  0.15551430470E+04  0.50400001928E-02 0.  1.
    10030    2    1    2    0    0  0.00000000000E+00  0.00000000000E+00 -0.85514983027E+03  0.22551362637E+04  0.20867099308E+04 0.  0.
        4    1    3    3  502    0  0.90195708092E+02 -0.26563088513E+03  0.65847146758E+03  0.71573830371E+03  0.12699999809E+01 0. -1.
       -4    1    3    3    0  502 -0.90195708092E+02  0.26563088513E+03 -0.15136212979E+04  0.15393979600E+04  0.12699999809E+01 0.  1.
</event>
<event>
 5   0  0.1325673E-04  0.2091257E+04  0.7818609E-02  0.8565105E-01
        2   -1    0    0  501    0  0.00000000000E+00  0.00000000000E+00  0.11207041924E+04  0.11207041924E+04  0.25500000920E-02 0. -1.
       -2   -1    0    0    0  501  0.00000000000E+00  0.00000000000E+00 -0.97558201813E+03  0.97558201814E+03  0.25500000920E-02 0.  1.
    10030    2    1    2    0    0  0.00000000000E+00  0.00000000000E+00  0.14512217427E+03  0.20962862105E+04  0.20912569022E+04 0.  0.
        5    1    3    3  502    0  0.42998914236E+03  0.42858484457E+03 -0.78080355867E+03  0.98906618523E+03  0.46999998093E+01 0.  1.
       -5    1    3    3    0  502 -0.42998914236E+03 -0.42858484457E+03  0.92592573294E+03  0.11072200253E+04  0.46999998093E+01 0. -1.
</event>
<event>
 5   0  0.6263616E-05  0.2097869E+04  0.7818609E-02  0.8562183E-01
       -1   -1    0    0    0  501  0.00000000000E+00  0.00000000000E+00  0.13982744120E+04  0.13982744121E+04  0.50400001928E-02 0. -1.
        1   -1    0    0  501    0  0.00000000000E+00  0.00000000000E+00 -0.78687242246E+03  0.78687242248E+03  0.50400001928E-02 0.  1.
    10030    2    1    2    0    0  0.00000000000E+00  0.00000000000E+00  0.61140198959E+03  0.21851468345E+04  0.20978689891E+04 0.  0.
        4    1    3    3  502    0  0.91001788844E+03  0.20647346498E+02  0.84863813568E+03  0.12444867088E+04  0.12699999809E+01 0. -1.
       -4    1    3    3    0  502 -0.91001788844E+03 -0.20647346498E+02 -0.23723614610E+03  0.94066012571E+03  0.12699999809E+01 0.  1.
</event>
<event>
 5   0  0.1235817E-04  0.2096847E+04  0.7818609E-02  0.8562633E-01
        2   -1    0    0  501    0  0.00000000000E+00  0.00000000000E+00  0.11149242097E+04  0.11149242097E+04  0.25500000920E-02 0.  1.
       -2   -1    0    0    0  501  0.00000000000E+00  0.00000000000E+00 -0.98588963843E+03  0.98588963843E+03  0.25500000920E-02 0. -1.
    10030    2    1    2    0    0  0.00000000000E+00  0.00000000000E+00  0.12903457132E+03  0.21008138482E+04  0.20968473726E+04 0.  0.
        1    1    3    3  502    0 -0.30448043358E+02  0.63703328203E+03  0.89822944297E+03  0.11016145506E+04  0.50400001928E-02 0.  1.
       -1    1    3    3    0  502  0.30448043358E+02 -0.63703328203E+03 -0.76919487165E+03  0.99919929762E+03  0.50400001928E-02 0. -1.
</event>
<event>
 5   0  0.5933905E-05  0.2107187E+04  0.7818609E-02  0.8558084E-01
       -1   -1    0    0    0  501  0.00000000000E+00  0.00000000000E+00  0.75519344234E+03  0.75519344236E+03  0.50400001928E-02 0. -1.
        1   -1    0    0  501    0  0.00000000000E+00  0.00000000000E+00 -0.14699007107E+04  0.14699007107E+04  0.50400001928E-02 0.  1.
    10030    2    1    2    0    0  0.00000000000E+00  0.00000000000E+00 -0.71470726834E+03  0.22250941530E+04  0.21071871086E+04 0.  0.
        2    1    3    3  502    0 -0.50703198003E+03 -0.37032467146E+02  0.61710809450E+03  0.79954689213E+03  0.25500000920E-02 0. -1.
       -2    1    3    3    0  502  0.50703198003E+03  0.37032467146E+02 -0.13318153628E+04  0.14255472609E+04  0.25500000920E-02 0.  1.
</event>
<event>
 5   0  0.5933905E-05  0.2044515E+04  0.7818609E-02  0.8586087E-01
        1   -1    0    0  501    0  0.00000000000E+00  0.00000000000E+00  0.13193140384E+04  0.13193140384E+04  0.50400001928E-02 0.  1.
       -1   -1    0    0    0  501  0.00000000000E+00  0.00000000000E+00 -0.79208631084E+03  0.79208631086E+03  0.50400001928E-02 0. -1.
    10030    2    1    2    0    0  0.00000000000E+00  0.00000000000E+00  0.52722772754E+03  0.21114003493E+04  0.20445151890E+04 0.  0.
        2    1    3    3  502    0  0.48622371175E+03  0.59757265594E+03 -0.43030877268E+03  0.88242405727E+03  0.25500000920E-02 0. -1.
       -2    1    3    3    0  502 -0.48622371175E+03 -0.59757265594E+03  0.95753650022E+03  0.12289762920E+04  0.25500000920E-02 0.  1.
</event>
<event>
 5   0  0.6221148E-05  0.2088419E+04  0.7818609E-02  0.8566362E-01
        1   -1    0    0  501    0  0.00000000000E+00  0.00000000000E+00  0.69111799763E+03  0.69111799765E+03  0.50400001928E-02 0.  1.
       -1   -1    0    0    0  501  0.00000000000E+00  0.00000000000E+00 -0.15776958487E+04  0.15776958487E+04  0.50400001928E-02 0. -1.
    10030    2    1    2    0    0  0.00000000000E+00  0.00000000000E+00 -0.88657785110E+03  0.22688138464E+04  0.20884194941E+04 0.  0.
        3    1    3    3  502    0 -0.56181953129E+03 -0.80345567020E+03 -0.52809121658E+02  0.98182025506E+03  0.10100000352E+00 0.  1.
       -3    1    3    3    0  502  0.56181953129E+03  0.80345567020E+03 -0.83376872944E+03  0.12869935913E+04  0.10100000352E+00 0. -1.
</event>
<event>
 5   0  0.5846187E-05  0.2095255E+04  0.7818609E-02  0.8563336E-01
       -1   -1    0    0    0  501  0.00000000000E+00  0.00000000000E+00  0.91286363484E+03  0.91286363485E+03  0.50400001928E-02 0. -1.
        1   -1    0    0  501    0  0.00000000000E+00  0.00000000000E+00 -0.12022866838E+04  0.12022866838E+04  0.50400001928E-02 0.  1.
    10030    2    1    2    0    0  0.00000000000E+00  0.00000000000E+00 -0.28942304891E+03  0.21151503186E+04  0.20952553947E+04 0.  0.
        5    1    3    3  502    0 -0.36025552364E+03  0.83593198342E+03 -0.66822545034E+03  0.11292093100E+04  0.46999998093E+01 0.  1.
       -5    1    3    3    0  502  0.36025552364E+03 -0.83593198342E+03  0.37880240143E+03  0.98594100865E+03  0.46999998093E+01 0. -1.
</event>
<event>
 5   0  0.6263616E-05  0.2128166E+04  0.7818609E-02  0.8548936E-01
       -1   -1    0    0    0  501  0.00000000000E+00  0.00000000000E+00  0.10857676824E+04  0.10857676825E+04  0.50400001928E-02 0.  1.
        1   -1    0    0  501    0  0.00000000000E+00  0.00000000000E+00 -0.10428314794E+04  0.10428314794E+04  0.50400001928E-02 0. -1.
    10030    2    1    2    0    0  0.00000000000E+00  0.00000000000E+00  0.42936203069E+02  0.21285991619E+04  0.21281660824E+04 0.  0.
        4    1    3    3  502    0  0.56372820237E+03  0.75469044724E+03  0.51646672984E+03  0.10742842516E+04  0.12699999809E+01 0.  1.
       -4    1    3    3    0  502 -0.56372820237E+03 -0.75469044724E+03 -0.47353052677E+03  0.10543149103E+04  0.12699999809E+01 0. -1.
</event>
<event>
 5   0  0.1252477E-04  0.2070483E+04  0.7818609E-02  0.8574358E-01
        2   -1    0    0  501    0  0.00000000000E+00  0.00000000000E+00  0.25327000205E+04  0.25327000205E+04  0.25500000920E-02 0. -1.
       -2   -1    0    0    0  501  0.00000000000E+00  0.00000000000E+00 -0.42315512661E+03  0.42315512661E+03  0.25500000920E-02 0.  1.
    10030    2    1    2    0    0  0.00000000000E+00  0.00000000000E+00  0.21095448939E+04  0.29558551471E+04  0.20704830333E+04 0.  0.
        4    1    3    3  502    0  0.68553469529E+03 -0.14117187227E+02  0.21620416239E+04  0.22681672579E+04  0.12699999809E+01 0. -1.
       -4    1    3    3    0  502 -0.68553469529E+03  0.14117187227E+02 -0.52496730002E+02  0.68768788922E+03  0.12699999809E+01 0.  1.
</event>
<event>
 5   0  0.1235817E-04  0.2148066E+04  0.7818609E-02  0.8540361E-01
       -2   -1    0    0    0  501  0.00000000000E+00  0.00000000000E+00  0.45474142530E+03  0.45474142530E+03  0.25500000920E-02 0.  1.
        2   -1    0    0  501    0  0.00000000000E+00  0.00000000000E+00 -0.25367091636E+04  0.25367091636E+04  0.25500000920E-02 0. -1.
    10030    2    1    2    0    0  0.00000000000E+00  0.00000000000E+00 -0.20819677383E+04  0.29914505889E+04  0.21480658655E+04 0.  0.
        1    1    3    3  502    0 -0.64379040743E+03  0.82930848574E+03 -0.13564928900E+04  0.17153109380E+04  0.50400001928E-02 0. -1.
       -1    1    3    3    0  502  0.64379040743E+03 -0.82930848574E+03 -0.72547484830E+03  0.12761396510E+04  0.50400001928E-02 0.  1.
</event>
<event>
 5   0  0.1325673E-04  0.2084602E+04  0.7818609E-02  0.8568057E-01
        2   -1    0    0  501    0  0.00000000000E+00  0.00000000000E+00  0.12682103777E+04  0.12682103777E+04  0.25500000920E-02 0. -1.
       -2   -1    0    0    0  501  0.00000000000E+00  0.00000000000E+00 -0.85663322511E+03  0.85663322511E+03  0.25500000920E-02 0.  1.
    10030    2    1    2    0    0  0.00000000000E+00  0.00000000000E+00  0.41157715260E+03  0.21248436028E+04  0.20846017807E+04 0.  0.
        5    1    3    3  502    0 -0.54238149186E+03 -0.55210321241E+03  0.91738668266E+03  0.12002566623E+04  0.46999998093E+01 0.  1.
       -5    1    3    3    0  502  0.54238149186E+03  0.55210321241E+03 -0.50580953006E+03  0.92458694052E+03  0.46999998093E+01 0. -1.
</event>
<event>
 5   0  0.1349252E-04  0.1830378E+04  0.7818609E-02  0.8690310E-01
        2   -1    0    0  501    0  0.00000000000E+00  0.00000000000E+00  0.18656955303E+04  0.18656955303E+04  0.25500000920E-02 0.  1.
       -2   -1    0    0    0  501  0.00000000000E+00  0.00000000000E+00 -0.44893223553E+03  0.44893223554E+03  0.25500000920E-02 0. -1.
    10030    2    1    2    0    0  0.00000000000E+00  0.00000000000E+00  0.14167632948E+04  0.23146277659E+04  0.18303779558E+04 0.  0.
        2    1    3    3  502    0  0.57795222821E+03 -0.40316281358E+03  0.14468276409E+04  0.16093101798E+04  0.25500000920E-02 0.  1.
       -2    1    3    3    0  502 -0.57795222821E+03  0.40316281358E+03 -0.30064346071E+02  0.70531758609E+03  0.25500000920E-02 0. -1.
</event>
<event>
 5   0  0.5933905E-05  0.2108810E+04  0.7818609E-02  0.8557372E-01
       -1   -1    0    0    0  501  0.00000000000E+00  0.00000000000E+00  0.96977695200E+03  0.96977695201E+03  0.50400001928E-02 0.  1.
        1   -1    0    0  501    0  0.00000000000E+00  0.00000000000E+00 -0.11464181031E+04  0.11464181031E+04  0.50400001928E-02 0. -1.
    10030    2    1    2    0    0  0.00000000000E+00  0.00000000000E+00 -0.17664115107E+03  0.21161950551E+04  0.21088099523E+04 0.  0.
        2    1    3    3  502    0 -0.65454643946E+03 -0.72814720812E+02 -0.91463416409E+03  0.11270708403E+04  0.25500000920E-02 0. -1.
       -2    1    3    3    0  502  0.65454643946E+03  0.72814720812E+02  0.73799301302E+03  0.98912421477E+03  0.25500000920E-02 0.  1.
</event>
<event>
 5   0  0.6052292E-05  0.2062948E+04  0.7818609E-02  0.8577743E-01
       -1   -1    0    0    0  501  0.00000000000E+00  0.00000000000E+00  0.59661051376E+03  0.59661051378E+03  0.50400001928E-02 0. -1.
        1   -1    0    0  501    0  0.00000000000E+00  0.00000000000E+00 -0.17833050336E+04  0.17833050336E+04  0.50400001928E-02 0.  1.
    10030    2    1    2    0    0  0.00000000000E+00  0.00000000000E+00 -0.11866945198E+04  0.23799155474E+04  0.20629479221E+04 0.  0.
        1    1    3    3  502    0 -0.61300181989E+03  0.20549985317E+03 -0.15205365363E+04  0.16522810836E+04  0.50400001928E-02 0.  1.
       -1    1    3    3    0  502  0.61300181989E+03 -0.20549985317E+03  0.33384201652E+03  0.72763446377E+03  0.50400001928E-02 0. -1.
</event>
<event>
 5   0  0.1325673E-04  0.2107577E+04  0.7818609E-02  0.8557913E-01
       -2   -1    0    0    0  501  0.00000000000E+00  0.00000000000E+00  0.11123488403E+04  0.11123488403E+04  0.25500000920E-02 0.  1.
        2   -1    0    0  501    0  0.00000000000E+00  0.00000000000E+00 -0.99831123892E+03  0.99831123892E+03  0.25500000920E-02 0. -1.
    10030    2    1    2    0    0  0.00000000000E+00  0.00000000000E+00  0.11403760134E+03  0.21106600792E+04  0.21075771386E+04 0.  0.
        5    1    3    3  502    0 -0.43938354375E+03 -0.80777491958E+03  0.57244635411E+03  0.10831782575E+04  0.46999998093E+01 0.  1.
       -5    1    3    3    0  502  0.43938354375E+03  0.80777491958E+03 -0.45840875277E+03  0.10274818217E+04  0.46999998093E+01 0. -1.
</event>
<event>
 5   0  0.1235817E-04  0.2139328E+04  0.7818609E-02  0.8544114E-01
       -2   -1    0    0    0  501  0.00000000000E+00  0.00000000000E+00  0.10730100396E+04  0.10730100396E+04  0.25500000920E-02 0. -1.
        2   -1    0    0  501    0  0.00000000000E+00  0.00000000000E+00 -0.10663283339E+04  0.10663283339E+04  0.25500000920E-02 0.  1.
    10030    2    1    2    0    0  0.00000000000E+00  0.00000000000E+00  0.66817056939E+01  0.21393383736E+04  0.21393279392E+04 0.  0.
        1    1    3    3  502    0  0.67950002790E+02 -0.66929796600E+03 -0.82829054637E+03  0.10670717874E+04  0.50400001928E-02 0.  1.
       -1    1    3    3    0  502 -0.67950002790E+02  0.66929796600E+03  0.83497225207E+03  0.10722665862E+04  0.50400001928E-02 0. -1.
</event>
<event>
 5   0  0.5846187E-05  0.2145234E+04  0.7818609E-02  0.8541575E-01
        1   -1    0    0  501    0  0.00000000000E+00  0.00000000000E+00  0.96027103286E+03  0.96027103287E+03  0.50400001928E-02 0. -1.
       -1   -1    0    0    0  501  0.00000000000E+00  0.00000000000E+00 -0.11981067223E+04  0.11981067223E+04  0.50400001928E-02 0.  1.
    10030    2    1    2    0    0  0.00000000000E+00  0.00000000000E+00 -0.23783568941E+03  0.21583777551E+04  0.21452339543E+04 0.  0.
        5    1    3    3  502    0  0.78548006980E+03 -0.41838472133E+03 -0.72130176603E+03  0.11455666907E+04  0.46999998093E+01 0.  1.
       -5    1    3    3    0  502 -0.78548006980E+03  0.41838472133E+03  0.48346607662E+03  0.10128110645E+04  0.46999998093E+01 0. -1.
</event>
<event>
 5   0  0.6221148E-05  0.2083584E+04  0.7818609E-02  0.8568510E-01
        1   -1    0    0  501    0  0.00000000000E+00  0.00000000000E+00  0.11031380986E+04  0.11031380986E+04  0.50400001928E-02 0.  1.
       -1   -1    0    0    0  501  0.00000000000E+00  0.00000000000E+00 -0.98385696279E+03  0.98385696280E+03  0.50400001928E-02 0. -1.
    10030    2    1    2    0    0  0.00000000000E+00  0.00000000000E+00  0.11928113582E+03  0.20869950614E+04  0.20835835469E+04 0.  0.
        3    1    3    3  502    0  0.78624410271E+03 -0.46487343887E+03  0.56150283930E+03  0.10721812123E+04  0.10100000352E+00 0. -1.
       -3    1    3    3    0  502 -0.78624410271E+03  0.46487343887E+03 -0.44222170347E+03  0.10148138492E+04  0.10100000352E+00 0.  1.
</event>
<event>
 5   0  0.1325673E-04  0.1925475E+04  0.7818609E-02  0.8642279E-01
        2   -1    0    0  501    0  0.00000000000E+00  0.00000000000E+00  0.10832093726E+04  0.10832093726E+04  0.25500000920E-02 0. -1.
       -2   -1    0    0    0  501  0.00000000000E+00  0.00000000000E+00 -0.85566431987E+03  0.85566431987E+03  0.25500000920E-02 0.  1.
    10030    2    1    2    0    0  0.00000000000E+00  0.00000000000E+00  0.22754505277E+03  0.19388736925E+04  0.19254751217E+04 0.  0.
        5    1    3    3  502    0 -0.47457273895E+02  0.91370814213E+03 -0.18785612857E+03  0.93403788836E+03  0.46999998093E+01 0.  1.
       -5    1    3    3    0  502  0.47457273895E+02 -0.91370814213E+03  0.41540118134E+03  0.10048358042E+04  0.46999998093E+01 0. -1.
</event>
<event>
 5   0  0.6221148E-05  0.2065256E+04  0.7818609E-02  0.8576705E-01
        1   -1    0    0  501    0  0.00000000000E+00  0.00000000000E+00  0.19065170147E+04  0.19065170147E+04  0.50400001928E-02 0.  1.
       -1   -1    0    0    0  501  0.00000000000E+00  0.00000000000E+00 -0.55930288000E+03  0.55930288002E+03  0.50400001928E-02 0. -1.
    10030    2    1    2    0    0  0.00000000000E+00  0.00000000000E+00  0.13472141347E+04  0.24658198948E+04  0.20652558748E+04 0.  0.
        3    1    3    3  502    0 -0.69599666724E+03 -0.63072982549E+03  0.11858799582E+04  0.15127930325E+04  0.10100000352E+00 0.  1.
       -3    1    3    3    0  502  0.69599666724E+03  0.63072982549E+03  0.16133417653E+03  0.95302686231E+03  0.10100000352E+00 0. -1.
</event>
<event>
 5   0  0.1281470E-04  0.2086419E+04  0.7818609E-02  0.8567250E-01
        2   -1    0    0  501    0  0.00000000000E+00  0.00000000000E+00  0.11233589412E+04  0.11233589412E+04  0.25500000920E-02 0. -1.
       -2   -1    0    0    0  501  0.00000000000E+00  0.00000000000E+00 -0.96877852545E+03  0.96877852545E+03  0.25500000920E-02 0.  1.
    10030    2    1    2    0    0  0.00000000000E+00  0.00000000000E+00  0.15458041572E+03  0.20921374666E+04  0.20864189594E+04 0.  0.
        3    1    3    3  502    0 -0.70555176319E+03 -0.50179501346E+03 -0.50627090775E+03  0.10029515284E+04  0.10100000352E+00 0.  1.
       -3    1    3    3    0  502  0.70555176319E+03  0.50179501346E+03  0.66085132347E+03  0.10891859382E+04  0.10100000352E+00 0. -1.
</event>
<event>
 5   0  0.5933905E-05  0.2147774E+04  0.7818609E-02  0.8540486E-01
        1   -1    0    0  501    0  0.00000000000E+00  0.00000000000E+00  0.10288825886E+04  0.10288825886E+04  0.50400001928E-02 0.  1.
       -1   -1    0    0    0  501  0.00000000000E+00  0.00000000000E+00 -0.11208594353E+04  0.11208594353E+04  0.50400001928E-02 0. -1.
    10030    2    1    2    0    0  0.00000000000E+00  0.00000000000E+00 -0.91976846713E+02  0.21497420239E+04  0.21477735050E+04 0.  0.
        2    1    3    3  502    0 -0.42288973706E+03 -0.15498155383E+03 -0.10217551275E+04  0.11166192513E+04  0.25500000920E-02 0. -1.
       -2    1    3    3    0  502  0.42288973706E+03  0.15498155383E+03  0.92977828080E+03  0.10331227726E+04  0.25500000920E-02 0.  1.
</event>
<event>
 5   0  0.1235817E-04  0.2108297E+04  0.7818609E-02  0.8557597E-01
        2   -1    0    0  501    0  0.00000000000E+00  0.00000000000E+00  0.11151443773E+04  0.11151443773E+04  0.25500000920E-02 0.  1.
       -2   -1    0    0    0  501  0.00000000000E+00  0.00000000000E+00 -0.99648923904E+03  0.99648923904E+03  0.25500000920E-02 0. -1.
    10030    2    1    2    0    0  0.00000000000E+00  0.00000000000E+00  0.11865513824E+03  0.21116336163E+04  0.21082972959E+04 0.  0.
        1    1    3    3  502    0 -0.33136767545E+03 -0.93897444364E+03 -0.28727182121E+03  0.10363409870E+04  0.50400001928E-02 0. -1.
       -1    1    3    3    0  502  0.33136767545E+03  0.93897444364E+03  0.40592695945E+03  0.10752926293E+04  0.50400001928E-02 0.  1.
</event>
<event>
 5   0  0.5933905E-05  0.2052984E+04  0.7818609E-02  0.8582242E-01
        1   -1    0    0  501    0  0.00000000000E+00  0.00000000000E+00  0.17533545739E+04  0.17533545739E+04  0.50400001928E-02 0.  1.
       -1   -1    0    0    0  501  0.00000000000E+00  0.00000000000E+00 -0.60095396995E+03  0.60095396997E+03  0.50400001928E-02 0. -1.
    10030    2    1    2    0    0  0.00000000000E+00  0.00000000000E+00  0.11524006039E+04  0.23543085438E+04  0.20529835771E+04 0.  0.
        2    1    3    3  502    0  0.89971425168E+03  0.41407686582E+03  0.88548937076E+03  0.13285468796E+04  0.25500000920E-02 0.  1.
       -2    1    3    3    0  502 -0.89971425168E+03 -0.41407686582E+03  0.26691123316E+03  0.10257616643E+04  0.25500000920E-02 0. -1.
</event>
<event>
 5   0  0.1252477E-04  0.2081772E+04  0.7818609E-02  0.8569316E-01
       -2   -1    0    0    0  501  0.00000000000E+00  0.00000000000E+00  0.65231374894E+03  0.65231374894E+03  0.25500000920E-02 0. -1.
        2   -1    0    0  501    0  0.00000000000E+00  0.00000000000E+00 -0.16609249137E+04  0.16609249137E+04  0.25500000920E-02 0.  1.
    10030    2    1    2    0    0  0.00000000000E+00  0.00000000000E+00 -0.10086111648E+04  0.23132386626E+04  0.20817724728E+04 0.  0.
        4    1    3    3  502    0 -0.59508149500E+03 -0.74638179960E+03 -0.96546129480E+03  0.13576910183E+04  0.12699999809E+01 0.  1.
       -4    1    3    3    0  502  0.59508149500E+03  0.74638179960E+03 -0.43149869966E+02  0.95554764436E+03  0.12699999809E+01 0. -1.
</event>
<event>
 5   0  0.6263616E-05  0.1713770E+04  0.7818609E-02  0.8753550E-01
        1   -1    0    0  501    0  0.00000000000E+00  0.00000000000E+00  0.10598426515E+04  0.10598426515E+04  0.50400001928E-02 0.  1.
       -1   -1    0    0    0  501  0.00000000000E+00  0.00000000000E+00 -0.69279319543E+03  0.69279319545E+03  0.50400001928E-02 0. -1.
    10030    2    1    2    0    0  0.00000000000E+00  0.00000000000E+00  0.36704945607E+03  0.17526358470E+04  0.17137698529E+04 0.  0.
        4    1    3    3  502    0  0.30892064410E+03 -0.44399592035E+03  0.86319131635E+03  0.10186585312E+04  0.12699999809E+01 0.  1.
       -4    1    3    3    0  502 -0.30892064410E+03  0.44399592035E+03 -0.49614186029E+03  0.73397731577E+03  0.12699999809E+01 0. -1.
</event>
<event>
 5   0  0.4615125E-05  0.2148145E+04  0.7818609E-02  0.8540327E-01
       -4   -1    0    0    0  501  0.00000000000E+00  0.00000000000E+00  0.12070723391E+04  0.12070730072E+04  0.12699999809E+01 0.  1.
        4   -1    0    0  501    0  0.00000000000E+00  0.00000000000E+00 -0.95572613159E+03  0.95572697540E+03  0.12699999809E+01 0. -1.
    10030    2    1    2    0    0  0.00000000000E+00  0.00000000000E+00  0.25134620751E+03  0.21627999826E+04  0.21481454440E+04 0.  0.
        3    1    3    3  502    0 -0.70760385669E+03  0.56331823829E+03 -0.45759019715E+03  0.10136170156E+04  0.10100000352E+00 0.  1.
       -3    1    3    3    0  502  0.70760385669E+03 -0.56331823829E+03  0.70893640466E+03  0.11491829670E+04  0.10100000352E+00 0. -1.
</event>
<event>
 5   0  0.5846187E-05  0.1667462E+04  0.7818609E-02  0.8780143E-01
        1   -1    0    0  501    0  0.00000000000E+00  0.00000000000E+00  0.70175902524E+03  0.70175902526E+03  0.50400001928E-02 0. -1.
       -1   -1    0    0    0  501  0.00000000000E+00  0.00000000000E+00 -0.99052169113E+03  0.99052169114E+03  0.50400001928E-02 0.  1.
    10030    2    1    2    0    0  0.00000000000E+00  0.00000000000E+00 -0.28876266589E+03  0.16922807164E+04  0.16674621872E+04 0.  0.
        5    1    3    3  502    0 -0.51362719455E+03  0.47093688913E+03 -0.60889563934E+03  0.92540285180E+03  0.46999998093E+01 0.  1.
       -5    1    3    3    0  502  0.51362719455E+03 -0.47093688913E+03  0.32013297346E+03  0.76687786460E+03  0.46999998093E+01 0. -1.
</event>
<event>
 5   0  0.5933905E-05  0.2082871E+04  0.7818609E-02  0.8568827E-01
       -1   -1    0    0    0  501  0.00000000000E+00  0.00000000000E+00  0.96984999948E+03  0.96984999950E+03  0.50400001928E-02 0.  1.
        1   -1    0    0  501    0  0.00000000000E+00  0.00000000000E+00 -0.11183045265E+04  0.11183045265E+04  0.50400001928E-02 0. -1.
    10030    2    1    2    0    0  0.00000000000E+00  0.00000000000E+00 -0.14845452697E+03  0.20881545260E+04  0.20828707540E+04 0.  0.
        2    1    3    3  502    0  0.42009383494E+03  0.43475467264E+03  0.77591989453E+03  0.98363719850E+03  0.25500000920E-02 0.  1.
       -2    1    3    3    0  502 -0.42009383494E+03 -0.43475467264E+03 -0.92437442150E+03  0.11045173275E+04  0.25500000920E-02 0. -1.
</event>
<event>
 5   0  0.6221148E-05  0.2092858E+04  0.7818609E-02  0.8564396E-01
        1   -1    0    0  501    0  0.00000000000E+00  0.00000000000E+00  0.29865419894E+04  0.29865419894E+04  0.50400001928E-02 0.  1.
       -1   -1    0    0    0  501  0.00000000000E+00  0.00000000000E+00 -0.36664921033E+03  0.36664921036E+03  0.50400001928E-02 0. -1.
    10030    2    1    2    0    0  0.00000000000E+00  0.00000000000E+00  0.26198927791E+04  0.33531911998E+04  0.20928576274E+04 0.  0.
        3    1    3    3  502    0 -0.26311832262E+03  0.87320517085E+03  0.21320749119E+04  0.23189355236E+04  0.10100000352E+00 0. -1.
       -3    1    3    3    0  502  0.26311832262E+03 -0.87320517085E+03  0.48781786715E+03  0.10342556762E+04  0.10100000352E+00 0.  1.
</event>
<event>
 5   0  0.5846187E-05  0.2174955E+04  0.7818609E-02  0.8528925E-01
       -1   -1    0    0    0  501  0.00000000000E+00  0.00000000000E+00  0.10807471967E+04  0.10807471967E+04  0.50400001928E-02 0. -1.
        1   -1    0    0  501    0  0.00000000000E+00  0.00000000000E+00 -0.10942494436E+04  0.10942494436E+04  0.50400001928E-02 0.  1.
    10030    2    1    2    0    0  0.00000000000E+00  0.00000000000E+00 -0.13502246890E+02  0.21749966403E+04  0.21749547293E+04 0.  0.
        5    1    3    3  502    0  0.43900809934E+03  0.60372031103E+03 -0.79757519079E+03  0.10924077079E+04  0.46999998093E+01 0.  1.
       -5    1    3    3    0  502 -0.43900809934E+03 -0.60372031103E+03  0.78407294390E+03  0.10825889324E+04  0.46999998093E+01 0. -1.
</event>
<event>
 5   0  0.5846187E-05  0.1820901E+04  0.7818609E-02  0.8695263E-01
        1   -1    0    0  501    0  0.00000000000E+00  0.00000000000E+00  0.10210353795E+04  0.10210353795E+04  0.50400001928E-02 0. -1.
       -1   -1    0    0    0  501  0.00000000000E+00  0.00000000000E+00 -0.81184304488E+03  0.81184304490E+03  0.50400001928E-02 0.  1.
    10030    2    1    2    0    0  0.00000000000E+00  0.00000000000E+00  0.20919233461E+03  0.18328784244E+04  0.18209013938E+04 0.  0.
        5    1    3    3  502    0  0.54730233468E+03 -0.67236271509E+03  0.38442999792E+03  0.94837755113E+03  0.46999998093E+01 0. -1.
       -5    1    3    3    0  502 -0.54730233468E+03  0.67236271509E+03 -0.17523766330E+03  0.88450087328E+03  0.46999998093E+01 0.  1.
</event>
<event>
 5   0  0.5846187E-05  0.2096202E+04  0.7818609E-02  0.8562918E-01
        1   -1    0    0  501    0  0.00000000000E+00  0.00000000000E+00  0.10031793288E+04  0.10031793288E+04  0.50400001928E-02 0.  1.
       -1   -1    0    0    0  501  0.00000000000E+00  0.00000000000E+00 -0.10950340832E+04  0.10950340832E+04  0.50400001928E-02 0. -1.
    10030    2    1    2    0    0  0.00000000000E+00  0.00000000000E+00 -0.91854754340E+02  0.20982134120E+04  0.20962018573E+04 0.  0.
        5    1    3    3  502    0  0.64291706717E+03 -0.23216044807E+03  0.74934914256E+03  0.10142914060E+04  0.46999998093E+01 0.  1.
       -5    1    3    3    0  502 -0.64291706717E+03  0.23216044807E+03 -0.84120389690E+03  0.10839220060E+04  0.46999998093E+01 0. -1.
</event>
<event>
 5   0  0.1252477E-04  0.1914730E+04  0.7818609E-02  0.8647559E-01
       -2   -1    0    0    0  501  0.00000000000E+00  0.00000000000E+00  0.10345766629E+04  0.10345766629E+04  0.25500000920E-02 0. -1.
        2   -1    0    0  501    0  0.00000000000E+00  0.00000000000E+00 -0.88591552556E+03  0.88591552557E+03  0.25500000920E-02 0.  1.
    10030    2    1    2    0    0  0.00000000000E+00  0.00000000000E+00  0.14866113731E+03  0.19204921884E+04  0.19147297752E+04 0.  0.
        4    1    3    3  502    0  0.25631118111E+03  0.58864029396E+03 -0.63798494086E+03  0.90510729470E+03  0.12699999809E+01 0.  1.
       -4    1    3    3    0  502 -0.25631118111E+03 -0.58864029396E+03  0.78664607817E+03  0.10153848937E+04  0.12699999809E+01 0. -1.
</event>
<event>
 5   0  0.6263616E-05  0.2145013E+04  0.7818609E-02  0.8541670E-01
        1   -1    0    0  501    0  0.00000000000E+00  0.00000000000E+00  0.17769624063E+04  0.17769624063E+04  0.50400001928E-02 0. -1.
       -1   -1    0    0    0  501  0.00000000000E+00  0.00000000000E+00 -0.64732398245E+03  0.64732398247E+03  0.50400001928E-02 0.  1.
    10030    2    1    2    0    0  0.00000000000E+00  0.00000000000E+00  0.11296384239E+04  0.24242863888E+04  0.21450131762E+04 0.  0.
        4    1    3    3  502    0  0.10694971902E+04 -0.38274094369E+02  0.48506526827E+03  0.11749804567E+04  0.12699999809E+01 0. -1.
       -4    1    3    3    0  502 -0.10694971902E+04  0.38274094369E+02  0.64457315559E+03  0.12493059321E+04  0.12699999809E+01 0.  1.
</event>
<event>
 5   0  0.1281470E-04  0.2051065E+04  0.7818609E-02  0.8583111E-01
       -2   -1    0    0    0  501  0.00000000000E+00  0.00000000000E+00  0.84872072556E+03  0.84872072557E+03  0.25500000920E-02 0. -1.
        2   -1    0    0  501    0  0.00000000000E+00  0.00000000000E+00 -0.12391794498E+04  0.12391794498E+04  0.25500000920E-02 0.  1.
    10030    2    1    2    0    0  0.00000000000E+00  0.00000000000E+00 -0.39045872422E+03  0.20879001754E+04  0.20510653639E+04 0.  0.
        3    1    3    3  502    0 -0.48080226774E+03  0.61380957980E+02  0.72475928073E+03  0.87190278579E+03  0.10100000352E+00 0. -1.
       -3    1    3    3    0  502  0.48080226774E+03 -0.61380957980E+02 -0.11152180049E+04  0.12159973896E+04  0.10100000352E+00 0.  1.
</event>
<event>
 5   0  0.1235817E-04  0.2079854E+04  0.7818609E-02  0.8570170E-01
        2   -1    0    0  501    0  0.00000000000E+00  0.00000000000E+00  0.26724416681E+04  0.26724416681E+04  0.25500000920E-02 0. -1.
       -2   -1    0    0    0  501  0.00000000000E+00  0.00000000000E+00 -0.40466678156E+03  0.40466678156E+03  0.25500000920E-02 0.  1.
    10030    2    1    2    0    0  0.00000000000E+00  0.00000000000E+00  0.22677748865E+04  0.30771084496E+04  0.20798541956E+04 0.  0.
        1    1    3    3  502    0  0.40516017871E+03 -0.65695848140E+03  0.21649703443E+04  0.22984442148E+04  0.50400001928E-02 0. -1.
       -1    1    3    3    0  502 -0.40516017871E+03  0.65695848140E+03  0.10280454219E+03  0.77866423484E+03  0.50400001928E-02 0.  1.
</event>
<event>
 5   0  0.6263616E-05  0.2077305E+04  0.7818609E-02  0.8571307E-01
       -1   -1    0    0    0  501  0.00000000000E+00  0.00000000000E+00  0.77532041208E+03  0.77532041209E+03  0.50400001928E-02 0. -1.
        1   -1    0    0  501    0  0.00000000000E+00  0.00000000000E+00 -0.13914228816E+04  0.13914228816E+04  0.50400001928E-02 0.  1.
    10030    2    1    2    0    0  0.00000000000E+00  0.00000000000E+00 -0.61610246951E+03  0.21667432937E+04  0.20773045631E+04 0.  0.
        4    1    3    3  502    0  0.14713335688E+02 -0.12552441398E+03 -0.13833718711E+04  0.13891336176E+04  0.12699999809E+01 0.  1.
       -4    1    3    3    0  502 -0.14713335688E+02  0.12552441398E+03  0.76726940164E+03  0.77760967609E+03  0.12699999809E+01 0. -1.
</event>
<event>
 5   0  0.1235817E-04  0.2095447E+04  0.7818609E-02  0.8563252E-01
       -2   -1    0    0    0  501  0.00000000000E+00  0.00000000000E+00  0.59897258727E+03  0.59897258727E+03  0.25500000920E-02 0. -1.
        2   -1    0    0  501    0  0.00000000000E+00  0.00000000000E+00 -0.18326785441E+04  0.18326785441E+04  0.25500000920E-02 0.  1.
    10030    2    1    2    0    0  0.00000000000E+00  0.00000000000E+00 -0.12337059568E+04  0.24316511314E+04  0.20954466915E+04 0.  0.
        1    1    3    3  502    0  0.89281075651E+03 -0.48226929251E+03 -0.91952568701E+03  0.13693875297E+04  0.50400001928E-02 0.  1.
       -1    1    3    3    0  502 -0.89281075651E+03  0.48226929251E+03 -0.31418026981E+03  0.10622636017E+04  0.50400001928E-02 0. -1.
</event>
<event>
 5   0  0.1235817E-04  0.2104342E+04  0.7818609E-02  0.8559333E-01
        2   -1    0    0  501    0  0.00000000000E+00  0.00000000000E+00  0.17394948384E+04  0.17394948384E+04  0.25500000920E-02 0. -1.
       -2   -1    0    0    0  501  0.00000000000E+00  0.00000000000E+00 -0.63642832255E+03  0.63642832256E+03  0.25500000920E-02 0.  1.
    10030    2    1    2    0    0  0.00000000000E+00  0.00000000000E+00  0.11030665158E+04  0.23759231610E+04  0.21043419704E+04 0.  0.
        1    1    3    3  502    0  0.32203391370E+03  0.26213147974E+03  0.16430726766E+04  0.16947290565E+04  0.50400001928E-02 0. -1.
       -1    1    3    3    0  502 -0.32203391370E+03 -0.26213147974E+03 -0.54000616078E+03  0.68119410446E+03  0.50400001928E-02 0.  1.
</event>
<event>
 5   0  0.5933905E-05  0.2098104E+04  0.7818609E-02  0.8562079E-01
        1   -1    0    0  501    0  0.00000000000E+00  0.00000000000E+00  0.17657731430E+04  0.17657731430E+04  0.50400001928E-02 0. -1.
       -1   -1    0    0    0  501  0.00000000000E+00  0.00000000000E+00 -0.62324551719E+03  0.62324551721E+03  0.50400001928E-02 0.  1.
    10030    2    1    2    0    0  0.00000000000E+00  0.00000000000E+00  0.11425276258E+04  0.23890186602E+04  0.20981040925E+04 0.  0.
        2    1    3    3  502    0  0.96660171853E+03  0.38549291732E+03  0.42026187605E+03  0.11222939526E+04  0.25500000920E-02 0.  1.
       -2    1    3    3    0  502 -0.96660171853E+03 -0.38549291732E+03  0.72226574973E+03  0.12667247076E+04  0.25500000920E-02 0. -1.
</event>
<event>
 5   0  0.1235817E-04  0.2160872E+04  0.7818609E-02  0.8534893E-01
        2   -1    0    0  501    0  0.00000000000E+00  0.00000000000E+00  0.10460607609E+04  0.10460607609E+04  0.25500000920E-02 0.  1.
       -2   -1    0    0    0  501  0.00000000000E+00  0.00000000000E+00 -0.11159404152E+04  0.11159404152E+04  0.25500000920E-02 0. -1.
    10030    2    1    2    0    0  0.00000000000E+00  0.00000000000E+00 -0.69879654261E+02  0.21620011761E+04  0.21608715648E+04 0.  0.
        1    1    3    3  502    0  0.41113313313E+03  0.97831795586E+03 -0.23803609899E+03  0.10875650143E+04  0.50400001928E-02 0. -1.
       -1    1    3    3    0  502 -0.41113313313E+03 -0.97831795586E+03  0.16815644473E+03  0.10744361618E+04  0.50400001928E-02 0.  1.
</event>
<event>
 5   0  0.6263616E-05  0.2098601E+04  0.7818609E-02  0.8561860E-01
       -1   -1    0    0    0  501  0.00000000000E+00  0.00000000000E+00  0.13736847584E+04  0.13736847585E+04  0.50400001928E-02 0.  1.
        1   -1    0    0  501    0  0.00000000000E+00  0.00000000000E+00 -0.80151690305E+03  0.80151690307E+03  0.50400001928E-02 0. -1.
    10030    2    1    2    0    0  0.00000000000E+00  0.00000000000E+00  0.57216785540E+03  0.21752016615E+04  0.20986010134E+04 0.  0.
        4    1    3    3  502    0 -0.44267855891E+03 -0.25371126325E+03  0.12364462229E+04  0.13375853567E+04  0.12699999809E+01 0.  1.
       -4    1    3    3    0  502  0.44267855891E+03  0.25371126325E+03 -0.66427836748E+03  0.83761630477E+03  0.12699999809E+01 0. -1.
</event>
<event>
 5   0  0.5933905E-05  0.2115075E+04  0.7818609E-02  0.8554632E-01
        1   -1    0    0  501    0  0.00000000000E+00  0.00000000000E+00  0.18437133853E+04  0.18437133853E+04  0.50400001928E-02 0.  1.
       -1   -1    0    0    0  501  0.00000000000E+00  0.00000000000E+00 -0.60659419009E+03  0.60659419011E+03  0.50400001928E-02 0. -1.
    10030    2    1    2    0    0  0.00000000000E+00  0.00000000000E+00  0.12371191952E+04  0.24503075754E+04  0.21150752495E+04 0.  0.
        2    1    3    3  502    0  0.81490189343E+03  0.36542824988E+03  0.12747054709E+04  0.15564308335E+04  0.25500000920E-02 0. -1.
       -2    1    3    3    0  502 -0.81490189343E+03 -0.36542824988E+03 -0.37586275691E+02  0.89387674198E+03  0.25500000920E-02 0.  1.
</event>
<event>
 5   0  0.6263616E-05  0.2082509E+04  0.7818609E-02  0.8568987E-01
        1   -1    0    0  501    0  0.00000000000E+00  0.00000000000E+00  0.15157294189E+04  0.15157294189E+04  0.50400001928E-02 0. -1.
       -1   -1    0    0    0  501  0.00000000000E+00  0.00000000000E+00 -0.71530666522E+03  0.71530666524E+03  0.50400001928E-02 0.  1.
    10030    2    1    2    0    0  0.00000000000E+00  0.00000000000E+00  0.80042275364E+03  0.22310360841E+04  0.20825094055E+04 0.  0.
        4    1    3    3  502    0  0.60266149746E+03  0.76321417324E+03  0.79892848656E+03  0.12585646961E+04  0.12699999809E+01 0. -1.
       -4    1    3    3    0  502 -0.60266149746E+03 -0.76321417324E+03  0.14942670849E+01  0.97247138800E+03  0.12699999809E+01 0.  1.
</event>
<event>
 5   0  0.1235817E-04  0.2060035E+04  0.7818609E-02  0.8579056E-01
        2   -1    0    0  501    0  0.00000000000E+00  0.00000000000E+00  0.22946103906E+04  0.22946103906E+04  0.25500000920E-02 0.  1.
       -2   -1    0    0    0  501  0.00000000000E+00  0.00000000000E+00 -0.46235984364E+03  0.46235984365E+03  0.25500000920E-02 0. -1.
    10030    2    1    2    0    0  0.00000000000E+00  0.00000000000E+00  0.18322505470E+04  0.27569702343E+04  0.20600346613E+04 0.  0.
        1    1    3    3  502    0  0.32745630436E+03 -0.27639733059E+03 -0.33740471869E+03  0.54540357521E+03  0.50400001928E-02 0. -1.
       -1    1    3    3    0  502 -0.32745630436E+03  0.27639733059E+03  0.21696552657E+04  0.22115666591E+04  0.50400001928E-02 0.  1.
</event>
<event>
 5   0  0.6052292E-05  0.2071668E+04  0.7818609E-02  0.8573828E-01
        1   -1    0    0  501    0  0.00000000000E+00  0.00000000000E+00  0.14526446193E+04  0.14526446193E+04  0.50400001928E-02 0.  1.
       -1   -1    0    0    0  501  0.00000000000E+00  0.00000000000E+00 -0.73861954375E+03  0.73861954377E+03  0.50400001928E-02 0. -1.
    10030    2    1    2    0    0  0.00000000000E+00  0.00000000000E+00  0.71402507550E+03  0.21912641630E+04  0.20716676432E+04 0.  0.
        1    1    3    3  502    0 -0.25569808219E+03  0.92162999260E+03 -0.63650593197E+02  0.95855868393E+03  0.50400001928E-02 0. -1.
       -1    1    3    3    0  502  0.25569808219E+03 -0.92162999260E+03  0.77767566870E+03  0.12327054791E+04  0.50400001928E-02 0.  1.
</event>
<event>
 5   0  0.5933905E-05  0.1687204E+04  0.7818609E-02  0.8768696E-01
        1   -1    0    0  501    0  0.00000000000E+00  0.00000000000E+00  0.61691397373E+03  0.61691397375E+03  0.50400001928E-02 0.  1.
       -1   -1    0    0    0  501  0.00000000000E+00  0.00000000000E+00 -0.11535877597E+04  0.11535877597E+04  0.50400001928E-02 0. -1.
    10030    2    1    2    0    0  0.00000000000E+00  0.00000000000E+00 -0.53667378593E+03  0.17705017334E+04  0.16872040883E+04 0.  0.
        2    1    3    3  502    0  0.27694740567E+03 -0.51343357056E+03 -0.90780774088E+03  0.10790870175E+04  0.25500000920E-02 0.  1.
       -2    1    3    3    0  502 -0.27694740567E+03  0.51343357056E+03  0.37113395495E+03  0.69141471593E+03  0.25500000920E-02 0. -1.
</event>
<event>
 5   0  0.1349252E-04  0.2100495E+04  0.7818609E-02  0.8561025E-01
       -2   -1    0    0    0  501  0.00000000000E+00  0.00000000000E+00  0.47470683827E+03  0.47470683827E+03  0.25500000920E-02 0. -1.
        2   -1    0    0  501    0  0.00000000000E+00  0.00000000000E+00 -0.23235806932E+04  0.23235806932E+04  0.25500000920E-02 0.  1.
    10030    2    1    2    0    0  0.00000000000E+00  0.00000000000E+00 -0.18488738549E+04  0.27982875314E+04  0.21004948410E+04 0.  0.
        2    1    3    3  502    0  0.51764406470E+03 -0.20142583617E+03  0.26301340882E+03  0.61457611280E+03  0.25500000920E-02 0. -1.
       -2    1    3    3    0  502 -0.51764406470E+03  0.20142583617E+03 -0.21118872637E+04  0.21837114186E+04  0.25500000920E-02 0.  1.
</event>
<event>
 5   0  0.1349252E-04  0.2107397E+04  0.7818609E-02  0.8557992E-01
        2   -1    0    0  501    0  0.00000000000E+00  0.00000000000E+00  0.11531238916E+04  0.11531238916E+04  0.25500000920E-02 0. -1.
       -2   -1    0    0    0  501  0.00000000000E+00  0.00000000000E+00 -0.96284576548E+03  0.96284576549E+03  0.25500000920E-02 0.  1.
    10030    2    1    2    0    0  0.00000000000E+00  0.00000000000E+00  0.19027812615E+03  0.21159696571E+04  0.21073969309E+04 0.  0.
        2    1    3    3  502    0 -0.14040553133E+03 -0.36132625713E+03  0.10789258576E+04  0.11464516490E+04  0.25500000920E-02 0. -1.
       -2    1    3    3    0  502  0.14040553133E+03  0.36132625713E+03 -0.88864773148E+03  0.96951800808E+03  0.25500000920E-02 0.  1.
</event>
<event>
 5   0  0.1325673E-04  0.2066263E+04  0.7818609E-02  0.8576252E-01
       -2   -1    0    0    0  501  0.00000000000E+00  0.00000000000E+00  0.10056327650E+04  0.10056327650E+04  0.25500000920E-02 0.  1.
        2   -1    0    0  501    0  0.00000000000E+00  0.00000000000E+00 -0.10613822078E+04  0.10613822078E+04  0.25500000920E-02 0. -1.
    10030    2    1    2    0    0  0.00000000000E+00  0.00000000000E+00 -0.55749442786E+02  0.20670149728E+04  0.20662630272E+04 0.  0.
        5    1    3    3  502    0 -0.45358496196E+03 -0.57865201484E+03 -0.75392198260E+03  0.10530897008E+04  0.46999998093E+01 0. -1.
       -5    1    3    3    0  502  0.45358496196E+03  0.57865201484E+03  0.69817253981E+03  0.10139252721E+04  0.46999998093E+01 0.  1.
</event>
<event>
 5   0  0.1235817E-04  0.2248861E+04  0.7818609E-02  0.8498362E-01
        2   -1    0    0  501    0  0.00000000000E+00  0.00000000000E+00  0.26462083383E+04  0.26462083383E+04  0.25500000920E-02 0. -1.
       -2   -1    0    0    0  501  0.00000000000E+00  0.00000000000E+00 -0.47779464503E+03  0.47779464503E+03  0.25500000920E-02 0.  1.
    10030    2    1    2    0    0  0.00000000000E+00  0.00000000000E+00  0.21684136932E+04  0.31240029833E+04  0.22488611995E+04 0.  0.
        1    1    3    3  502    0  0.63729545329E+03  0.74376319082E+03  0.18514082412E+04  0.20945265943E+04  0.50400001928E-02 0. -1.
       -1    1    3    3    0  502 -0.63729545329E+03 -0.74376319082E+03  0.31700545207E+03  0.10294763890E+04  0.50400001928E-02 0.  1.
</event>
<event>
 5   0  0.6221148E-05  0.2118356E+04  0.7818609E-02  0.8553200E-01
        1   -1    0    0  501    0  0.00000000000E+00  0.00000000000E+00  0.89166193179E+03  0.89166193180E+03  0.50400001928E-02 0. -1.
       -1   -1    0    0    0  501  0.00000000000E+00  0.00000000000E+00 -0.12581656709E+04  0.12581656709E+04  0.50400001928E-02 0.  1.
    10030    2    1    2    0    0  0.00000000000E+00  0.00000000000E+00 -0.36650373910E+03  0.21498276027E+04  0.21183563748E+04 0.  0.
        3    1    3    3  502    0 -0.77430039558E+03 -0.45177254556E+03 -0.75574145011E+03  0.11725121258E+04  0.10100000352E+00 0.  1.
       -3    1    3    3    0  502  0.77430039558E+03  0.45177254556E+03  0.38923771101E+03  0.97731547690E+03  0.10100000352E+00 0. -1.
</event>
<event>
 5   0  0.1252477E-04  0.2113338E+04  0.7818609E-02  0.8555390E-01
        2   -1    0    0  501    0  0.00000000000E+00  0.00000000000E+00  0.11652683055E+04  0.11652683055E+04  0.25500000920E-02 0.  1.
       -2   -1    0    0    0  501  0.00000000000E+00  0.00000000000E+00 -0.95819105328E+03  0.95819105328E+03  0.25500000920E-02 0. -1.
    10030    2    1    2    0    0  0.00000000000E+00  0.00000000000E+00  0.20707725226E+03  0.21234593588E+04  0.21133382740E+04 0.  0.
        4    1    3    3  502    0 -0.73357917329E+03 -0.46767593748E+03  0.70615153731E+03  0.11204957798E+04  0.12699999809E+01 0.  1.
       -4    1    3    3    0  502  0.73357917329E+03  0.46767593748E+03 -0.49907428505E+03  0.10029635790E+04  0.12699999809E+01 0. -1.
</event>
<event>
 5   0  0.1325673E-04  0.2088175E+04  0.7818609E-02  0.8566471E-01
       -2   -1    0    0    0  501  0.00000000000E+00  0.00000000000E+00  0.13524962109E+04  0.13524962109E+04  0.25500000920E-02 0. -1.
        2   -1    0    0  501    0  0.00000000000E+00  0.00000000000E+00 -0.80600468739E+03  0.80600468739E+03  0.25500000920E-02 0.  1.
    10030    2    1    2    0    0  0.00000000000E+00  0.00000000000E+00  0.54649152351E+03  0.21585008983E+04  0.20881745958E+04 0.  0.
        5    1    3    3  502    0  0.36530956409E+02  0.53117103016E+02 -0.80393451446E+03  0.80652881595E+03  0.46999998093E+01 0.  1.
       -5    1    3    3    0  502 -0.36530956409E+02 -0.53117103016E+02  0.13504260380E+04  0.13519720823E+04  0.46999998093E+01 0. -1.
</event>
<event>
 5   0  0.1235817E-04  0.2108490E+04  0.7818609E-02  0.8557513E-01
        2   -1    0    0  501    0  0.00000000000E+00  0.00000000000E+00  0.18159515300E+04  0.18159515300E+04  0.25500000920E-02 0. -1.
       -2   -1    0    0    0  501  0.00000000000E+00  0.00000000000E+00 -0.61203872881E+03  0.61203872882E+03  0.25500000920E-02 0.  1.
    10030    2    1    2    0    0  0.00000000000E+00  0.00000000000E+00  0.12039128012E+04  0.24279902588E+04  0.21084901385E+04 0.  0.
        1    1    3    3  502    0 -0.53189326723E+03 -0.99309866894E+02  0.16438589245E+04  0.17306198488E+04  0.50400001928E-02 0. -1.
       -1    1    3    3    0  502  0.53189326723E+03  0.99309866894E+02 -0.43994612328E+03  0.69737041004E+03  0.50400001928E-02 0.  1.
</event>
<event>
 5   0  0.6052292E-05  0.2041044E+04  0.7818609E-02  0.8587668E-01
       -1   -1    0    0    0  501  0.00000000000E+00  0.00000000000E+00  0.67576661643E+03  0.67576661645E+03  0.50400001928E-02 0. -1.
        1   -1    0    0  501    0  0.00000000000E+00  0.00000000000E+00 -0.15411605919E+04  0.15411605919E+04  0.50400001928E-02 0.  1.
    10030    2    1    2    0    0  0.00000000000E+00  0.00000000000E+00 -0.86539397543E+03  0.22169272083E+04  0.20410437316E+04 0.  0.
        1    1    3    3  502    0 -0.14668270590E+03  0.90940836933E+03 -0.90977996223E+03  0.12946964811E+04  0.50400001928E-02 0.  1.
       -1    1    3    3    0  502  0.14668270590E+03 -0.90940836933E+03  0.44385986798E+02  0.92223072724E+03  0.50400001928E-02 0. -1.
</event>
<event>
 5   0  0.4615125E-05  0.2110297E+04  0.7818609E-02  0.8556721E-01
       -4   -1    0    0    0  501  0.00000000000E+00  0.00000000000E+00  0.13503036488E+04  0.13503042460E+04  0.12699999809E+01 0.  1.
        4   -1    0    0  501    0  0.00000000000E+00  0.00000000000E+00 -0.82450806201E+03  0.82450904011E+03  0.12699999809E+01 0. -1.
    10030    2    1    2    0    0  0.00000000000E+00  0.00000000000E+00  0.52579558677E+03  0.21748132861E+04  0.21102966214E+04 0.  0.
        5    1    3    3  502    0  0.18696942042E+03  0.15189427428E+03 -0.79577962876E+03  0.83145459424E+03  0.46999998093E+01 0. -1.
       -5    1    3    3    0  502 -0.18696942042E+03 -0.15189427428E+03  0.13215752155E+04  0.13433586919E+04  0.46999998093E+01 0.  1.
</event>
<event>
 5   0  0.5933905E-05  0.2000467E+04  0.7818609E-02  0.8606402E-01
       -1   -1    0    0    0  501  0.00000000000E+00  0.00000000000E+00  0.95746447678E+03  0.95746447679E+03  0.50400001928E-02 0. -1.
        1   -1    0    0  501    0  0.00000000000E+00  0.00000000000E+00 -0.10449128997E+04  0.10449128998E+04  0.50400001928E-02 0.  1.
    10030    2    1    2    0    0  0.00000000000E+00  0.00000000000E+00 -0.87448422969E+02  0.20023773765E+04  0.20004669284E+04 0.  0.
        2    1    3    3  502    0  0.18184688711E+03 -0.57934583584E+03 -0.83931476489E+03  0.10359339566E+04  0.25500000920E-02 0.  1.
       -2    1    3    3    0  502 -0.18184688711E+03  0.57934583584E+03  0.75186634192E+03  0.96644341996E+03  0.25500000920E-02 0. -1.
</event>
<event>
 5   0  0.1349252E-04  0.2107687E+04  0.7818609E-02  0.8557865E-01
        2   -1    0    0  501    0  0.00000000000E+00  0.00000000000E+00  0.64571405899E+03  0.64571405900E+03  0.25500000920E-02 0. -1.
       -2   -1    0    0    0  501  0.00000000000E+00  0.00000000000E+00 -0.17199354324E+04  0.17199354324E+04  0.25500000920E-02 0.  1.
    10030    2    1    2    0    0  0.00000000000E+00  0.00000000000E+00 -0.10742213734E+04  0.23656494914E+04  0.21076873480E+04 0.  0.
        2    1    3    3  502    0 -0.13903559141E+03  0.82318463177E+03  0.18473832824E+03  0.85503922927E+03  0.25500000920E-02 0. -1.
       -2    1    3    3    0  502  0.13903559141E+03 -0.82318463177E+03 -0.12589597016E+04  0.15106102621E+04  0.25500000920E-02 0.  1.
</event>
<event>
 5   0  0.1252477E-04  0.1885408E+04  0.7818609E-02  0.8662154E-01
       -2   -1    0    0    0  501  0.00000000000E+00  0.00000000000E+00  0.10880916033E+04  0.10880916033E+04  0.25500000920E-02 0. -1.
        2   -1    0    0  501    0  0.00000000000E+00  0.00000000000E+00 -0.81674285634E+03  0.81674285635E+03  0.25500000920E-02 0.  1.
    10030    2    1    2    0    0  0.00000000000E+00  0.00000000000E+00  0.27134874699E+03  0.19048344597E+04  0.18854082254E+04 0.  0.
        4    1    3    3  502    0 -0.11560701994E+03 -0.79239265356E+03 -0.36688263081E+03  0.88082664478E+03  0.12699999809E+01 0.  1.
       -4    1    3    3    0  502  0.11560701994E+03  0.79239265356E+03  0.63823137780E+03  0.10240078149E+04  0.12699999809E+01 0. -1.
</event>
<event>
 5   0  0.1325673E-04  0.2110345E+04  0.7818609E-02  0.8556700E-01
        2   -1    0    0  501    0  0.00000000000E+00  0.00000000000E+00  0.15370620589E+04  0.15370620589E+04  0.25500000920E-02 0.  1.
       -2   -1    0    0    0  501  0.00000000000E+00  0.00000000000E+00 -0.72436150552E+03  0.72436150552E+03  0.25500000920E-02 0. -1.
    10030    2    1    2    0    0  0.00000000000E+00  0.00000000000E+00  0.81270055339E+03  0.22614235644E+04  0.21103446042E+04 0.  0.
        5    1    3    3  502    0 -0.10063026061E+04 -0.31619640834E+03  0.43552809978E+03  0.11411975812E+04  0.46999998093E+01 0. -1.
       -5    1    3    3    0  502  0.10063026061E+04  0.31619640834E+03  0.37717245361E+03  0.11202259832E+04  0.46999998093E+01 0.  1.
</event>
<event>
 5   0  0.6052292E-05  0.2092163E+04  0.7818609E-02  0.8564703E-01
        1   -1    0    0  501    0  0.00000000000E+00  0.00000000000E+00  0.94541642285E+03  0.94541642286E+03  0.50400001928E-02 0.  1.
       -1   -1    0    0    0  501  0.00000000000E+00  0.00000000000E+00 -0.11574652461E+04  0.11574652461E+04  0.50400001928E-02 0. -1.
    10030    2    1    2    0    0  0.00000000000E+00  0.00000000000E+00 -0.21204882324E+03  0.21028816690E+04  0.20921631414E+04 0.  0.
        1    1    3    3  502    0  0.57925056211E+03 -0.84882880038E+03  0.90541056810E+02  0.10316197115E+04  0.50400001928E-02 0.  1.
       -1    1    3    3    0  502 -0.57925056211E+03  0.84882880038E+03 -0.30258988005E+03  0.10712619575E+04  0.50400001928E-02 0. -1.
</event>
<event>
 5   0  0.6263616E-05  0.2097595E+04  0.7818609E-02  0.8562304E-01
        1   -1    0    0  501    0  0.00000000000E+00  0.00000000000E+00  0.74793726786E+03  0.74793726787E+03  0.50400001928E-02 0. -1.
       -1   -1    0    0    0  501  0.00000000000E+00  0.00000000000E+00 -0.14706793621E+04  0.14706793622E+04  0.50400001928E-02 0.  1.
    10030    2    1    2    0    0  0.00000000000E+00  0.00000000000E+00 -0.72274209429E+03  0.22186166300E+04  0.20975947216E+04 0.  0.
        4    1    3    3  502    0  0.18686172357E+02 -0.10218908541E+04 -0.61024256597E+03  0.11903813225E+04  0.12699999809E+01 0. -1.
       -4    1    3    3    0  502 -0.18686172357E+02  0.10218908541E+04 -0.11249952832E+03  0.10282353075E+04  0.12699999809E+01 0.  1.
</event>
<event>
 5   0  0.1349252E-04  0.2000579E+04  0.7818609E-02  0.8606350E-01
       -2   -1    0    0    0  501  0.00000000000E+00  0.00000000000E+00  0.62522658748E+03  0.62522658749E+03  0.25500000920E-02 0. -1.
        2   -1    0    0  501    0  0.00000000000E+00  0.00000000000E+00 -0.16003466357E+04  0.16003466357E+04  0.25500000920E-02 0.  1.
    10030    2    1    2    0    0  0.00000000000E+00  0.00000000000E+00 -0.97512004819E+03  0.22255732232E+04  0.20005791820E+04 0.  0.
        2    1    3    3  502    0  0.25204571635E+03  0.96185907658E+03 -0.36630987288E+03  0.10596616674E+04  0.25500000920E-02 0. -1.
       -2    1    3    3    0  502 -0.25204571635E+03 -0.96185907658E+03 -0.60881017532E+03  0.11659115558E+04  0.25500000920E-02 0.  1.
</event>
<event>
 5   0  0.1235817E-04  0.2094071E+04  0.7818609E-02  0.8563860E-01
        2   -1    0    0  501    0  0.00000000000E+00  0.00000000000E+00  0.25934601635E+04  0.25934601635E+04  0.25500000920E-02 0. -1.
       -2   -1    0    0    0  501  0.00000000000E+00  0.00000000000E+00 -0.42271055354E+03  0.42271055354E+03  0.25500000920E-02 0.  1.
    10030    2    1    2    0    0  0.00000000000E+00  0.00000000000E+00  0.21707496100E+04  0.30161707171E+04  0.20940706591E+04 0.  0.
        1    1    3    3  502    0  0.29509500470E+03 -0.74658648435E+03  0.20535250661E+04  0.22048668072E+04  0.50400001928E-02 0. -1.
       -1    1    3    3    0  502 -0.29509500470E+03  0.74658648435E+03  0.11722454388E+03  0.81130390985E+03  0.50400001928E-02 0.  1.
</event>
<event>
 5   0  0.1235817E-04  0.2002586E+04  0.7818609E-02  0.8605412E-01
       -2   -1    0    0    0  501  0.00000000000E+00  0.00000000000E+00  0.14031344892E+04  0.14031344892E+04  0.25500000920E-02 0.  1.
        2   -1    0    0  501    0  0.00000000000E+00  0.00000000000E+00 -0.71453444218E+03  0.71453444219E+03  0.25500000920E-02 0. -1.
    10030    2    1    2    0    0  0.00000000000E+00  0.00000000000E+00  0.68860004701E+03  0.21176689314E+04  0.20025862474E+04 0.  0.
        1    1    3    3  502    0  0.42931192171E+03 -0.90457893866E+03  0.34005206699E+03  0.10574531624E+04  0.50400001928E-02 0. -1.
       -1    1    3    3    0  502 -0.42931192171E+03  0.90457893866E+03  0.34854798001E+03  0.10602157690E+04  0.50400001928E-02 0.  1.
</event>
<event>
 5   0  0.5933905E-05  0.2128839E+04  0.7818609E-02  0.8548645E-01
       -1   -1    0    0    0  501  0.00000000000E+00  0.00000000000E+00  0.12037442704E+04  0.12037442704E+04  0.50400001928E-02 0.  1.
        1   -1    0    0  501    0  0.00000000000E+00  0.00000000000E+00 -0.94122077535E+03  0.94122077536E+03  0.50400001928E-02 0. -1.
    10030    2    1    2    0    0  0.00000000000E+00  0.00000000000E+00  0.26252349500E+03  0.21449650457E+04  0.21288392288E+04 0.  0.
        2    1    3    3  502    0  0.51249910999E+03  0.22714654924E+03  0.10429574084E+04  0.11840654746E+04  0.25500000920E-02 0.  1.
       -2    1    3    3    0  502 -0.51249910999E+03 -0.22714654924E+03 -0.78043391336E+03  0.96089957108E+03  0.25500000920E-02 0. -1.
</event>
<event>
 5   0  0.1325673E-04  0.2090762E+04  0.7818609E-02  0.8565324E-01
       -2   -1    0    0    0  501  0.00000000000E+00  0.00000000000E+00  0.45778466625E+03  0.45778466625E+03  0.25500000920E-02 0.  1.
        2   -1    0    0  501    0  0.00000000000E+00  0.00000000000E+00 -0.23871961003E+04  0.23871961003E+04  0.25500000920E-02 0. -1.
    10030    2    1    2    0    0  0.00000000000E+00  0.00000000000E+00 -0.19294114341E+04  0.28449807666E+04  0.20907623204E+04 0.  0.
        5    1    3    3  502    0 -0.24655841715E+03 -0.65403839101E+03 -0.20224489901E+04  0.21398316002E+04  0.46999998093E+01 0. -1.
       -5    1    3    3    0  502  0.24655841715E+03  0.65403839101E+03  0.93037555972E+02  0.70514916635E+03  0.46999998093E+01 0.  1.
</event>
<event>
 5   0  0.6263616E-05  0.2163999E+04  0.7818609E-02  0.8533564E-01
        1   -1    0    0  501    0  0.00000000000E+00  0.00000000000E+00  0.99611792669E+03  0.99611792671E+03  0.50400001928E-02 0.  1.
       -1   -1    0    0    0  501  0.00000000000E+00  0.00000000000E+00 -0.11752853496E+04  0.11752853496E+04  0.50400001928E-02 0. -1.
    10030    2    1    2    0    0  0.00000000000E+00  0.00000000000E+00 -0.17916742288E+03  0.21714032763E+04  0.21639988962E+04 0.  0.
        4    1    3    3  502    0 -0.35074992827E+03 -0.57424573237E+03 -0.93979482772E+03  0.11558544910E+04  0.12699999809E+01 0. -1.
       -4    1    3    3    0  502  0.35074992827E+03  0.57424573237E+03  0.76062740485E+03  0.10155487853E+04  0.12699999809E+01 0.  1.
</event>
<event>
 5   0  0.6052292E-05  0.2077400E+04  0.7818609E-02  0.8571265E-01
       -1   -1    0    0    0  501  0.00000000000E+00  0.00000000000E+00  0.50926189267E+03  0.50926189270E+03  0.50400001928E-02 0.  1.
        1   -1    0    0  501    0  0.00000000000E+00  0.00000000000E+00 -0.21185514813E+04  0.21185514813E+04  0.50400001928E-02 0. -1.
    10030    2    1    2    0    0  0.00000000000E+00  0.00000000000E+00 -0.16092895886E+04  0.26278133740E+04  0.20773998528E+04 0.  0.
        1    1    3    3  502    0 -0.83564666807E+03 -0.57145018327E+03 -0.51059592088E+03  0.11338292906E+04  0.50400001928E-02 0. -1.
       -1    1    3    3    0  502  0.83564666807E+03  0.57145018327E+03 -0.10986936677E+04  0.14939840834E+04  0.50400001928E-02 0.  1.
</event>
<event>
 5   0  0.6052292E-05  0.2088983E+04  0.7818609E-02  0.8566112E-01
        1   -1    0    0  501    0  0.00000000000E+00  0.00000000000E+00  0.11616010757E+04  0.11616010757E+04  0.50400001928E-02 0.  1.
       -1   -1    0    0    0  501  0.00000000000E+00  0.00000000000E+00 -0.93918828752E+03  0.93918828754E+03  0.50400001928E-02 0. -1.
    10030    2    1    2    0    0  0.00000000000E+00  0.00000000000E+00  0.22241278814E+03  0.21007893632E+04  0.20889826472E+04 0.  0.
        1    1    3    3  502    0  0.34289392387E+03 -0.53320863073E+03 -0.72359035138E+03  0.96201386869E+03  0.50400001928E-02 0. -1.
       -1    1    3    3    0  502 -0.34289392387E+03  0.53320863073E+03  0.94600313952E+03  0.11387754945E+04  0.50400001928E-02 0.  1.
</event>
<event>
 5   0  0.5933905E-05  0.2023994E+04  0.7818609E-02  0.8595484E-01
       -1   -1    0    0    0  501  0.00000000000E+00  0.00000000000E+00  0.71770176456E+03  0.71770176458E+03  0.50400001928E-02 0.  1.
        1   -1    0    0  501    0  0.00000000000E+00  0.00000000000E+00 -0.14269686273E+04  0.14269686273E+04  0.50400001928E-02 0. -1.
    10030    2    1    2    0    0  0.00000000000E+00  0.00000000000E+00 -0.70926686274E+03  0.21446703919E+04  0.20239939741E+04 0.  0.
        2    1    3    3  502    0  0.65335792196E+02 -0.93263572271E+03  0.55838479164E+02  0.93658747203E+03  0.25500000920E-02 0.  1.
       -2    1    3    3    0  502 -0.65335792196E+02  0.93263572271E+03 -0.76510534191E+03  0.12080829198E+04  0.25500000920E-02 0. -1.
</event>
<event>
 5   0  0.6052292E-05  0.2119362E+04  0.7818609E-02  0.8552762E-01
        1   -1    0    0  501    0  0.00000000000E+00  0.00000000000E+00  0.20349539879E+04  0.20349539879E+04  0.50400001928E-02 0. -1.
       -1   -1    0    0    0  501  0.00000000000E+00  0.00000000000E+00 -0.55181796317E+03  0.55181796319E+03  0.50400001928E-02 0.  1.
    10030    2    1    2    0    0  0.00000000000E+00  0.00000000000E+00  0.14831360247E+04  0.25867719511E+04  0.21193623237E+04 0.  0.
        1    1    3    3  502    0  0.68910204480E+03  0.52438030728E+03  0.14870865982E+04  0.17208320329E+04  0.50400001928E-02 0. -1.
       -1    1    3    3    0  502 -0.68910204480E+03 -0.52438030728E+03 -0.39505735274E+01  0.86593991816E+03  0.50400001928E-02 0.  1.
</event>
<event>
 5   0  0.1235817E-04  0.2126707E+04  0.7818609E-02  0.8549569E-01
       -2   -1    0    0    0  501  0.00000000000E+00  0.00000000000E+00  0.39504214313E+03  0.39504214314E+03  0.25500000920E-02 0.  1.
        2   -1    0    0  501    0  0.00000000000E+00  0.00000000000E+00 -0.28622797935E+04  0.28622797935E+04  0.25500000920E-02 0. -1.
    10030    2    1    2    0    0  0.00000000000E+00  0.00000000000E+00 -0.24672376504E+04  0.32573219367E+04  0.21267074495E+04 0.  0.
        1    1    3    3  502    0  0.73026121642E+03 -0.30552887497E+03 -0.23210649523E+04  0.24523400764E+04  0.50400001928E-02 0. -1.
       -1    1    3    3    0  502 -0.73026121642E+03  0.30552887497E+03 -0.14617269812E+03  0.80498186026E+03  0.50400001928E-02 0.  1.
</event>
<event>
 5   0  0.6221148E-05  0.2108808E+04  0.7818609E-02  0.8557373E-01
       -1   -1    0    0    0  501  0.00000000000E+00  0.00000000000E+00  0.94384411786E+03  0.94384411787E+03  0.50400001928E-02 0. -1.
        1   -1    0    0  501    0  0.00000000000E+00  0.00000000000E+00 -0.11779148568E+04  0.11779148568E+04  0.50400001928E-02 0.  1.
    10030    2    1    2    0    0  0.00000000000E+00  0.00000000000E+00 -0.23407073898E+03  0.21217589747E+04  0.21088082027E+04 0.  0.
        3    1    3    3  502    0 -0.75197965558E+03 -0.35212028265E+03  0.53680621991E+03  0.98874821051E+03  0.10100000352E+00 0. -1.
       -3    1    3    3    0  502  0.75197965558E+03  0.35212028265E+03 -0.77087695890E+03  0.11330107642E+04  0.10100000352E+00 0.  1.
</event>
<event>
 5   0  0.1252477E-04  0.1782312E+04  0.7818609E-02  0.8715763E-01
       -2   -1    0    0    0  501  0.00000000000E+00  0.00000000000E+00  0.14003158324E+04  0.14003158324E+04  0.25500000920E-02 0. -1.
        2   -1    0    0  501    0  0.00000000000E+00  0.00000000000E+00 -0.56712826434E+03  0.56712826434E+03  0.25500000920E-02 0.  1.
    10030    2    1    2    0    0  0.00000000000E+00  0.00000000000E+00  0.83318756804E+03  0.19674440967E+04  0.17823116311E+04 0.  0.
        4    1    3    3  502    0 -0.27897048514E+03  0.68849282907E+03  0.95997494663E+03  0.12138370642E+04  0.12699999809E+01 0.  1.
       -4    1    3    3    0  502  0.27897048514E+03 -0.68849282907E+03 -0.12678737859E+03  0.75360703257E+03  0.12699999809E+01 0. -1.
</event>
<event>
 5   0  0.1281470E-04  0.2125581E+04  0.7818609E-02  0.8550058E-01
       -2   -1    0    0    0  501  0.00000000000E+00  0.00000000000E+00  0.87904625272E+03  0.87904625272E+03  0.25500000920E-02 0.  1.
        2   -1    0    0  501    0  0.00000000000E+00  0.00000000000E+00 -0.12849427020E+04  0.12849427020E+04  0.25500000920E-02 0. -1.
    10030    2    1    2    0    0  0.00000000000E+00  0.00000000000E+00 -0.40589644924E+03  0.21639889547E+04  0.21255813954E+04 0.  0.
        3    1    3    3  502    0 -0.71332847092E+03  0.14643451482E+03  0.58514747762E+03  0.93417244410E+03  0.10100000352E+00 0.  1.
       -3    1    3    3    0  502  0.71332847092E+03 -0.14643451482E+03 -0.99104392686E+03  0.12298165106E+04  0.10100000352E+00 0. -1.
</event>
<event>
 5   0  0.1349252E-04  0.2096407E+04  0.7818609E-02  0.8562828E-01
       -2   -1    0    0    0  501  0.00000000000E+00  0.00000000000E+00  0.12329612686E+04  0.12329612686E+04  0.25500000920E-02 0. -1.
        2   -1    0    0  501    0  0.00000000000E+00  0.00000000000E+00 -0.89113144592E+03  0.89113144592E+03  0.25500000920E-02 0.  1.
    10030    2    1    2    0    0  0.00000000000E+00  0.00000000000E+00  0.34182982270E+03  0.21240927145E+04  0.20964069815E+04 0.  0.
        2    1    3    3  502    0  0.10600132148E+03 -0.44759743588E+03 -0.78341074466E+03  0.90846691718E+03  0.25500000920E-02 0.  1.
       -2    1    3    3    0  502 -0.10600132148E+03  0.44759743588E+03  0.11252405674E+04  0.12156257974E+04  0.25500000920E-02 0. -1.
</event>
<event>
 5   0  0.5846187E-05  0.2109042E+04  0.7818609E-02  0.8557271E-01
       -1   -1    0    0    0  501  0.00000000000E+00  0.00000000000E+00  0.13752001320E+04  0.13752001320E+04  0.50400001928E-02 0. -1.
        1   -1    0    0  501    0  0.00000000000E+00  0.00000000000E+00 -0.80861995617E+03  0.80861995618E+03  0.50400001928E-02 0.  1.
    10030    2    1    2    0    0  0.00000000000E+00  0.00000000000E+00  0.56658017583E+03  0.21838200882E+04  0.21090417449E+04 0.  0.
        5    1    3    3  502    0 -0.85617529569E+03  0.29117165066E+03  0.84489984634E+03  0.12376166238E+04  0.46999998093E+01 0. -1.
       -5    1    3    3    0  502  0.85617529569E+03 -0.29117165066E+03 -0.27831967051E+03  0.94620346442E+03  0.46999998093E+01 0.  1.
</event>
<event>
 5   0  0.6052292E-05  0.1987946E+04  0.7818609E-02  0.8612277E-01
        1   -1    0    0  501    0  0.00000000000E+00  0.00000000000E+00  0.17152378665E+04  0.17152378665E+04  0.50400001928E-02 0.  1.
       -1   -1    0    0    0  501  0.00000000000E+00  0.00000000000E+00 -0.57600290058E+03  0.57600290060E+03  0.50400001928E-02 0. -1.
    10030    2    1    2    0    0  0.00000000000E+00  0.00000000000E+00  0.11392349659E+04  0.22912407671E+04  0.19879456595E+04 0.  0.
        1    1    3    3  502    0  0.16554645969E+03 -0.21095548185E+03  0.16727597655E+04  0.16941171975E+04  0.50400001928E-02 0.  1.
       -1    1    3    3    0  502 -0.16554645969E+03  0.21095548185E+03 -0.53352479958E+03  0.59712356965E+03  0.50400001928E-02 0. -1.
</event>
<event>
 5   0  0.1252477E-04  0.1819283E+04  0.7818609E-02  0.8696112E-01
        2   -1    0    0  501    0  0.00000000000E+00  0.00000000000E+00  0.12902530119E+04  0.12902530119E+04  0.25500000920E-02 0.  1.
       -2   -1    0    0    0  501  0.00000000000E+00  0.00000000000E+00 -0.64130641787E+03  0.64130641788E+03  0.25500000920E-02 0. -1.
    10030    2    1    2    0    0  0.00000000000E+00  0.00000000000E+00  0.64894659402E+03  0.19315594298E+04  0.18192828666E+04 0.  0.
        4    1    3    3  502    0 -0.42053310084E+03 -0.51445441996E+03  0.98404898450E+03  0.11873775541E+04  0.12699999809E+01 0.  1.
       -4    1    3    3    0  502  0.42053310084E+03  0.51445441996E+03 -0.33510239048E+03  0.74418187570E+03  0.12699999809E+01 0. -1.
</event>
<event>
 5   0  0.1252477E-04  0.2113938E+04  0.7818609E-02  0.8555128E-01
        2   -1    0    0  501    0  0.00000000000E+00  0.00000000000E+00  0.24650596501E+04  0.24650596501E+04  0.25500000920E-02 0. -1.
       -2   -1    0    0    0  501  0.00000000000E+00  0.00000000000E+00 -0.45320754155E+03  0.45320754156E+03  0.25500000920E-02 0.  1.
    10030    2    1    2    0    0  0.00000000000E+00  0.00000000000E+00  0.20118521085E+04  0.29182671916E+04  0.21139381484E+04 0.  0.
        4    1    3    3  502    0 -0.43012574456E+03  0.76019642211E+03  0.18424516566E+03  0.89266715538E+03  0.12699999809E+01 0.  1.
       -4    1    3    3    0  502  0.43012574456E+03 -0.76019642211E+03  0.18276069429E+04  0.20256000363E+04  0.12699999809E+01 0. -1.
</event>
<event>
 5   0  0.1325673E-04  0.2096542E+04  0.7818609E-02  0.8562768E-01
       -2   -1    0    0    0  501  0.00000000000E+00  0.00000000000E+00  0.11787450612E+04  0.11787450612E+04  0.25500000920E-02 0.  1.
        2   -1    0    0  501    0  0.00000000000E+00  0.00000000000E+00 -0.93223882036E+03  0.93223882036E+03  0.25500000920E-02 0. -1.
    10030    2    1    2    0    0  0.00000000000E+00  0.00000000000E+00  0.24650624086E+03  0.21109838816E+04  0.20965418244E+04 0.  0.
        5    1    3    3  502    0  0.40033424260E+03  0.87818729425E+03  0.53517930357E+03  0.11035938594E+04  0.46999998093E+01 0.  1.
       -5    1    3    3    0  502 -0.40033424260E+03 -0.87818729425E+03 -0.28867306271E+03  0.10073900221E+04  0.46999998093E+01 0. -1.
</event>
<event>
 5   0  0.1281470E-04  0.2124183E+04  0.7818609E-02  0.8550665E-01
       -2   -1    0    0    0  501  0.00000000000E+00  0.00000000000E+00  0.37961319133E+03  0.37961319134E+03  0.25500000920E-02 0. -1.
        2   -1    0    0  501    0  0.00000000000E+00  0.00000000000E+00 -0.29715479729E+04  0.29715479729E+04  0.25500000920E-02 0.  1.
    10030    2    1    2    0    0  0.00000000000E+00  0.00000000000E+00 -0.25919347815E+04  0.33511611642E+04  0.21241834282E+04 0.  0.
        3    1    3    3  502    0  0.10385635289E+04 -0.19352280098E+03 -0.14685965826E+04  0.18090995580E+04  0.10100000352E+00 0. -1.
       -3    1    3    3    0  502 -0.10385635289E+04  0.19352280098E+03 -0.11233381989E+04  0.15420616062E+04  0.10100000352E+00 0.  1.
</event>
<event>
 5   0  0.1252477E-04  0.2106034E+04  0.7818609E-02  0.8558590E-01
        2   -1    0    0  501    0  0.00000000000E+00  0.00000000000E+00  0.14953644970E+04  0.14953644970E+04  0.25500000920E-02 0.  1.
       -2   -1    0    0    0  501  0.00000000000E+00  0.00000000000E+00 -0.74152131984E+03  0.74152131985E+03  0.25500000920E-02 0. -1.
    10030    2    1    2    0    0  0.00000000000E+00  0.00000000000E+00  0.75384317711E+03  0.22368858168E+04  0.21060338605E+04 0.  0.
        4    1    3    3  502    0 -0.65375038398E+03 -0.50905019640E+03 -0.31331821236E+03  0.88582818994E+03  0.12699999809E+01 0.  1.
       -4    1    3    3    0  502  0.65375038398E+03  0.50905019640E+03  0.10671613895E+04  0.13510576269E+04  0.12699999809E+01 0. -1.
</event>
<event>
 5   0  0.5846187E-05  0.2132013E+04  0.7818609E-02  0.8547271E-01
       -1   -1    0    0    0  501  0.00000000000E+00  0.00000000000E+00  0.51277170105E+03  0.51277170107E+03  0.50400001928E-02 0.  1.
        1   -1    0    0  501    0  0.00000000000E+00  0.00000000000E+00 -0.22161326153E+04  0.22161326153E+04  0.50400001928E-02 0. -1.
    10030    2    1    2    0    0  0.00000000000E+00  0.00000000000E+00 -0.17033609142E+04  0.27289043163E+04  0.21320132185E+04 0.  0.
        5    1    3    3  502    0  0.13666200299E+03 -0.41751555560E+03 -0.20948643141E+04  0.21404378820E+04  0.46999998093E+01 0. -1.
       -5    1    3    3    0  502 -0.13666200299E+03  0.41751555560E+03  0.39150339988E+03  0.58846643434E+03  0.46999998093E+01 0.  1.
</event>
<event>
 5   0  0.5933905E-05  0.2082907E+04  0.7818609E-02  0.8568811E-01
        1   -1    0    0  501    0  0.00000000000E+00  0.00000000000E+00  0.56579339465E+03  0.56579339467E+03  0.50400001928E-02 0. -1.
       -1   -1    0    0    0  501  0.00000000000E+00  0.00000000000E+00 -0.19169990576E+04  0.19169990576E+04  0.50400001928E-02 0.  1.
    10030    2    1    2    0    0  0.00000000000E+00  0.00000000000E+00 -0.13512056630E+04  0.24827924523E+04  0.20829070112E+04 0.  0.
        2    1    3    3  502    0 -0.71674530599E+03  0.53478534765E+03 -0.39362073621E+02  0.89513606483E+03  0.25500000920E-02 0. -1.
       -2    1    3    3    0  502  0.71674530599E+03 -0.53478534765E+03 -0.13118435893E+04  0.15876563874E+04  0.25500000920E-02 0.  1.
</event>
<event>
 5   0  0.1252477E-04  0.2112262E+04  0.7818609E-02  0.8555861E-01
        2   -1    0    0  501    0  0.00000000000E+00  0.00000000000E+00  0.21890515797E+04  0.21890515797E+04  0.25500000920E-02 0. -1.
       -2   -1    0    0    0  501  0.00000000000E+00  0.00000000000E+00 -0.50954162328E+03  0.50954162329E+03  0.25500000920E-02 0.  1.
    10030    2    1    2    0    0  0.00000000000E+00  0.00000000000E+00  0.16795099564E+04  0.26985932030E+04  0.21122621953E+04 0.  0.
        4    1    3    3  502    0  0.20299903413E+03  0.46287793347E+03  0.20245012791E+04  0.20866412320E+04  0.12699999809E+01 0. -1.
       -4    1    3    3    0  502 -0.20299903413E+03 -0.46287793347E+03 -0.34499132268E+03  0.61195197097E+03  0.12699999809E+01 0.  1.
</event>
<event>
 5   0  0.1281470E-04  0.2079384E+04  0.7818609E-02  0.8570380E-01
       -2   -1    0    0    0  501  0.00000000000E+00  0.00000000000E+00  0.88984186056E+03  0.88984186056E+03  0.25500000920E-02 0. -1.
        2   -1    0    0  501    0  0.00000000000E+00  0.00000000000E+00 -0.12147772019E+04  0.12147772019E+04  0.25500000920E-02 0.  1.
    10030    2    1    2    0    0  0.00000000000E+00  0.00000000000E+00 -0.32493534130E+03  0.21046190624E+04  0.20793841449E+04 0.  0.
        3    1    3    3  502    0  0.89986094670E+02  0.31437170478E+03  0.83644035396E+03  0.89808660047E+03  0.10100000352E+00 0. -1.
       -3    1    3    3    0  502 -0.89986094670E+02 -0.31437170478E+03 -0.11613756953E+04  0.12065324620E+04  0.10100000352E+00 0.  1.
</event>
<event>
 5   0  0.4615125E-05  0.2053587E+04  0.7818609E-02  0.8581969E-01
        3   -1    0    0  501    0  0.00000000000E+00  0.00000000000E+00  0.12560724340E+04  0.12560724381E+04  0.10100000352E+00 0. -1.
       -3   -1    0    0    0  501  0.00000000000E+00  0.00000000000E+00 -0.83936624064E+03  0.83936624672E+03  0.10100000352E+00 0.  1.
    10030    2    1    2    0    0  0.00000000000E+00  0.00000000000E+00  0.41670619340E+03  0.20954386848E+04  0.20535869181E+04 0.  0.
        2    1    3    3  502    0 -0.41590496159E+03  0.34561426982E+03 -0.68229218019E+03  0.87060253833E+03  0.25500000920E-02 0.  1.
       -2    1    3    3    0  502  0.41590496159E+03 -0.34561426982E+03  0.10989983736E+04  0.12248361465E+04  0.25500000920E-02 0. -1.
</event>
<event>
 5   0  0.1349252E-04  0.2133418E+04  0.7818609E-02  0.8546664E-01
        2   -1    0    0  501    0  0.00000000000E+00  0.00000000000E+00  0.13210063868E+04  0.13210063868E+04  0.25500000920E-02 0.  1.
       -2   -1    0    0    0  501  0.00000000000E+00  0.00000000000E+00 -0.86136458091E+03  0.86136458091E+03  0.25500000920E-02 0. -1.
    10030    2    1    2    0    0  0.00000000000E+00  0.00000000000E+00  0.45964180586E+03  0.21823709677E+04  0.21334180207E+04 0.  0.
        2    1    3    3  502    0  0.41817767189E+03 -0.69497882648E+03  0.93853851467E+03  0.12404526102E+04  0.25500000920E-02 0.  1.
       -2    1    3    3    0  502 -0.41817767189E+03  0.69497882648E+03 -0.47889670881E+03  0.94191835753E+03  0.25500000920E-02 0. -1.
</event>
<event>
 5   0  0.1252477E-04  0.2069435E+04  0.7818609E-02  0.8574828E-01
       -2   -1    0    0    0  501  0.00000000000E+00  0.00000000000E+00  0.97765153902E+03  0.97765153902E+03  0.25500000920E-02 0.  1.
        2   -1    0    0  501    0  0.00000000000E+00  0.00000000000E+00 -0.10951142216E+04  0.10951142216E+04  0.25500000920E-02 0. -1.
    10030    2    1    2    0    0  0.00000000000E+00  0.00000000000E+00 -0.11746268258E+03  0.20727657606E+04  0.20694348061E+04 0.  0.
        4    1    3    3  502    0  0.86363048369E+03 -0.26781336356E+03  0.44512595559E+03  0.10078295190E+04  0.12699999809E+01 0.  1.
       -4    1    3    3    0  502 -0.86363048369E+03  0.26781336356E+03 -0.56258863818E+03  0.10649362416E+04  0.12699999809E+01 0. -1.
</event>
<event>
 5   0  0.6052292E-05  0.2456606E+04  0.7818609E-02  0.8418610E-01
       -1   -1    0    0    0  501  0.00000000000E+00  0.00000000000E+00  0.20997927974E+04  0.20997927974E+04  0.50400001928E-02 0.  1.
        1   -1    0    0  501    0  0.00000000000E+00  0.00000000000E+00 -0.71851291698E+03  0.71851291700E+03  0.50400001928E-02 0. -1.
    10030    2    1    2    0    0  0.00000000000E+00  0.00000000000E+00  0.13812798805E+04  0.28183057144E+04  0.24566059904E+04 0.  0.
        1    1    3    3  502    0  0.77222573726E+03  0.91453498615E+03  0.37432436489E+03  0.12541234231E+04  0.50400001928E-02 0. -1.
       -1    1    3    3    0  502 -0.77222573726E+03 -0.91453498615E+03  0.10069555156E+04  0.15641822913E+04  0.50400001928E-02 0.  1.
</event>
<event>
 5   0  0.1349252E-04  0.2095271E+04  0.7818609E-02  0.8563329E-01
        2   -1    0    0  501    0  0.00000000000E+00  0.00000000000E+00  0.18781779550E+04  0.18781779550E+04  0.25500000920E-02 0. -1.
       -2   -1    0    0    0  501  0.00000000000E+00  0.00000000000E+00 -0.58436452081E+03  0.58436452081E+03  0.25500000920E-02 0.  1.
    10030    2    1    2    0    0  0.00000000000E+00  0.00000000000E+00  0.12938134342E+04  0.24625424758E+04  0.20952714007E+04 0.  0.
        2    1    3    3  502    0 -0.36853953189E+02 -0.10416383972E+04  0.52268287799E+03  0.11660043548E+04  0.25500000920E-02 0. -1.
       -2    1    3    3    0  502  0.36853953189E+02  0.10416383972E+04  0.77113055617E+03  0.12965381210E+04  0.25500000920E-02 0.  1.
</event>
<event>
 5   0  0.5846187E-05  0.2113491E+04  0.7818609E-02  0.8555323E-01
       -1   -1    0    0    0  501  0.00000000000E+00  0.00000000000E+00  0.13833223641E+04  0.13833223641E+04  0.50400001928E-02 0.  1.
        1   -1    0    0  501    0  0.00000000000E+00  0.00000000000E+00 -0.80726775120E+03  0.80726775122E+03  0.50400001928E-02 0. -1.
    10030    2    1    2    0    0  0.00000000000E+00  0.00000000000E+00  0.57605461290E+03  0.21905901153E+04  0.21134914564E+04 0.  0.
        5    1    3    3  502    0  0.13286092596E+03  0.35327721413E+03  0.13110657701E+04  0.13643212082E+04  0.46999998093E+01 0.  1.
       -5    1    3    3    0  502 -0.13286092596E+03 -0.35327721413E+03 -0.73501115719E+03  0.82626890712E+03  0.46999998093E+01 0. -1.
</event>
<event>
 5   0  0.6221148E-05  0.2157090E+04  0.7818609E-02  0.8536503E-01
       -1   -1    0    0    0  501  0.00000000000E+00  0.00000000000E+00  0.13911636274E+04  0.13911636274E+04  0.50400001928E-02 0.  1.
        1   -1    0    0  501    0  0.00000000000E+00  0.00000000000E+00 -0.83617721004E+03  0.83617721005E+03  0.50400001928E-02 0. -1.
    10030    2    1    2    0    0  0.00000000000E+00  0.00000000000E+00  0.55498641734E+03  0.22273408374E+04  0.21570900034E+04 0.  0.
        3    1    3    3  502    0  0.43551773346E+03  0.88200305943E+03 -0.17924045285E+03  0.99986611260E+03  0.10100000352E+00 0. -1.
       -3    1    3    3    0  502 -0.43551773346E+03 -0.88200305943E+03  0.73422687018E+03  0.12274747248E+04  0.10100000352E+00 0.  1.
</event>
<event>
 5   0  0.1325673E-04  0.2107420E+04  0.7818609E-02  0.8557982E-01
       -2   -1    0    0    0  501  0.00000000000E+00  0.00000000000E+00  0.65098402709E+03  0.65098402709E+03  0.25500000920E-02 0. -1.
        2   -1    0    0  501    0  0.00000000000E+00  0.00000000000E+00 -0.17055790205E+04  0.17055790205E+04  0.25500000920E-02 0.  1.
    10030    2    1    2    0    0  0.00000000000E+00  0.00000000000E+00 -0.10545949935E+04  0.23565630476E+04  0.21074199385E+04 0.  0.
        5    1    3    3  502    0 -0.37988819014E+03  0.31141651729E+03 -0.15696982096E+04  0.16447704532E+04  0.46999998093E+01 0.  1.
       -5    1    3    3    0  502  0.37988819014E+03 -0.31141651729E+03  0.51510321618E+03  0.71179259448E+03  0.46999998093E+01 0. -1.
</event>
<event>
 5   0  0.5846187E-05  0.2145485E+04  0.7818609E-02  0.8541467E-01
        1   -1    0    0  501    0  0.00000000000E+00  0.00000000000E+00  0.14969229736E+04  0.14969229736E+04  0.50400001928E-02 0. -1.
       -1   -1    0    0    0  501  0.00000000000E+00  0.00000000000E+00 -0.76876130265E+03  0.76876130267E+03  0.50400001928E-02 0.  1.
    10030    2    1    2    0    0  0.00000000000E+00  0.00000000000E+00  0.72816167091E+03  0.22656842762E+04  0.21454849849E+04 0.  0.
        5    1    3    3  502    0 -0.94127720734E+03 -0.50065556012E+03  0.23870449033E+03  0.10925477997E+04  0.46999998093E+01 0. -1.
       -5    1    3    3    0  502  0.94127720734E+03  0.50065556012E+03  0.48945718058E+03  0.11731364765E+04  0.46999998093E+01 0.  1.
</event>
<event>
 5   0  0.1281470E-04  0.2173256E+04  0.7818609E-02  0.8529643E-01
        2   -1    0    0  501    0  0.00000000000E+00  0.00000000000E+00  0.29114352240E+04  0.29114352240E+04  0.25500000920E-02 0.  1.
       -2   -1    0    0    0  501  0.00000000000E+00  0.00000000000E+00 -0.40555966006E+03  0.40555966006E+03  0.25500000920E-02 0. -1.
    10030    2    1    2    0    0  0.00000000000E+00  0.00000000000E+00  0.25058755639E+04  0.33169948840E+04  0.21732562479E+04 0.  0.
        3    1    3    3  502    0 -0.81941534799E+03  0.71366057951E+03  0.12571824427E+04  0.16617041372E+04  0.10100000352E+00 0.  1.
       -3    1    3    3    0  502  0.81941534799E+03 -0.71366057951E+03  0.12486931212E+04  0.16552907468E+04  0.10100000352E+00 0. -1.
</event>
<event>
 5   0  0.6052292E-05  0.2057988E+04  0.7818609E-02  0.8579979E-01
       -1   -1    0    0    0  501  0.00000000000E+00  0.00000000000E+00  0.75080445043E+03  0.75080445044E+03  0.50400001928E-02 0.  1.
        1   -1    0    0  501    0  0.00000000000E+00  0.00000000000E+00 -0.14102590106E+04  0.14102590106E+04  0.50400001928E-02 0. -1.
    10030    2    1    2    0    0  0.00000000000E+00  0.00000000000E+00 -0.65945456018E+03  0.21610634611E+04  0.20579880869E+04 0.  0.
        1    1    3    3  502    0  0.87363356788E+03  0.43258230733E+03 -0.67556378334E+03  0.11860647069E+04  0.50400001928E-02 0. -1.
       -1    1    3    3    0  502 -0.87363356788E+03 -0.43258230733E+03  0.16109223165E+02  0.97499875417E+03  0.50400001928E-02 0.  1.
</event>
<event>
 5   0  0.5846187E-05  0.2071326E+04  0.7818609E-02  0.8573981E-01
        1   -1    0    0  501    0  0.00000000000E+00  0.00000000000E+00  0.91311389032E+03  0.91311389033E+03  0.50400001928E-02 0. -1.
       -1   -1    0    0    0  501  0.00000000000E+00  0.00000000000E+00 -0.11746599734E+04  0.11746599734E+04  0.50400001928E-02 0.  1.
    10030    2    1    2    0    0  0.00000000000E+00  0.00000000000E+00 -0.26154608306E+03  0.20877738637E+04  0.20713264717E+04 0.  0.
        5    1    3    3  502    0 -0.91888728446E+03  0.75939151083E+02  0.34462416242E+03  0.98433149880E+03  0.46999998093E+01 0. -1.
       -5    1    3    3    0  502  0.91888728446E+03 -0.75939151083E+02 -0.60617024549E+03  0.11034423649E+04  0.46999998093E+01 0.  1.
</event>
<event>
 5   0  0.1281470E-04  0.2123862E+04  0.7818609E-02  0.8550804E-01
       -2   -1    0    0    0  501  0.00000000000E+00  0.00000000000E+00  0.14039762044E+04  0.14039762044E+04  0.25500000920E-02 0. -1.
        2   -1    0    0  501    0  0.00000000000E+00  0.00000000000E+00 -0.80321678619E+03  0.80321678619E+03  0.25500000920E-02 0.  1.
    10030    2    1    2    0    0  0.00000000000E+00  0.00000000000E+00  0.60075941821E+03  0.22071929906E+04  0.21238618173E+04 0.  0.
        3    1    3    3  502    0  0.57990991890E+03 -0.56625001144E+03 -0.41266219426E+03  0.90951893123E+03  0.10100000352E+00 0.  1.
       -3    1    3    3    0  502 -0.57990991890E+03  0.56625001144E+03  0.10134216125E+04  0.12976740594E+04  0.10100000352E+00 0. -1.
</event>
<event>
 5   0  0.1325673E-04  0.2111933E+04  0.7818609E-02  0.8556005E-01
        2   -1    0    0  501    0  0.00000000000E+00  0.00000000000E+00  0.24266425808E+04  0.24266425808E+04  0.25500000920E-02 0. -1.
       -2   -1    0    0    0  501  0.00000000000E+00  0.00000000000E+00 -0.45950949689E+03  0.45950949689E+03  0.25500000920E-02 0.  1.
    10030    2    1    2    0    0  0.00000000000E+00  0.00000000000E+00  0.19671330839E+04  0.28861520777E+04  0.21119330590E+04 0.  0.
        5    1    3    3  502    0  0.22926428858E+03 -0.68984867090E+03 -0.63095224841E+02  0.72969610123E+03  0.46999998093E+01 0.  1.
       -5    1    3    3    0  502 -0.22926428858E+03  0.68984867090E+03  0.20302283087E+04  0.21564559765E+04  0.46999998093E+01 0. -1.
</event>
<event>
 5   0  0.1325673E-04  0.1974366E+04  0.7818609E-02  0.8618700E-01
        2   -1    0    0  501    0  0.00000000000E+00  0.00000000000E+00  0.74625497939E+03  0.74625497940E+03  0.25500000920E-02 0.  1.
       -2   -1    0    0    0  501  0.00000000000E+00  0.00000000000E+00 -0.13058946748E+04  0.13058946748E+04  0.25500000920E-02 0. -1.
    10030    2    1    2    0    0  0.00000000000E+00  0.00000000000E+00 -0.55963969539E+03  0.20521496542E+04  0.19743661298E+04 0.  0.
        5    1    3    3  502    0 -0.12135574588E+03  0.32754683195E+03  0.67986148094E+03  0.76436108446E+03  0.46999998093E+01 0.  1.
       -5    1    3    3    0  502  0.12135574588E+03 -0.32754683195E+03 -0.12395011763E+04  0.12877885697E+04  0.46999998093E+01 0. -1.
</event>
<event>
 5   0  0.6263616E-05  0.2103134E+04  0.7818609E-02  0.8559864E-01
        1   -1    0    0  501    0  0.00000000000E+00  0.00000000000E+00  0.15136813354E+04  0.15136813355E+04  0.50400001928E-02 0.  1.
       -1   -1    0    0    0  501  0.00000000000E+00  0.00000000000E+00 -0.73053234586E+03  0.73053234587E+03  0.50400001928E-02 0. -1.
    10030    2    1    2    0    0  0.00000000000E+00  0.00000000000E+00  0.78314898959E+03  0.22442136813E+04  0.21031340204E+04 0.  0.
        4    1    3    3  502    0  0.31811424999E+03 -0.98142704725E+03  0.60868238196E+03  0.11978696006E+04  0.12699999809E+01 0.  1.
       -4    1    3    3    0  502 -0.31811424999E+03  0.98142704725E+03  0.17446660763E+03  0.10463440807E+04  0.12699999809E+01 0. -1.
</event>
<event>
 5   0  0.5846187E-05  0.2142945E+04  0.7818609E-02  0.8542558E-01
        1   -1    0    0  501    0  0.00000000000E+00  0.00000000000E+00  0.88563841518E+03  0.88563841519E+03  0.50400001928E-02 0. -1.
       -1   -1    0    0    0  501  0.00000000000E+00  0.00000000000E+00 -0.12963003200E+04  0.12963003200E+04  0.50400001928E-02 0.  1.
    10030    2    1    2    0    0  0.00000000000E+00  0.00000000000E+00 -0.41066190485E+03  0.21819387352E+04  0.21429450399E+04 0.  0.
        5    1    3    3  502    0  0.89939704554E+03 -0.98249063041E+02  0.37910250802E+03  0.98097335616E+03  0.46999998093E+01 0. -1.
       -5    1    3    3    0  502 -0.89939704554E+03  0.98249063041E+02 -0.78976441286E+03  0.12009653791E+04  0.46999998093E+01 0.  1.
</event>
<event>
 5   0  0.6263616E-05  0.2123613E+04  0.7818609E-02  0.8550912E-01
       -1   -1    0    0    0  501  0.00000000000E+00  0.00000000000E+00  0.60313608938E+03  0.60313608940E+03  0.50400001928E-02 0. -1.
        1   -1    0    0  501    0  0.00000000000E+00  0.00000000000E+00 -0.18692853504E+04  0.18692853504E+04  0.50400001928E-02 0.  1.
    10030    2    1    2    0    0  0.00000000000E+00  0.00000000000E+00 -0.12661492610E+04  0.24724214398E+04  0.21236133887E+04 0.  0.
        4    1    3    3  502    0 -0.80598623052E+03 -0.67067670765E+03 -0.43822043978E+03  0.11364241359E+04  0.12699999809E+01 0. -1.
       -4    1    3    3    0  502  0.80598623052E+03  0.67067670765E+03 -0.82792882120E+03  0.13359973038E+04  0.12699999809E+01 0.  1.
</event>
<event>
 5   0  0.6221148E-05  0.2110724E+04  0.7818609E-02  0.8556534E-01
        1   -1    0    0  501    0  0.00000000000E+00  0.00000000000E+00  0.95640031188E+03  0.95640031190E+03  0.50400001928E-02 0.  1.
       -1   -1    0    0    0  501  0.00000000000E+00  0.00000000000E+00 -0.11645633966E+04  0.11645633966E+04  0.50400001928E-02 0. -1.
    10030    2    1    2    0    0  0.00000000000E+00  0.00000000000E+00 -0.20816308471E+03  0.21209637085E+04  0.21107238528E+04 0.  0.
        3    1    3    3  502    0 -0.71516011868E+03 -0.65246278247E+02  0.67302511412E+03  0.98421231785E+03  0.10100000352E+00 0.  1.
       -3    1    3    3    0  502  0.71516011868E+03  0.65246278247E+02 -0.88118819883E+03  0.11367513906E+04  0.10100000352E+00 0. -1.
</event>
<event>
 5   0  0.6263616E-05  0.2108740E+04  0.7818609E-02  0.8557403E-01
       -1   -1    0    0    0  501  0.00000000000E+00  0.00000000000E+00  0.71201147343E+03  0.71201147345E+03  0.50400001928E-02 0.  1.
        1   -1    0    0  501    0  0.00000000000E+00  0.00000000000E+00 -0.15613460947E+04  0.15613460947E+04  0.50400001928E-02 0. -1.
    10030    2    1    2    0    0  0.00000000000E+00  0.00000000000E+00 -0.84933462130E+03  0.22733575682E+04  0.21087402244E+04 0.  0.
        4    1    3    3  502    0 -0.93162893489E+03 -0.21533011028E+03 -0.90364242784E+03  0.13156256227E+04  0.12699999809E+01 0. -1.
       -4    1    3    3    0  502  0.93162893489E+03  0.21533011028E+03  0.54307806547E+02  0.95773194552E+03  0.12699999809E+01 0.  1.
</event>
<event>
 5   0  0.1281470E-04  0.2069642E+04  0.7818609E-02  0.8574736E-01
       -2   -1    0    0    0  501  0.00000000000E+00  0.00000000000E+00  0.51644063076E+03  0.51644063076E+03  0.25500000920E-02 0.  1.
        2   -1    0    0  501    0  0.00000000000E+00  0.00000000000E+00 -0.20735277726E+04  0.20735277726E+04  0.25500000920E-02 0. -1.
    10030    2    1    2    0    0  0.00000000000E+00  0.00000000000E+00 -0.15570871418E+04  0.25899684033E+04  0.20696415059E+04 0.  0.
        3    1    3    3  502    0 -0.29299312173E+03 -0.86559197032E+03 -0.13861662697E+04  0.16602865313E+04  0.10100000352E+00 0. -1.
       -3    1    3    3    0  502  0.29299312173E+03  0.86559197032E+03 -0.17092087207E+03  0.92968187203E+03  0.10100000352E+00 0.  1.
</event>
<event>
 5   0  0.1325673E-04  0.2119768E+04  0.7818609E-02  0.8552585E-01
        2   -1    0    0  501    0  0.00000000000E+00  0.00000000000E+00  0.11078149649E+04  0.11078149649E+04  0.25500000920E-02 0.  1.
       -2   -1    0    0    0  501  0.00000000000E+00  0.00000000000E+00 -0.10140271198E+04  0.10140271198E+04  0.25500000920E-02 0. -1.
    10030    2    1    2    0    0  0.00000000000E+00  0.00000000000E+00  0.93787845132E+02  0.21218420846E+04  0.21197683063E+04 0.  0.
        5    1    3    3  502    0 -0.63432820343E+02 -0.25368358219E+03  0.10750079171E+04  0.11063648559E+04  0.46999998093E+01 0.  1.
       -5    1    3    3    0  502  0.63432820343E+02  0.25368358219E+03 -0.98122007194E+03  0.10154772288E+04  0.46999998093E+01 0. -1.
</event>
<event>
 5   0  0.1325673E-04  0.2262390E+04  0.7818609E-02  0.8492900E-01
        2   -1    0    0  501    0  0.00000000000E+00  0.00000000000E+00  0.12321938357E+04  0.12321938357E+04  0.25500000920E-02 0. -1.
       -2   -1    0    0    0  501  0.00000000000E+00  0.00000000000E+00 -0.10384744866E+04  0.10384744866E+04  0.25500000920E-02 0.  1.
    10030    2    1    2    0    0  0.00000000000E+00  0.00000000000E+00  0.19371934917E+03  0.22706683223E+04  0.22623897638E+04 0.  0.
        5    1    3    3  502    0  0.49123154097E+03  0.94728652348E+03  0.47362589122E+03  0.11674775198E+04  0.46999998093E+01 0. -1.
       -5    1    3    3    0  502 -0.49123154097E+03 -0.94728652348E+03 -0.27990654205E+03  0.11031908025E+04  0.46999998093E+01 0.  1.
</event>
<event>
 5   0  0.6052292E-05  0.2141183E+04  0.7818609E-02  0.8543316E-01
        1   -1    0    0  501    0  0.00000000000E+00  0.00000000000E+00  0.13795581070E+04  0.13795581070E+04  0.50400001928E-02 0.  1.
       -1   -1    0    0    0  501  0.00000000000E+00  0.00000000000E+00 -0.83082109049E+03  0.83082109050E+03  0.50400001928E-02 0. -1.
    10030    2    1    2    0    0  0.00000000000E+00  0.00000000000E+00  0.54873701650E+03  0.22103791975E+04  0.21411828235E+04 0.  0.
        1    1    3    3  502    0  0.10940521460E+03  0.87637803988E+03 -0.35029667155E+03  0.95011353421E+03  0.50400001928E-02 0. -1.
       -1    1    3    3    0  502 -0.10940521460E+03 -0.87637803988E+03  0.89903368805E+03  0.12602656633E+04  0.50400001928E-02 0.  1.
</event>
<event>
 5   0  0.1235817E-04  0.2100053E+04  0.7818609E-02  0.8561220E-01
       -2   -1    0    0    0  501  0.00000000000E+00  0.00000000000E+00  0.93435142333E+03  0.93435142333E+03  0.25500000920E-02 0.  1.
        2   -1    0    0  501    0  0.00000000000E+00  0.00000000000E+00 -0.11800227011E+04  0.11800227011E+04  0.25500000920E-02 0. -1.
    10030    2    1    2    0    0  0.00000000000E+00  0.00000000000E+00 -0.24567127777E+03  0.21143741244E+04  0.21000532282E+04 0.  0.
        1    1    3    3  502    0 -0.10966323123E+03  0.10613056691E+03  0.92312613894E+03  0.93565570053E+03  0.50400001928E-02 0.  1.
       -1    1    3    3    0  502  0.10966323123E+03 -0.10613056691E+03 -0.11687974167E+04  0.11787184239E+04  0.50400001928E-02 0. -1.
</event>
<event>
 5   0  0.1235817E-04  0.2087461E+04  0.7818609E-02  0.8566787E-01
       -2   -1    0    0    0  501  0.00000000000E+00  0.00000000000E+00  0.11436178295E+04  0.11436178295E+04  0.25500000920E-02 0. -1.
        2   -1    0    0  501    0  0.00000000000E+00  0.00000000000E+00 -0.95256750747E+03  0.95256750747E+03  0.25500000920E-02 0.  1.
    10030    2    1    2    0    0  0.00000000000E+00  0.00000000000E+00  0.19105032202E+03  0.20961853370E+04  0.20874608359E+04 0.  0.
        1    1    3    3  502    0 -0.59443443894E+03 -0.65350705997E+03 -0.46263010254E+03  0.99722133523E+03  0.50400001928E-02 0. -1.
       -1    1    3    3    0  502  0.59443443894E+03  0.65350705997E+03  0.65368042457E+03  0.10989640017E+04  0.50400001928E-02 0.  1.
</event>
<event>
 5   0  0.6221148E-05  0.2063381E+04  0.7818609E-02  0.8577548E-01
        1   -1    0    0  501    0  0.00000000000E+00  0.00000000000E+00  0.19698116106E+04  0.19698116106E+04  0.50400001928E-02 0. -1.
       -1   -1    0    0    0  501  0.00000000000E+00  0.00000000000E+00 -0.54034891050E+03  0.54034891053E+03  0.50400001928E-02 0.  1.
    10030    2    1    2    0    0  0.00000000000E+00  0.00000000000E+00  0.14294627001E+04  0.25101605211E+04  0.20633812616E+04 0.  0.
        3    1    3    3  502    0 -0.24846699489E+03 -0.39523839740E+03 -0.40449816681E+03  0.61771191949E+03  0.10100000352E+00 0.  1.
       -3    1    3    3    0  502  0.24846699489E+03  0.39523839740E+03  0.18339608669E+04  0.18924486016E+04  0.10100000352E+00 0. -1.
</event>
<event>
 5   0  0.1252477E-04  0.2169183E+04  0.7818609E-02  0.8531365E-01
       -2   -1    0    0    0  501  0.00000000000E+00  0.00000000000E+00  0.77260447457E+03  0.77260447457E+03  0.25500000920E-02 0. -1.
        2   -1    0    0  501    0  0.00000000000E+00  0.00000000000E+00 -0.15225629834E+04  0.15225629834E+04  0.25500000920E-02 0.  1.
    10030    2    1    2    0    0  0.00000000000E+00  0.00000000000E+00 -0.74995850882E+03  0.22951674580E+04  0.21691832323E+04 0.  0.
        4    1    3    3  502    0  0.59880317737E+03  0.64585471489E+03  0.29474704528E+03  0.92874700084E+03  0.12699999809E+01 0. -1.
       -4    1    3    3    0  502 -0.59880317737E+03 -0.64585471489E+03 -0.10447055541E+04  0.13664204571E+04  0.12699999809E+01 0.  1.
</event>
<event>
 5   0  0.5933905E-05  0.1987839E+04  0.7818609E-02  0.8612328E-01
        1   -1    0    0  501    0  0.00000000000E+00  0.00000000000E+00  0.56192294296E+03  0.56192294298E+03  0.50400001928E-02 0.  1.
       -1   -1    0    0    0  501  0.00000000000E+00  0.00000000000E+00 -0.17580271459E+04  0.17580271459E+04  0.50400001928E-02 0. -1.
    10030    2    1    2    0    0  0.00000000000E+00  0.00000000000E+00 -0.11961042029E+04  0.23199500889E+04  0.19878388140E+04 0.  0.
        2    1    3    3  502    0  0.66374151352E+03 -0.62440812484E+03 -0.13497687647E+03  0.92122584653E+03  0.25500000920E-02 0. -1.
       -2    1    3    3    0  502 -0.66374151352E+03  0.62440812484E+03 -0.10611273264E+04  0.13987242423E+04  0.25500000920E-02 0.  1.
</event>
<event>
 5   0  0.1349252E-04  0.1924639E+04  0.7818609E-02  0.8642688E-01
        2   -1    0    0  501    0  0.00000000000E+00  0.00000000000E+00  0.11789992271E+04  0.11789992271E+04  0.25500000920E-02 0.  1.
       -2   -1    0    0    0  501  0.00000000000E+00  0.00000000000E+00 -0.78546157091E+03  0.78546157092E+03  0.25500000920E-02 0. -1.
    10030    2    1    2    0    0  0.00000000000E+00  0.00000000000E+00  0.39353765619E+03  0.19644607980E+04  0.19246387557E+04 0.  0.
        2    1    3    3  502    0  0.15917260418E+03  0.64427373045E+03 -0.51452443354E+03  0.83973802485E+03  0.25500000920E-02 0. -1.
       -2    1    3    3    0  502 -0.15917260418E+03 -0.64427373045E+03  0.90806208973E+03  0.11247227732E+04  0.25500000920E-02 0.  1.
</event>
<event>
 5   0  0.6052292E-05  0.2152138E+04  0.7818609E-02  0.8538618E-01
        1   -1    0    0  501    0  0.00000000000E+00  0.00000000000E+00  0.88133300238E+03  0.88133300240E+03  0.50400001928E-02 0.  1.
       -1   -1    0    0    0  501  0.00000000000E+00  0.00000000000E+00 -0.13138325981E+04  0.13138325982E+04  0.50400001928E-02 0. -1.
    10030    2    1    2    0    0  0.00000000000E+00  0.00000000000E+00 -0.43249959576E+03  0.21951656005E+04  0.21521375684E+04 0.  0.
        1    1    3    3  502    0 -0.10634980584E+04  0.15614738957E+03 -0.26739104660E+03  0.11076588371E+04  0.50400001928E-02 0. -1.
       -1    1    3    3    0  502  0.10634980584E+04 -0.15614738957E+03 -0.16510854916E+03  0.10875067635E+04  0.50400001928E-02 0.  1.
</event>
<event>
 5   0  0.1349252E-04  0.1807301E+04  0.7818609E-02  0.8702427E-01
       -2   -1    0    0    0  501  0.00000000000E+00  0.00000000000E+00  0.39481122525E+03  0.39481122525E+03  0.25500000920E-02 0. -1.
        2   -1    0    0  501    0  0.00000000000E+00  0.00000000000E+00 -0.20682899301E+04  0.20682899301E+04  0.25500000920E-02 0.  1.
    10030    2    1    2    0    0  0.00000000000E+00  0.00000000000E+00 -0.16734787049E+04  0.24631011554E+04  0.18073008399E+04 0.  0.
        2    1    3    3  502    0  0.50691428832E+03 -0.32279968915E+03  0.82987710558E+02  0.60667016997E+03  0.25500000920E-02 0. -1.
       -2    1    3    3    0  502 -0.50691428832E+03  0.32279968915E+03 -0.17564664154E+04  0.18564309854E+04  0.25500000920E-02 0.  1.
</event>
<event>
 5   0  0.1325673E-04  0.2080087E+04  0.7818609E-02  0.8570066E-01
        2   -1    0    0  501    0  0.00000000000E+00  0.00000000000E+00  0.96471147709E+03  0.96471147710E+03  0.25500000920E-02 0.  1.
       -2   -1    0    0    0  501  0.00000000000E+00  0.00000000000E+00 -0.11212574978E+04  0.11212574978E+04  0.25500000920E-02 0. -1.
    10030    2    1    2    0    0  0.00000000000E+00  0.00000000000E+00 -0.15654602071E+03  0.20859689749E+04  0.20800865145E+04 0.  0.
        5    1    3    3  502    0 -0.28139091171E+03 -0.84735389099E+03  0.45660052948E+03  0.10028437542E+04  0.46999998093E+01 0.  1.
       -5    1    3    3    0  502  0.28139091171E+03  0.84735389099E+03 -0.61314655020E+03  0.10831252207E+04  0.46999998093E+01 0. -1.
</event>
<event>
 5   0  0.1325673E-04  0.2119122E+04  0.7818609E-02  0.8552866E-01
        2   -1    0    0  501    0  0.00000000000E+00  0.00000000000E+00  0.21090514187E+04  0.21090514187E+04  0.25500000920E-02 0.  1.
       -2   -1    0    0    0  501  0.00000000000E+00  0.00000000000E+00 -0.53231019029E+03  0.53231019029E+03  0.25500000920E-02 0. -1.
    10030    2    1    2    0    0  0.00000000000E+00  0.00000000000E+00  0.15767412284E+04  0.26413616090E+04  0.21191220465E+04 0.  0.
        5    1    3    3  502    0 -0.25465038956E+03  0.71087230676E+03 -0.13808109842E+03  0.76764232372E+03  0.46999998093E+01 0. -1.
       -5    1    3    3    0  502  0.25465038956E+03 -0.71087230676E+03  0.17148223268E+04  0.18737192853E+04  0.46999998093E+01 0.  1.
</event>
<event>
 5   0  0.1325673E-04  0.2098867E+04  0.7818609E-02  0.8561742E-01
       -2   -1    0    0    0  501  0.00000000000E+00  0.00000000000E+00  0.48242640319E+03  0.48242640319E+03  0.25500000920E-02 0.  1.
        2   -1    0    0  501    0  0.00000000000E+00  0.00000000000E+00 -0.22828582571E+04  0.22828582571E+04  0.25500000920E-02 0. -1.
    10030    2    1    2    0    0  0.00000000000E+00  0.00000000000E+00 -0.18004318539E+04  0.27652846602E+04  0.20988674069E+04 0.  0.
        5    1    3    3  502    0 -0.78428707404E+03 -0.66200622110E+02 -0.18147257211E+04  0.19780647790E+04  0.46999998093E+01 0. -1.
       -5    1    3    3    0  502  0.78428707404E+03  0.66200622110E+02  0.14293867241E+02  0.78721988130E+03  0.46999998093E+01 0.  1.
</event>
<event>
 5   0  0.6052292E-05  0.2065939E+04  0.7818609E-02  0.8576398E-01
        1   -1    0    0  501    0  0.00000000000E+00  0.00000000000E+00  0.13327739791E+04  0.13327739791E+04  0.50400001928E-02 0.  1.
       -1   -1    0    0    0  501  0.00000000000E+00  0.00000000000E+00 -0.80060547534E+03  0.80060547536E+03  0.50400001928E-02 0. -1.
    10030    2    1    2    0    0  0.00000000000E+00  0.00000000000E+00  0.53216850374E+03  0.21333794544E+04  0.20659391521E+04 0.  0.
        1    1    3    3  502    0 -0.66952018191E+03 -0.48171457871E+03  0.90825255089E+03  0.12268777060E+04  0.50400001928E-02 0.  1.
       -1    1    3    3    0  502  0.66952018191E+03  0.48171457871E+03 -0.37608404715E+03  0.90650174842E+03  0.50400001928E-02 0. -1.
</event>
<event>
 5   0  0.6221148E-05  0.2059280E+04  0.7818609E-02  0.8579396E-01
        1   -1    0    0  501    0  0.00000000000E+00  0.00000000000E+00  0.24026165085E+04  0.24026165086E+04  0.50400001928E-02 0. -1.
       -1   -1    0    0    0  501  0.00000000000E+00  0.00000000000E+00 -0.44125184412E+03  0.44125184415E+03  0.50400001928E-02 0.  1.
    10030    2    1    2    0    0  0.00000000000E+00  0.00000000000E+00  0.19613646644E+04  0.28438683527E+04  0.20592804230E+04 0.  0.
        3    1    3    3  502    0 -0.27955132928E+03 -0.48955818179E+03 -0.20917871364E+03  0.60130849279E+03  0.10100000352E+00 0.  1.
       -3    1    3    3    0  502  0.27955132928E+03  0.48955818179E+03  0.21705433781E+04  0.22425598599E+04  0.10100000352E+00 0. -1.
</event>
<event>
 5   0  0.6221148E-05  0.2153326E+04  0.7818609E-02  0.8538110E-01
        1   -1    0    0  501    0  0.00000000000E+00  0.00000000000E+00  0.11431292213E+04  0.11431292214E+04  0.50400001928E-02 0. -1.
       -1   -1    0    0    0  501  0.00000000000E+00  0.00000000000E+00 -0.10140611903E+04  0.10140611903E+04  0.50400001928E-02 0.  1.
    10030    2    1    2    0    0  0.00000000000E+00  0.00000000000E+00  0.12906803105E+03  0.21571904117E+04  0.21533257802E+04 0.  0.
        3    1    3    3  502    0 -0.10637295256E+04  0.13321472767E+03  0.16439391325E+03  0.10845699776E+04  0.10100000352E+00 0. -1.
       -3    1    3    3    0  502  0.10637295256E+04 -0.13321472767E+03 -0.35325882196E+02  0.10726204341E+04  0.10100000352E+00 0.  1.
</event>
<event>
 5   0  0.1235817E-04  0.2118599E+04  0.7818609E-02  0.8553095E-01
       -2   -1    0    0    0  501  0.00000000000E+00  0.00000000000E+00  0.10515181353E+04  0.10515181353E+04  0.25500000920E-02 0. -1.
        2   -1    0    0  501    0  0.00000000000E+00  0.00000000000E+00 -0.10671379446E+04  0.10671379446E+04  0.25500000920E-02 0.  1.
    10030    2    1    2    0    0  0.00000000000E+00  0.00000000000E+00 -0.15619809311E+02  0.21186560800E+04  0.21185985006E+04 0.  0.
        1    1    3    3  502    0 -0.73947899497E+03 -0.67643803762E+03  0.33529896677E+03  0.10567984670E+04  0.50400001928E-02 0. -1.
       -1    1    3    3    0  502  0.73947899497E+03  0.67643803762E+03 -0.35091877608E+03  0.10618576129E+04  0.50400001928E-02 0.  1.
</event>
<event>
 5   0  0.5846187E-05  0.1977401E+04  0.7818609E-02  0.8617260E-01
       -1   -1    0    0    0  501  0.00000000000E+00  0.00000000000E+00  0.62429893833E+03  0.62429893835E+03  0.50400001928E-02 0.  1.
        1   -1    0    0  501    0  0.00000000000E+00  0.00000000000E+00 -0.15658017175E+04  0.15658017175E+04  0.50400001928E-02 0. -1.
    10030    2    1    2    0    0  0.00000000000E+00  0.00000000000E+00 -0.94150277920E+03  0.21901006559E+04  0.19774006675E+04 0.  0.
        5    1    3    3  502    0 -0.95163929162E+03  0.24794111682E+03 -0.58377800214E+03  0.11436393595E+04  0.46999998093E+01 0. -1.
       -5    1    3    3    0  502  0.95163929162E+03 -0.24794111682E+03 -0.35772477706E+03  0.10464612964E+04  0.46999998093E+01 0.  1.
</event>
<event>
 5   0  0.1235817E-04  0.1697813E+04  0.7818609E-02  0.8762612E-01
        2   -1    0    0  501    0  0.00000000000E+00  0.00000000000E+00  0.10474133148E+04  0.10474133148E+04  0.25500000920E-02 0. -1.
       -2   -1    0    0    0  501  0.00000000000E+00  0.00000000000E+00 -0.68802118622E+03  0.68802118622E+03  0.25500000920E-02 0.  1.
    10030    2    1    2    0    0  0.00000000000E+00  0.00000000000E+00  0.35939212855E+03  0.17354345010E+04  0.16978133599E+04 0.  0.
        1    1    3    3  502    0  0.82800687588E+03 -0.14464551719E+03  0.58214595120E+02  0.84255958321E+03  0.50400001928E-02 0.  1.
       -1    1    3    3    0  502 -0.82800687588E+03  0.14464551719E+03  0.30117753343E+03  0.89287491779E+03  0.50400001928E-02 0. -1.
</event>
<event>
 5   0  0.1281470E-04  0.2105380E+04  0.7818609E-02  0.8558877E-01
       -2   -1    0    0    0  501  0.00000000000E+00  0.00000000000E+00  0.64621494654E+03  0.64621494654E+03  0.25500000920E-02 0. -1.
        2   -1    0    0  501    0  0.00000000000E+00  0.00000000000E+00 -0.17148421849E+04  0.17148421849E+04  0.25500000920E-02 0.  1.
    10030    2    1    2    0    0  0.00000000000E+00  0.00000000000E+00 -0.10686272384E+04  0.23610571315E+04  0.21053803940E+04 0.  0.
        3    1    3    3  502    0  0.39410521805E+03  0.65001757631E+03  0.28234927487E+03  0.81090251918E+03  0.10100000352E+00 0. -1.
       -3    1    3    3    0  502 -0.39410521805E+03 -0.65001757631E+03 -0.13509765133E+04  0.15501546123E+04  0.10100000352E+00 0.  1.
</event>
<event>
 5   0  0.1349252E-04  0.1997558E+04  0.7818609E-02  0.8607763E-01
        2   -1    0    0  501    0  0.00000000000E+00  0.00000000000E+00  0.10517364090E+04  0.10517364090E+04  0.25500000920E-02 0. -1.
       -2   -1    0    0    0  501  0.00000000000E+00  0.00000000000E+00 -0.94848839560E+03  0.94848839560E+03  0.25500000920E-02 0.  1.
    10030    2    1    2    0    0  0.00000000000E+00  0.00000000000E+00  0.10324801339E+03  0.20002248046E+04  0.19975582887E+04 0.  0.
        2    1    3    3  502    0  0.12546582696E+02  0.73073091960E+03 -0.63004510501E+03  0.96492586656E+03  0.25500000920E-02 0. -1.
       -2    1    3    3    0  502 -0.12546582696E+02 -0.73073091960E+03  0.73329311840E+03  0.10352989380E+04  0.25500000920E-02 0.  1.
</event>
<event>
 5   0  0.5933905E-05  0.2099195E+04  0.7818609E-02  0.8561598E-01
        1   -1    0    0  501    0  0.00000000000E+00  0.00000000000E+00  0.13522108486E+04  0.13522108486E+04  0.50400001928E-02 0.  1.
       -1   -1    0    0    0  501  0.00000000000E+00  0.00000000000E+00 -0.81470635360E+03  0.81470635361E+03  0.50400001928E-02 0. -1.
    10030    2    1    2    0    0  0.00000000000E+00  0.00000000000E+00  0.53750449501E+03  0.21669172022E+04  0.20991948645E+04 0.  0.
        2    1    3    3  502    0 -0.13052786574E+03 -0.56335869150E+03 -0.63543083658E+03  0.85917570211E+03  0.25500000920E-02 0. -1.
       -2    1    3    3    0  502  0.13052786574E+03  0.56335869150E+03  0.11729353316E+04  0.13077415001E+04  0.25500000920E-02 0.  1.
</event>
<event>
 5   0  0.1325673E-04  0.2032481E+04  0.7818609E-02  0.8591584E-01
       -2   -1    0    0    0  501  0.00000000000E+00  0.00000000000E+00  0.52703394613E+03  0.52703394614E+03  0.25500000920E-02 0.  1.
        2   -1    0    0  501    0  0.00000000000E+00  0.00000000000E+00 -0.19595413432E+04  0.19595413432E+04  0.25500000920E-02 0. -1.
    10030    2    1    2    0    0  0.00000000000E+00  0.00000000000E+00 -0.14325073970E+04  0.24865752893E+04  0.20324810520E+04 0.  0.
        5    1    3    3  502    0  0.64024298653E+03 -0.58142123302E+03 -0.63400778434E+02  0.86718134246E+03  0.46999998093E+01 0.  1.
       -5    1    3    3    0  502 -0.64024298653E+03  0.58142123302E+03 -0.13691066186E+04  0.16193939469E+04  0.46999998093E+01 0. -1.
</event>
<event>
 5   0  0.4615125E-05  0.1806892E+04  0.7818609E-02  0.8702643E-01
       -3   -1    0    0    0  501  0.00000000000E+00  0.00000000000E+00  0.97801472930E+03  0.97801473452E+03  0.10100000352E+00 0. -1.
        3   -1    0    0  501    0  0.00000000000E+00  0.00000000000E+00 -0.83456259872E+03  0.83456260483E+03  0.10100000352E+00 0.  1.
    10030    2    1    2    0    0  0.00000000000E+00  0.00000000000E+00  0.14345213058E+03  0.18125773393E+04  0.18068918333E+04 0.  0.
        4    1    3    3  502    0 -0.85581918218E+03  0.97944026747E+02  0.34496780823E+03  0.92791373876E+03  0.12699999809E+01 0. -1.
       -4    1    3    3    0  502  0.85581918218E+03 -0.97944026747E+02 -0.20151567765E+03  0.88466360059E+03  0.12699999809E+01 0.  1.
</event>
<event>
 5   0  0.1325673E-04  0.2086787E+04  0.7818609E-02  0.8567086E-01
       -2   -1    0    0    0  501  0.00000000000E+00  0.00000000000E+00  0.89556294156E+03  0.89556294156E+03  0.25500000920E-02 0.  1.
        2   -1    0    0  501    0  0.00000000000E+00  0.00000000000E+00 -0.12156259673E+04  0.12156259673E+04  0.25500000920E-02 0. -1.
    10030    2    1    2    0    0  0.00000000000E+00  0.00000000000E+00 -0.32006302573E+03  0.21111889089E+04  0.20867865891E+04 0.  0.
        5    1    3    3  502    0 -0.64296399074E+03  0.48184029489E+03  0.51339086125E+03  0.95350145756E+03  0.46999998093E+01 0.  1.
       -5    1    3    3    0  502  0.64296399074E+03 -0.48184029489E+03 -0.83345388698E+03  0.11576874513E+04  0.46999998093E+01 0. -1.
</event>
<event>
 5   0  0.1235817E-04  0.2145176E+04  0.7818609E-02  0.8541600E-01
        2   -1    0    0  501    0  0.00000000000E+00  0.00000000000E+00  0.97622261635E+03  0.97622261635E+03  0.25500000920E-02 0.  1.
       -2   -1    0    0    0  501  0.00000000000E+00  0.00000000000E+00 -0.11784658218E+04  0.11784658218E+04  0.25500000920E-02 0. -1.
    10030    2    1    2    0    0  0.00000000000E+00  0.00000000000E+00 -0.20224320546E+03  0.21546884382E+04  0.21451759721E+04 0.  0.
        1    1    3    3  502    0 -0.72598287466E+03 -0.72167066532E+03 -0.42283128596E+03  0.11075405094E+04  0.50400001928E-02 0. -1.
       -1    1    3    3    0  502  0.72598287466E+03  0.72167066532E+03  0.22058808050E+03  0.10471479288E+04  0.50400001928E-02 0.  1.
</event>
<event>
 5   0  0.1252477E-04  0.2126828E+04  0.7818609E-02  0.8549517E-01
       -2   -1    0    0    0  501  0.00000000000E+00  0.00000000000E+00  0.85860826899E+03  0.85860826899E+03  0.25500000920E-02 0. -1.
        2   -1    0    0  501    0  0.00000000000E+00  0.00000000000E+00 -0.13170719790E+04  0.13170719790E+04  0.25500000920E-02 0.  1.
    10030    2    1    2    0    0  0.00000000000E+00  0.00000000000E+00 -0.45846370997E+03  0.21756802479E+04  0.21268275830E+04 0.  0.
        4    1    3    3  502    0  0.69317557979E+03 -0.44029494651E+03 -0.92039555139E+03  0.12334835257E+04  0.12699999809E+01 0.  1.
       -4    1    3    3    0  502 -0.69317557979E+03  0.44029494651E+03  0.46193184142E+03  0.94219672222E+03  0.12699999809E+01 0. -1.
</event>
<event>
 5   0  0.5933905E-05  0.2098139E+04  0.7818609E-02  0.8562064E-01
       -1   -1    0    0    0  501  0.00000000000E+00  0.00000000000E+00  0.98781410634E+03  0.98781410635E+03  0.50400001928E-02 0.  1.
        1   -1    0    0  501    0  0.00000000000E+00  0.00000000000E+00 -0.11141230150E+04  0.11141230150E+04  0.50400001928E-02 0. -1.
    10030    2    1    2    0    0  0.00000000000E+00  0.00000000000E+00 -0.12630890870E+03  0.21019371214E+04  0.20981386327E+04 0.  0.
        2    1    3    3  502    0 -0.31540088631E+01  0.10917676828E+03 -0.11084114406E+04  0.11137797970E+04  0.25500000920E-02 0. -1.
       -2    1    3    3    0  502  0.31540088631E+01 -0.10917676828E+03  0.98210253193E+03  0.98815732439E+03  0.25500000920E-02 0.  1.
</event>
<event>
 5   0  0.5933905E-05  0.2119275E+04  0.7818609E-02  0.8552800E-01
        1   -1    0    0  501    0  0.00000000000E+00  0.00000000000E+00  0.79991318362E+03  0.79991318363E+03  0.50400001928E-02 0. -1.
       -1   -1    0    0    0  501  0.00000000000E+00  0.00000000000E+00 -0.14036919325E+04  0.14036919326E+04  0.50400001928E-02 0.  1.
    10030    2    1    2    0    0  0.00000000000E+00  0.00000000000E+00 -0.60377874893E+03  0.22036051162E+04  0.21192750483E+04 0.  0.
        2    1    3    3  502    0 -0.23875542845E+03  0.84953496756E+03  0.30806880311E+03  0.93467652328E+03  0.25500000920E-02 0. -1.
       -2    1    3    3    0  502  0.23875542845E+03 -0.84953496756E+03 -0.91184755204E+03  0.12689285929E+04  0.25500000920E-02 0.  1.
</event>
<event>
 5   0  0.1325673E-04  0.2085503E+04  0.7818609E-02  0.8567657E-01
       -2   -1    0    0    0  501  0.00000000000E+00  0.00000000000E+00  0.78825456312E+03  0.78825456312E+03  0.25500000920E-02 0.  1.
        2   -1    0    0  501    0  0.00000000000E+00  0.00000000000E+00 -0.13794152182E+04  0.13794152182E+04  0.25500000920E-02 0. -1.
    10030    2    1    2    0    0  0.00000000000E+00  0.00000000000E+00 -0.59116065510E+03  0.21676697813E+04  0.20855026638E+04 0.  0.
        5    1    3    3  502    0 -0.23358301759E+02  0.81229883371E+03 -0.97472509884E+03  0.12690492953E+04  0.46999998093E+01 0. -1.
       -5    1    3    3    0  502  0.23358301759E+02 -0.81229883371E+03  0.38356444374E+03  0.89862048608E+03  0.46999998093E+01 0.  1.
</event>
<event>
 5   0  0.1281470E-04  0.2095320E+04  0.7818609E-02  0.8563308E-01
       -2   -1    0    0    0  501  0.00000000000E+00  0.00000000000E+00  0.60514154535E+03  0.60514154536E+03  0.25500000920E-02 0.  1.
        2   -1    0    0  501    0  0.00000000000E+00  0.00000000000E+00 -0.18137767461E+04  0.18137767461E+04  0.25500000920E-02 0. -1.
    10030    2    1    2    0    0  0.00000000000E+00  0.00000000000E+00 -0.12086352007E+04  0.24189182914E+04  0.20953201789E+04 0.  0.
        3    1    3    3  502    0  0.21796685972E+03  0.82717620385E+03  0.93961807253E+02  0.86055729361E+03  0.10100000352E+00 0.  1.
       -3    1    3    3    0  502 -0.21796685972E+03 -0.82717620385E+03 -0.13025970080E+04  0.15583609978E+04  0.10100000352E+00 0. -1.
</event>
<event>
 5   0  0.5933905E-05  0.2122305E+04  0.7818609E-02  0.8551481E-01
        1   -1    0    0  501    0  0.00000000000E+00  0.00000000000E+00  0.14682213033E+04  0.14682213033E+04  0.50400001928E-02 0.  1.
       -1   -1    0    0    0  501  0.00000000000E+00  0.00000000000E+00 -0.76694484533E+03  0.76694484534E+03  0.50400001928E-02 0. -1.
    10030    2    1    2    0    0  0.00000000000E+00  0.00000000000E+00  0.70127645798E+03  0.22351661487E+04  0.21223051245E+04 0.  0.
        2    1    3    3  502    0  0.87558894160E+03  0.36359779014E+03 -0.15134847012E+03  0.96008630188E+03  0.25500000920E-02 0. -1.
       -2    1    3    3    0  502 -0.87558894160E+03 -0.36359779014E+03  0.85262492810E+03  0.12750798468E+04  0.25500000920E-02 0.  1.
</event>
<event>
 5   0  0.1252477E-04  0.2097911E+04  0.7818609E-02  0.8562164E-01
       -2   -1    0    0    0  501  0.00000000000E+00  0.00000000000E+00  0.73671444630E+03  0.73671444631E+03  0.25500000920E-02 0. -1.
        2   -1    0    0  501    0  0.00000000000E+00  0.00000000000E+00 -0.14935331776E+04  0.14935331776E+04  0.25500000920E-02 0.  1.
    10030    2    1    2    0    0  0.00000000000E+00  0.00000000000E+00 -0.75681873134E+03  0.22302476239E+04  0.20979108351E+04 0.  0.
        4    1    3    3  502    0 -0.72591906983E+03  0.45592217626E+03  0.26427724306E+03  0.89703266432E+03  0.12699999809E+01 0. -1.
       -4    1    3    3    0  502  0.72591906983E+03 -0.45592217626E+03 -0.10210959744E+04  0.13332149596E+04  0.12699999809E+01 0.  1.
</event>
<event>
 5   0  0.6263616E-05  0.2019790E+04  0.7818609E-02  0.8597424E-01
       -1   -1    0    0    0  501  0.00000000000E+00  0.00000000000E+00  0.12667041950E+04  0.12667041950E+04  0.50400001928E-02 0. -1.
        1   -1    0    0  501    0  0.00000000000E+00  0.00000000000E+00 -0.80515074219E+03  0.80515074221E+03  0.50400001928E-02 0.  1.
    10030    2    1    2    0    0  0.00000000000E+00  0.00000000000E+00  0.46155345276E+03  0.20718549372E+04  0.20197899126E+04 0.  0.
        4    1    3    3  502    0  0.18513702943E+03  0.46639243669E+03 -0.66822143022E+03  0.83565490328E+03  0.12699999809E+01 0.  1.
       -4    1    3    3    0  502 -0.18513702943E+03 -0.46639243669E+03  0.11297748830E+04  0.12362000339E+04  0.12699999809E+01 0. -1.
</event>
<event>
 5   0  0.6221148E-05  0.2143902E+04  0.7818609E-02  0.8542147E-01
        1   -1    0    0  501    0  0.00000000000E+00  0.00000000000E+00  0.20903564573E+04  0.20903564573E+04  0.50400001928E-02 0.  1.
       -1   -1    0    0    0  501  0.00000000000E+00  0.00000000000E+00 -0.54970496521E+03  0.54970496524E+03  0.50400001928E-02 0. -1.
    10030    2    1    2    0    0  0.00000000000E+00  0.00000000000E+00  0.15406514921E+04  0.26400614225E+04  0.21439023519E+04 0.  0.
        3    1    3    3  502    0  0.35073888436E+03  0.79477396358E+03  0.15436742034E+04  0.17713309895E+04  0.10100000352E+00 0.  1.
       -3    1    3    3    0  502 -0.35073888436E+03 -0.79477396358E+03 -0.30227112990E+01  0.86873043298E+03  0.10100000352E+00 0. -1.
</event>
<event>
 5   0  0.1235817E-04  0.2095798E+04  0.7818609E-02  0.8563097E-01
        2   -1    0    0  501    0  0.00000000000E+00  0.00000000000E+00  0.21040155391E+04  0.21040155391E+04  0.25500000920E-02 0.  1.
       -2   -1    0    0    0  501  0.00000000000E+00  0.00000000000E+00 -0.52190309912E+03  0.52190309912E+03  0.25500000920E-02 0. -1.
    10030    2    1    2    0    0  0.00000000000E+00  0.00000000000E+00  0.15821124400E+04  0.26259186382E+04  0.20957979201E+04 0.  0.
        1    1    3    3  502    0  0.96769406551E+02  0.97934541830E+03  0.33997796314E+03  0.10411852774E+04  0.50400001928E-02 0. -1.
       -1    1    3    3    0  502 -0.96769406551E+02 -0.97934541830E+03  0.12421344768E+04  0.15847333608E+04  0.50400001928E-02 0.  1.
</event>
<event>
 5   0  0.5933905E-05  0.2054641E+04  0.7818609E-02  0.8581492E-01
       -1   -1    0    0    0  501  0.00000000000E+00  0.00000000000E+00  0.45509700380E+03  0.45509700383E+03  0.50400001928E-02 0.  1.
        1   -1    0    0  501    0  0.00000000000E+00  0.00000000000E+00 -0.23190382003E+04  0.23190382003E+04  0.50400001928E-02 0. -1.
    10030    2    1    2    0    0  0.00000000000E+00  0.00000000000E+00 -0.18639411965E+04  0.27741352042E+04  0.20546409289E+04 0.  0.
        2    1    3    3  502    0 -0.90457826838E+03 -0.43846495499E+03 -0.12179857008E+04  0.15792411240E+04  0.25500000920E-02 0.  1.
       -2    1    3    3    0  502  0.90457826838E+03  0.43846495499E+03 -0.64595549575E+03  0.11948940802E+04  0.25500000920E-02 0. -1.
</event>
<event>
 5   0  0.1235817E-04  0.2095694E+04  0.7818609E-02  0.8563143E-01
        2   -1    0    0  501    0  0.00000000000E+00  0.00000000000E+00  0.11029280541E+04  0.11029280541E+04  0.25500000920E-02 0.  1.
       -2   -1    0    0    0  501  0.00000000000E+00  0.00000000000E+00 -0.99551644449E+03  0.99551644449E+03  0.25500000920E-02 0. -1.
    10030    2    1    2    0    0  0.00000000000E+00  0.00000000000E+00  0.10741160960E+03  0.20984444986E+04  0.20956936942E+04 0.  0.
        1    1    3    3  502    0 -0.54143557675E+03  0.40251369542E+03  0.85651454609E+03  0.10903150584E+04  0.50400001928E-02 0. -1.
       -1    1    3    3    0  502  0.54143557675E+03 -0.40251369542E+03 -0.74910293649E+03  0.10081294402E+04  0.50400001928E-02 0.  1.
</event>
<event>
 5   0  0.1281470E-04  0.2126385E+04  0.7818609E-02  0.8549709E-01
        2   -1    0    0  501    0  0.00000000000E+00  0.00000000000E+00  0.65305849946E+03  0.65305849946E+03  0.25500000920E-02 0.  1.
       -2   -1    0    0    0  501  0.00000000000E+00  0.00000000000E+00 -0.17308994558E+04  0.17308994558E+04  0.25500000920E-02 0. -1.
    10030    2    1    2    0    0  0.00000000000E+00  0.00000000000E+00 -0.10778409564E+04  0.23839579553E+04  0.21263852909E+04 0.  0.
        3    1    3    3  502    0  0.77152713933E+03 -0.45099519728E+03 -0.11846454235E+04  0.14839257341E+04  0.10100000352E+00 0. -1.
       -3    1    3    3    0  502 -0.77152713933E+03  0.45099519728E+03  0.10680446718E+03  0.90003222115E+03  0.10100000352E+00 0.  1.
</event>
<event>
 5   0  0.6052292E-05  0.2140668E+04  0.7818609E-02  0.8543537E-01
        1   -1    0    0  501    0  0.00000000000E+00  0.00000000000E+00  0.69744650748E+03  0.69744650750E+03  0.50400001928E-02 0. -1.
       -1   -1    0    0    0  501  0.00000000000E+00  0.00000000000E+00 -0.16425842886E+04  0.16425842886E+04  0.50400001928E-02 0.  1.
    10030    2    1    2    0    0  0.00000000000E+00  0.00000000000E+00 -0.94513778116E+03  0.23400307961E+04  0.21406678167E+04 0.  0.
        1    1    3    3  502    0  0.79139126029E+03  0.71041903146E+03 -0.34039785317E+03  0.11166315532E+04  0.50400001928E-02 0.  1.
       -1    1    3    3    0  502 -0.79139126029E+03 -0.71041903146E+03 -0.60473992798E+03  0.12233992429E+04  0.50400001928E-02 0. -1.
</event>
<event>
 5   0  0.6052292E-05  0.2158124E+04  0.7818609E-02  0.8536063E-01
       -1   -1    0    0    0  501  0.00000000000E+00  0.00000000000E+00  0.10725914937E+04  0.10725914937E+04  0.50400001928E-02 0. -1.
        1   -1    0    0  501    0  0.00000000000E+00  0.00000000000E+00 -0.10855719016E+04  0.10855719016E+04  0.50400001928E-02 0.  1.
    10030    2    1    2    0    0  0.00000000000E+00  0.00000000000E+00 -0.12980407824E+02  0.21581633953E+04  0.21581243592E+04 0.  0.
        1    1    3    3  502    0 -0.98523053788E+03 -0.43527896736E+03 -0.71515954338E+02  0.10794727991E+04  0.50400001928E-02 0.  1.
       -1    1    3    3    0  502  0.98523053788E+03  0.43527896736E+03  0.58535546514E+02  0.10786905962E+04  0.50400001928E-02 0. -1.
</event>
<event>
 5   0  0.1235817E-04  0.2171104E+04  0.7818609E-02  0.8530552E-01
        2   -1    0    0  501    0  0.00000000000E+00  0.00000000000E+00  0.14495075213E+04  0.14495075213E+04  0.25500000920E-02 0. -1.
       -2   -1    0    0    0  501  0.00000000000E+00  0.00000000000E+00 -0.81298193121E+03  0.81298193122E+03  0.25500000920E-02 0.  1.
    10030    2    1    2    0    0  0.00000000000E+00  0.00000000000E+00  0.63652559006E+03  0.22624894525E+04  0.21711042572E+04 0.  0.
        1    1    3    3  502    0  0.10533192892E+04  0.21486155190E+03  0.16099183276E+03  0.10869983356E+04  0.50400001928E-02 0.  1.
       -1    1    3    3    0  502 -0.10533192892E+04 -0.21486155190E+03  0.47553375729E+03  0.11754911168E+04  0.50400001928E-02 0. -1.
</event>
<event>
 5   0  0.5933905E-05  0.2094936E+04  0.7818609E-02  0.8563478E-01
        1   -1    0    0  501    0  0.00000000000E+00  0.00000000000E+00  0.22550738351E+04  0.22550738352E+04  0.50400001928E-02 0.  1.
       -1   -1    0    0    0  501  0.00000000000E+00  0.00000000000E+00 -0.48654231219E+03  0.48654231221E+03  0.50400001928E-02 0. -1.
    10030    2    1    2    0    0  0.00000000000E+00  0.00000000000E+00  0.17685315230E+04  0.27416161474E+04  0.20949356438E+04 0.  0.
        2    1    3    3  502    0 -0.64332754362E+03 -0.99980784193E+02  0.19581253005E+04  0.20635215477E+04  0.25500000920E-02 0.  1.
       -2    1    3    3    0  502  0.64332754362E+03  0.99980784193E+02 -0.18959377751E+03  0.67809459964E+03  0.25500000920E-02 0. -1.
</event>
<event>
 5   0  0.6052292E-05  0.2101867E+04  0.7818609E-02  0.8560422E-01
       -1   -1    0    0    0  501  0.00000000000E+00  0.00000000000E+00  0.64818771857E+03  0.64818771859E+03  0.50400001928E-02 0.  1.
        1   -1    0    0  501    0  0.00000000000E+00  0.00000000000E+00 -0.17039211191E+04  0.17039211191E+04  0.50400001928E-02 0. -1.
    10030    2    1    2    0    0  0.00000000000E+00  0.00000000000E+00 -0.10557334005E+04  0.23521088377E+04  0.21018665446E+04 0.  0.
        1    1    3    3  502    0 -0.38142836152E+03  0.62528083584E+03 -0.13712506006E+04  0.15546034633E+04  0.50400001928E-02 0. -1.
       -1    1    3    3    0  502  0.38142836152E+03 -0.62528083584E+03  0.31551720002E+03  0.79750537438E+03  0.50400001928E-02 0.  1.
</event>
<event>
 5   0  0.1281470E-04  0.2092451E+04  0.7818609E-02  0.8564576E-01
       -2   -1    0    0    0  501  0.00000000000E+00  0.00000000000E+00  0.12660216800E+04  0.12660216800E+04  0.25500000920E-02 0.  1.
        2   -1    0    0  501    0  0.00000000000E+00  0.00000000000E+00 -0.86458892038E+03  0.86458892038E+03  0.25500000920E-02 0. -1.
    10030    2    1    2    0    0  0.00000000000E+00  0.00000000000E+00  0.40143275964E+03  0.21306106004E+04  0.20924514976E+04 0.  0.
        3    1    3    3  502    0 -0.40963796060E+03  0.94504659817E+03  0.13870733054E+02  0.10301013246E+04  0.10100000352E+00 0.  1.
       -3    1    3    3    0  502  0.40963796060E+03 -0.94504659817E+03  0.38756202658E+03  0.11005092758E+04  0.10100000352E+00 0. -1.
</event>
<event>
 5   0  0.6263616E-05  0.2116275E+04  0.7818609E-02  0.8554108E-01
        1   -1    0    0  501    0  0.00000000000E+00  0.00000000000E+00  0.12109007166E+04  0.12109007166E+04  0.50400001928E-02 0.  1.
       -1   -1    0    0    0  501  0.00000000000E+00  0.00000000000E+00 -0.92464668264E+03  0.92464668265E+03  0.50400001928E-02 0. -1.
    10030    2    1    2    0    0  0.00000000000E+00  0.00000000000E+00  0.28625403394E+03  0.21355473992E+04  0.21162753418E+04 0.  0.
        4    1    3    3  502    0  0.13637714712E+03  0.48617018666E+03 -0.79523009722E+03  0.94199400056E+03  0.12699999809E+01 0. -1.
       -4    1    3    3    0  502 -0.13637714712E+03 -0.48617018666E+03  0.10814841312E+04  0.11935533987E+04  0.12699999809E+01 0.  1.
</event>
<event>
 5   0  0.6052292E-05  0.1735970E+04  0.7818609E-02  0.8741111E-01
       -1   -1    0    0    0  501  0.00000000000E+00  0.00000000000E+00  0.65945713381E+03  0.65945713383E+03  0.50400001928E-02 0. -1.
        1   -1    0    0  501    0  0.00000000000E+00  0.00000000000E+00 -0.11424513224E+04  0.11424513225E+04  0.50400001928E-02 0.  1.
    10030    2    1    2    0    0  0.00000000000E+00  0.00000000000E+00 -0.48299418863E+03  0.18019084563E+04  0.17359696710E+04 0.  0.
        1    1    3    3  502    0 -0.96771005509E+02  0.58450265311E+03  0.41693958418E+03  0.72446297068E+03  0.50400001928E-02 0. -1.
       -1    1    3    3    0  502  0.96771005509E+02 -0.58450265311E+03 -0.89993377281E+03  0.10774454856E+04  0.50400001928E-02 0.  1.
</event>
<event>
 5   0  0.6263616E-05  0.2093779E+04  0.7818609E-02  0.8563989E-01
       -1   -1    0    0    0  501  0.00000000000E+00  0.00000000000E+00  0.10390505453E+04  0.10390505453E+04  0.50400001928E-02 0.  1.
        1   -1    0    0  501    0  0.00000000000E+00  0.00000000000E+00 -0.10547872189E+04  0.10547872189E+04  0.50400001928E-02 0. -1.
    10030    2    1    2    0    0  0.00000000000E+00  0.00000000000E+00 -0.15736673634E+02  0.20938377642E+04  0.20937786273E+04 0.  0.
        4    1    3    3  502    0 -0.71771592486E+03 -0.69174497067E+03 -0.32779668888E+03  0.10493233703E+04  0.12699999809E+01 0. -1.
       -4    1    3    3    0  502  0.71771592486E+03  0.69174497067E+03  0.31206001525E+03  0.10445143940E+04  0.12699999809E+01 0.  1.
</event>
<event>
 5   0  0.1349252E-04  0.1893983E+04  0.7818609E-02  0.8657857E-01
       -2   -1    0    0    0  501  0.00000000000E+00  0.00000000000E+00  0.14022689635E+04  0.14022689635E+04  0.25500000920E-02 0. -1.
        2   -1    0    0  501    0  0.00000000000E+00  0.00000000000E+00 -0.63952987737E+03  0.63952987737E+03  0.25500000920E-02 0.  1.
    10030    2    1    2    0    0  0.00000000000E+00  0.00000000000E+00  0.76273908612E+03  0.20417988409E+04  0.18939829970E+04 0.  0.
        2    1    3    3  502    0 -0.49760068378E+03  0.55648326055E+03 -0.24678279098E+03  0.78624538517E+03  0.25500000920E-02 0.  1.
       -2    1    3    3    0  502  0.49760068378E+03 -0.55648326055E+03  0.10095218771E+04  0.12555534557E+04  0.25500000920E-02 0. -1.
</event>
<event>
 5   0  0.1252477E-04  0.2115762E+04  0.7818609E-02  0.8554332E-01
        2   -1    0    0  501    0  0.00000000000E+00  0.00000000000E+00  0.17372563707E+04  0.17372563707E+04  0.25500000920E-02 0.  1.
       -2   -1    0    0    0  501  0.00000000000E+00  0.00000000000E+00 -0.64418362500E+03  0.64418362500E+03  0.25500000920E-02 0. -1.
    10030    2    1    2    0    0  0.00000000000E+00  0.00000000000E+00  0.10930727457E+04  0.23814399957E+04  0.21157619020E+04 0.  0.
        4    1    3    3  502    0  0.23940413027E+03 -0.21593333856E+03  0.16806119907E+04  0.17112567956E+04  0.12699999809E+01 0.  1.
       -4    1    3    3    0  502 -0.23940413027E+03  0.21593333856E+03 -0.58753924504E+03  0.67018320007E+03  0.12699999809E+01 0. -1.
</event>
<event>
 5   0  0.1281470E-04  0.2055272E+04  0.7818609E-02  0.8581207E-01
        2   -1    0    0  501    0  0.00000000000E+00  0.00000000000E+00  0.23720654238E+04  0.23720654238E+04  0.25500000920E-02 0. -1.
       -2   -1    0    0    0  501  0.00000000000E+00  0.00000000000E+00 -0.44519661031E+03  0.44519661031E+03  0.25500000920E-02 0.  1.
    10030    2    1    2    0    0  0.00000000000E+00  0.00000000000E+00  0.19268688135E+04  0.28172620341E+04  0.20552717447E+04 0.  0.
        3    1    3    3  502    0 -0.29685308371E+03  0.78143225579E+02 -0.38088367071E+03  0.48918350117E+03  0.10100000352E+00 0.  1.
       -3    1    3    3    0  502  0.29685308371E+03 -0.78143225579E+02  0.23077524842E+04  0.23280785329E+04  0.10100000352E+00 0. -1.
</event>
<event>
 5   0  0.6221148E-05  0.2040815E+04  0.7818609E-02  0.8587772E-01
       -1   -1    0    0    0  501  0.00000000000E+00  0.00000000000E+00  0.10996798163E+04  0.10996798163E+04  0.50400001928E-02 0.  1.
        1   -1    0    0  501    0  0.00000000000E+00  0.00000000000E+00 -0.94685010161E+03  0.94685010163E+03  0.50400001928E-02 0. -1.
    10030    2    1    2    0    0  0.00000000000E+00  0.00000000000E+00  0.15282971472E+03  0.20465299180E+04  0.20408154702E+04 0.  0.
        3    1    3    3  502    0 -0.96744008552E+03  0.32427784921E+03  0.88087600861E+02  0.10241366502E+04  0.10100000352E+00 0. -1.
       -3    1    3    3    0  502  0.96744008552E+03 -0.32427784921E+03  0.64742113860E+02  0.10223932678E+04  0.10100000352E+00 0.  1.
</event>
<event>
 5   0  0.1281470E-04  0.2104756E+04  0.7818609E-02  0.8559151E-01
        2   -1    0    0  501    0  0.00000000000E+00  0.00000000000E+00  0.86891470607E+03  0.86891470608E+03  0.25500000920E-02 0.  1.
       -2   -1    0    0    0  501  0.00000000000E+00  0.00000000000E+00 -0.12745775002E+04  0.12745775002E+04  0.25500000920E-02 0. -1.
    10030    2    1    2    0    0  0.00000000000E+00  0.00000000000E+00 -0.40566279408E+03  0.21434922062E+04  0.21047556950E+04 0.  0.
        3    1    3    3  502    0  0.66195238919E+03  0.77420434213E+03  0.66470195174E+02  0.10207799106E+04  0.10100000352E+00 0.  1.
       -3    1    3    3    0  502 -0.66195238919E+03 -0.77420434213E+03 -0.47213298925E+03  0.11227122956E+04  0.10100000352E+00 0. -1.
</event>
<event>
 5   0  0.1349252E-04  0.2076877E+04  0.7818609E-02  0.8571498E-01
       -2   -1    0    0    0  501  0.00000000000E+00  0.00000000000E+00  0.91973430172E+03  0.91973430172E+03  0.25500000920E-02 0. -1.
        2   -1    0    0  501    0  0.00000000000E+00  0.00000000000E+00 -0.11724628120E+04  0.11724628120E+04  0.25500000920E-02 0.  1.
    10030    2    1    2    0    0  0.00000000000E+00  0.00000000000E+00 -0.25272851028E+03  0.20921971137E+04  0.20768767568E+04 0.  0.
        2    1    3    3  502    0 -0.25657525767E+03  0.36352022077E+03 -0.10715694100E+04  0.11602753183E+04  0.25500000920E-02 0.  1.
       -2    1    3    3    0  502  0.25657525767E+03 -0.36352022077E+03  0.81884089972E+03  0.93192179544E+03  0.25500000920E-02 0. -1.
</event>
<event>
 5   0  0.6221148E-05  0.2080311E+04  0.7818609E-02  0.8569966E-01
        1   -1    0    0  501    0  0.00000000000E+00  0.00000000000E+00  0.11339912425E+04  0.11339912425E+04  0.50400001928E-02 0. -1.
       -1   -1    0    0    0  501  0.00000000000E+00  0.00000000000E+00 -0.95408452092E+03  0.95408452094E+03  0.50400001928E-02 0.  1.
    10030    2    1    2    0    0  0.00000000000E+00  0.00000000000E+00  0.17990672161E+03  0.20880757635E+04  0.20803110262E+04 0.  0.
        3    1    3    3  502    0 -0.43366120226E+03  0.92447793273E+03 -0.10878058918E+03  0.10269151441E+04  0.10100000352E+00 0. -1.
       -3    1    3    3    0  502  0.43366120226E+03 -0.92447793273E+03  0.28868731080E+03  0.10611606194E+04  0.10100000352E+00 0.  1.
</event>
<event>
 5   0  0.1325673E-04  0.2087300E+04  0.7818609E-02  0.8566859E-01
       -2   -1    0    0    0  501  0.00000000000E+00  0.00000000000E+00  0.85635273315E+03  0.85635273315E+03  0.25500000920E-02 0. -1.
        2   -1    0    0  501    0  0.00000000000E+00  0.00000000000E+00 -0.12719117158E+04  0.12719117158E+04  0.25500000920E-02 0.  1.
    10030    2    1    2    0    0  0.00000000000E+00  0.00000000000E+00 -0.41555898267E+03  0.21282644490E+04  0.20872997621E+04 0.  0.
        5    1    3    3  502    0  0.45137608059E+03 -0.89948202688E+03  0.74003989426E+02  0.10091119676E+04  0.46999998093E+01 0. -1.
       -5    1    3    3    0  502 -0.45137608059E+03  0.89948202688E+03 -0.48956297210E+03  0.11191524813E+04  0.46999998093E+01 0.  1.
</event>
<event>
 5   0  0.5846187E-05  0.1853573E+04  0.7818609E-02  0.8678317E-01
       -1   -1    0    0    0  501  0.00000000000E+00  0.00000000000E+00  0.35882989774E+03  0.35882989778E+03  0.50400001928E-02 0.  1.
        1   -1    0    0  501    0  0.00000000000E+00  0.00000000000E+00 -0.23937062704E+04  0.23937062704E+04  0.50400001928E-02 0. -1.
    10030    2    1    2    0    0  0.00000000000E+00  0.00000000000E+00 -0.20348763726E+04  0.27525361681E+04  0.18535731723E+04 0.  0.
        5    1    3    3  502    0  0.89494833487E+03 -0.18549166641E+03 -0.78944709114E+03  0.12077203650E+04  0.46999998093E+01 0.  1.
       -5    1    3    3    0  502 -0.89494833487E+03  0.18549166641E+03 -0.12454292815E+04  0.15448158031E+04  0.46999998093E+01 0. -1.
</event>
<event>
 5   0  0.1325673E-04  0.2101762E+04  0.7818609E-02  0.8560468E-01
       -2   -1    0    0    0  501  0.00000000000E+00  0.00000000000E+00  0.63093409596E+03  0.63093409597E+03  0.25500000920E-02 0. -1.
        2   -1    0    0  501    0  0.00000000000E+00  0.00000000000E+00 -0.17503427812E+04  0.17503427812E+04  0.25500000920E-02 0.  1.
    10030    2    1    2    0    0  0.00000000000E+00  0.00000000000E+00 -0.11194086853E+04  0.23812768772E+04  0.21017620610E+04 0.  0.
        5    1    3    3  502    0  0.64212633227E+03  0.81034665537E+03 -0.34671136585E+03  0.10905130855E+04  0.46999998093E+01 0. -1.
       -5    1    3    3    0  502 -0.64212633227E+03 -0.81034665537E+03 -0.77269731941E+03  0.12907637917E+04  0.46999998093E+01 0.  1.
</event>
<event>
 5   0  0.1235817E-04  0.1646288E+04  0.7818609E-02  0.8792606E-01
        2   -1    0    0  501    0  0.00000000000E+00  0.00000000000E+00  0.19508793714E+04  0.19508793714E+04  0.25500000920E-02 0. -1.
       -2   -1    0    0    0  501  0.00000000000E+00  0.00000000000E+00 -0.34731309789E+03  0.34731309790E+03  0.25500000920E-02 0.  1.
    10030    2    1    2    0    0  0.00000000000E+00  0.00000000000E+00  0.16035662735E+04  0.22981924693E+04  0.16462878948E+04 0.  0.
        1    1    3    3  502    0  0.88616966479E+02 -0.68980094685E+03  0.14164724749E+04  0.15779963831E+04  0.50400001928E-02 0. -1.
       -1    1    3    3    0  502 -0.88616966479E+02  0.68980094685E+03  0.18709379862E+03  0.72019608617E+03  0.50400001928E-02 0.  1.
</event>
<event>
 5   0  0.1252477E-04  0.2204692E+04  0.7818609E-02  0.8516478E-01
       -2   -1    0    0    0  501  0.00000000000E+00  0.00000000000E+00  0.59201327469E+03  0.59201327469E+03  0.25500000920E-02 0. -1.
        2   -1    0    0  501    0  0.00000000000E+00  0.00000000000E+00 -0.20526010180E+04  0.20526010180E+04  0.25500000920E-02 0.  1.
    10030    2    1    2    0    0  0.00000000000E+00  0.00000000000E+00 -0.14605877433E+04  0.26446142927E+04  0.22046923144E+04 0.  0.
        4    1    3    3  502    0  0.98668011842E+03 -0.47881035167E+03 -0.59688902350E+03  0.12486292998E+04  0.12699999809E+01 0. -1.
       -4    1    3    3    0  502 -0.98668011842E+03  0.47881035167E+03 -0.86369871980E+03  0.13959849929E+04  0.12699999809E+01 0.  1.
</event>
<event>
 5   0  0.6221148E-05  0.2058816E+04  0.7818609E-02  0.8579606E-01
       -1   -1    0    0    0  501  0.00000000000E+00  0.00000000000E+00  0.75619327570E+03  0.75619327571E+03  0.50400001928E-02 0.  1.
        1   -1    0    0  501    0  0.00000000000E+00  0.00000000000E+00 -0.14013355640E+04  0.14013355640E+04  0.50400001928E-02 0. -1.
    10030    2    1    2    0    0  0.00000000000E+00  0.00000000000E+00 -0.64514228833E+03  0.21575288398E+04  0.20588157086E+04 0.  0.
        3    1    3    3  502    0  0.31056339770E+01  0.61807832311E+03  0.54009325866E+03  0.82081130396E+03  0.10100000352E+00 0.  1.
       -3    1    3    3    0  502 -0.31056339770E+01 -0.61807832311E+03 -0.11852355470E+04  0.13367175358E+04  0.10100000352E+00 0. -1.
</event>
<event>
 5   0  0.6263616E-05  0.2140239E+04  0.7818609E-02  0.8543722E-01
       -1   -1    0    0    0  501  0.00000000000E+00  0.00000000000E+00  0.82239399336E+03  0.82239399338E+03  0.50400001928E-02 0.  1.
        1   -1    0    0  501    0  0.00000000000E+00  0.00000000000E+00 -0.13924656973E+04  0.13924656973E+04  0.50400001928E-02 0. -1.
    10030    2    1    2    0    0  0.00000000000E+00  0.00000000000E+00 -0.57007170395E+03  0.22148596907E+04  0.21402387021E+04 0.  0.
        4    1    3    3  502    0  0.63074307394E+03  0.13333629700E+02 -0.11795449623E+04  0.13376630899E+04  0.12699999809E+01 0. -1.
       -4    1    3    3    0  502 -0.63074307394E+03 -0.13333629700E+02  0.60947325834E+03  0.87719660084E+03  0.12699999809E+01 0.  1.
</event>
<event>
 5   0  0.1235817E-04  0.2006297E+04  0.7818609E-02  0.8603682E-01
       -2   -1    0    0    0  501  0.00000000000E+00  0.00000000000E+00  0.77740021451E+03  0.77740021452E+03  0.25500000920E-02 0. -1.
        2   -1    0    0  501    0  0.00000000000E+00  0.00000000000E+00 -0.12944520837E+04  0.12944520837E+04  0.25500000920E-02 0.  1.
    10030    2    1    2    0    0  0.00000000000E+00  0.00000000000E+00 -0.51705186917E+03  0.20718522982E+04  0.20062974132E+04 0.  0.
        1    1    3    3  502    0 -0.56673923039E+03  0.76278717394E+03  0.73330264680E+02  0.95310805040E+03  0.50400001928E-02 0.  1.
       -1    1    3    3    0  502  0.56673923039E+03 -0.76278717394E+03 -0.59038213385E+03  0.11187442478E+04  0.50400001928E-02 0. -1.
</event>
<event>
 5   0  0.6052292E-05  0.2131392E+04  0.7818609E-02  0.8547540E-01
       -1   -1    0    0    0  501  0.00000000000E+00  0.00000000000E+00  0.53153606858E+03  0.53153606860E+03  0.50400001928E-02 0.  1.
        1   -1    0    0  501    0  0.00000000000E+00  0.00000000000E+00 -0.21366524345E+04  0.21366524345E+04  0.50400001928E-02 0. -1.
    10030    2    1    2    0    0  0.00000000000E+00  0.00000000000E+00 -0.16051163659E+04  0.26681885031E+04  0.21313918786E+04 0.  0.
        1    1    3    3  502    0 -0.29861830500E+03  0.82594874591E+03 -0.46928896823E+02  0.87952631816E+03  0.50400001928E-02 0.  1.
       -1    1    3    3    0  502  0.29861830500E+03 -0.82594874591E+03 -0.15581874691E+04  0.17886621849E+04  0.50400001928E-02 0. -1.
</event>
<event>
 5   0  0.1252477E-04  0.2105792E+04  0.7818609E-02  0.8558696E-01
        2   -1    0    0  501    0  0.00000000000E+00  0.00000000000E+00  0.11440772050E+04  0.11440772050E+04  0.25500000920E-02 0.  1.
       -2   -1    0    0    0  501  0.00000000000E+00  0.00000000000E+00 -0.96898198776E+03  0.96898198776E+03  0.25500000920E-02 0. -1.
    10030    2    1    2    0    0  0.00000000000E+00  0.00000000000E+00  0.17509521723E+03  0.21130591928E+04  0.21057922065E+04 0.  0.
        4    1    3    3  502    0 -0.63337875406E+03 -0.80143580657E+03  0.34361561661E+03  0.10777482559E+04  0.12699999809E+01 0. -1.
       -4    1    3    3    0  502  0.63337875406E+03  0.80143580657E+03 -0.16852039937E+03  0.10353109369E+04  0.12699999809E+01 0.  1.
</event>
<event>
 5   0  0.1281470E-04  0.2118030E+04  0.7818609E-02  0.8553342E-01
       -2   -1    0    0    0  501  0.00000000000E+00  0.00000000000E+00  0.51639155952E+03  0.51639155953E+03  0.25500000920E-02 0. -1.
        2   -1    0    0  501    0  0.00000000000E+00  0.00000000000E+00 -0.21718269046E+04  0.21718269046E+04  0.25500000920E-02 0.  1.
    10030    2    1    2    0    0  0.00000000000E+00  0.00000000000E+00 -0.16554353451E+04  0.26882184642E+04  0.21180302947E+04 0.  0.
        3    1    3    3  502    0  0.23955364370E+03 -0.10167822666E+04 -0.10485776958E+04  0.14801173332E+04  0.10100000352E+00 0.  1.
       -3    1    3    3    0  502 -0.23955364370E+03  0.10167822666E+04 -0.60685764934E+03  0.12081011309E+04  0.10100000352E+00 0. -1.
</event>
<event>
 5   0  0.1325673E-04  0.2101512E+04  0.7818609E-02  0.8560577E-01
        2   -1    0    0  501    0  0.00000000000E+00  0.00000000000E+00  0.24756939246E+04  0.24756939246E+04  0.25500000920E-02 0.  1.
       -2   -1    0    0    0  501  0.00000000000E+00  0.00000000000E+00 -0.44597132527E+03  0.44597132527E+03  0.25500000920E-02 0. -1.
    10030    2    1    2    0    0  0.00000000000E+00  0.00000000000E+00  0.20297225993E+04  0.29216652499E+04  0.21015123131E+04 0.  0.
        5    1    3    3  502    0 -0.52979974426E+03 -0.11410322248E+03 -0.23665719482E+03  0.59138484277E+03  0.46999998093E+01 0. -1.
       -5    1    3    3    0  502  0.52979974426E+03  0.11410322248E+03  0.22663797941E+04  0.23302804071E+04  0.46999998093E+01 0.  1.
</event>
<event>
 5   0  0.6263616E-05  0.2090418E+04  0.7818609E-02  0.8565476E-01
        1   -1    0    0  501    0  0.00000000000E+00  0.00000000000E+00  0.10493314998E+04  0.10493314998E+04  0.50400001928E-02 0. -1.
       -1   -1    0    0    0  501  0.00000000000E+00  0.00000000000E+00 -0.10411025530E+04  0.10411025530E+04  0.50400001928E-02 0.  1.
    10030    2    1    2    0    0  0.00000000000E+00  0.00000000000E+00  0.82289467848E+01  0.20904340528E+04  0.20904178562E+04 0.  0.
        4    1    3    3  502    0  0.10695417517E+03 -0.10229207189E+04 -0.18204308037E+03  0.10444842214E+04  0.12699999809E+01 0. -1.
       -4    1    3    3    0  502 -0.10695417517E+03  0.10229207189E+04  0.19027202716E+03  0.10459498314E+04  0.12699999809E+01 0.  1.
</event>
<event>
 5   0  0.6263616E-05  0.2101209E+04  0.7818609E-02  0.8560711E-01
       -1   -1    0    0    0  501  0.00000000000E+00  0.00000000000E+00  0.26537342512E+04  0.26537342512E+04  0.50400001928E-02 0. -1.
        1   -1    0    0  501    0  0.00000000000E+00  0.00000000000E+00 -0.41593082232E+03  0.41593082235E+03  0.50400001928E-02 0.  1.
    10030    2    1    2    0    0  0.00000000000E+00  0.00000000000E+00  0.22378034289E+04  0.30696650735E+04  0.21012090513E+04 0.  0.
        4    1    3    3  502    0  0.34384422177E+03 -0.47119315798E+03  0.23954314017E+04  0.24654299937E+04  0.12699999809E+01 0. -1.
       -4    1    3    3    0  502 -0.34384422177E+03  0.47119315798E+03 -0.15762797280E+03  0.60423507981E+03  0.12699999809E+01 0.  1.
</event>
<event>
 5   0  0.6052292E-05  0.2114007E+04  0.7818609E-02  0.8555098E-01
        1   -1    0    0  501    0  0.00000000000E+00  0.00000000000E+00  0.17642157048E+04  0.17642157048E+04  0.50400001928E-02 0. -1.
       -1   -1    0    0    0  501  0.00000000000E+00  0.00000000000E+00 -0.63328783787E+03  0.63328783789E+03  0.50400001928E-02 0.  1.
    10030    2    1    2    0    0  0.00000000000E+00  0.00000000000E+00  0.11309278670E+04  0.23975035427E+04  0.21140069529E+04 0.  0.
        1    1    3    3  502    0  0.24724980463E+03  0.10196599075E+04  0.42015005155E+03  0.11302056710E+04  0.50400001928E-02 0.  1.
       -1    1    3    3    0  502 -0.24724980463E+03 -0.10196599075E+04  0.71077781540E+03  0.12672978718E+04  0.50400001928E-02 0. -1.
</event>
<event>
 5   0  0.1325673E-04  0.2098196E+04  0.7818609E-02  0.8562038E-01
        2   -1    0    0  501    0  0.00000000000E+00  0.00000000000E+00  0.57488770987E+03  0.57488770987E+03  0.25500000920E-02 0. -1.
       -2   -1    0    0    0  501  0.00000000000E+00  0.00000000000E+00 -0.19144727856E+04  0.19144727856E+04  0.25500000920E-02 0.  1.
    10030    2    1    2    0    0  0.00000000000E+00  0.00000000000E+00 -0.13395850758E+04  0.24893604955E+04  0.20981962495E+04 0.  0.
        5    1    3    3  502    0  0.23909604321E+03 -0.91036485784E+03 -0.12011135600E+03  0.94888351240E+03  0.46999998093E+01 0. -1.
       -5    1    3    3    0  502 -0.23909604321E+03  0.91036485784E+03 -0.12194737198E+04  0.15404769831E+04  0.46999998093E+01 0.  1.
</event>
<event>
 5   0  0.1252477E-04  0.2095403E+04  0.7818609E-02  0.8563271E-01
        2   -1    0    0  501    0  0.00000000000E+00  0.00000000000E+00  0.16061368889E+04  0.16061368889E+04  0.25500000920E-02 0.  1.
       -2   -1    0    0    0  501  0.00000000000E+00  0.00000000000E+00 -0.68342762471E+03  0.68342762471E+03  0.25500000920E-02 0. -1.
    10030    2    1    2    0    0  0.00000000000E+00  0.00000000000E+00  0.92270926417E+03  0.22895645136E+04  0.20954028910E+04 0.  0.
        4    1    3    3  502    0 -0.49329885959E+03 -0.42962641022E+03  0.13555718612E+04  0.15051575669E+04  0.12699999809E+01 0.  1.
       -4    1    3    3    0  502  0.49329885959E+03  0.42962641022E+03 -0.43286259707E+03  0.78440694672E+03  0.12699999809E+01 0. -1.
</event>
<event>
 5   0  0.1235817E-04  0.2107596E+04  0.7818609E-02  0.8557905E-01
        2   -1    0    0  501    0  0.00000000000E+00  0.00000000000E+00  0.10536681383E+04  0.10536681383E+04  0.25500000920E-02 0. -1.
       -2   -1    0    0    0  501  0.00000000000E+00  0.00000000000E+00 -0.10539279032E+04  0.10539279032E+04  0.25500000920E-02 0.  1.
    10030    2    1    2    0    0  0.00000000000E+00  0.00000000000E+00 -0.25976485145E+00  0.21075960415E+04  0.21075960254E+04 0.  0.
        1    1    3    3  502    0  0.12791220919E+03 -0.84484606711E+03 -0.61686633100E+03  0.10538740346E+04  0.50400001928E-02 0.  1.
       -1    1    3    3    0  502 -0.12791220919E+03  0.84484606711E+03  0.61660656615E+03  0.10537220069E+04  0.50400001928E-02 0. -1.
</event>
<event>
 5   0  0.1235817E-04  0.1813701E+04  0.7818609E-02  0.8699047E-01
        2   -1    0    0  501    0  0.00000000000E+00  0.00000000000E+00  0.15156622994E+04  0.15156622994E+04  0.25500000920E-02 0. -1.
       -2   -1    0    0    0  501  0.00000000000E+00  0.00000000000E+00 -0.54258656207E+03  0.54258656208E+03  0.25500000920E-02 0.  1.
    10030    2    1    2    0    0  0.00000000000E+00  0.00000000000E+00  0.97307573728E+03  0.20582488614E+04  0.18137011841E+04 0.  0.
        1    1    3    3  502    0  0.19429231056E+03  0.55337677324E+03 -0.29838852296E+03  0.65803576329E+03  0.50400001928E-02 0.  1.
       -1    1    3    3    0  502 -0.19429231056E+03 -0.55337677324E+03  0.12714642602E+04  0.14002130981E+04  0.50400001928E-02 0. -1.
</event>
<event>
 5   0  0.5933905E-05  0.1997017E+04  0.7818609E-02  0.8608016E-01
        1   -1    0    0  501    0  0.00000000000E+00  0.00000000000E+00  0.10737089601E+04  0.10737089601E+04  0.50400001928E-02 0. -1.
       -1   -1    0    0    0  501  0.00000000000E+00  0.00000000000E+00 -0.92857534036E+03  0.92857534038E+03  0.50400001928E-02 0.  1.
    10030    2    1    2    0    0  0.00000000000E+00  0.00000000000E+00  0.14513361970E+03  0.20022843004E+04  0.19970174391E+04 0.  0.
        2    1    3    3  502    0  0.58994594430E+03  0.59343829062E+03 -0.47367683624E+03  0.96154821365E+03  0.25500000920E-02 0.  1.
       -2    1    3    3    0  502 -0.58994594430E+03 -0.59343829062E+03  0.61881045594E+03  0.10407360868E+04  0.25500000920E-02 0. -1.
</event>
<event>
 5   0  0.5846187E-05  0.2084862E+04  0.7818609E-02  0.8567941E-01
       -1   -1    0    0    0  501  0.00000000000E+00  0.00000000000E+00  0.53757736958E+03  0.53757736960E+03  0.50400001928E-02 0. -1.
        1   -1    0    0  501    0  0.00000000000E+00  0.00000000000E+00 -0.20214064110E+04  0.20214064110E+04  0.50400001928E-02 0.  1.
    10030    2    1    2    0    0  0.00000000000E+00  0.00000000000E+00 -0.14838290414E+04  0.25589837806E+04  0.20848619535E+04 0.  0.
        5    1    3    3  502    0 -0.57205465411E+03  0.34558892975E+03 -0.17238146745E+04  0.18488475756E+04  0.46999998093E+01 0.  1.
       -5    1    3    3    0  502  0.57205465411E+03 -0.34558892975E+03  0.23998563307E+03  0.71013620505E+03  0.46999998093E+01 0. -1.
</event>
<event>
 5   0  0.1325673E-04  0.2048285E+04  0.7818609E-02  0.8584373E-01
       -2   -1    0    0    0  501  0.00000000000E+00  0.00000000000E+00  0.48053065538E+03  0.48053065539E+03  0.25500000920E-02 0. -1.
        2   -1    0    0  501    0  0.00000000000E+00  0.00000000000E+00 -0.21827281072E+04  0.21827281072E+04  0.25500000920E-02 0.  1.
    10030    2    1    2    0    0  0.00000000000E+00  0.00000000000E+00 -0.17021974518E+04  0.26632587626E+04  0.20482849098E+04 0.  0.
        5    1    3    3  502    0 -0.48100940471E+03 -0.21804552637E+03  0.28980532432E+03  0.60243100434E+03  0.46999998093E+01 0. -1.
       -5    1    3    3    0  502  0.48100940471E+03  0.21804552637E+03 -0.19920027762E+04  0.20608277583E+04  0.46999998093E+01 0.  1.
</event>
<event>
 5   0  0.6263616E-05  0.2085236E+04  0.7818609E-02  0.8567775E-01
        1   -1    0    0  501    0  0.00000000000E+00  0.00000000000E+00  0.12788461533E+04  0.12788461533E+04  0.50400001928E-02 0.  1.
       -1   -1    0    0    0  501  0.00000000000E+00  0.00000000000E+00 -0.85002593661E+03  0.85002593663E+03  0.50400001928E-02 0. -1.
    10030    2    1    2    0    0  0.00000000000E+00  0.00000000000E+00  0.42882021666E+03  0.21288720899E+04  0.20852361010E+04 0.  0.
        4    1    3    3  502    0 -0.10883653829E+03 -0.82546735939E+03  0.85508421185E+03  0.11934874845E+04  0.12699999809E+01 0.  1.
       -4    1    3    3    0  502  0.10883653829E+03  0.82546735939E+03 -0.42626399519E+03  0.93538460538E+03  0.12699999809E+01 0. -1.
</event>
<event>
 5   0  0.1349252E-04  0.1543420E+04  0.7818609E-02  0.8856081E-01
        2   -1    0    0  501    0  0.00000000000E+00  0.00000000000E+00  0.15372336160E+04  0.15372336160E+04  0.25500000920E-02 0. -1.
       -2   -1    0    0    0  501  0.00000000000E+00  0.00000000000E+00 -0.38740801785E+03  0.38740801785E+03  0.25500000920E-02 0.  1.
    10030    2    1    2    0    0  0.00000000000E+00  0.00000000000E+00  0.11498255981E+04  0.19246416338E+04  0.15434203940E+04 0.  0.
        2    1    3    3  502    0  0.42648661423E+02  0.47722104295E+03  0.13292977400E+04  0.14130078958E+04  0.25500000920E-02 0. -1.
       -2    1    3    3    0  502 -0.42648661423E+02 -0.47722104295E+03 -0.17947214185E+03  0.51163373800E+03  0.25500000920E-02 0.  1.
</event>
<event>
 5   0  0.6052292E-05  0.2138710E+04  0.7818609E-02  0.8544380E-01
       -1   -1    0    0    0  501  0.00000000000E+00  0.00000000000E+00  0.76359284521E+03  0.76359284523E+03  0.50400001928E-02 0. -1.
        1   -1    0    0  501    0  0.00000000000E+00  0.00000000000E+00 -0.14975524997E+04  0.14975524997E+04  0.50400001928E-02 0.  1.
    10030    2    1    2    0    0  0.00000000000E+00  0.00000000000E+00 -0.73395965451E+03  0.22611453450E+04  0.21387102414E+04 0.  0.
        1    1    3    3  502    0  0.90778030074E+03  0.72515704672E+02  0.22564165437E+03  0.93820986888E+03  0.50400001928E-02 0.  1.
       -1    1    3    3    0  502 -0.90778030074E+03 -0.72515704672E+02 -0.95960130888E+03  0.13229354761E+04  0.50400001928E-02 0. -1.
</event>
<event>
 5   0  0.1281470E-04  0.2088669E+04  0.7818609E-02  0.8566251E-01
        2   -1    0    0  501    0  0.00000000000E+00  0.00000000000E+00  0.21180629517E+04  0.21180629517E+04  0.25500000920E-02 0. -1.
       -2   -1    0    0    0  501  0.00000000000E+00  0.00000000000E+00 -0.51492062204E+03  0.51492062205E+03  0.25500000920E-02 0.  1.
    10030    2    1    2    0    0  0.00000000000E+00  0.00000000000E+00  0.16031423296E+04  0.26329835737E+04  0.20886687556E+04 0.  0.
        3    1    3    3  502    0 -0.39038235606E+03  0.85667293614E+03  0.23171780214E+03  0.96952568479E+03  0.10100000352E+00 0.  1.
       -3    1    3    3    0  502  0.39038235606E+03 -0.85667293614E+03  0.13714245275E+04  0.16634578889E+04  0.10100000352E+00 0. -1.
</event>
<event>
 5   0  0.1325673E-04  0.1833082E+04  0.7818609E-02  0.8688902E-01
       -2   -1    0    0    0  501  0.00000000000E+00  0.00000000000E+00  0.73372117427E+03  0.73372117428E+03  0.25500000920E-02 0.  1.
        2   -1    0    0  501    0  0.00000000000E+00  0.00000000000E+00 -0.11449141485E+04  0.11449141485E+04  0.25500000920E-02 0. -1.
    10030    2    1    2    0    0  0.00000000000E+00  0.00000000000E+00 -0.41119297422E+03  0.18786353228E+04  0.18330823806E+04 0.  0.
        5    1    3    3  502    0  0.37006541760E+03 -0.32253698989E+03 -0.99881163721E+03  0.11129354428E+04  0.46999998093E+01 0. -1.
       -5    1    3    3    0  502 -0.37006541760E+03  0.32253698989E+03  0.58761866299E+03  0.76569988000E+03  0.46999998093E+01 0.  1.
</event>
<event>
 5   0  0.6052292E-05  0.2119316E+04  0.7818609E-02  0.8552782E-01
        1   -1    0    0  501    0  0.00000000000E+00  0.00000000000E+00  0.77737645543E+03  0.77737645544E+03  0.50400001928E-02 0. -1.
       -1   -1    0    0    0  501  0.00000000000E+00  0.00000000000E+00 -0.14444422952E+04  0.14444422952E+04  0.50400001928E-02 0.  1.
    10030    2    1    2    0    0  0.00000000000E+00  0.00000000000E+00 -0.66706583973E+03  0.22218187506E+04  0.21193163346E+04 0.  0.
        1    1    3    3  502    0  0.10106899767E+04  0.23277681675E+03 -0.10577884470E+03  0.10425298266E+04  0.50400001928E-02 0. -1.
       -1    1    3    3    0  502 -0.10106899767E+04 -0.23277681675E+03 -0.56128699502E+03  0.11792889240E+04  0.50400001928E-02 0.  1.
</event>
<event>
 5   0  0.6263616E-05  0.2192924E+04  0.7818609E-02  0.8521379E-01
        1   -1    0    0  501    0  0.00000000000E+00  0.00000000000E+00  0.10069120519E+04  0.10069120519E+04  0.50400001928E-02 0. -1.
       -1   -1    0    0    0  501  0.00000000000E+00  0.00000000000E+00 -0.11939760284E+04  0.11939760284E+04  0.50400001928E-02 0.  1.
    10030    2    1    2    0    0  0.00000000000E+00  0.00000000000E+00 -0.18706397654E+03  0.22008880803E+04  0.21929239409E+04 0.  0.
        4    1    3    3  502    0  0.92232168617E+02  0.33704764279E+03 -0.11365943232E+04  0.11890988836E+04  0.12699999809E+01 0.  1.
       -4    1    3    3    0  502 -0.92232168617E+02 -0.33704764279E+03  0.94953034669E+03  0.10117891967E+04  0.12699999809E+01 0. -1.
</event>
<event>
 5   0  0.5846187E-05  0.2058851E+04  0.7818609E-02  0.8579590E-01
        1   -1    0    0  501    0  0.00000000000E+00  0.00000000000E+00  0.19998786690E+04  0.19998786690E+04  0.50400001928E-02 0.  1.
       -1   -1    0    0    0  501  0.00000000000E+00  0.00000000000E+00 -0.52989056873E+03  0.52989056875E+03  0.50400001928E-02 0. -1.
    10030    2    1    2    0    0  0.00000000000E+00  0.00000000000E+00  0.14699881003E+04  0.25297692377E+04  0.20588509857E+04 0.  0.
        5    1    3    3  502    0 -0.65264448255E+03  0.96667827600E+02 -0.23593896985E+03  0.70069877764E+03  0.46999998093E+01 0. -1.
       -5    1    3    3    0  502  0.65264448255E+03 -0.96667827600E+02  0.17059270701E+04  0.18290704601E+04  0.46999998093E+01 0.  1.
</event>
<event>
 5   0  0.5846187E-05  0.2141010E+04  0.7818609E-02  0.8543390E-01
       -1   -1    0    0    0  501  0.00000000000E+00  0.00000000000E+00  0.11821566594E+04  0.11821566594E+04  0.50400001928E-02 0.  1.
        1   -1    0    0  501    0  0.00000000000E+00  0.00000000000E+00 -0.96939814347E+03  0.96939814349E+03  0.50400001928E-02 0. -1.
    10030    2    1    2    0    0  0.00000000000E+00  0.00000000000E+00  0.21275851588E+03  0.21515548028E+04  0.21410095478E+04 0.  0.
        5    1    3    3  502    0  0.86671600300E+03  0.61323744131E+03 -0.31048067051E+02  0.10621877714E+04  0.46999998093E+01 0.  1.
       -5    1    3    3    0  502 -0.86671600300E+03 -0.61323744131E+03  0.24380658293E+03  0.10893670314E+04  0.46999998093E+01 0. -1.
</event>
<event>
 5   0  0.1325673E-04  0.2106557E+04  0.7818609E-02  0.8558360E-01
       -2   -1    0    0    0  501  0.00000000000E+00  0.00000000000E+00  0.12598984925E+04  0.12598984925E+04  0.25500000920E-02 0.  1.
        2   -1    0    0  501    0  0.00000000000E+00  0.00000000000E+00 -0.88054388952E+03  0.88054388953E+03  0.25500000920E-02 0. -1.
    10030    2    1    2    0    0  0.00000000000E+00  0.00000000000E+00  0.37935460295E+03  0.21404423820E+04  0.21065573042E+04 0.  0.
        5    1    3    3  502    0 -0.83436292658E+03 -0.11681696938E+03  0.83195759686E+03  0.11840537279E+04  0.46999998093E+01 0.  1.
       -5    1    3    3    0  502  0.83436292658E+03  0.11681696938E+03 -0.45260299392E+03  0.95638865410E+03  0.46999998093E+01 0. -1.
</event>
<event>
 5   0  0.1325673E-04  0.2347390E+04  0.7818609E-02  0.8459467E-01
        2   -1    0    0  501    0  0.00000000000E+00  0.00000000000E+00  0.16090032628E+04  0.16090032628E+04  0.25500000920E-02 0.  1.
       -2   -1    0    0    0  501  0.00000000000E+00  0.00000000000E+00 -0.85615726367E+03  0.85615726367E+03  0.25500000920E-02 0. -1.
    10030    2    1    2    0    0  0.00000000000E+00  0.00000000000E+00  0.75284599913E+03  0.24651605265E+04  0.23473898958E+04 0.  0.
        5    1    3    3  502    0  0.41769636347E+03  0.81883327553E+03  0.11428172175E+04  0.14666326970E+04  0.46999998093E+01 0.  1.
       -5    1    3    3    0  502 -0.41769636347E+03 -0.81883327553E+03 -0.38997121836E+03  0.99852782952E+03  0.46999998093E+01 0. -1.
</event>
<event>
 5   0  0.1281470E-04  0.2115647E+04  0.7818609E-02  0.8554382E-01
       -2   -1    0    0    0  501  0.00000000000E+00  0.00000000000E+00  0.12808003792E+04  0.12808003792E+04  0.25500000920E-02 0.  1.
        2   -1    0    0  501    0  0.00000000000E+00  0.00000000000E+00 -0.87366543705E+03  0.87366543705E+03  0.25500000920E-02 0. -1.
    10030    2    1    2    0    0  0.00000000000E+00  0.00000000000E+00  0.40713494215E+03  0.21544658163E+04  0.21156474405E+04 0.  0.
        3    1    3    3  502    0 -0.43510592234E+03 -0.80771649517E+03 -0.33265636760E+03  0.97590131127E+03  0.10100000352E+00 0. -1.
       -3    1    3    3    0  502  0.43510592234E+03  0.80771649517E+03  0.73979130976E+03  0.11785645050E+04  0.10100000352E+00 0.  1.
</event>
<event>
 5   0  0.1325673E-04  0.2120530E+04  0.7818609E-02  0.8552253E-01
       -2   -1    0    0    0  501  0.00000000000E+00  0.00000000000E+00  0.11366919952E+04  0.11366919952E+04  0.25500000920E-02 0. -1.
        2   -1    0    0  501    0  0.00000000000E+00  0.00000000000E+00 -0.98897660017E+03  0.98897660017E+03  0.25500000920E-02 0.  1.
    10030    2    1    2    0    0  0.00000000000E+00  0.00000000000E+00  0.14771539504E+03  0.21256685954E+04  0.21205299195E+04 0.  0.
        5    1    3    3  502    0 -0.23566432526E+03 -0.41903883541E+03  0.10211389496E+04  0.11286620681E+04  0.46999998093E+01 0. -1.
       -5    1    3    3    0  502  0.23566432526E+03  0.41903883541E+03 -0.87342355451E+03  0.99700652724E+03  0.46999998093E+01 0.  1.
</event>
<event>
 5   0  0.5933905E-05  0.2096104E+04  0.7818609E-02  0.8562962E-01
        1   -1    0    0  501    0  0.00000000000E+00  0.00000000000E+00  0.13287500929E+04  0.13287500929E+04  0.50400001928E-02 0.  1.
       -1   -1    0    0    0  501  0.00000000000E+00  0.00000000000E+00 -0.82665106558E+03  0.82665106559E+03  0.50400001928E-02 0. -1.
    10030    2    1    2    0    0  0.00000000000E+00  0.00000000000E+00  0.50209902728E+03  0.21554011585E+04  0.20961036999E+04 0.  0.
        2    1    3    3  502    0 -0.10018249443E+04 -0.12599425502E+03  0.53985957012E+03  0.11449786578E+04  0.25500000920E-02 0. -1.
       -2    1    3    3    0  502  0.10018249443E+04  0.12599425502E+03 -0.37760542834E+02  0.10104225007E+04  0.25500000920E-02 0.  1.
</event>
<event>
 5   0  0.1281470E-04  0.2133840E+04  0.7818609E-02  0.8546481E-01
       -2   -1    0    0    0  501  0.00000000000E+00  0.00000000000E+00  0.88365397492E+03  0.88365397493E+03  0.25500000920E-02 0. -1.
        2   -1    0    0  501    0  0.00000000000E+00  0.00000000000E+00 -0.12881952106E+04  0.12881952106E+04  0.25500000920E-02 0.  1.
    10030    2    1    2    0    0  0.00000000000E+00  0.00000000000E+00 -0.40454123570E+03  0.21718491856E+04  0.21338404986E+04 0.  0.
        3    1    3    3  502    0 -0.95370115476E+03 -0.11536821059E+03 -0.67471876964E+03  0.11739255278E+04  0.10100000352E+00 0. -1.
       -3    1    3    3    0  502  0.95370115476E+03  0.11536821059E+03  0.27017753394E+03  0.99792365772E+03  0.10100000352E+00 0.  1.
</event>
<event>
 5   0  0.1252477E-04  0.2101937E+04  0.7818609E-02  0.8560391E-01
        2   -1    0    0  501    0  0.00000000000E+00  0.00000000000E+00  0.79905430344E+03  0.79905430344E+03  0.25500000920E-02 0.  1.
       -2   -1    0    0    0  501  0.00000000000E+00  0.00000000000E+00 -0.13823023222E+04  0.13823023222E+04  0.25500000920E-02 0. -1.
    10030    2    1    2    0    0  0.00000000000E+00  0.00000000000E+00 -0.58324801880E+03  0.21813566257E+04  0.21019368394E+04 0.  0.
        4    1    3    3  502    0  0.95985011115E+03  0.34774132481E+03 -0.32600205531E+02  0.10214208981E+04  0.12699999809E+01 0.  1.
       -4    1    3    3    0  502 -0.95985011115E+03 -0.34774132481E+03 -0.55064781327E+03  0.11599357275E+04  0.12699999809E+01 0. -1.
</event>
<event>
 5   0  0.1281470E-04  0.2089563E+04  0.7818609E-02  0.8565855E-01
       -2   -1    0    0    0  501  0.00000000000E+00  0.00000000000E+00  0.77117077654E+03  0.77117077655E+03  0.25500000920E-02 0.  1.
        2   -1    0    0  501    0  0.00000000000E+00  0.00000000000E+00 -0.14154686536E+04  0.14154686536E+04  0.25500000920E-02 0. -1.
    10030    2    1    2    0    0  0.00000000000E+00  0.00000000000E+00 -0.64429787701E+03  0.21866394301E+04  0.20895626918E+04 0.  0.
        3    1    3    3  502    0  0.73664062000E+03 -0.50597450989E+03  0.24421439337E+03  0.92643957591E+03  0.10100000352E+00 0.  1.
       -3    1    3    3    0  502 -0.73664062000E+03  0.50597450989E+03 -0.88851227038E+03  0.12601998542E+04  0.10100000352E+00 0. -1.
</event>
<event>
 5   0  0.5933905E-05  0.2063980E+04  0.7818609E-02  0.8577279E-01
       -1   -1    0    0    0  501  0.00000000000E+00  0.00000000000E+00  0.52894290297E+03  0.52894290300E+03  0.50400001928E-02 0. -1.
        1   -1    0    0  501    0  0.00000000000E+00  0.00000000000E+00 -0.20134562227E+04  0.20134562227E+04  0.50400001928E-02 0.  1.
    10030    2    1    2    0    0  0.00000000000E+00  0.00000000000E+00 -0.14845133198E+04  0.25423991257E+04  0.20639800188E+04 0.  0.
        2    1    3    3  502    0  0.47917958719E+03 -0.34137285190E+03 -0.17866373999E+04  0.18810161349E+04  0.25500000920E-02 0.  1.
       -2    1    3    3    0  502 -0.47917958719E+03  0.34137285190E+03  0.30212408017E+03  0.66138299087E+03  0.25500000920E-02 0. -1.
</event>
<event>
 5   0  0.1349252E-04  0.2053922E+04  0.7818609E-02  0.8581817E-01
        2   -1    0    0  501    0  0.00000000000E+00  0.00000000000E+00  0.12639384691E+04  0.12639384691E+04  0.25500000920E-02 0. -1.
       -2   -1    0    0    0  501  0.00000000000E+00  0.00000000000E+00 -0.83441464093E+03  0.83441464094E+03  0.25500000920E-02 0.  1.
    10030    2    1    2    0    0  0.00000000000E+00  0.00000000000E+00  0.42952382821E+03  0.20983531101E+04  0.20539218718E+04 0.  0.
        2    1    3    3  502    0 -0.66532210729E+03  0.33806622486E+03  0.93550635783E+03  0.11967098330E+04  0.25500000920E-02 0. -1.
       -2    1    3    3    0  502  0.66532210729E+03 -0.33806622486E+03 -0.50598252962E+03  0.90164327709E+03  0.25500000920E-02 0.  1.
</event>
<event>
 5   0  0.6263616E-05  0.2377736E+04  0.7818609E-02  0.8447886E-01
       -1   -1    0    0    0  501  0.00000000000E+00  0.00000000000E+00  0.10391562929E+04  0.10391562929E+04  0.50400001928E-02 0. -1.
        1   -1    0    0  501    0  0.00000000000E+00  0.00000000000E+00 -0.13601492736E+04  0.13601492737E+04  0.50400001928E-02 0.  1.
    10030    2    1    2    0    0  0.00000000000E+00  0.00000000000E+00 -0.32099298075E+03  0.23993055666E+04  0.23777364673E+04 0.  0.
        4    1    3    3  502    0  0.10712759760E+04  0.40415599508E+03 -0.48344939927E+03  0.12428592920E+04  0.12699999809E+01 0.  1.
       -4    1    3    3    0  502 -0.10712759760E+04 -0.40415599508E+03  0.16245641851E+03  0.11564462746E+04  0.12699999809E+01 0. -1.
</event>
<event>
 5   0  0.6263616E-05  0.1858285E+04  0.7818609E-02  0.8675904E-01
       -1   -1    0    0    0  501  0.00000000000E+00  0.00000000000E+00  0.67085563689E+03  0.67085563691E+03  0.50400001928E-02 0. -1.
        1   -1    0    0  501    0  0.00000000000E+00  0.00000000000E+00 -0.12868732526E+04  0.12868732526E+04  0.50400001928E-02 0.  1.
    10030    2    1    2    0    0  0.00000000000E+00  0.00000000000E+00 -0.61601761573E+03  0.19577288895E+04  0.18582854200E+04 0.  0.
        4    1    3    3  502    0 -0.59425164572E+03 -0.71051512176E+03 -0.23103880198E+03  0.95464511606E+03  0.12699999809E+01 0.  1.
       -4    1    3    3    0  502  0.59425164572E+03  0.71051512176E+03 -0.38497881375E+03  0.10030837735E+04  0.12699999809E+01 0. -1.
</event>
<event>
 5   0  0.1252477E-04  0.2108184E+04  0.7818609E-02  0.8557647E-01
       -2   -1    0    0    0  501  0.00000000000E+00  0.00000000000E+00  0.71090193848E+03  0.71090193849E+03  0.25500000920E-02 0.  1.
        2   -1    0    0  501    0  0.00000000000E+00  0.00000000000E+00 -0.15629581116E+04  0.15629581116E+04  0.25500000920E-02 0. -1.
    10030    2    1    2    0    0  0.00000000000E+00  0.00000000000E+00 -0.85205617313E+03  0.22738600501E+04  0.21081840065E+04 0.  0.
        4    1    3    3  502    0  0.11665760504E+03  0.51834238125E+02 -0.15545892511E+04  0.15598221494E+04  0.12699999809E+01 0. -1.
       -4    1    3    3    0  502 -0.11665760504E+03 -0.51834238125E+02  0.70253307801E+03  0.71403790072E+03  0.12699999809E+01 0.  1.
</event>
<event>
 5   0  0.6221148E-05  0.2105887E+04  0.7818609E-02  0.8558655E-01
        1   -1    0    0  501    0  0.00000000000E+00  0.00000000000E+00  0.15533996334E+04  0.15533996334E+04  0.50400001928E-02 0.  1.
       -1   -1    0    0    0  501  0.00000000000E+00  0.00000000000E+00 -0.71371829065E+03  0.71371829067E+03  0.50400001928E-02 0. -1.
    10030    2    1    2    0    0  0.00000000000E+00  0.00000000000E+00  0.83968134273E+03  0.22671179241E+04  0.21058867311E+04 0.  0.
        3    1    3    3  502    0  0.68058491702E+03  0.78587846543E+03  0.59962632029E+03  0.12001468768E+04  0.10100000352E+00 0.  1.
       -3    1    3    3    0  502 -0.68058491702E+03 -0.78587846543E+03  0.24005502244E+03  0.10669710473E+04  0.10100000352E+00 0. -1.
</event>
<event>
 5   0  0.4615125E-05  0.2054584E+04  0.7818609E-02  0.8581517E-01
       -4   -1    0    0    0  501  0.00000000000E+00  0.00000000000E+00  0.66950058278E+03  0.66950178733E+03  0.12699999809E+01 0.  1.
        4   -1    0    0  501    0  0.00000000000E+00  0.00000000000E+00 -0.15762903938E+04  0.15762909054E+04  0.12699999809E+01 0. -1.
    10030    2    1    2    0    0  0.00000000000E+00  0.00000000000E+00 -0.90678981104E+03  0.22457926928E+04  0.20545844002E+04 0.  0.
        5    1    3    3  502    0 -0.62075478216E+03  0.70506786287E+03  0.10490688593E+01  0.93940426940E+03  0.46999998093E+01 0. -1.
       -5    1    3    3    0  502  0.62075478216E+03 -0.70506786287E+03 -0.90783887990E+03  0.13063884234E+04  0.46999998093E+01 0.  1.
</event>
<event>
 5   0  0.1235817E-04  0.2068092E+04  0.7818609E-02  0.8575431E-01
        2   -1    0    0  501    0  0.00000000000E+00  0.00000000000E+00  0.88737045557E+03  0.88737045558E+03  0.25500000920E-02 0.  1.
       -2   -1    0    0    0  501  0.00000000000E+00  0.00000000000E+00 -0.12049654137E+04  0.12049654137E+04  0.25500000920E-02 0. -1.
    10030    2    1    2    0    0  0.00000000000E+00  0.00000000000E+00 -0.31759495810E+03  0.20923358692E+04  0.20680915919E+04 0.  0.
        1    1    3    3  502    0  0.45142636299E+03  0.92844240905E+03 -0.99289242350E+02  0.10371351994E+04  0.50400001928E-02 0.  1.
       -1    1    3    3    0  502 -0.45142636299E+03 -0.92844240905E+03 -0.21830571575E+03  0.10552006699E+04  0.50400001928E-02 0. -1.
</event>
<event>
 5   0  0.1281470E-04  0.1911792E+04  0.7818609E-02  0.8649009E-01
        2   -1    0    0  501    0  0.00000000000E+00  0.00000000000E+00  0.22655636883E+04  0.22655636883E+04  0.25500000920E-02 0. -1.
       -2   -1    0    0    0  501  0.00000000000E+00  0.00000000000E+00 -0.40331549111E+03  0.40331549112E+03  0.25500000920E-02 0.  1.
    10030    2    1    2    0    0  0.00000000000E+00  0.00000000000E+00  0.18622481972E+04  0.26688791794E+04  0.19117917581E+04 0.  0.
        3    1    3    3  502    0 -0.86785488777E+03 -0.40061478496E+03  0.94301964122E+03  0.13427398728E+04  0.10100000352E+00 0.  1.
       -3    1    3    3    0  502  0.86785488777E+03  0.40061478496E+03  0.91922855594E+03  0.13261393066E+04  0.10100000352E+00 0. -1.
</event>
<event>
 5   0  0.1252477E-04  0.2078167E+04  0.7818609E-02  0.8570922E-01
        2   -1    0    0  501    0  0.00000000000E+00  0.00000000000E+00  0.21981876405E+04  0.21981876405E+04  0.25500000920E-02 0. -1.
       -2   -1    0    0    0  501  0.00000000000E+00  0.00000000000E+00 -0.49117493251E+03  0.49117493252E+03  0.25500000920E-02 0.  1.
    10030    2    1    2    0    0  0.00000000000E+00  0.00000000000E+00  0.17070127080E+04  0.26893625730E+04  0.20781671405E+04 0.  0.
        4    1    3    3  502    0 -0.65906392002E+02  0.10361595126E+04  0.79979148575E+03  0.13105869760E+04  0.12699999809E+01 0.  1.
       -4    1    3    3    0  502  0.65906392002E+02 -0.10361595126E+04  0.90722122221E+03  0.13787755970E+04  0.12699999809E+01 0. -1.
</event>
<event>
 5   0  0.6052292E-05  0.2143760E+04  0.7818609E-02  0.8542208E-01
       -1   -1    0    0    0  501  0.00000000000E+00  0.00000000000E+00  0.85277314363E+03  0.85277314364E+03  0.50400001928E-02 0.  1.
        1   -1    0    0  501    0  0.00000000000E+00  0.00000000000E+00 -0.13472829297E+04  0.13472829297E+04  0.50400001928E-02 0. -1.
    10030    2    1    2    0    0  0.00000000000E+00  0.00000000000E+00 -0.49450978605E+03  0.22000560733E+04  0.21437599673E+04 0.  0.
        1    1    3    3  502    0 -0.33840478598E+03  0.84377322671E+03 -0.83001871568E+03  0.12310167041E+04  0.50400001928E-02 0.  1.
       -1    1    3    3    0  502  0.33840478598E+03 -0.84377322671E+03  0.33550892963E+03  0.96903936926E+03  0.50400001928E-02 0. -1.
</event>
<event>
 5   0  0.1252477E-04  0.2049949E+04  0.7818609E-02  0.8583617E-01
        2   -1    0    0  501    0  0.00000000000E+00  0.00000000000E+00  0.98133891981E+03  0.98133891981E+03  0.25500000920E-02 0.  1.
       -2   -1    0    0    0  501  0.00000000000E+00  0.00000000000E+00 -0.10705505880E+04  0.10705505880E+04  0.25500000920E-02 0. -1.
    10030    2    1    2    0    0  0.00000000000E+00  0.00000000000E+00 -0.89211668229E+02  0.20518895079E+04  0.20499492264E+04 0.  0.
        4    1    3    3  502    0 -0.38560420159E+02 -0.97036300855E+03  0.28354600108E+03  0.10116774298E+04  0.12699999809E+01 0. -1.
       -4    1    3    3    0  502  0.38560420159E+02  0.97036300855E+03 -0.37275766931E+03  0.10402120780E+04  0.12699999809E+01 0.  1.
</event>
<event>
 5   0  0.6221148E-05  0.2091741E+04  0.7818609E-02  0.8564890E-01
       -1   -1    0    0    0  501  0.00000000000E+00  0.00000000000E+00  0.13526269625E+04  0.13526269625E+04  0.50400001928E-02 0.  1.
        1   -1    0    0  501    0  0.00000000000E+00  0.00000000000E+00 -0.80868236226E+03  0.80868236227E+03  0.50400001928E-02 0. -1.
    10030    2    1    2    0    0  0.00000000000E+00  0.00000000000E+00  0.54394460025E+03  0.21613093248E+04  0.20917414442E+04 0.  0.
        3    1    3    3  502    0 -0.18149312579E+03 -0.10982461291E+03 -0.78621963883E+03  0.81433563780E+03  0.10100000352E+00 0. -1.
       -3    1    3    3    0  502  0.18149312579E+03  0.10982461291E+03  0.13301642391E+04  0.13469736870E+04  0.10100000352E+00 0.  1.
</event>
<event>
 5   0  0.1281470E-04  0.2098752E+04  0.7818609E-02  0.8561793E-01
        2   -1    0    0  501    0  0.00000000000E+00  0.00000000000E+00  0.11086782378E+04  0.11086782378E+04  0.25500000920E-02 0. -1.
       -2   -1    0    0    0  501  0.00000000000E+00  0.00000000000E+00 -0.99324604202E+03  0.99324604203E+03  0.25500000920E-02 0.  1.
    10030    2    1    2    0    0  0.00000000000E+00  0.00000000000E+00  0.11543219576E+03  0.21019242798E+04  0.20987522689E+04 0.  0.
        3    1    3    3  502    0 -0.39802587475E+02 -0.47955721496E+03  0.99166554182E+03  0.11022522059E+04  0.10100000352E+00 0. -1.
       -3    1    3    3    0  502  0.39802587475E+02  0.47955721496E+03 -0.87623334606E+03  0.99967207390E+03  0.10100000352E+00 0.  1.
</event>
<event>
 5   0  0.1281470E-04  0.2066019E+04  0.7818609E-02  0.8576362E-01
       -2   -1    0    0    0  501  0.00000000000E+00  0.00000000000E+00  0.96226440523E+03  0.96226440523E+03  0.25500000920E-02 0. -1.
        2   -1    0    0  501    0  0.00000000000E+00  0.00000000000E+00 -0.11089558953E+04  0.11089558953E+04  0.25500000920E-02 0.  1.
    10030    2    1    2    0    0  0.00000000000E+00  0.00000000000E+00 -0.14669149003E+03  0.20712203005E+04  0.20660191528E+04 0.  0.
        3    1    3    3  502    0 -0.77487832859E+03  0.17604566934E+03  0.58837675037E+03  0.98874451320E+03  0.10100000352E+00 0. -1.
       -3    1    3    3    0  502  0.77487832859E+03 -0.17604566934E+03 -0.73506824040E+03  0.10824757873E+04  0.10100000352E+00 0.  1.
</event>
<event>
 5   0  0.6263616E-05  0.2102189E+04  0.7818609E-02  0.8560280E-01
        1   -1    0    0  501    0  0.00000000000E+00  0.00000000000E+00  0.17716578561E+04  0.17716578561E+04  0.50400001928E-02 0. -1.
       -1   -1    0    0    0  501  0.00000000000E+00  0.00000000000E+00 -0.62359664142E+03  0.62359664144E+03  0.50400001928E-02 0.  1.
    10030    2    1    2    0    0  0.00000000000E+00  0.00000000000E+00  0.11480612147E+04  0.23952544976E+04  0.21021892292E+04 0.  0.
        4    1    3    3  502    0 -0.59815914528E+03 -0.58910143815E+03  0.12946235229E+04  0.15430121667E+04  0.12699999809E+01 0. -1.
       -4    1    3    3    0  502  0.59815914528E+03  0.58910143815E+03 -0.14656230821E+03  0.85224233091E+03  0.12699999809E+01 0.  1.
</event>
<event>
 5   0  0.6052292E-05  0.2096235E+04  0.7818609E-02  0.8562903E-01
        1   -1    0    0  501    0  0.00000000000E+00  0.00000000000E+00  0.14171773432E+04  0.14171773432E+04  0.50400001928E-02 0.  1.
       -1   -1    0    0    0  501  0.00000000000E+00  0.00000000000E+00 -0.77516818357E+03  0.77516818358E+03  0.50400001928E-02 0. -1.
    10030    2    1    2    0    0  0.00000000000E+00  0.00000000000E+00  0.64200915960E+03  0.21923455268E+04  0.20962354705E+04 0.  0.
        1    1    3    3  502    0 -0.46719997465E+03 -0.95301091424E+01  0.13022004428E+04  0.13835073663E+04  0.50400001928E-02 0.  1.
       -1    1    3    3    0  502  0.46719997465E+03  0.95301091424E+01 -0.66019128324E+03  0.80883816044E+03  0.50400001928E-02 0. -1.
</event>
<event>
 5   0  0.1235817E-04  0.2123293E+04  0.7818609E-02  0.8551052E-01
        2   -1    0    0  501    0  0.00000000000E+00  0.00000000000E+00  0.13399635610E+04  0.13399635610E+04  0.25500000920E-02 0.  1.
       -2   -1    0    0    0  501  0.00000000000E+00  0.00000000000E+00 -0.84113713028E+03  0.84113713028E+03  0.25500000920E-02 0. -1.
    10030    2    1    2    0    0  0.00000000000E+00  0.00000000000E+00  0.49882643073E+03  0.21811006913E+04  0.21232928243E+04 0.  0.
        1    1    3    3  502    0  0.53087031551E+03 -0.89091777641E+03  0.48260773847E+03  0.11438828635E+04  0.50400001928E-02 0. -1.
       -1    1    3    3    0  502 -0.53087031551E+03  0.89091777641E+03  0.16218692259E+02  0.10372178278E+04  0.50400001928E-02 0.  1.
</event>
<event>
 5   0  0.6263616E-05  0.2105755E+04  0.7818609E-02  0.8558713E-01
       -1   -1    0    0    0  501  0.00000000000E+00  0.00000000000E+00  0.13747527454E+04  0.13747527454E+04  0.50400001928E-02 0.  1.
        1   -1    0    0  501    0  0.00000000000E+00  0.00000000000E+00 -0.80636369091E+03  0.80636369092E+03  0.50400001928E-02 0. -1.
    10030    2    1    2    0    0  0.00000000000E+00  0.00000000000E+00  0.56838905450E+03  0.21811164363E+04  0.21057546846E+04 0.  0.
        4    1    3    3  502    0 -0.21659115956E+03 -0.89939023829E+03  0.80491348148E+03  0.12262552168E+04  0.12699999809E+01 0.  1.
       -4    1    3    3    0  502  0.21659115956E+03  0.89939023829E+03 -0.23652442698E+03  0.95486121955E+03  0.12699999809E+01 0. -1.
</event>
<event>
 5   0  0.1325673E-04  0.2080641E+04  0.7818609E-02  0.8569819E-01
        2   -1    0    0  501    0  0.00000000000E+00  0.00000000000E+00  0.63417533085E+03  0.63417533086E+03  0.25500000920E-02 0.  1.
       -2   -1    0    0    0  501  0.00000000000E+00  0.00000000000E+00 -0.17065738310E+04  0.17065738310E+04  0.25500000920E-02 0. -1.
    10030    2    1    2    0    0  0.00000000000E+00  0.00000000000E+00 -0.10723985001E+04  0.23407491619E+04  0.20806412703E+04 0.  0.
        5    1    3    3  502    0 -0.91508635727E+03  0.37205642553E+03 -0.90322941125E+03  0.13385269831E+04  0.46999998093E+01 0.  1.
       -5    1    3    3    0  502  0.91508635727E+03 -0.37205642553E+03 -0.16916908890E+03  0.10022221788E+04  0.46999998093E+01 0. -1.
</event>
<event>
 5   0  0.5933905E-05  0.2083019E+04  0.7818609E-02  0.8568761E-01
        1   -1    0    0  501    0  0.00000000000E+00  0.00000000000E+00  0.13639958235E+04  0.13639958235E+04  0.50400001928E-02 0.  1.
       -1   -1    0    0    0  501  0.00000000000E+00  0.00000000000E+00 -0.79526777674E+03  0.79526777676E+03  0.50400001928E-02 0. -1.
    10030    2    1    2    0    0  0.00000000000E+00  0.00000000000E+00  0.56872804674E+03  0.21592636002E+04  0.20830188919E+04 0.  0.
        2    1    3    3  502    0  0.79517920742E+03  0.40229195247E+03 -0.27443434984E+03  0.93244999829E+03  0.25500000920E-02 0. -1.
       -2    1    3    3    0  502 -0.79517920742E+03 -0.40229195247E+03  0.84316239658E+03  0.12268136020E+04  0.25500000920E-02 0.  1.
</event>
<event>
 5   0  0.5846187E-05  0.2097455E+04  0.7818609E-02  0.8562365E-01
        1   -1    0    0  501    0  0.00000000000E+00  0.00000000000E+00  0.15976213957E+04  0.15976213958E+04  0.50400001928E-02 0. -1.
       -1   -1    0    0    0  501  0.00000000000E+00  0.00000000000E+00 -0.68841654178E+03  0.68841654180E+03  0.50400001928E-02 0.  1.
    10030    2    1    2    0    0  0.00000000000E+00  0.00000000000E+00  0.90920485396E+03  0.22860379376E+04  0.20974546444E+04 0.  0.
        5    1    3    3  502    0 -0.72252366686E+03 -0.38899633504E+03  0.11663468176E+04  0.14260945224E+04  0.46999998093E+01 0. -1.
       -5    1    3    3    0  502  0.72252366686E+03  0.38899633504E+03 -0.25714196364E+03  0.85994341517E+03  0.46999998093E+01 0.  1.
</event>
<event>
 5   0  0.6052292E-05  0.2011115E+04  0.7818609E-02  0.8601442E-01
        1   -1    0    0  501    0  0.00000000000E+00  0.00000000000E+00  0.13714806637E+04  0.13714806638E+04  0.50400001928E-02 0.  1.
       -1   -1    0    0    0  501  0.00000000000E+00  0.00000000000E+00 -0.73726587860E+03  0.73726587862E+03  0.50400001928E-02 0. -1.
    10030    2    1    2    0    0  0.00000000000E+00  0.00000000000E+00  0.63421478515E+03  0.21087465424E+04  0.20111150107E+04 0.  0.
        1    1    3    3  502    0  0.55706681984E+03 -0.34951693652E+03 -0.48051868547E+03  0.81448372469E+03  0.50400001928E-02 0. -1.
       -1    1    3    3    0  502 -0.55706681984E+03  0.34951693652E+03  0.11147334706E+04  0.12942628177E+04  0.50400001928E-02 0.  1.
</event>
<event>
 5   0  0.1325673E-04  0.2185220E+04  0.7818609E-02  0.8524605E-01
       -2   -1    0    0    0  501  0.00000000000E+00  0.00000000000E+00  0.11219992351E+04  0.11219992351E+04  0.25500000920E-02 0. -1.
        2   -1    0    0  501    0  0.00000000000E+00  0.00000000000E+00 -0.10639907104E+04  0.10639907105E+04  0.25500000920E-02 0.  1.
    10030    2    1    2    0    0  0.00000000000E+00  0.00000000000E+00  0.58008524604E+02  0.21859899455E+04  0.21852201383E+04 0.  0.
        5    1    3    3  502    0 -0.52587804979E+03  0.41683049809E+03  0.89156046476E+03  0.11158841964E+04  0.46999998093E+01 0. -1.
       -5    1    3    3    0  502  0.52587804979E+03 -0.41683049809E+03 -0.83355194016E+03  0.10701057491E+04  0.46999998093E+01 0.  1.
</event>
<event>
 5   0  0.5933905E-05  0.2159406E+04  0.7818609E-02  0.8535517E-01
        1   -1    0    0  501    0  0.00000000000E+00  0.00000000000E+00  0.78801450853E+03  0.78801450854E+03  0.50400001928E-02 0.  1.
       -1   -1    0    0    0  501  0.00000000000E+00  0.00000000000E+00 -0.14793624055E+04  0.14793624055E+04  0.50400001928E-02 0. -1.
    10030    2    1    2    0    0  0.00000000000E+00  0.00000000000E+00 -0.69134789699E+03  0.22673769141E+04  0.21594064360E+04 0.  0.
        2    1    3    3  502    0  0.67324737582E+03  0.81578374178E+03 -0.57329375885E+03  0.12030922144E+04  0.25500000920E-02 0.  1.
       -2    1    3    3    0  502 -0.67324737582E+03 -0.81578374178E+03 -0.11805413814E+03  0.10642846997E+04  0.25500000920E-02 0. -1.
</event>
<event>
 5   0  0.6221148E-05  0.2049261E+04  0.7818609E-02  0.8583930E-01
        1   -1    0    0  501    0  0.00000000000E+00  0.00000000000E+00  0.20374211654E+04  0.20374211654E+04  0.50400001928E-02 0. -1.
       -1   -1    0    0    0  501  0.00000000000E+00  0.00000000000E+00 -0.51529232164E+03  0.51529232166E+03  0.50400001928E-02 0.  1.
    10030    2    1    2    0    0  0.00000000000E+00  0.00000000000E+00  0.15221288437E+04  0.25527134871E+04  0.20492608253E+04 0.  0.
        3    1    3    3  502    0  0.74612889543E+03 -0.57977576862E+03  0.12546713170E+04  0.15706840530E+04  0.10100000352E+00 0. -1.
       -3    1    3    3    0  502 -0.74612889543E+03  0.57977576862E+03  0.26745752671E+03  0.98202943401E+03  0.10100000352E+00 0.  1.
</event>
<event>
 5   0  0.1281470E-04  0.2101530E+04  0.7818609E-02  0.8560570E-01
       -2   -1    0    0    0  501  0.00000000000E+00  0.00000000000E+00  0.52887690530E+03  0.52887690531E+03  0.25500000920E-02 0.  1.
        2   -1    0    0  501    0  0.00000000000E+00  0.00000000000E+00 -0.20876444692E+04  0.20876444692E+04  0.25500000920E-02 0. -1.
    10030    2    1    2    0    0  0.00000000000E+00  0.00000000000E+00 -0.15587675639E+04  0.26165213745E+04  0.21015298677E+04 0.  0.
        3    1    3    3  502    0 -0.20554016976E+03  0.38157750169E+03  0.41240089119E+03  0.59826637582E+03  0.10100000352E+00 0.  1.
       -3    1    3    3    0  502  0.20554016976E+03 -0.38157750169E+03 -0.19711684551E+04  0.20182549987E+04  0.10100000352E+00 0. -1.
</event>
<event>
 5   0  0.1325673E-04  0.2097503E+04  0.7818609E-02  0.8562344E-01
        2   -1    0    0  501    0  0.00000000000E+00  0.00000000000E+00  0.11274013814E+04  0.11274013814E+04  0.25500000920E-02 0.  1.
       -2   -1    0    0    0  501  0.00000000000E+00  0.00000000000E+00 -0.97558834996E+03  0.97558834997E+03  0.25500000920E-02 0. -1.
    10030    2    1    2    0    0  0.00000000000E+00  0.00000000000E+00  0.15181303139E+03  0.21029897313E+04  0.20975029472E+04 0.  0.
        5    1    3    3  502    0  0.40326494894E+03 -0.27287392092E+03  0.10071929784E+04  0.11187236395E+04  0.46999998093E+01 0.  1.
       -5    1    3    3    0  502 -0.40326494894E+03  0.27287392092E+03 -0.85537994703E+03  0.98426609184E+03  0.46999998093E+01 0. -1.
</event>
<event>
 5   0  0.1235817E-04  0.2059435E+04  0.7818609E-02  0.8579326E-01
       -2   -1    0    0    0  501  0.00000000000E+00  0.00000000000E+00  0.84937054362E+03  0.84937054362E+03  0.25500000920E-02 0.  1.
        2   -1    0    0  501    0  0.00000000000E+00  0.00000000000E+00 -0.12483578423E+04  0.12483578423E+04  0.25500000920E-02 0. -1.
    10030    2    1    2    0    0  0.00000000000E+00  0.00000000000E+00 -0.39898729865E+03  0.20977283859E+04  0.20594352421E+04 0.  0.
        1    1    3    3  502    0  0.24421969216E+03  0.31253917132E+02  0.81894669354E+03  0.85515715062E+03  0.50400001928E-02 0.  1.
       -1    1    3    3    0  502 -0.24421969216E+03 -0.31253917132E+02 -0.12179339922E+04  0.12425712353E+04  0.50400001928E-02 0. -1.
</event>
<event>
 5   0  0.6263616E-05  0.2100533E+04  0.7818609E-02  0.8561009E-01
       -1   -1    0    0    0  501  0.00000000000E+00  0.00000000000E+00  0.60318581037E+03  0.60318581039E+03  0.50400001928E-02 0. -1.
        1   -1    0    0  501    0  0.00000000000E+00  0.00000000000E+00 -0.18287231688E+04  0.18287231688E+04  0.50400001928E-02 0.  1.
    10030    2    1    2    0    0  0.00000000000E+00  0.00000000000E+00 -0.12255373584E+04  0.24319089792E+04  0.21005331386E+04 0.  0.
        4    1    3    3  502    0 -0.33534407434E+03 -0.33198052006E+03  0.47354615230E+03  0.66851648084E+03  0.12699999809E+01 0. -1.
       -4    1    3    3    0  502  0.33534407434E+03  0.33198052006E+03 -0.16990835108E+04  0.17633924984E+04  0.12699999809E+01 0.  1.
</event>
<event>
 5   0  0.6221148E-05  0.2073301E+04  0.7818609E-02  0.8573096E-01
       -1   -1    0    0    0  501  0.00000000000E+00  0.00000000000E+00  0.13975245503E+04  0.13975245503E+04  0.50400001928E-02 0.  1.
        1   -1    0    0  501    0  0.00000000000E+00  0.00000000000E+00 -0.76896282983E+03  0.76896282985E+03  0.50400001928E-02 0. -1.
    10030    2    1    2    0    0  0.00000000000E+00  0.00000000000E+00  0.62856172044E+03  0.21664873801E+04  0.20733011677E+04 0.  0.
        3    1    3    3  502    0  0.81294886374E+03  0.54500105955E+03  0.67129835850E+03  0.11868249687E+04  0.10100000352E+00 0.  1.
       -3    1    3    3    0  502 -0.81294886374E+03 -0.54500105955E+03 -0.42736638057E+02  0.97966241145E+03  0.10100000352E+00 0. -1.
</event>
<event>
 5   0  0.6052292E-05  0.2104392E+04  0.7818609E-02  0.8559311E-01
       -1   -1    0    0    0  501  0.00000000000E+00  0.00000000000E+00  0.72258880283E+03  0.72258880285E+03  0.50400001928E-02 0. -1.
        1   -1    0    0  501    0  0.00000000000E+00  0.00000000000E+00 -0.15321527042E+04  0.15321527042E+04  0.50400001928E-02 0.  1.
    10030    2    1    2    0    0  0.00000000000E+00  0.00000000000E+00 -0.80956390137E+03  0.22547415070E+04  0.21043919676E+04 0.  0.
        1    1    3    3  502    0  0.40353248029E+03  0.43966004649E+03  0.52372131054E+03  0.79399208451E+03  0.50400001928E-02 0. -1.
       -1    1    3    3    0  502 -0.40353248029E+03 -0.43966004649E+03 -0.13332852119E+04  0.14607494225E+04  0.50400001928E-02 0.  1.
</event>
<event>
 5   0  0.1349252E-04  0.2100328E+04  0.7818609E-02  0.8561099E-01
        2   -1    0    0  501    0  0.00000000000E+00  0.00000000000E+00  0.17722540365E+04  0.17722540365E+04  0.25500000920E-02 0.  1.
       -2   -1    0    0    0  501  0.00000000000E+00  0.00000000000E+00 -0.62228362121E+03  0.62228362121E+03  0.25500000920E-02 0. -1.
    10030    2    1    2    0    0  0.00000000000E+00  0.00000000000E+00  0.11499704153E+04  0.23945376577E+04  0.21003282215E+04 0.  0.
        2    1    3    3  502    0  0.88432017744E+03 -0.50266956916E+03  0.87259965587E+03  0.13401973852E+04  0.25500000920E-02 0.  1.
       -2    1    3    3    0  502 -0.88432017744E+03  0.50266956916E+03  0.27737075945E+03  0.10543402725E+04  0.25500000920E-02 0. -1.
</event>
<event>
 5   0  0.6052292E-05  0.2390770E+04  0.7818609E-02  0.8442967E-01
       -1   -1    0    0    0  501  0.00000000000E+00  0.00000000000E+00  0.16903695767E+04  0.16903695767E+04  0.50400001928E-02 0. -1.
        1   -1    0    0  501    0  0.00000000000E+00  0.00000000000E+00 -0.84534457263E+03  0.84534457265E+03  0.50400001928E-02 0.  1.
    10030    2    1    2    0    0  0.00000000000E+00  0.00000000000E+00  0.84502500405E+03  0.25357141493E+04  0.23907695392E+04 0.  0.
        1    1    3    3  502    0  0.88645202717E+03  0.25450158721E+03 -0.38410547519E+03  0.99905218606E+03  0.50400001928E-02 0.  1.
       -1    1    3    3    0  502 -0.88645202717E+03 -0.25450158721E+03  0.12291304792E+04  0.15366619633E+04  0.50400001928E-02 0. -1.
</event>
<event>
 5   0  0.4615125E-05  0.2098009E+04  0.7818609E-02  0.8562121E-01
        4   -1    0    0  501    0  0.00000000000E+00  0.00000000000E+00  0.15257034877E+04  0.15257040163E+04  0.12699999809E+01 0.  1.
       -4   -1    0    0    0  501  0.00000000000E+00  0.00000000000E+00 -0.72124693353E+03  0.72124805166E+03  0.12699999809E+01 0. -1.
    10030    2    1    2    0    0  0.00000000000E+00  0.00000000000E+00  0.80445655417E+03  0.22469520679E+04  0.20980093537E+04 0.  0.
        3    1    3    3  502    0 -0.38996772159E+03  0.77461719946E+03  0.10342990755E+04  0.13497708018E+04  0.10100000352E+00 0.  1.
       -3    1    3    3    0  502  0.38996772159E+03 -0.77461719946E+03 -0.22984252130E+03  0.89718126618E+03  0.10100000352E+00 0. -1.
</event>
<event>
 5   0  0.6263616E-05  0.1765640E+04  0.7818609E-02  0.8724788E-01
       -1   -1    0    0    0  501  0.00000000000E+00  0.00000000000E+00  0.79988006259E+03  0.79988006260E+03  0.50400001928E-02 0.  1.
        1   -1    0    0  501    0  0.00000000000E+00  0.00000000000E+00 -0.97435983175E+03  0.97435983176E+03  0.50400001928E-02 0. -1.
    10030    2    1    2    0    0  0.00000000000E+00  0.00000000000E+00 -0.17447976916E+03  0.17742398944E+04  0.17656398310E+04 0.  0.
        4    1    3    3  502    0 -0.39734161249E+03  0.64713862232E+03 -0.53965570089E+03  0.93161077812E+03  0.12699999809E+01 0. -1.
       -4    1    3    3    0  502  0.39734161249E+03 -0.64713862232E+03  0.36517593173E+03  0.84262911624E+03  0.12699999809E+01 0.  1.
</event>
<event>
 5   0  0.1235817E-04  0.2079295E+04  0.7818609E-02  0.8570419E-01
       -2   -1    0    0    0  501  0.00000000000E+00  0.00000000000E+00  0.25918445994E+04  0.25918445994E+04  0.25500000920E-02 0. -1.
        2   -1    0    0  501    0  0.00000000000E+00  0.00000000000E+00 -0.41702613970E+03  0.41702613971E+03  0.25500000920E-02 0.  1.
    10030    2    1    2    0    0  0.00000000000E+00  0.00000000000E+00  0.21748184597E+04  0.30088707391E+04  0.20792950228E+04 0.  0.
        1    1    3    3  502    0  0.76639671425E+03  0.27068762107E+03  0.20254713136E+04  0.21824687293E+04  0.50400001928E-02 0. -1.
       -1    1    3    3    0  502 -0.76639671425E+03 -0.27068762107E+03  0.14934714607E+03  0.82640200985E+03  0.50400001928E-02 0.  1.
</event>
<event>
 5   0  0.1281470E-04  0.2109950E+04  0.7818609E-02  0.8556873E-01
       -2   -1    0    0    0  501  0.00000000000E+00  0.00000000000E+00  0.56509520542E+03  0.56509520543E+03  0.25500000920E-02 0.  1.
        2   -1    0    0  501    0  0.00000000000E+00  0.00000000000E+00 -0.19695296654E+04  0.19695296654E+04  0.25500000920E-02 0. -1.
    10030    2    1    2    0    0  0.00000000000E+00  0.00000000000E+00 -0.14044344600E+04  0.25346248708E+04  0.21099495452E+04 0.  0.
        3    1    3    3  502    0 -0.19728538151E+03 -0.38087442963E+03 -0.18600503036E+04  0.19088672020E+04  0.10100000352E+00 0. -1.
       -3    1    3    3    0  502  0.19728538151E+03  0.38087442963E+03  0.45561584361E+03  0.62575766880E+03  0.10100000352E+00 0.  1.
</event>
<event>
 5   0  0.5933905E-05  0.2021876E+04  0.7818609E-02  0.8596461E-01
       -1   -1    0    0    0  501  0.00000000000E+00  0.00000000000E+00  0.68750368433E+03  0.68750368434E+03  0.50400001928E-02 0.  1.
        1   -1    0    0  501    0  0.00000000000E+00  0.00000000000E+00 -0.14865316239E+04  0.14865316239E+04  0.50400001928E-02 0. -1.
    10030    2    1    2    0    0  0.00000000000E+00  0.00000000000E+00 -0.79902793958E+03  0.21740353083E+04  0.20218763249E+04 0.  0.
        2    1    3    3  502    0 -0.95841946186E+03  0.10704332788E+03 -0.73426060225E+02  0.96716985335E+03  0.25500000920E-02 0.  1.
       -2    1    3    3    0  502  0.95841946186E+03 -0.10704332788E+03 -0.72560187935E+03  0.12068654549E+04  0.25500000920E-02 0. -1.
</event>
<event>
 5   0  0.4615125E-05  0.2116416E+04  0.7818609E-02  0.8554046E-01
       -3   -1    0    0    0  501  0.00000000000E+00  0.00000000000E+00  0.82466237157E+03  0.82466237775E+03  0.10100000352E+00 0.  1.
        3   -1    0    0  501    0  0.00000000000E+00  0.00000000000E+00 -0.13578937256E+04  0.13578937294E+04  0.10100000352E+00 0. -1.
    10030    2    1    2    0    0  0.00000000000E+00  0.00000000000E+00 -0.53323135407E+03  0.21825561071E+04  0.21164157162E+04 0.  0.
        5    1    3    3  502    0 -0.10167305599E+04  0.22702867772E+03 -0.75072808760E+02  0.10444812438E+04  0.46999998093E+01 0.  1.
       -5    1    3    3    0  502  0.10167305599E+04 -0.22702867772E+03 -0.45815854531E+03  0.11380748634E+04  0.46999998093E+01 0. -1.
</event>
<event>
 5   0  0.5846187E-05  0.2078875E+04  0.7818609E-02  0.8570607E-01
        1   -1    0    0  501    0  0.00000000000E+00  0.00000000000E+00  0.68236296069E+03  0.68236296071E+03  0.50400001928E-02 0.  1.
       -1   -1    0    0    0  501  0.00000000000E+00  0.00000000000E+00 -0.15833662664E+04  0.15833662664E+04  0.50400001928E-02 0. -1.
    10030    2    1    2    0    0  0.00000000000E+00  0.00000000000E+00 -0.90100330570E+03  0.22657292271E+04  0.20788751703E+04 0.  0.
        5    1    3    3  502    0 -0.31366148192E+03  0.98856683073E+03 -0.52569957668E+03  0.11627682654E+04  0.46999998093E+01 0.  1.
       -5    1    3    3    0  502  0.31366148192E+03 -0.98856683073E+03 -0.37530372902E+03  0.11029609617E+04  0.46999998093E+01 0. -1.
</event>
<event>
 5   0  0.1325673E-04  0.2071141E+04  0.7818609E-02  0.8574064E-01
        2   -1    0    0  501    0  0.00000000000E+00  0.00000000000E+00  0.16089534618E+04  0.16089534618E+04  0.25500000920E-02 0. -1.
       -2   -1    0    0    0  501  0.00000000000E+00  0.00000000000E+00 -0.66652409461E+03  0.66652409462E+03  0.25500000920E-02 0.  1.
    10030    2    1    2    0    0  0.00000000000E+00  0.00000000000E+00  0.94242936715E+03  0.22754775564E+04  0.20711409893E+04 0.  0.
        5    1    3    3  502    0 -0.56770429660E+03 -0.81848383592E+03  0.16011722461E+03  0.10088922508E+04  0.46999998093E+01 0.  1.
       -5    1    3    3    0  502  0.56770429660E+03  0.81848383592E+03  0.78231214255E+03  0.12665853056E+04  0.46999998093E+01 0. -1.
</event>
<event>
 5   0  0.1235817E-04  0.2119310E+04  0.7818609E-02  0.8552785E-01
       -2   -1    0    0    0  501  0.00000000000E+00  0.00000000000E+00  0.66520917092E+03  0.66520917092E+03  0.25500000920E-02 0.  1.
        2   -1    0    0  501    0  0.00000000000E+00  0.00000000000E+00 -0.16879931672E+04  0.16879931672E+04  0.25500000920E-02 0. -1.
    10030    2    1    2    0    0  0.00000000000E+00  0.00000000000E+00 -0.10227839963E+04  0.23532023381E+04  0.21193098266E+04 0.  0.
        1    1    3    3  502    0 -0.69087443178E+03  0.55430383351E+03  0.13444237456E+03  0.89589897446E+03  0.50400001928E-02 0.  1.
       -1    1    3    3    0  502  0.69087443178E+03 -0.55430383351E+03 -0.11572263708E+04  0.14573033637E+04  0.50400001928E-02 0. -1.
</event>
<event>
 5   0  0.5846187E-05  0.2134585E+04  0.7818609E-02  0.8546160E-01
        1   -1    0    0  501    0  0.00000000000E+00  0.00000000000E+00  0.18953533593E+04  0.18953533593E+04  0.50400001928E-02 0. -1.
       -1   -1    0    0    0  501  0.00000000000E+00  0.00000000000E+00 -0.60100315566E+03  0.60100315568E+03  0.50400001928E-02 0.  1.
    10030    2    1    2    0    0  0.00000000000E+00  0.00000000000E+00  0.12943502036E+04  0.24963565150E+04  0.21345850651E+04 0.  0.
        5    1    3    3  502    0 -0.64710093218E+03 -0.27003451980E+03 -0.29382692496E+03  0.76027272090E+03  0.46999998093E+01 0.  1.
       -5    1    3    3    0  502  0.64710093218E+03  0.27003451980E+03  0.15881771286E+04  0.17360837941E+04  0.46999998093E+01 0. -1.
</event>
<event>
 5   0  0.6263616E-05  0.2062306E+04  0.7818609E-02  0.8578032E-01
        1   -1    0    0  501    0  0.00000000000E+00  0.00000000000E+00  0.12975792247E+04  0.12975792247E+04  0.50400001928E-02 0. -1.
       -1   -1    0    0    0  501  0.00000000000E+00  0.00000000000E+00 -0.81943106296E+03  0.81943106298E+03  0.50400001928E-02 0.  1.
    10030    2    1    2    0    0  0.00000000000E+00  0.00000000000E+00  0.47814816174E+03  0.21170102877E+04  0.20623062075E+04 0.  0.
        4    1    3    3  502    0 -0.97634189139E+03  0.33170813294E+03  0.24026066644E+03  0.10587731462E+04  0.12699999809E+01 0.  1.
       -4    1    3    3    0  502  0.97634189139E+03 -0.33170813294E+03  0.23788749530E+03  0.10582371415E+04  0.12699999809E+01 0. -1.
</event>
<event>
 5   0  0.1252477E-04  0.2130880E+04  0.7818609E-02  0.8547761E-01
       -2   -1    0    0    0  501  0.00000000000E+00  0.00000000000E+00  0.64474167949E+03  0.64474167950E+03  0.25500000920E-02 0. -1.
        2   -1    0    0  501    0  0.00000000000E+00  0.00000000000E+00 -0.17606469390E+04  0.17606469390E+04  0.25500000920E-02 0.  1.
    10030    2    1    2    0    0  0.00000000000E+00  0.00000000000E+00 -0.11159052595E+04  0.24053886185E+04  0.21308800665E+04 0.  0.
        4    1    3    3  502    0 -0.97467788079E+03  0.27477295944E+03 -0.18413679481E+03  0.10292740756E+04  0.12699999809E+01 0.  1.
       -4    1    3    3    0  502  0.97467788079E+03 -0.27477295944E+03 -0.93176846472E+03  0.13761145429E+04  0.12699999809E+01 0. -1.
</event>
<event>
 5   0  0.1235817E-04  0.1899974E+04  0.7818609E-02  0.8654869E-01
       -2   -1    0    0    0  501  0.00000000000E+00  0.00000000000E+00  0.42020249501E+03  0.42020249502E+03  0.25500000920E-02 0. -1.
        2   -1    0    0  501    0  0.00000000000E+00  0.00000000000E+00 -0.21477156668E+04  0.21477156668E+04  0.25500000920E-02 0.  1.
    10030    2    1    2    0    0  0.00000000000E+00  0.00000000000E+00 -0.17275131717E+04  0.25679181618E+04  0.18999741911E+04 0.  0.
        1    1    3    3  502    0  0.64037113267E+03  0.67368270959E+03 -0.11291293671E+04  0.14624830626E+04  0.50400001928E-02 0.  1.
       -1    1    3    3    0  502 -0.64037113267E+03 -0.67368270959E+03 -0.59838380463E+03  0.11054350991E+04  0.50400001928E-02 0. -1.
</event>
<event>
 5   0  0.1325673E-04  0.2240999E+04  0.7818609E-02  0.8501555E-01
       -2   -1    0    0    0  501  0.00000000000E+00  0.00000000000E+00  0.87580801410E+03  0.87580801411E+03  0.25500000920E-02 0.  1.
        2   -1    0    0  501    0  0.00000000000E+00  0.00000000000E+00 -0.14335549195E+04  0.14335549195E+04  0.25500000920E-02 0. -1.
    10030    2    1    2    0    0  0.00000000000E+00  0.00000000000E+00 -0.55774690536E+03  0.23093629336E+04  0.22409987837E+04 0.  0.
        5    1    3    3  502    0 -0.10850694340E+04  0.14654037067E+03 -0.52414048813E+03  0.12139172534E+04  0.46999998093E+01 0. -1.
       -5    1    3    3    0  502  0.10850694340E+04 -0.14654037067E+03 -0.33606417232E+02  0.10954456801E+04  0.46999998093E+01 0.  1.
</event>
<event>
 5   0  0.1325673E-04  0.2088110E+04  0.7818609E-02  0.8566499E-01
       -2   -1    0    0    0  501  0.00000000000E+00  0.00000000000E+00  0.85001712989E+03  0.85001712989E+03  0.25500000920E-02 0.  1.
        2   -1    0    0  501    0  0.00000000000E+00  0.00000000000E+00 -0.12823872075E+04  0.12823872075E+04  0.25500000920E-02 0. -1.
    10030    2    1    2    0    0  0.00000000000E+00  0.00000000000E+00 -0.43237007757E+03  0.21324043374E+04  0.20881102399E+04 0.  0.
        5    1    3    3  502    0 -0.90427010064E+03 -0.34494617996E+03  0.18370374291E+03  0.98512001154E+03  0.46999998093E+01 0.  1.
       -5    1    3    3    0  502  0.90427010064E+03  0.34494617996E+03 -0.61607382048E+03  0.11472843258E+04  0.46999998093E+01 0. -1.
</event>
<event>
 5   0  0.1325673E-04  0.2106937E+04  0.7818609E-02  0.8558194E-01
       -2   -1    0    0    0  501  0.00000000000E+00  0.00000000000E+00  0.80613076482E+03  0.80613076482E+03  0.25500000920E-02 0.  1.
        2   -1    0    0  501    0  0.00000000000E+00  0.00000000000E+00 -0.13766949920E+04  0.13766949920E+04  0.25500000920E-02 0. -1.
    10030    2    1    2    0    0  0.00000000000E+00  0.00000000000E+00 -0.57056422716E+03  0.21828257568E+04  0.21069372908E+04 0.  0.
        5    1    3    3  502    0 -0.96824872479E+03 -0.14662116993E+02 -0.71501565128E+03  0.12037400227E+04  0.46999998093E+01 0. -1.
       -5    1    3    3    0  502  0.96824872479E+03  0.14662116993E+02  0.14445142412E+03  0.97908573407E+03  0.46999998093E+01 0.  1.
</event>
<event>
 5   0  0.5846187E-05  0.1792956E+04  0.7818609E-02  0.8710054E-01
        1   -1    0    0  501    0  0.00000000000E+00  0.00000000000E+00  0.83095526222E+03  0.83095526224E+03  0.50400001928E-02 0. -1.
       -1   -1    0    0    0  501  0.00000000000E+00  0.00000000000E+00 -0.96716766273E+03  0.96716766274E+03  0.50400001928E-02 0.  1.
    10030    2    1    2    0    0  0.00000000000E+00  0.00000000000E+00 -0.13621240051E+03  0.17981229250E+04  0.17929562837E+04 0.  0.
        5    1    3    3  502    0  0.16849452520E+03  0.39702952571E+03 -0.85626405426E+03  0.95876643137E+03  0.46999998093E+01 0.  1.
       -5    1    3    3    0  502 -0.16849452520E+03 -0.39702952571E+03  0.72005165375E+03  0.83935649361E+03  0.46999998093E+01 0. -1.
</event>
<event>
 5   0  0.1235817E-04  0.2139165E+04  0.7818609E-02  0.8544185E-01
       -2   -1    0    0    0  501  0.00000000000E+00  0.00000000000E+00  0.80391937125E+03  0.80391937125E+03  0.25500000920E-02 0. -1.
        2   -1    0    0  501    0  0.00000000000E+00  0.00000000000E+00 -0.14230361536E+04  0.14230361536E+04  0.25500000920E-02 0.  1.
    10030    2    1    2    0    0  0.00000000000E+00  0.00000000000E+00 -0.61911678232E+03  0.22269555248E+04  0.21391646312E+04 0.  0.
        1    1    3    3  502    0  0.18923857208E+03 -0.87502498930E+03  0.29971797825E+03  0.94409259905E+03  0.50400001928E-02 0.  1.
       -1    1    3    3    0  502 -0.18923857208E+03  0.87502498930E+03 -0.91883476057E+03  0.12828629258E+04  0.50400001928E-02 0. -1.
</event>
<event>
 5   0  0.5933905E-05  0.2090408E+04  0.7818609E-02  0.8565481E-01
       -1   -1    0    0    0  501  0.00000000000E+00  0.00000000000E+00  0.54233866357E+03  0.54233866360E+03  0.50400001928E-02 0.  1.
        1   -1    0    0  501    0  0.00000000000E+00  0.00000000000E+00 -0.20143339334E+04  0.20143339334E+04  0.50400001928E-02 0. -1.
    10030    2    1    2    0    0  0.00000000000E+00  0.00000000000E+00 -0.14719952699E+04  0.25566725970E+04  0.20904077817E+04 0.  0.
        2    1    3    3  502    0  0.28229031990E+03 -0.20932453323E+03  0.46791236604E+03  0.58518934305E+03  0.25500000920E-02 0.  1.
       -2    1    3    3    0  502 -0.28229031990E+03  0.20932453323E+03 -0.19399076359E+04  0.19714832540E+04  0.25500000920E-02 0. -1.
</event>
<event>
 5   0  0.5933905E-05  0.2138114E+04  0.7818609E-02  0.8544637E-01
       -1   -1    0    0    0  501  0.00000000000E+00  0.00000000000E+00  0.61808878371E+03  0.61808878373E+03  0.50400001928E-02 0. -1.
        1   -1    0    0  501    0  0.00000000000E+00  0.00000000000E+00 -0.18490595843E+04  0.18490595843E+04  0.50400001928E-02 0.  1.
    10030    2    1    2    0    0  0.00000000000E+00  0.00000000000E+00 -0.12309708006E+04  0.24671483680E+04  0.21381141125E+04 0.  0.
        2    1    3    3  502    0  0.68114224399E+03  0.66174958107E+03 -0.49002145146E+02  0.95093032070E+03  0.25500000920E-02 0. -1.
       -2    1    3    3    0  502 -0.68114224399E+03 -0.66174958107E+03 -0.11819686554E+04  0.15162180473E+04  0.25500000920E-02 0.  1.
</event>
<event>
 5   0  0.6221148E-05  0.2118912E+04  0.7818609E-02  0.8552958E-01
       -1   -1    0    0    0  501  0.00000000000E+00  0.00000000000E+00  0.16109751657E+04  0.16109751657E+04  0.50400001928E-02 0.  1.
        1   -1    0    0  501    0  0.00000000000E+00  0.00000000000E+00 -0.69675029160E+03  0.69675029162E+03  0.50400001928E-02 0. -1.
    10030    2    1    2    0    0  0.00000000000E+00  0.00000000000E+00  0.91422487411E+03  0.23077254573E+04  0.21189123781E+04 0.  0.
        3    1    3    3  502    0 -0.92218024028E+03 -0.15252670947E+03 -0.86096854724E+02  0.93866579317E+03  0.10100000352E+00 0. -1.
       -3    1    3    3    0  502  0.92218024028E+03  0.15252670947E+03  0.10003217288E+04  0.13690596642E+04  0.10100000352E+00 0.  1.
</event>
<event>
 5   0  0.1235817E-04  0.2087022E+04  0.7818609E-02  0.8566982E-01
       -2   -1    0    0    0  501  0.00000000000E+00  0.00000000000E+00  0.95605683838E+03  0.95605683838E+03  0.25500000920E-02 0. -1.
        2   -1    0    0  501    0  0.00000000000E+00  0.00000000000E+00 -0.11389645628E+04  0.11389645628E+04  0.25500000920E-02 0.  1.
    10030    2    1    2    0    0  0.00000000000E+00  0.00000000000E+00 -0.18290772443E+03  0.20950214012E+04  0.20870216663E+04 0.  0.
        1    1    3    3  502    0  0.44599519682E+02  0.56314986404E+03  0.78928481101E+03  0.97061701996E+03  0.50400001928E-02 0. -1.
       -1    1    3    3    0  502 -0.44599519682E+02 -0.56314986404E+03 -0.97219253544E+03  0.11244043812E+04  0.50400001928E-02 0.  1.
</event>
<event>
 5   0  0.6263616E-05  0.2127506E+04  0.7818609E-02  0.8549223E-01
       -1   -1    0    0    0  501  0.00000000000E+00  0.00000000000E+00  0.67064946500E+03  0.67064946502E+03  0.50400001928E-02 0. -1.
        1   -1    0    0  501    0  0.00000000000E+00  0.00000000000E+00 -0.16872755719E+04  0.16872755719E+04  0.50400001928E-02 0.  1.
    10030    2    1    2    0    0  0.00000000000E+00  0.00000000000E+00 -0.10166261069E+04  0.23579250370E+04  0.21275060138E+04 0.  0.
        4    1    3    3  502    0  0.99207009399E+03  0.34854456638E+03 -0.33000868702E+03  0.11020860822E+04  0.12699999809E+01 0.  1.
       -4    1    3    3    0  502 -0.99207009399E+03 -0.34854456638E+03 -0.68661741992E+03  0.12558389548E+04  0.12699999809E+01 0. -1.
</event>
<event>
 5   0  0.6263616E-05  0.2086659E+04  0.7818609E-02  0.8567143E-01
       -1   -1    0    0    0  501  0.00000000000E+00  0.00000000000E+00  0.12146636586E+04  0.12146636587E+04  0.50400001928E-02 0. -1.
        1   -1    0    0  501    0  0.00000000000E+00  0.00000000000E+00 -0.89616267980E+03  0.89616267981E+03  0.50400001928E-02 0.  1.
    10030    2    1    2    0    0  0.00000000000E+00  0.00000000000E+00  0.31850097884E+03  0.21108263385E+04  0.20866588024E+04 0.  0.
        4    1    3    3  502    0  0.56533830728E+03 -0.84314647745E+03 -0.84436306140E+02  0.10186434542E+04  0.12699999809E+01 0. -1.
       -4    1    3    3    0  502 -0.56533830728E+03  0.84314647745E+03  0.40293728498E+03  0.10921828842E+04  0.12699999809E+01 0.  1.
</event>
<event>
 5   0  0.5846187E-05  0.2182418E+04  0.7818609E-02  0.8525782E-01
       -1   -1    0    0    0  501  0.00000000000E+00  0.00000000000E+00  0.91522225919E+03  0.91522225921E+03  0.50400001928E-02 0.  1.
        1   -1    0    0  501    0  0.00000000000E+00  0.00000000000E+00 -0.13010361249E+04  0.13010361249E+04  0.50400001928E-02 0. -1.
    10030    2    1    2    0    0  0.00000000000E+00  0.00000000000E+00 -0.38581386574E+03  0.22162583842E+04  0.21824181282E+04 0.  0.
        5    1    3    3  502    0 -0.82098505058E+03 -0.25776928503E+03 -0.87432095111E+03  0.12267520830E+04  0.46999998093E+01 0. -1.
       -5    1    3    3    0  502  0.82098505058E+03  0.25776928503E+03  0.48850708537E+03  0.98950630116E+03  0.46999998093E+01 0.  1.
</event>
<event>
 5   0  0.1349252E-04  0.2037146E+04  0.7818609E-02  0.8589448E-01
        2   -1    0    0  501    0  0.00000000000E+00  0.00000000000E+00  0.21611374419E+04  0.21611374419E+04  0.25500000920E-02 0.  1.
       -2   -1    0    0    0  501  0.00000000000E+00  0.00000000000E+00 -0.48006707840E+03  0.48006707841E+03  0.25500000920E-02 0. -1.
    10030    2    1    2    0    0  0.00000000000E+00  0.00000000000E+00  0.16810703635E+04  0.26412045203E+04  0.20371459818E+04 0.  0.
        2    1    3    3  502    0 -0.89375240275E+03 -0.48634167494E+03  0.90092243105E+03  0.13590374568E+04  0.25500000920E-02 0.  1.
       -2    1    3    3    0  502  0.89375240275E+03  0.48634167494E+03  0.78014793241E+03  0.12821670635E+04  0.25500000920E-02 0. -1.
</event>
<event>
 5   0  0.1252477E-04  0.2106552E+04  0.7818609E-02  0.8558363E-01
        2   -1    0    0  501    0  0.00000000000E+00  0.00000000000E+00  0.48694289079E+03  0.48694289079E+03  0.25500000920E-02 0.  1.
       -2   -1    0    0    0  501  0.00000000000E+00  0.00000000000E+00 -0.22782760598E+04  0.22782760598E+04  0.25500000920E-02 0. -1.
    10030    2    1    2    0    0  0.00000000000E+00  0.00000000000E+00 -0.17913331691E+04  0.27652189506E+04  0.21065519985E+04 0.  0.
        4    1    3    3  502    0  0.79798645436E+03 -0.13811254898E+03 -0.11648897878E+02  0.80993503890E+03  0.12699999809E+01 0.  1.
       -4    1    3    3    0  502 -0.79798645436E+03  0.13811254898E+03 -0.17796842712E+04  0.19552839117E+04  0.12699999809E+01 0. -1.
</event>
<event>
 5   0  0.1325673E-04  0.2079237E+04  0.7818609E-02  0.8570445E-01
       -2   -1    0    0    0  501  0.00000000000E+00  0.00000000000E+00  0.51299384876E+03  0.51299384877E+03  0.25500000920E-02 0.  1.
        2   -1    0    0  501    0  0.00000000000E+00  0.00000000000E+00 -0.21068606614E+04  0.21068606614E+04  0.25500000920E-02 0. -1.
    10030    2    1    2    0    0  0.00000000000E+00  0.00000000000E+00 -0.15938668127E+04  0.26198545102E+04  0.20792369365E+04 0.  0.
        5    1    3    3  502    0 -0.53159804379E+03  0.89341265954E+03 -0.79862817028E+03  0.13109583154E+04  0.46999998093E+01 0. -1.
       -5    1    3    3    0  502  0.53159804379E+03 -0.89341265954E+03 -0.79523864241E+03  0.13088961948E+04  0.46999998093E+01 0.  1.
</event>
<event>
 5   0  0.1281470E-04  0.2087288E+04  0.7818609E-02  0.8566864E-01
        2   -1    0    0  501    0  0.00000000000E+00  0.00000000000E+00  0.85189264471E+03  0.85189264471E+03  0.25500000920E-02 0. -1.
       -2   -1    0    0    0  501  0.00000000000E+00  0.00000000000E+00 -0.12785560739E+04  0.12785560739E+04  0.25500000920E-02 0.  1.
    10030    2    1    2    0    0  0.00000000000E+00  0.00000000000E+00 -0.42666342918E+03  0.21304487186E+04  0.20872877283E+04 0.  0.
        3    1    3    3  502    0  0.51194266958E+03 -0.47750404393E+03 -0.10033504165E+04  0.12234408353E+04  0.10100000352E+00 0.  1.
       -3    1    3    3    0  502 -0.51194266958E+03  0.47750404393E+03  0.57668698731E+03  0.90700788334E+03  0.10100000352E+00 0. -1.
</event>
<event>
 5   0  0.1325673E-04  0.2028010E+04  0.7818609E-02  0.8593636E-01
       -2   -1    0    0    0  501  0.00000000000E+00  0.00000000000E+00  0.72919651653E+03  0.72919651654E+03  0.25500000920E-02 0. -1.
        2   -1    0    0  501    0  0.00000000000E+00  0.00000000000E+00 -0.14100531597E+04  0.14100531597E+04  0.25500000920E-02 0.  1.
    10030    2    1    2    0    0  0.00000000000E+00  0.00000000000E+00 -0.68085664313E+03  0.21392496762E+04  0.20280097161E+04 0.  0.
        5    1    3    3  502    0 -0.52797362092E+03 -0.56048634919E+02 -0.12516921668E+04  0.13596517805E+04  0.46999998093E+01 0.  1.
       -5    1    3    3    0  502  0.52797362092E+03  0.56048634919E+02  0.57083552367E+03  0.77959789568E+03  0.46999998093E+01 0. -1.
</event>
<event>
 5   0  0.1349252E-04  0.2118517E+04  0.7818609E-02  0.8553130E-01
        2   -1    0    0  501    0  0.00000000000E+00  0.00000000000E+00  0.10009544115E+04  0.10009544115E+04  0.25500000920E-02 0.  1.
       -2   -1    0    0    0  501  0.00000000000E+00  0.00000000000E+00 -0.11209584766E+04  0.11209584766E+04  0.25500000920E-02 0. -1.
    10030    2    1    2    0    0  0.00000000000E+00  0.00000000000E+00 -0.12000406508E+03  0.21219128881E+04  0.21185167758E+04 0.  0.
        2    1    3    3  502    0  0.82988957238E+03 -0.58157729730E+03 -0.36884593812E+03  0.10784230066E+04  0.25500000920E-02 0. -1.
       -2    1    3    3    0  502 -0.82988957238E+03  0.58157729730E+03  0.24884187303E+03  0.10434898815E+04  0.25500000920E-02 0.  1.
</event>
<event>
 5   0  0.6052292E-05  0.1754753E+04  0.7818609E-02  0.8730739E-01
        1   -1    0    0  501    0  0.00000000000E+00  0.00000000000E+00  0.14760540682E+04  0.14760540682E+04  0.50400001928E-02 0.  1.
       -1   -1    0    0    0  501  0.00000000000E+00  0.00000000000E+00 -0.52151833928E+03  0.52151833930E+03  0.50400001928E-02 0. -1.
    10030    2    1    2    0    0  0.00000000000E+00  0.00000000000E+00  0.95453572895E+03  0.19975724075E+04  0.17547527078E+04 0.  0.
        1    1    3    3  502    0 -0.64161602210E+03 -0.52012831679E+03  0.81416761121E+03  0.11597730316E+04  0.50400001928E-02 0.  1.
       -1    1    3    3    0  502  0.64161602210E+03  0.52012831679E+03  0.14036811774E+03  0.83779937590E+03  0.50400001928E-02 0. -1.
</event>
<event>
 5   0  0.6263616E-05  0.2082684E+04  0.7818609E-02  0.8568910E-01
        1   -1    0    0  501    0  0.00000000000E+00  0.00000000000E+00  0.31997882474E+03  0.31997882478E+03  0.50400001928E-02 0. -1.
       -1   -1    0    0    0  501  0.00000000000E+00  0.00000000000E+00 -0.33889534672E+04  0.33889534672E+04  0.50400001928E-02 0.  1.
    10030    2    1    2    0    0  0.00000000000E+00  0.00000000000E+00 -0.30689746425E+04  0.37089322920E+04  0.20826841792E+04 0.  0.
        4    1    3    3  502    0 -0.10117116672E+04  0.24600495364E+03 -0.15659835675E+04  0.18805278731E+04  0.12699999809E+01 0.  1.
       -4    1    3    3    0  502  0.10117116672E+04 -0.24600495364E+03 -0.15029910749E+04  0.18284044189E+04  0.12699999809E+01 0. -1.
</event>
<event>
 5   0  0.1252477E-04  0.2074369E+04  0.7818609E-02  0.8572619E-01
       -2   -1    0    0    0  501  0.00000000000E+00  0.00000000000E+00  0.33346804389E+04  0.33346804389E+04  0.25500000920E-02 0.  1.
        2   -1    0    0  501    0  0.00000000000E+00  0.00000000000E+00 -0.32259528374E+03  0.32259528375E+03  0.25500000920E-02 0. -1.
    10030    2    1    2    0    0  0.00000000000E+00  0.00000000000E+00  0.30120851552E+04  0.36572757227E+04  0.20743694776E+04 0.  0.
        4    1    3    3  502    0  0.10284853337E+04  0.39173560313E+02  0.17320601327E+04  0.20147830071E+04  0.12699999809E+01 0. -1.
       -4    1    3    3    0  502 -0.10284853337E+04 -0.39173560313E+02  0.12800250225E+04  0.16424927156E+04  0.12699999809E+01 0.  1.
</event>
<event>
 5   0  0.1252477E-04  0.2111889E+04  0.7818609E-02  0.8556024E-01
        2   -1    0    0  501    0  0.00000000000E+00  0.00000000000E+00  0.27077734575E+04  0.27077734575E+04  0.25500000920E-02 0.  1.
       -2   -1    0    0    0  501  0.00000000000E+00  0.00000000000E+00 -0.41178449096E+03  0.41178449096E+03  0.25500000920E-02 0. -1.
    10030    2    1    2    0    0  0.00000000000E+00  0.00000000000E+00  0.22959889666E+04  0.31195579485E+04  0.21118893104E+04 0.  0.
        4    1    3    3  502    0 -0.14783669632E+02 -0.42487220279E+03  0.25757736006E+04  0.26106218033E+04  0.12699999809E+01 0.  1.
       -4    1    3    3    0  502  0.14783669632E+02  0.42487220279E+03 -0.27978463398E+03  0.50893614521E+03  0.12699999809E+01 0. -1.
</event>
<event>
 5   0  0.5933905E-05  0.2123228E+04  0.7818609E-02  0.8551080E-01
        1   -1    0    0  501    0  0.00000000000E+00  0.00000000000E+00  0.72261990572E+03  0.72261990574E+03  0.50400001928E-02 0. -1.
       -1   -1    0    0    0  501  0.00000000000E+00  0.00000000000E+00 -0.15596357892E+04  0.15596357892E+04  0.50400001928E-02 0.  1.
    10030    2    1    2    0    0  0.00000000000E+00  0.00000000000E+00 -0.83701588344E+03  0.22822556949E+04  0.21232276062E+04 0.  0.
        2    1    3    3  502    0 -0.18227270619E+03 -0.40337393785E+03  0.61869461083E+03  0.76073444422E+03  0.25500000920E-02 0. -1.
       -2    1    3    3    0  502  0.18227270619E+03  0.40337393785E+03 -0.14557104943E+04  0.15215212507E+04  0.25500000920E-02 0.  1.
</event>
<event>
 5   0  0.5933905E-05  0.2114582E+04  0.7818609E-02  0.8554847E-01
        1   -1    0    0  501    0  0.00000000000E+00  0.00000000000E+00  0.86141022968E+03  0.86141022970E+03  0.50400001928E-02 0.  1.
       -1   -1    0    0    0  501  0.00000000000E+00  0.00000000000E+00 -0.12977141653E+04  0.12977141653E+04  0.50400001928E-02 0. -1.
    10030    2    1    2    0    0  0.00000000000E+00  0.00000000000E+00 -0.43630393562E+03  0.21591243950E+04  0.21145819986E+04 0.  0.
        2    1    3    3  502    0  0.56761417619E+03 -0.42093294912E+03 -0.10211617368E+04  0.12418299776E+04  0.25500000920E-02 0. -1.
       -2    1    3    3    0  502 -0.56761417619E+03  0.42093294912E+03  0.58485780113E+03  0.91729441741E+03  0.25500000920E-02 0.  1.
</event>
<event>
 5   0  0.1349252E-04  0.2079379E+04  0.7818609E-02  0.8570382E-01
       -2   -1    0    0    0  501  0.00000000000E+00  0.00000000000E+00  0.10589614857E+04  0.10589614858E+04  0.25500000920E-02 0.  1.
        2   -1    0    0  501    0  0.00000000000E+00  0.00000000000E+00 -0.10207685388E+04  0.10207685388E+04  0.25500000920E-02 0. -1.
    10030    2    1    2    0    0  0.00000000000E+00  0.00000000000E+00  0.38192946970E+02  0.20797300245E+04  0.20793793001E+04 0.  0.
        2    1    3    3  502    0  0.69055498591E+03  0.56903084515E+03  0.54861213680E+03  0.10495892377E+04  0.25500000920E-02 0.  1.
       -2    1    3    3    0  502 -0.69055498591E+03 -0.56903084515E+03 -0.51041918983E+03  0.10301407868E+04  0.25500000920E-02 0. -1.
</event>
<event>
 5   0  0.1281470E-04  0.2092045E+04  0.7818609E-02  0.8564756E-01
        2   -1    0    0  501    0  0.00000000000E+00  0.00000000000E+00  0.17396616735E+04  0.17396616735E+04  0.25500000920E-02 0.  1.
       -2   -1    0    0    0  501  0.00000000000E+00  0.00000000000E+00 -0.62895149368E+03  0.62895149368E+03  0.25500000920E-02 0. -1.
    10030    2    1    2    0    0  0.00000000000E+00  0.00000000000E+00  0.11107101798E+04  0.23686131672E+04  0.20920447491E+04 0.  0.
        3    1    3    3  502    0 -0.79021027091E+03 -0.78382793308E+02 -0.21552820757E+03  0.82281744816E+03  0.10100000352E+00 0. -1.
       -3    1    3    3    0  502  0.79021027091E+03  0.78382793308E+02  0.13262383874E+04  0.15457957190E+04  0.10100000352E+00 0.  1.
</event>
<event>
 5   0  0.1349252E-04  0.2198603E+04  0.7818609E-02  0.8519010E-01
       -2   -1    0    0    0  501  0.00000000000E+00  0.00000000000E+00  0.82885391890E+03  0.82885391890E+03  0.25500000920E-02 0. -1.
        2   -1    0    0  501    0  0.00000000000E+00  0.00000000000E+00 -0.14579940764E+04  0.14579940764E+04  0.25500000920E-02 0.  1.
    10030    2    1    2    0    0  0.00000000000E+00  0.00000000000E+00 -0.62914015749E+03  0.22868479953E+04  0.21986032875E+04 0.  0.
        2    1    3    3  502    0  0.91207895451E+03 -0.53967958323E+03 -0.10746817852E+02  0.10598384622E+04  0.25500000920E-02 0.  1.
       -2    1    3    3    0  502 -0.91207895451E+03  0.53967958323E+03 -0.61839333964E+03  0.12270095331E+04  0.25500000920E-02 0. -1.
</event>
<event>
 5   0  0.1235817E-04  0.2083756E+04  0.7818609E-02  0.8568433E-01
       -2   -1    0    0    0  501  0.00000000000E+00  0.00000000000E+00  0.53389796273E+03  0.53389796273E+03  0.25500000920E-02 0. -1.
        2   -1    0    0  501    0  0.00000000000E+00  0.00000000000E+00 -0.20331791860E+04  0.20331791860E+04  0.25500000920E-02 0.  1.
    10030    2    1    2    0    0  0.00000000000E+00  0.00000000000E+00 -0.14992812233E+04  0.25670771487E+04  0.20837564400E+04 0.  0.
        1    1    3    3  502    0  0.55260520865E+03 -0.75646289702E+03 -0.13113618897E+04  0.16116074699E+04  0.50400001928E-02 0.  1.
       -1    1    3    3    0  502 -0.55260520865E+03  0.75646289702E+03 -0.18791933354E+03  0.95546967882E+03  0.50400001928E-02 0. -1.
</event>
<event>
 5   0  0.5846187E-05  0.2110022E+04  0.7818609E-02  0.8556841E-01
       -1   -1    0    0    0  501  0.00000000000E+00  0.00000000000E+00  0.54313462071E+03  0.54313462074E+03  0.50400001928E-02 0. -1.
        1   -1    0    0  501    0  0.00000000000E+00  0.00000000000E+00 -0.20493043083E+04  0.20493043083E+04  0.50400001928E-02 0.  1.
    10030    2    1    2    0    0  0.00000000000E+00  0.00000000000E+00 -0.15061696876E+04  0.25924389290E+04  0.21100219129E+04 0.  0.
        5    1    3    3  502    0 -0.25070190242E+03  0.62205455649E+03  0.24749388098E+03  0.71489763340E+03  0.46999998093E+01 0. -1.
       -5    1    3    3    0  502  0.25070190242E+03 -0.62205455649E+03 -0.17536635685E+04  0.18775412956E+04  0.46999998093E+01 0.  1.
</event>
<event>
 5   0  0.1325673E-04  0.2105183E+04  0.7818609E-02  0.8558964E-01
       -2   -1    0    0    0  501  0.00000000000E+00  0.00000000000E+00  0.98620622494E+03  0.98620622494E+03  0.25500000920E-02 0.  1.
        2   -1    0    0  501    0  0.00000000000E+00  0.00000000000E+00 -0.11234457250E+04  0.11234457250E+04  0.25500000920E-02 0. -1.
    10030    2    1    2    0    0  0.00000000000E+00  0.00000000000E+00 -0.13723950006E+03  0.21096519499E+04  0.21051832864E+04 0.  0.
        5    1    3    3  502    0  0.51837221404E+03  0.90644795394E+02  0.84490776152E+03  0.99539813476E+03  0.46999998093E+01 0.  1.
       -5    1    3    3    0  502 -0.51837221404E+03 -0.90644795394E+02 -0.98214726157E+03  0.11142538152E+04  0.46999998093E+01 0. -1.
</event>
<event>
 5   0  0.1252477E-04  0.2198755E+04  0.7818609E-02  0.8518946E-01
        2   -1    0    0  501    0  0.00000000000E+00  0.00000000000E+00  0.22683696624E+04  0.22683696624E+04  0.25500000920E-02 0. -1.
       -2   -1    0    0    0  501  0.00000000000E+00  0.00000000000E+00 -0.53281925976E+03  0.53281925977E+03  0.25500000920E-02 0.  1.
    10030    2    1    2    0    0  0.00000000000E+00  0.00000000000E+00  0.17355504027E+04  0.28011889222E+04  0.21987551427E+04 0.  0.
        4    1    3    3  502    0 -0.10902335667E+04  0.14089721330E+03  0.85125373207E+03  0.13903581495E+04  0.12699999809E+01 0.  1.
       -4    1    3    3    0  502  0.10902335667E+04 -0.14089721330E+03  0.88429667059E+03  0.14108307727E+04  0.12699999809E+01 0. -1.
</event>
<event>
 5   0  0.1349252E-04  0.1906718E+04  0.7818609E-02  0.8651520E-01
       -2   -1    0    0    0  501  0.00000000000E+00  0.00000000000E+00  0.44151315138E+03  0.44151315138E+03  0.25500000920E-02 0. -1.
        2   -1    0    0  501    0  0.00000000000E+00  0.00000000000E+00 -0.20585869005E+04  0.20585869005E+04  0.25500000920E-02 0.  1.
    10030    2    1    2    0    0  0.00000000000E+00  0.00000000000E+00 -0.16170737491E+04  0.25001000519E+04  0.19067177975E+04 0.  0.
        2    1    3    3  502    0 -0.93801573781E+03  0.11582419865E+03 -0.64474408081E+03  0.11441082550E+04  0.25500000920E-02 0. -1.
       -2    1    3    3    0  502  0.93801573781E+03 -0.11582419865E+03 -0.97232966832E+03  0.13559917969E+04  0.25500000920E-02 0.  1.
</event>
<event>
 5   0  0.6221148E-05  0.2113414E+04  0.7818609E-02  0.8555357E-01
        1   -1    0    0  501    0  0.00000000000E+00  0.00000000000E+00  0.15648565117E+04  0.15648565117E+04  0.50400001928E-02 0. -1.
       -1   -1    0    0    0  501  0.00000000000E+00  0.00000000000E+00 -0.71356689234E+03  0.71356689236E+03  0.50400001928E-02 0.  1.
    10030    2    1    2    0    0  0.00000000000E+00  0.00000000000E+00  0.85128961937E+03  0.22784234041E+04  0.21134141081E+04 0.  0.
        3    1    3    3  502    0  0.97874278008E+03  0.38336448489E+03  0.54237637028E+03  0.11828262320E+04  0.10100000352E+00 0. -1.
       -3    1    3    3    0  502 -0.97874278008E+03 -0.38336448489E+03  0.30891324909E+03  0.10955971721E+04  0.10100000352E+00 0.  1.
</event>
<event>
 5   0  0.5846187E-05  0.2112921E+04  0.7818609E-02  0.8555573E-01
        1   -1    0    0  501    0  0.00000000000E+00  0.00000000000E+00  0.16673855872E+04  0.16673855872E+04  0.50400001928E-02 0. -1.
       -1   -1    0    0    0  501  0.00000000000E+00  0.00000000000E+00 -0.66937641004E+03  0.66937641006E+03  0.50400001928E-02 0.  1.
    10030    2    1    2    0    0  0.00000000000E+00  0.00000000000E+00  0.99800917712E+03  0.23367619972E+04  0.21129208017E+04 0.  0.
        5    1    3    3  502    0 -0.68456639300E+03  0.51973437689E+03  0.11783533761E+04  0.14585245071E+04  0.46999998093E+01 0. -1.
       -5    1    3    3    0  502  0.68456639300E+03 -0.51973437689E+03 -0.18034419895E+03  0.87823749011E+03  0.46999998093E+01 0.  1.
</event>
<event>
 5   0  0.1235817E-04  0.2097462E+04  0.7818609E-02  0.8562362E-01
       -2   -1    0    0    0  501  0.00000000000E+00  0.00000000000E+00  0.58069622151E+03  0.58069622152E+03  0.25500000920E-02 0.  1.
        2   -1    0    0  501    0  0.00000000000E+00  0.00000000000E+00 -0.18939969454E+04  0.18939969454E+04  0.25500000920E-02 0. -1.
    10030    2    1    2    0    0  0.00000000000E+00  0.00000000000E+00 -0.13133007239E+04  0.24746931669E+04  0.20974621520E+04 0.  0.
        1    1    3    3  502    0 -0.12336775895E+03  0.89160440517E+03 -0.21654891054E+02  0.90035934693E+03  0.50400001928E-02 0.  1.
       -1    1    3    3    0  502  0.12336775895E+03 -0.89160440517E+03 -0.12916458328E+04  0.15743338200E+04  0.50400001928E-02 0. -1.
</event>
<event>
 5   0  0.1325673E-04  0.2031683E+04  0.7818609E-02  0.8591950E-01
        2   -1    0    0  501    0  0.00000000000E+00  0.00000000000E+00  0.10516280068E+04  0.10516280068E+04  0.25500000920E-02 0.  1.
       -2   -1    0    0    0  501  0.00000000000E+00  0.00000000000E+00 -0.98127268829E+03  0.98127268829E+03  0.25500000920E-02 0. -1.
    10030    2    1    2    0    0  0.00000000000E+00  0.00000000000E+00  0.70355318510E+02  0.20329006951E+04  0.20316828899E+04 0.  0.
        5    1    3    3  502    0  0.76967443850E+03 -0.44340630396E+03  0.52832585556E+03  0.10335173880E+04  0.46999998093E+01 0.  1.
       -5    1    3    3    0  502 -0.76967443850E+03  0.44340630396E+03 -0.45797053705E+03  0.99938330708E+03  0.46999998093E+01 0. -1.
</event>
<event>
 5   0  0.1325673E-04  0.2055155E+04  0.7818609E-02  0.8581260E-01
        2   -1    0    0  501    0  0.00000000000E+00  0.00000000000E+00  0.16596364172E+04  0.16596364172E+04  0.25500000920E-02 0.  1.
       -2   -1    0    0    0  501  0.00000000000E+00  0.00000000000E+00 -0.63623284365E+03  0.63623284365E+03  0.25500000920E-02 0. -1.
    10030    2    1    2    0    0  0.00000000000E+00  0.00000000000E+00  0.10234035736E+04  0.22958692609E+04  0.20551546873E+04 0.  0.
        5    1    3    3  502    0  0.42743048984E+03 -0.21710521132E+03  0.15270356183E+04  0.16005284646E+04  0.46999998093E+01 0.  1.
       -5    1    3    3    0  502 -0.42743048984E+03  0.21710521132E+03 -0.50363204475E+03  0.69534079625E+03  0.46999998093E+01 0. -1.
</event>
<event>
 5   0  0.6263616E-05  0.2102837E+04  0.7818609E-02  0.8559995E-01
       -1   -1    0    0    0  501  0.00000000000E+00  0.00000000000E+00  0.77227323375E+03  0.77227323377E+03  0.50400001928E-02 0.  1.
        1   -1    0    0  501    0  0.00000000000E+00  0.00000000000E+00 -0.14314632111E+04  0.14314632111E+04  0.50400001928E-02 0. -1.
    10030    2    1    2    0    0  0.00000000000E+00  0.00000000000E+00 -0.65918997736E+03  0.22037364449E+04  0.21028368677E+04 0.  0.
        4    1    3    3  502    0 -0.18033836933E+03  0.87678043459E+03 -0.90761534831E+03  0.12747678578E+04  0.12699999809E+01 0. -1.
       -4    1    3    3    0  502  0.18033836933E+03 -0.87678043459E+03  0.24842537095E+03  0.92896858707E+03  0.12699999809E+01 0.  1.
</event>
<event>
 5   0  0.6263616E-05  0.1959628E+04  0.7818609E-02  0.8625732E-01
       -1   -1    0    0    0  501  0.00000000000E+00  0.00000000000E+00  0.88026338177E+03  0.88026338179E+03  0.50400001928E-02 0.  1.
        1   -1    0    0  501    0  0.00000000000E+00  0.00000000000E+00 -0.10906228873E+04  0.10906228873E+04  0.50400001928E-02 0. -1.
    10030    2    1    2    0    0  0.00000000000E+00  0.00000000000E+00 -0.21035950553E+03  0.19708862691E+04  0.19596279147E+04 0.  0.
        4    1    3    3  502    0 -0.60145287717E+03  0.29526418018E+03 -0.82420473392E+03  0.10621871567E+04  0.12699999809E+01 0. -1.
       -4    1    3    3    0  502  0.60145287717E+03 -0.29526418018E+03  0.61384522839E+03  0.90869911240E+03  0.12699999809E+01 0.  1.
</event>
<event>
 5   0  0.5933905E-05  0.2127839E+04  0.7818609E-02  0.8549078E-01
       -1   -1    0    0    0  501  0.00000000000E+00  0.00000000000E+00  0.93966420861E+03  0.93966420863E+03  0.50400001928E-02 0. -1.
        1   -1    0    0  501    0  0.00000000000E+00  0.00000000000E+00 -0.12046052820E+04  0.12046052821E+04  0.50400001928E-02 0.  1.
    10030    2    1    2    0    0  0.00000000000E+00  0.00000000000E+00 -0.26494107343E+03  0.21442694907E+04  0.21278387806E+04 0.  0.
        2    1    3    3  502    0 -0.62794704186E+03  0.74714637653E+03 -0.55927286232E+03  0.11248694724E+04  0.25500000920E-02 0.  1.
       -2    1    3    3    0  502  0.62794704186E+03 -0.74714637653E+03  0.29433178889E+03  0.10194000183E+04  0.25500000920E-02 0. -1.
</event>
<event>
 5   0  0.1235817E-04  0.2115291E+04  0.7818609E-02  0.8554537E-01
       -2   -1    0    0    0  501  0.00000000000E+00  0.00000000000E+00  0.45114973243E+03  0.45114973243E+03  0.25500000920E-02 0. -1.
        2   -1    0    0  501    0  0.00000000000E+00  0.00000000000E+00 -0.24794736793E+04  0.24794736793E+04  0.25500000920E-02 0.  1.
    10030    2    1    2    0    0  0.00000000000E+00  0.00000000000E+00 -0.20283239469E+04  0.29306234118E+04  0.21152908897E+04 0.  0.
        1    1    3    3  502    0  0.44248461887E+03 -0.53523414731E+02 -0.23430046286E+04  0.23850216107E+04  0.50400001928E-02 0.  1.
       -1    1    3    3    0  502 -0.44248461887E+03  0.53523414731E+02  0.31468068170E+03  0.54560180106E+03  0.50400001928E-02 0. -1.
</event>
<event>
 5   0  0.1325673E-04  0.1810097E+04  0.7818609E-02  0.8700949E-01
        2   -1    0    0  501    0  0.00000000000E+00  0.00000000000E+00  0.14849350461E+04  0.14849350461E+04  0.25500000920E-02 0.  1.
       -2   -1    0    0    0  501  0.00000000000E+00  0.00000000000E+00 -0.55161503953E+03  0.55161503954E+03  0.25500000920E-02 0. -1.
    10030    2    1    2    0    0  0.00000000000E+00  0.00000000000E+00  0.93332000658E+03  0.20365500857E+04  0.18100966871E+04 0.  0.
        5    1    3    3  502    0  0.20182308995E+03 -0.29420582649E+03  0.14024617412E+04  0.14471387817E+04  0.46999998093E+01 0.  1.
       -5    1    3    3    0  502 -0.20182308995E+03  0.29420582649E+03 -0.46914173466E+03  0.58941130391E+03  0.46999998093E+01 0. -1.
</event>
<event>
 5   0  0.1281470E-04  0.2209032E+04  0.7818609E-02  0.8514678E-01
        2   -1    0    0  501    0  0.00000000000E+00  0.00000000000E+00  0.12543918364E+04  0.12543918364E+04  0.25500000920E-02 0.  1.
       -2   -1    0    0    0  501  0.00000000000E+00  0.00000000000E+00 -0.97254767749E+03  0.97254767749E+03  0.25500000920E-02 0. -1.
    10030    2    1    2    0    0  0.00000000000E+00  0.00000000000E+00  0.28184415895E+03  0.22269395139E+04  0.22090322471E+04 0.  0.
        3    1    3    3  502    0  0.33172747824E+03  0.76209457022E+03  0.87422825684E+03  0.12062778739E+04  0.10100000352E+00 0.  1.
       -3    1    3    3    0  502 -0.33172747824E+03 -0.76209457022E+03 -0.59238409789E+03  0.10206616400E+04  0.10100000352E+00 0. -1.
</event>
<event>
 5   0  0.6263616E-05  0.2025469E+04  0.7818609E-02  0.8594805E-01
       -1   -1    0    0    0  501  0.00000000000E+00  0.00000000000E+00  0.66981770420E+03  0.66981770421E+03  0.50400001928E-02 0. -1.
        1   -1    0    0  501    0  0.00000000000E+00  0.00000000000E+00 -0.15312089014E+04  0.15312089014E+04  0.50400001928E-02 0.  1.
    10030    2    1    2    0    0  0.00000000000E+00  0.00000000000E+00 -0.86139119722E+03  0.22010266056E+04  0.20254686678E+04 0.  0.
        4    1    3    3  502    0 -0.41421144342E+03 -0.85121675070E+03 -0.82172981588E+03  0.12535479966E+04  0.12699999809E+01 0.  1.
       -4    1    3    3    0  502  0.41421144342E+03  0.85121675070E+03 -0.39661381340E+02  0.94747860905E+03  0.12699999809E+01 0. -1.
</event>
<event>
 5   0  0.1235817E-04  0.2092922E+04  0.7818609E-02  0.8564368E-01
        2   -1    0    0  501    0  0.00000000000E+00  0.00000000000E+00  0.18321520844E+04  0.18321520844E+04  0.25500000920E-02 0.  1.
       -2   -1    0    0    0  501  0.00000000000E+00  0.00000000000E+00 -0.59770154048E+03  0.59770154049E+03  0.25500000920E-02 0. -1.
    10030    2    1    2    0    0  0.00000000000E+00  0.00000000000E+00  0.12344505439E+04  0.24298536249E+04  0.20929215210E+04 0.  0.
        1    1    3    3  502    0  0.54777051595E+03  0.77017341523E+03  0.11388435921E+04  0.14799271451E+04  0.50400001928E-02 0.  1.
       -1    1    3    3    0  502 -0.54777051595E+03 -0.77017341523E+03  0.95606951841E+02  0.94992647975E+03  0.50400001928E-02 0. -1.
</event>
<event>
 5   0  0.6263616E-05  0.2116961E+04  0.7818609E-02  0.8553808E-01
       -1   -1    0    0    0  501  0.00000000000E+00  0.00000000000E+00  0.11744031041E+04  0.11744031041E+04  0.50400001928E-02 0.  1.
        1   -1    0    0  501    0  0.00000000000E+00  0.00000000000E+00 -0.95400060700E+03  0.95400060701E+03  0.50400001928E-02 0. -1.
    10030    2    1    2    0    0  0.00000000000E+00  0.00000000000E+00  0.22040249711E+03  0.21284037111E+04  0.21169612885E+04 0.  0.
        4    1    3    3  502    0  0.21328430619E+03  0.95451812988E+03  0.51709182424E+03  0.11063365777E+04  0.12699999809E+01 0.  1.
       -4    1    3    3    0  502 -0.21328430619E+03 -0.95451812988E+03 -0.29668932713E+03  0.10220671334E+04  0.12699999809E+01 0. -1.
</event>
<event>
 5   0  0.1281470E-04  0.2057183E+04  0.7818609E-02  0.8580343E-01
        2   -1    0    0  501    0  0.00000000000E+00  0.00000000000E+00  0.12874117232E+04  0.12874117232E+04  0.25500000920E-02 0. -1.
       -2   -1    0    0    0  501  0.00000000000E+00  0.00000000000E+00 -0.82180419011E+03  0.82180419011E+03  0.25500000920E-02 0.  1.
    10030    2    1    2    0    0  0.00000000000E+00  0.00000000000E+00  0.46560753307E+03  0.21092159133E+04  0.20571828781E+04 0.  0.
        3    1    3    3  502    0 -0.32827174616E+03  0.10933381259E+03 -0.76034731637E+03  0.83537074022E+03  0.10100000352E+00 0.  1.
       -3    1    3    3    0  502  0.32827174616E+03 -0.10933381259E+03  0.12259548494E+04  0.12738451731E+04  0.10100000352E+00 0. -1.
</event>
<event>
 5   0  0.1252477E-04  0.1756903E+04  0.7818609E-02  0.8729560E-01
        2   -1    0    0  501    0  0.00000000000E+00  0.00000000000E+00  0.69281546151E+03  0.69281546151E+03  0.25500000920E-02 0. -1.
       -2   -1    0    0    0  501  0.00000000000E+00  0.00000000000E+00 -0.11138275838E+04  0.11138275838E+04  0.25500000920E-02 0.  1.
    10030    2    1    2    0    0  0.00000000000E+00  0.00000000000E+00 -0.42101212228E+03  0.18066430453E+04  0.17569029245E+04 0.  0.
        4    1    3    3  502    0  0.36920618431E+02 -0.87529085456E+03 -0.27697464369E+03  0.91881106779E+03  0.12699999809E+01 0. -1.
       -4    1    3    3    0  502 -0.36920618431E+02  0.87529085456E+03 -0.14403747859E+03  0.88783197751E+03  0.12699999809E+01 0.  1.
</event>
<event>
 5   0  0.6052292E-05  0.2075557E+04  0.7818609E-02  0.8572088E-01
       -1   -1    0    0    0  501  0.00000000000E+00  0.00000000000E+00  0.11399440556E+04  0.11399440556E+04  0.50400001928E-02 0.  1.
        1   -1    0    0  501    0  0.00000000000E+00  0.00000000000E+00 -0.94476923962E+03  0.94476923964E+03  0.50400001928E-02 0. -1.
    10030    2    1    2    0    0  0.00000000000E+00  0.00000000000E+00  0.19517481597E+03  0.20847132952E+04  0.20755568685E+04 0.  0.
        1    1    3    3  502    0 -0.25993064130E+03  0.42218953599E+03  0.10132979875E+04  0.11280872103E+04  0.50400001928E-02 0.  1.
       -1    1    3    3    0  502  0.25993064130E+03 -0.42218953599E+03 -0.81812317151E+03  0.95662608494E+03  0.50400001928E-02 0. -1.
</event>
<event>
 5   0  0.1235817E-04  0.2130923E+04  0.7818609E-02  0.8547742E-01
       -2   -1    0    0    0  501  0.00000000000E+00  0.00000000000E+00  0.47844479562E+03  0.47844479563E+03  0.25500000920E-02 0.  1.
        2   -1    0    0  501    0  0.00000000000E+00  0.00000000000E+00 -0.23727053926E+04  0.23727053926E+04  0.25500000920E-02 0. -1.
    10030    2    1    2    0    0  0.00000000000E+00  0.00000000000E+00 -0.18942605969E+04  0.28511501882E+04  0.21309233178E+04 0.  0.
        1    1    3    3  502    0 -0.83517351224E+03  0.64340507390E+03 -0.74104683877E+03  0.12886563941E+04  0.50400001928E-02 0. -1.
       -1    1    3    3    0  502  0.83517351224E+03 -0.64340507390E+03 -0.11532137582E+04  0.15624937941E+04  0.50400001928E-02 0.  1.
</event>
<event>
 5   0  0.5846187E-05  0.2072839E+04  0.7818609E-02  0.8573303E-01
        1   -1    0    0  501    0  0.00000000000E+00  0.00000000000E+00  0.70090520118E+03  0.70090520120E+03  0.50400001928E-02 0.  1.
       -1   -1    0    0    0  501  0.00000000000E+00  0.00000000000E+00 -0.15325407413E+04  0.15325407413E+04  0.50400001928E-02 0. -1.
    10030    2    1    2    0    0  0.00000000000E+00  0.00000000000E+00 -0.83163554007E+03  0.22334459425E+04  0.20728393827E+04 0.  0.
        5    1    3    3  502    0  0.34612833081E+03 -0.83747453839E+03 -0.95775479374E+03  0.13185161200E+04  0.46999998093E+01 0. -1.
       -5    1    3    3    0  502 -0.34612833081E+03  0.83747453839E+03  0.12611925367E+03  0.91492982244E+03  0.46999998093E+01 0.  1.
</event>
<event>
 5   0  0.5846187E-05  0.2122543E+04  0.7818609E-02  0.8551378E-01
        1   -1    0    0  501    0  0.00000000000E+00  0.00000000000E+00  0.85515855116E+03  0.85515855118E+03  0.50400001928E-02 0. -1.
       -1   -1    0    0    0  501  0.00000000000E+00  0.00000000000E+00 -0.13170618716E+04  0.13170618716E+04  0.50400001928E-02 0.  1.
    10030    2    1    2    0    0  0.00000000000E+00  0.00000000000E+00 -0.46190332041E+03  0.21722204228E+04  0.21225425526E+04 0.  0.
        5    1    3    3  502    0  0.17728702065E+03 -0.50604208183E+03 -0.11682281615E+04  0.12854137091E+04  0.46999998093E+01 0.  1.
       -5    1    3    3    0  502 -0.17728702065E+03  0.50604208183E+03  0.70632484107E+03  0.88680671366E+03  0.46999998093E+01 0. -1.
</event>
<event>
 5   0  0.6263616E-05  0.2077780E+04  0.7818609E-02  0.8571095E-01
        1   -1    0    0  501    0  0.00000000000E+00  0.00000000000E+00  0.15312973188E+04  0.15312973188E+04  0.50400001928E-02 0. -1.
       -1   -1    0    0    0  501  0.00000000000E+00  0.00000000000E+00 -0.70482239987E+03  0.70482239989E+03  0.50400001928E-02 0.  1.
    10030    2    1    2    0    0  0.00000000000E+00  0.00000000000E+00  0.82647491894E+03  0.22361197187E+04  0.20777802109E+04 0.  0.
        4    1    3    3  502    0  0.41532178742E+03  0.57528838970E+03 -0.40343358881E+03  0.81621638792E+03  0.12699999809E+01 0.  1.
       -4    1    3    3    0  502 -0.41532178742E+03 -0.57528838970E+03  0.12299085077E+04  0.14199033308E+04  0.12699999809E+01 0. -1.
</event>
<event>
 5   0  0.6221148E-05  0.2109323E+04  0.7818609E-02  0.8557147E-01
       -1   -1    0    0    0  501  0.00000000000E+00  0.00000000000E+00  0.68894266801E+03  0.68894266803E+03  0.50400001928E-02 0. -1.
        1   -1    0    0  501    0  0.00000000000E+00  0.00000000000E+00 -0.16145192981E+04  0.16145192981E+04  0.50400001928E-02 0.  1.
    10030    2    1    2    0    0  0.00000000000E+00  0.00000000000E+00 -0.92557663007E+03  0.23034619661E+04  0.21093233349E+04 0.  0.
        3    1    3    3  502    0 -0.63810532174E+03  0.29955250820E+02  0.45363651290E+03  0.78349334058E+03  0.10100000352E+00 0. -1.
       -3    1    3    3    0  502  0.63810532174E+03 -0.29955250820E+02 -0.13792131430E+04  0.15199686255E+04  0.10100000352E+00 0.  1.
</event>
<event>
 5   0  0.6221148E-05  0.2169668E+04  0.7818609E-02  0.8531160E-01
        1   -1    0    0  501    0  0.00000000000E+00  0.00000000000E+00  0.11460671187E+04  0.11460671187E+04  0.50400001928E-02 0. -1.
       -1   -1    0    0    0  501  0.00000000000E+00  0.00000000000E+00 -0.10268721907E+04  0.10268721907E+04  0.50400001928E-02 0.  1.
    10030    2    1    2    0    0  0.00000000000E+00  0.00000000000E+00  0.11919492801E+03  0.21729393094E+04  0.21696676731E+04 0.  0.
        3    1    3    3  502    0  0.40052507205E+03  0.86870484616E+03  0.57202903791E+03  0.11145786978E+04  0.10100000352E+00 0. -1.
       -3    1    3    3    0  502 -0.40052507205E+03 -0.86870484616E+03 -0.45283410989E+03  0.10583606117E+04  0.10100000352E+00 0.  1.
</event>
<event>
 5   0  0.6263616E-05  0.2081653E+04  0.7818609E-02  0.8569369E-01
        1   -1    0    0  501    0  0.00000000000E+00  0.00000000000E+00  0.10364766761E+04  0.10364766761E+04  0.50400001928E-02 0.  1.
       -1   -1    0    0    0  501  0.00000000000E+00  0.00000000000E+00 -0.10451944973E+04  0.10451944973E+04  0.50400001928E-02 0. -1.
    10030    2    1    2    0    0  0.00000000000E+00  0.00000000000E+00 -0.87178211694E+01  0.20816711734E+04  0.20816529187E+04 0.  0.
        4    1    3    3  502    0  0.90127599608E+03 -0.44138623029E+03 -0.28040096640E+03  0.10419916220E+04  0.12699999809E+01 0. -1.
       -4    1    3    3    0  502 -0.90127599608E+03  0.44138623029E+03  0.27168314523E+03  0.10396795514E+04  0.12699999809E+01 0.  1.
</event>
<event>
 5   0  0.6221148E-05  0.2071188E+04  0.7818609E-02  0.8574042E-01
        1   -1    0    0  501    0  0.00000000000E+00  0.00000000000E+00  0.20294475588E+04  0.20294475588E+04  0.50400001928E-02 0. -1.
       -1   -1    0    0    0  501  0.00000000000E+00  0.00000000000E+00 -0.52844692936E+03  0.52844692938E+03  0.50400001928E-02 0.  1.
    10030    2    1    2    0    0  0.00000000000E+00  0.00000000000E+00  0.15010006294E+04  0.25578944882E+04  0.20711883843E+04 0.  0.
        3    1    3    3  502    0  0.34061918338E+02 -0.10020456853E+04  0.10706449360E+04  0.14668116303E+04  0.10100000352E+00 0. -1.
       -3    1    3    3    0  502 -0.34061918338E+02  0.10020456853E+04  0.43035569340E+03  0.10910828578E+04  0.10100000352E+00 0.  1.
</event>
<event>
 5   0  0.6052292E-05  0.2092438E+04  0.7818609E-02  0.8564582E-01
       -1   -1    0    0    0  501  0.00000000000E+00  0.00000000000E+00  0.15401786983E+04  0.15401786983E+04  0.50400001928E-02 0.  1.
        1   -1    0    0  501    0  0.00000000000E+00  0.00000000000E+00 -0.71067983244E+03  0.71067983245E+03  0.50400001928E-02 0. -1.
    10030    2    1    2    0    0  0.00000000000E+00  0.00000000000E+00  0.82949886582E+03  0.22508585307E+04  0.20924377546E+04 0.  0.
        1    1    3    3  502    0  0.64843483070E+03 -0.40619328885E+03 -0.35279378793E+03  0.84256998191E+03  0.50400001928E-02 0. -1.
       -1    1    3    3    0  502 -0.64843483070E+03  0.40619328885E+03  0.11822926537E+04  0.14082885488E+04  0.50400001928E-02 0.  1.
</event>
<event>
 5   0  0.5846187E-05  0.2087963E+04  0.7818609E-02  0.8566564E-01
        1   -1    0    0  501    0  0.00000000000E+00  0.00000000000E+00  0.17666267604E+04  0.17666267604E+04  0.50400001928E-02 0. -1.
       -1   -1    0    0    0  501  0.00000000000E+00  0.00000000000E+00 -0.61693690990E+03  0.61693690992E+03  0.50400001928E-02 0.  1.
    10030    2    1    2    0    0  0.00000000000E+00  0.00000000000E+00  0.11496898505E+04  0.23835636703E+04  0.20879628872E+04 0.  0.
        5    1    3    3  502    0  0.55293004896E+03  0.16544968198E+03  0.15679287667E+04  0.16707866243E+04  0.46999998093E+01 0. -1.
       -5    1    3    3    0  502 -0.55293004896E+03 -0.16544968198E+03 -0.41823891624E+03  0.71277704605E+03  0.46999998093E+01 0.  1.
</event>
<event>
 5   0  0.1281470E-04  0.2053803E+04  0.7818609E-02  0.8581871E-01
        2   -1    0    0  501    0  0.00000000000E+00  0.00000000000E+00  0.11467725442E+04  0.11467725442E+04  0.25500000920E-02 0. -1.
       -2   -1    0    0    0  501  0.00000000000E+00  0.00000000000E+00 -0.91956075053E+03  0.91956075053E+03  0.25500000920E-02 0.  1.
    10030    2    1    2    0    0  0.00000000000E+00  0.00000000000E+00  0.22721179368E+03  0.20663332947E+04  0.20538033221E+04 0.  0.
        3    1    3    3  502    0 -0.54107100364E+03  0.85531997340E+03  0.28843867951E+03  0.10523910727E+04  0.10100000352E+00 0. -1.
       -3    1    3    3    0  502  0.54107100364E+03 -0.85531997340E+03 -0.61226885834E+02  0.10139422220E+04  0.10100000352E+00 0.  1.
</event>
<event>
 5   0  0.1349252E-04  0.2112088E+04  0.7818609E-02  0.8555937E-01
       -2   -1    0    0    0  501  0.00000000000E+00  0.00000000000E+00  0.13051047391E+04  0.13051047391E+04  0.25500000920E-02 0.  1.
        2   -1    0    0  501    0  0.00000000000E+00  0.00000000000E+00 -0.85451328102E+03  0.85451328102E+03  0.25500000920E-02 0. -1.
    10030    2    1    2    0    0  0.00000000000E+00  0.00000000000E+00  0.45059145810E+03  0.21596180201E+04  0.21120883814E+04 0.  0.
        2    1    3    3  502    0  0.84592959708E+02  0.97891305588E+03  0.62104900666E+03  0.11623805782E+04  0.25500000920E-02 0. -1.
       -2    1    3    3    0  502 -0.84592959708E+02 -0.97891305588E+03 -0.17045754856E+03  0.99723744198E+03  0.25500000920E-02 0.  1.
</event>
<event>
 5   0  0.5846187E-05  0.2067693E+04  0.7818609E-02  0.8575610E-01
       -1   -1    0    0    0  501  0.00000000000E+00  0.00000000000E+00  0.12163301362E+04  0.12163301362E+04  0.50400001928E-02 0. -1.
        1   -1    0    0  501    0  0.00000000000E+00  0.00000000000E+00 -0.87874056871E+03  0.87874056872E+03  0.50400001928E-02 0.  1.
    10030    2    1    2    0    0  0.00000000000E+00  0.00000000000E+00  0.33758956747E+03  0.20950707049E+04  0.20676930484E+04 0.  0.
        5    1    3    3  502    0  0.68520809581E+03 -0.39549620199E+03 -0.50551606127E+03  0.93888016198E+03  0.46999998093E+01 0.  1.
       -5    1    3    3    0  502 -0.68520809581E+03  0.39549620199E+03  0.84310562874E+03  0.11561905429E+04  0.46999998093E+01 0. -1.
</event>
<event>
 5   0  0.1281470E-04  0.2097025E+04  0.7818609E-02  0.8562555E-01
        2   -1    0    0  501    0  0.00000000000E+00  0.00000000000E+00  0.10470218436E+04  0.10470218436E+04  0.25500000920E-02 0.  1.
       -2   -1    0    0    0  501  0.00000000000E+00  0.00000000000E+00 -0.10500050973E+04  0.10500050973E+04  0.25500000920E-02 0. -1.
    10030    2    1    2    0    0  0.00000000000E+00  0.00000000000E+00 -0.29832537176E+01  0.20970269410E+04  0.20970248189E+04 0.  0.
        3    1    3    3  502    0  0.56984221041E+03  0.14166168295E+02 -0.88152515173E+03  0.10497654159E+04  0.10100000352E+00 0. -1.
       -3    1    3    3    0  502 -0.56984221041E+03 -0.14166168295E+02  0.87854189801E+03  0.10472615251E+04  0.10100000352E+00 0.  1.
</event>
<event>
 5   0  0.1235817E-04  0.2107747E+04  0.7818609E-02  0.8557838E-01
       -2   -1    0    0    0  501  0.00000000000E+00  0.00000000000E+00  0.10869400808E+04  0.10869400809E+04  0.25500000920E-02 0. -1.
        2   -1    0    0  501    0  0.00000000000E+00  0.00000000000E+00 -0.10218132609E+04  0.10218132610E+04  0.25500000920E-02 0.  1.
    10030    2    1    2    0    0  0.00000000000E+00  0.00000000000E+00  0.65126819903E+02  0.21087533418E+04  0.21077474123E+04 0.  0.
        1    1    3    3  502    0 -0.78701305777E+03 -0.39062305181E+03 -0.54967125955E+03  0.10363949128E+04  0.50400001928E-02 0.  1.
       -1    1    3    3    0  502  0.78701305777E+03  0.39062305181E+03  0.61479807946E+03  0.10723584290E+04  0.50400001928E-02 0. -1.
</event>
<event>
 5   0  0.1252477E-04  0.2097473E+04  0.7818609E-02  0.8562357E-01
        2   -1    0    0  501    0  0.00000000000E+00  0.00000000000E+00  0.12039982349E+04  0.12039982349E+04  0.25500000920E-02 0. -1.
       -2   -1    0    0    0  501  0.00000000000E+00  0.00000000000E+00 -0.91349660284E+03  0.91349660284E+03  0.25500000920E-02 0.  1.
    10030    2    1    2    0    0  0.00000000000E+00  0.00000000000E+00  0.29050163205E+03  0.21174948377E+04  0.20974730486E+04 0.  0.
        4    1    3    3  502    0 -0.80511581188E+03 -0.59985775361E+03 -0.16063634047E+03  0.10167823965E+04  0.12699999809E+01 0.  1.
       -4    1    3    3    0  502  0.80511581188E+03  0.59985775361E+03  0.45113797252E+03  0.11007124412E+04  0.12699999809E+01 0. -1.
</event>
<event>
 5   0  0.1349252E-04  0.2067295E+04  0.7818609E-02  0.8575789E-01
       -2   -1    0    0    0  501  0.00000000000E+00  0.00000000000E+00  0.32120478690E+03  0.32120478691E+03  0.25500000920E-02 0. -1.
        2   -1    0    0  501    0  0.00000000000E+00  0.00000000000E+00 -0.33263103750E+04  0.33263103750E+04  0.25500000920E-02 0.  1.
    10030    2    1    2    0    0  0.00000000000E+00  0.00000000000E+00 -0.30051055881E+04  0.36475151619E+04  0.20672946720E+04 0.  0.
        2    1    3    3  502    0 -0.71087188890E+03 -0.23493946623E+03 -0.24513338816E+03  0.78779805358E+03  0.25500000920E-02 0. -1.
       -2    1    3    3    0  502  0.71087188890E+03  0.23493946623E+03 -0.27599721999E+04  0.28597171083E+04  0.25500000920E-02 0.  1.
</event>
<event>
 5   0  0.5846187E-05  0.2096311E+04  0.7818609E-02  0.8562870E-01
        1   -1    0    0  501    0  0.00000000000E+00  0.00000000000E+00  0.98717315742E+03  0.98717315743E+03  0.50400001928E-02 0.  1.
       -1   -1    0    0    0  501  0.00000000000E+00  0.00000000000E+00 -0.11129052308E+04  0.11129052308E+04  0.50400001928E-02 0. -1.
    10030    2    1    2    0    0  0.00000000000E+00  0.00000000000E+00 -0.12573207341E+03  0.21000783883E+04  0.20963112084E+04 0.  0.
        5    1    3    3  502    0  0.11985091896E+03  0.82541861862E+03 -0.69877279708E+03  0.10881110470E+04  0.46999998093E+01 0. -1.
       -5    1    3    3    0  502 -0.11985091896E+03 -0.82541861862E+03  0.57304072367E+03  0.10119673412E+04  0.46999998093E+01 0.  1.
</event>
<event>
 5   0  0.1349252E-04  0.2074170E+04  0.7818609E-02  0.8572708E-01
        2   -1    0    0  501    0  0.00000000000E+00  0.00000000000E+00  0.10128873349E+04  0.10128873349E+04  0.25500000920E-02 0.  1.
       -2   -1    0    0    0  501  0.00000000000E+00  0.00000000000E+00 -0.10618612034E+04  0.10618612034E+04  0.25500000920E-02 0. -1.
    10030    2    1    2    0    0  0.00000000000E+00  0.00000000000E+00 -0.48973868564E+02  0.20747485383E+04  0.20741704504E+04 0.  0.
        2    1    3    3  502    0  0.80089449242E+03  0.91684563021E+02  0.62815772143E+03  0.10219687716E+04  0.25500000920E-02 0.  1.
       -2    1    3    3    0  502 -0.80089449242E+03 -0.91684563021E+02 -0.67713158999E+03  0.10527797667E+04  0.25500000920E-02 0. -1.
</event>
<event>
 5   0  0.5846187E-05  0.2107903E+04  0.7818609E-02  0.8557770E-01
        1   -1    0    0  501    0  0.00000000000E+00  0.00000000000E+00  0.67217040780E+03  0.67217040782E+03  0.50400001928E-02 0.  1.
       -1   -1    0    0    0  501  0.00000000000E+00  0.00000000000E+00 -0.16525774905E+04  0.16525774906E+04  0.50400001928E-02 0. -1.
    10030    2    1    2    0    0  0.00000000000E+00  0.00000000000E+00 -0.98040708274E+03  0.23247478984E+04  0.21079029254E+04 0.  0.
        5    1    3    3  502    0 -0.50530657107E+02  0.96683927623E+03 -0.30873334984E+02  0.96866236955E+03  0.46999998093E+01 0.  1.
       -5    1    3    3    0  502  0.50530657107E+02 -0.96683927623E+03 -0.94953374776E+03  0.13560855288E+04  0.46999998093E+01 0. -1.
</event>
<event>
 5   0  0.5933905E-05  0.2124051E+04  0.7818609E-02  0.8550722E-01
        1   -1    0    0  501    0  0.00000000000E+00  0.00000000000E+00  0.11368867342E+04  0.11368867342E+04  0.50400001928E-02 0.  1.
       -1   -1    0    0    0  501  0.00000000000E+00  0.00000000000E+00 -0.99209341686E+03  0.99209341687E+03  0.50400001928E-02 0. -1.
    10030    2    1    2    0    0  0.00000000000E+00  0.00000000000E+00  0.14479331737E+03  0.21289801511E+04  0.21240507007E+04 0.  0.
        2    1    3    3  502    0 -0.20213626717E+03 -0.10086655312E+04  0.33688900094E+03  0.10824783709E+04  0.25500000920E-02 0.  1.
       -2    1    3    3    0  502  0.20213626717E+03  0.10086655312E+04 -0.19209568357E+03  0.10465017803E+04  0.25500000920E-02 0. -1.
</event>
<event>
 5   0  0.5933905E-05  0.2240845E+04  0.7818609E-02  0.8501617E-01
        1   -1    0    0  501    0  0.00000000000E+00  0.00000000000E+00  0.13814222699E+04  0.13814222699E+04  0.50400001928E-02 0. -1.
       -1   -1    0    0    0  501  0.00000000000E+00  0.00000000000E+00 -0.90873502722E+03  0.90873502724E+03  0.50400001928E-02 0.  1.
    10030    2    1    2    0    0  0.00000000000E+00  0.00000000000E+00  0.47268724272E+03  0.22901572972E+04  0.22408452014E+04 0.  0.
        2    1    3    3  502    0  0.24901062188E+02 -0.27310563315E+03 -0.87390497172E+03  0.91592393208E+03  0.25500000920E-02 0.  1.
       -2    1    3    3    0  502 -0.24901062188E+02  0.27310563315E+03  0.13465922144E+04  0.13742333651E+04  0.25500000920E-02 0. -1.
</event>
<event>
 5   0  0.6263616E-05  0.2087751E+04  0.7818609E-02  0.8566658E-01
       -1   -1    0    0    0  501  0.00000000000E+00  0.00000000000E+00  0.12016043422E+04  0.12016043422E+04  0.50400001928E-02 0. -1.
        1   -1    0    0  501    0  0.00000000000E+00  0.00000000000E+00 -0.90685125985E+03  0.90685125986E+03  0.50400001928E-02 0.  1.
    10030    2    1    2    0    0  0.00000000000E+00  0.00000000000E+00  0.29475308235E+03  0.21084556021E+04  0.20877513373E+04 0.  0.
        4    1    3    3  502    0  0.20914145407E+03 -0.69999841538E+03  0.90038252693E+03  0.11594948198E+04  0.12699999809E+01 0. -1.
       -4    1    3    3    0  502 -0.20914145407E+03  0.69999841538E+03 -0.60562944457E+03  0.94896078232E+03  0.12699999809E+01 0.  1.
</event>
<event>
 5   0  0.1235817E-04  0.2079127E+04  0.7818609E-02  0.8570494E-01
        2   -1    0    0  501    0  0.00000000000E+00  0.00000000000E+00  0.16219621904E+04  0.16219621904E+04  0.25500000920E-02 0. -1.
       -2   -1    0    0    0  501  0.00000000000E+00  0.00000000000E+00 -0.66628720608E+03  0.66628720608E+03  0.25500000920E-02 0.  1.
    10030    2    1    2    0    0  0.00000000000E+00  0.00000000000E+00  0.95567498432E+03  0.22882493965E+04  0.20791273710E+04 0.  0.
        1    1    3    3  502    0 -0.34567579365E+03  0.52140115097E+03  0.13916130755E+04  0.15257581284E+04  0.50400001928E-02 0. -1.
       -1    1    3    3    0  502  0.34567579365E+03 -0.52140115097E+03 -0.43593809115E+03  0.76249126808E+03  0.50400001928E-02 0.  1.
</event>
<event>
 5   0  0.1252477E-04  0.2141024E+04  0.7818609E-02  0.8543384E-01
       -2   -1    0    0    0  501  0.00000000000E+00  0.00000000000E+00  0.96590993285E+03  0.96590993285E+03  0.25500000920E-02 0. -1.
        2   -1    0    0  501    0  0.00000000000E+00  0.00000000000E+00 -0.11864422251E+04  0.11864422251E+04  0.25500000920E-02 0.  1.
    10030    2    1    2    0    0  0.00000000000E+00  0.00000000000E+00 -0.22053229228E+03  0.21523521580E+04  0.21410243623E+04 0.  0.
        4    1    3    3  502    0 -0.16849404038E+03 -0.91842245606E+03 -0.63658622270E+03  0.11301033941E+04  0.12699999809E+01 0.  1.
       -4    1    3    3    0  502  0.16849404038E+03  0.91842245606E+03  0.41605393042E+03  0.10222487639E+04  0.12699999809E+01 0. -1.
</event>
<event>
 5   0  0.6221148E-05  0.2429029E+04  0.7818609E-02  0.8428715E-01
        1   -1    0    0  501    0  0.00000000000E+00  0.00000000000E+00  0.13311490095E+04  0.13311490095E+04  0.50400001928E-02 0.  1.
       -1   -1    0    0    0  501  0.00000000000E+00  0.00000000000E+00 -0.11080996217E+04  0.11080996218E+04  0.50400001928E-02 0. -1.
    10030    2    1    2    0    0  0.00000000000E+00  0.00000000000E+00  0.22304938773E+03  0.24392486313E+04  0.24290292003E+04 0.  0.
        3    1    3    3  502    0 -0.30838559216E+02 -0.70371055994E+03  0.11050739965E+04  0.13104762939E+04  0.10100000352E+00 0.  1.
       -3    1    3    3    0  502  0.30838559216E+02  0.70371055994E+03 -0.88202460877E+03  0.11287723374E+04  0.10100000352E+00 0. -1.
</event>
<event>
 5   0  0.1281470E-04  0.2098711E+04  0.7818609E-02  0.8561812E-01
       -2   -1    0    0    0  501  0.00000000000E+00  0.00000000000E+00  0.63228879070E+03  0.63228879071E+03  0.25500000920E-02 0.  1.
        2   -1    0    0  501    0  0.00000000000E+00  0.00000000000E+00 -0.17415248884E+04  0.17415248884E+04  0.25500000920E-02 0. -1.
    10030    2    1    2    0    0  0.00000000000E+00  0.00000000000E+00 -0.11092360977E+04  0.23738136791E+04  0.20987107144E+04 0.  0.
        3    1    3    3  502    0  0.48233569797E+02  0.28903093466E+03  0.58507327309E+03  0.65435166656E+03  0.10100000352E+00 0.  1.
       -3    1    3    3    0  502 -0.48233569797E+02 -0.28903093466E+03 -0.16943093708E+04  0.17194620126E+04  0.10100000352E+00 0. -1.
</event>
<event>
 5   0  0.6221148E-05  0.2132871E+04  0.7818609E-02  0.8546900E-01
       -1   -1    0    0    0  501  0.00000000000E+00  0.00000000000E+00  0.95782217729E+03  0.95782217730E+03  0.50400001928E-02 0. -1.
        1   -1    0    0  501    0  0.00000000000E+00  0.00000000000E+00 -0.11873647671E+04  0.11873647671E+04  0.50400001928E-02 0.  1.
    10030    2    1    2    0    0  0.00000000000E+00  0.00000000000E+00 -0.22954258982E+03  0.21451869444E+04  0.21328706538E+04 0.  0.
        3    1    3    3  502    0 -0.92622790885E+03 -0.13286067695E+03  0.39978259011E+03  0.10175343867E+04  0.10100000352E+00 0. -1.
       -3    1    3    3    0  502  0.92622790885E+03  0.13286067695E+03 -0.62932517993E+03  0.11276525577E+04  0.10100000352E+00 0.  1.
</event>
<event>
 5   0  0.5933905E-05  0.2106392E+04  0.7818609E-02  0.8558433E-01
        1   -1    0    0  501    0  0.00000000000E+00  0.00000000000E+00  0.14373179839E+04  0.14373179839E+04  0.50400001928E-02 0.  1.
       -1   -1    0    0    0  501  0.00000000000E+00  0.00000000000E+00 -0.77173010050E+03  0.77173010052E+03  0.50400001928E-02 0. -1.
    10030    2    1    2    0    0  0.00000000000E+00  0.00000000000E+00  0.66558788342E+03  0.22090480844E+04  0.21063917510E+04 0.  0.
        2    1    3    3  502    0 -0.24621723646E+03  0.38256745839E+03  0.13289496927E+04  0.14046665346E+04  0.25500000920E-02 0.  1.
       -2    1    3    3    0  502  0.24621723646E+03 -0.38256745839E+03 -0.66336180925E+03  0.80438154985E+03  0.25500000920E-02 0. -1.
</event>
<event>
 5   0  0.1349252E-04  0.2036679E+04  0.7818609E-02  0.8589661E-01
        2   -1    0    0  501    0  0.00000000000E+00  0.00000000000E+00  0.13158920966E+04  0.13158920966E+04  0.25500000920E-02 0. -1.
       -2   -1    0    0    0  501  0.00000000000E+00  0.00000000000E+00 -0.78807024024E+03  0.78807024024E+03  0.25500000920E-02 0.  1.
    10030    2    1    2    0    0  0.00000000000E+00  0.00000000000E+00  0.52782185639E+03  0.21039623369E+04  0.20366790623E+04 0.  0.
        2    1    3    3  502    0 -0.18236959841E+03 -0.98441104804E+03  0.45632093065E+03  0.11002511412E+04  0.25500000920E-02 0. -1.
       -2    1    3    3    0  502  0.18236959841E+03  0.98441104804E+03  0.71500925739E+02  0.10037111957E+04  0.25500000920E-02 0.  1.
</event>
<event>
 5   0  0.5846187E-05  0.2090926E+04  0.7818609E-02  0.8565251E-01
       -1   -1    0    0    0  501  0.00000000000E+00  0.00000000000E+00  0.10348830132E+04  0.10348830132E+04  0.50400001928E-02 0.  1.
        1   -1    0    0  501    0  0.00000000000E+00  0.00000000000E+00 -0.10561507664E+04  0.10561507664E+04  0.50400001928E-02 0. -1.
    10030    2    1    2    0    0  0.00000000000E+00  0.00000000000E+00 -0.21267753153E+02  0.20910337796E+04  0.20909256204E+04 0.  0.
        5    1    3    3  502    0 -0.55657215577E+03 -0.32365004284E+03 -0.83435632616E+03  0.10538949112E+04  0.46999998093E+01 0. -1.
       -5    1    3    3    0  502  0.55657215577E+03  0.32365004284E+03  0.81308857300E+03  0.10371388684E+04  0.46999998093E+01 0.  1.
</event>
<event>
 5   0  0.6052292E-05  0.2063818E+04  0.7818609E-02  0.8577351E-01
       -1   -1    0    0    0  501  0.00000000000E+00  0.00000000000E+00  0.12369766353E+04  0.12369766354E+04  0.50400001928E-02 0. -1.
        1   -1    0    0  501    0  0.00000000000E+00  0.00000000000E+00 -0.86083807889E+03  0.86083807891E+03  0.50400001928E-02 0.  1.
    10030    2    1    2    0    0  0.00000000000E+00  0.00000000000E+00  0.37613855646E+03  0.20978147143E+04  0.20638183936E+04 0.  0.
        1    1    3    3  502    0  0.37936279970E+03 -0.74222118894E+03 -0.43025035764E+03  0.93804253495E+03  0.50400001928E-02 0.  1.
       -1    1    3    3    0  502 -0.37936279970E+03  0.74222118894E+03  0.80638891409E+03  0.11597721793E+04  0.50400001928E-02 0. -1.
</event>
<event>
 5   0  0.1252477E-04  0.2007608E+04  0.7818609E-02  0.8603072E-01
        2   -1    0    0  501    0  0.00000000000E+00  0.00000000000E+00  0.86812762801E+03  0.86812762802E+03  0.25500000920E-02 0.  1.
       -2   -1    0    0    0  501  0.00000000000E+00  0.00000000000E+00 -0.11606842454E+04  0.11606842454E+04  0.25500000920E-02 0. -1.
    10030    2    1    2    0    0  0.00000000000E+00  0.00000000000E+00 -0.29255661738E+03  0.20288118734E+04  0.20076075920E+04 0.  0.
        4    1    3    3  502    0 -0.80054322796E+03 -0.42401945703E+03  0.29067551314E+03  0.95139677665E+03  0.12699999809E+01 0. -1.
       -4    1    3    3    0  502  0.80054322796E+03  0.42401945703E+03 -0.58323213053E+03  0.10774150968E+04  0.12699999809E+01 0.  1.
</event>
<event>
 5   0  0.6052292E-05  0.2098213E+04  0.7818609E-02  0.8562031E-01
        1   -1    0    0  501    0  0.00000000000E+00  0.00000000000E+00  0.13148300188E+04  0.13148300188E+04  0.50400001928E-02 0. -1.
       -1   -1    0    0    0  501  0.00000000000E+00  0.00000000000E+00 -0.83708481774E+03  0.83708481776E+03  0.50400001928E-02 0.  1.
    10030    2    1    2    0    0  0.00000000000E+00  0.00000000000E+00  0.47774520102E+03  0.21519148365E+04  0.20982128077E+04 0.  0.
        1    1    3    3  502    0 -0.64187577700E+03  0.75187378732E+03  0.59900885499E+03  0.11559110318E+04  0.50400001928E-02 0. -1.
       -1    1    3    3    0  502  0.64187577700E+03 -0.75187378732E+03 -0.12126365397E+03  0.99600380469E+03  0.50400001928E-02 0.  1.
</event>
<event>
 5   0  0.1252477E-04  0.2105422E+04  0.7818609E-02  0.8558859E-01
       -2   -1    0    0    0  501  0.00000000000E+00  0.00000000000E+00  0.72321567096E+03  0.72321567097E+03  0.25500000920E-02 0. -1.
        2   -1    0    0  501    0  0.00000000000E+00  0.00000000000E+00 -0.15323238303E+04  0.15323238303E+04  0.25500000920E-02 0.  1.
    10030    2    1    2    0    0  0.00000000000E+00  0.00000000000E+00 -0.80910815934E+03  0.22555395013E+04  0.21054221497E+04 0.  0.
        4    1    3    3  502    0 -0.80920323618E+03 -0.66759580562E+03 -0.31051760047E+03  0.10940369419E+04  0.12699999809E+01 0. -1.
       -4    1    3    3    0  502  0.80920323618E+03  0.66759580562E+03 -0.49859055887E+03  0.11615025594E+04  0.12699999809E+01 0.  1.
</event>
<event>
 5   0  0.1325673E-04  0.2066169E+04  0.7818609E-02  0.8576294E-01
       -2   -1    0    0    0  501  0.00000000000E+00  0.00000000000E+00  0.11131395310E+04  0.11131395310E+04  0.25500000920E-02 0.  1.
        2   -1    0    0  501    0  0.00000000000E+00  0.00000000000E+00 -0.95878729698E+03  0.95878729698E+03  0.25500000920E-02 0. -1.
    10030    2    1    2    0    0  0.00000000000E+00  0.00000000000E+00  0.15435223399E+03  0.20719268279E+04  0.20661694433E+04 0.  0.
        5    1    3    3  502    0 -0.10292671699E+04 -0.85527209567E+02  0.10039536491E+03  0.10376931772E+04  0.46999998093E+01 0.  1.
       -5    1    3    3    0  502  0.10292671699E+04  0.85527209567E+02  0.53956869076E+02  0.10342336508E+04  0.46999998093E+01 0. -1.
</event>
<event>
 5   0  0.6263616E-05  0.2352956E+04  0.7818609E-02  0.8457329E-01
       -1   -1    0    0    0  501  0.00000000000E+00  0.00000000000E+00  0.10878146694E+04  0.10878146694E+04  0.50400001928E-02 0.  1.
        1   -1    0    0  501    0  0.00000000000E+00  0.00000000000E+00 -0.12723680255E+04  0.12723680255E+04  0.50400001928E-02 0. -1.
    10030    2    1    2    0    0  0.00000000000E+00  0.00000000000E+00 -0.18455335612E+03  0.23601826950E+04  0.23529561008E+04 0.  0.
        4    1    3    3  502    0  0.64828881648E+03 -0.30731821242E+03 -0.10275437617E+04  0.12532241094E+04  0.12699999809E+01 0. -1.
       -4    1    3    3    0  502 -0.64828881648E+03  0.30731821242E+03  0.84299040561E+03  0.11069585855E+04  0.12699999809E+01 0.  1.
</event>
<event>
 5   0  0.1325673E-04  0.2106335E+04  0.7818609E-02  0.8558458E-01
        2   -1    0    0  501    0  0.00000000000E+00  0.00000000000E+00  0.67101986272E+03  0.67101986272E+03  0.25500000920E-02 0.  1.
       -2   -1    0    0    0  501  0.00000000000E+00  0.00000000000E+00 -0.16529491506E+04  0.16529491506E+04  0.25500000920E-02 0. -1.
    10030    2    1    2    0    0  0.00000000000E+00  0.00000000000E+00 -0.98192928785E+03  0.23239690133E+04  0.21063349326E+04 0.  0.
        5    1    3    3  502    0  0.36938449501E+02  0.10306167687E+04 -0.72658106658E+03  0.12615377558E+04  0.46999998093E+01 0.  1.
       -5    1    3    3    0  502 -0.36938449501E+02 -0.10306167687E+04 -0.25534822127E+03  0.10624312575E+04  0.46999998093E+01 0. -1.
</event>
<event>
 5   0  0.5933905E-05  0.1763360E+04  0.7818609E-02  0.8726031E-01
        1   -1    0    0  501    0  0.00000000000E+00  0.00000000000E+00  0.86293346296E+03  0.86293346298E+03  0.50400001928E-02 0.  1.
       -1   -1    0    0    0  501  0.00000000000E+00  0.00000000000E+00 -0.90083331762E+03  0.90083331763E+03  0.50400001928E-02 0. -1.
    10030    2    1    2    0    0  0.00000000000E+00  0.00000000000E+00 -0.37899854655E+02  0.17637667806E+04  0.17633595372E+04 0.  0.
        2    1    3    3  502    0 -0.96886145371E+02 -0.28360602225E+03  0.81042183563E+03  0.86406183384E+03  0.25500000920E-02 0.  1.
       -2    1    3    3    0  502  0.96886145371E+02  0.28360602225E+03 -0.84832169029E+03  0.89970494677E+03  0.25500000920E-02 0. -1.
</event>
<event>
 5   0  0.1349252E-04  0.2072067E+04  0.7818609E-02  0.8573649E-01
       -2   -1    0    0    0  501  0.00000000000E+00  0.00000000000E+00  0.68373477568E+03  0.68373477569E+03  0.25500000920E-02 0.  1.
        2   -1    0    0  501    0  0.00000000000E+00  0.00000000000E+00 -0.15698556440E+04  0.15698556440E+04  0.25500000920E-02 0. -1.
    10030    2    1    2    0    0  0.00000000000E+00  0.00000000000E+00 -0.88612086835E+03  0.22535904197E+04  0.20720665015E+04 0.  0.
        2    1    3    3  502    0 -0.12177736533E+03 -0.56965232083E+01 -0.15620274559E+04  0.15667775688E+04  0.25500000920E-02 0. -1.
       -2    1    3    3    0  502  0.12177736533E+03  0.56965232083E+01  0.67590658756E+03  0.68681285092E+03  0.25500000920E-02 0.  1.
</event>
<event>
 5   0  0.5846187E-05  0.1998408E+04  0.7818609E-02  0.8607365E-01
        1   -1    0    0  501    0  0.00000000000E+00  0.00000000000E+00  0.10229384204E+04  0.10229384204E+04  0.50400001928E-02 0.  1.
       -1   -1    0    0    0  501  0.00000000000E+00  0.00000000000E+00 -0.97602001341E+03  0.97602001342E+03  0.50400001928E-02 0. -1.
    10030    2    1    2    0    0  0.00000000000E+00  0.00000000000E+00  0.46918407003E+02  0.19989584338E+04  0.19984077370E+04 0.  0.
        5    1    3    3  502    0  0.62334570357E+02  0.16842665531E+03 -0.95973237890E+03  0.97640230744E+03  0.46999998093E+01 0. -1.
       -5    1    3    3    0  502 -0.62334570357E+02 -0.16842665531E+03  0.10066507859E+04  0.10225561264E+04  0.46999998093E+01 0.  1.
</event>
</LesHouchesEvents>
