<LesHouchesEvents version="3.0">
<header>
<!--
#*********************************************************************
#                                                                    *
#                        MadGraph5_aMC@NLO                           *
#                                                                    *
#                           Going Beyond                             *
#                                                                    *
#                   http://madgraph.hep.uiuc.edu                     *
#                   http://madgraph.phys.ucl.ac.be                   *
#                   http://amcatnlo.cern.ch                          *
#                                                                    *
#                     The MadGraph5_aMC@NLO team                     *
#                                                                    *
#....................................................................*
#                                                                    *
# This file contains all the information necessary to reproduce      *
# the events generated:                                              *
#                                                                    *
# 1. software version                                                *
# 2. proc_card          : code generation info including model       *
# 3. param_card         : model primary parameters in the LH format  *
# 4. run_card           : running parameters (collider and cuts)     *
# 5. pythia_card        : present only if pythia has been run        *
# 6. pgs_card           : present only if pgs has been run           *
# 7. delphes_cards      : present only if delphes has been run       *
#                                                                    *
#                                                                    *
#*********************************************************************
-->
<MGVersion>
#5.2.2.3
</MGVersion>
<MG5ProcCard>
#************************************************************
#*                     MadGraph5_aMC@NLO                    *
#*                                                          *
#*                *                       *                 *
#*                  *        * *        *                   *
#*                    * * * * 5 * * * *                     *
#*                  *        * *        *                   *
#*                *                       *                 *
#*                                                          *
#*                                                          *
#*         VERSION 2.2.3                 2015-02-10         *
#*                                                          *
#*    The MadGraph5_aMC@NLO Development Team - Find us at   *
#*    https://server06.fynu.ucl.ac.be/projects/madgraph     *
#*                                                          *
#************************************************************
#*                                                          *
#*               Command File for MadGraph5_aMC@NLO         *
#*                                                          *
#*     run as ./bin/mg5_aMC  filename                       *
#*                                                          *
#************************************************************
set group_subprocesses Auto
set ignore_six_quark_processes False
set loop_optimized_output True
set gauge unitary
set complex_mass_scheme False
import model sm
define p = g u c d s u~ c~ d~ s~
define j = g u c d s u~ c~ d~ s~
define l+ = e+ mu+
define l- = e- mu-
define vl = ve vm vt
define vl~ = ve~ vm~ vt~
import model Zprime_UFO
generate p p > zph, zph > j j
add process p p > zph, zph > b b~
output Dijet_signal
</MG5ProcCard>
<MGProcCard>
#*********************************************************************
#                        MadGraph/MadEvent                           *
#                   http://madgraph.hep.uiuc.edu                     *
#                                                                    *
#                          proc_card.dat                             *
#*********************************************************************
#                                                                    *
#            This Files is generated by MADGRAPH 5                   *
#                                                                    *
# WARNING: This Files is generated for MADEVENT (compatibility issue)*
#          This files is NOT a valid MG4 proc_card.dat               *
#          Running this in MG4 will NEVER reproduce the result of MG5*
#                                                                    *
#*********************************************************************
#*********************************************************************
# Process(es) requested : mg2 input                                  *
#*********************************************************************
# Begin PROCESS # This is TAG. Do not modify this line
p p > zph , zph > j j           #Process
# Be carefull the coupling are here in MG5 convention
          
end_coup           # End the couplings input

done               # this tells MG there are no more procs
# End PROCESS  # This is TAG. Do not modify this line
#*********************************************************************
# Model information                                                  *
#*********************************************************************
# Begin MODEL  # This is TAG. Do not modify this line
Zprime_UFO
# End   MODEL  # This is TAG. Do not modify this line
#*********************************************************************
# Start multiparticle definitions                                    *
#*********************************************************************
# Begin MULTIPARTICLES # This is TAG. Do not modify this line

# End  MULTIPARTICLES # This is TAG. Do not modify this line
</MGProcCard>
<MGRunCard>
#*********************************************************************
#                       MadGraph5_aMC@NLO                            *
#                                                                    *
#                     run_card.dat MadEvent                          *
#                                                                    *
#  This file is used to set the parameters of the run.               *
#                                                                    *
#  Some notation/conventions:                                        *
#                                                                    *
#   Lines starting with a '# ' are info or comments                  *
#                                                                    *
#   mind the format:   value    = variable     ! comment             *
#*********************************************************************
#
#*******************                                                 
# Running parameters
#*******************                                                 
#                                                                    
#*********************************************************************
# Tag name for the run (one word)                                    *
#*********************************************************************
  tag_1     = run_tag ! name of the run 
#*********************************************************************
# Run to generate the grid pack                                      *
#*********************************************************************
  .false.     = gridpack  !True = setting up the grid pack
#*********************************************************************
# Number of events and rnd seed                                      *
# Warning: Do not generate more than 1M events in a single run       *
# If you want to run Pythia, avoid more than 50k events in a run.    *
#*********************************************************************
  2000 = nevents ! Number of unweighted events requested 
 2271 = iseed   ! rnd seed (0=assigned automatically=default))
#*********************************************************************
# Collider type and energy                                           *
# lpp: 0=No PDF, 1=proton, -1=antiproton, 2=photon from proton,      *
#                                         3=photon from electron     *
#*********************************************************************
        1     = lpp1    ! beam 1 type 
        1     = lpp2    ! beam 2 type
     4000     = ebeam1  ! beam 1 total energy in GeV
     4000     = ebeam2  ! beam 2 total energy in GeV
#*********************************************************************
# Beam polarization from -100 (left-handed) to 100 (right-handed)    *
#*********************************************************************
        0     = polbeam1 ! beam polarization for beam 1
        0     = polbeam2 ! beam polarization for beam 2
#*********************************************************************
# PDF CHOICE: this automatically fixes also alpha_s and its evol.    *
#*********************************************************************
 'nn23lo1'    = pdlabel     ! PDF set                                     
 230000    = lhaid     ! if pdlabel=lhapdf, this is the lhapdf number
#*********************************************************************
# Renormalization and factorization scales                           *
#*********************************************************************
 F        = fixed_ren_scale  ! if .true. use fixed ren scale
 F        = fixed_fac_scale  ! if .true. use fixed fac scale
 91.1880  = scale            ! fixed ren scale
 91.1880  = dsqrt_q2fact1    ! fixed fact scale for pdf1
 91.1880  = dsqrt_q2fact2    ! fixed fact scale for pdf2
 1        = scalefact        ! scale factor for event-by-event scales
#*********************************************************************
# Matching - Warning! ickkw > 1 is still beta
#*********************************************************************
 0        = ickkw            ! 0 no matching, 1 MLM, 2 CKKW matching
 1        = highestmult      ! for ickkw=2, highest mult group
 1        = ktscheme         ! for ickkw=1, 1 Durham kT, 2 Pythia pTE
 1        = alpsfact         ! scale factor for QCD emission vx
 F        = chcluster        ! cluster only according to channel diag
 T        = pdfwgt           ! for ickkw=1, perform pdf reweighting
 5        = asrwgtflavor     ! highest quark flavor for a_s reweight
 T        = clusinfo         ! include clustering tag in output
 3.0      = lhe_version       ! Change the way clustering information pass to shower.        
#*********************************************************************
#**********************************************************
#
#**********************************************************
# Automatic ptj and mjj cuts if xqcut > 0
# (turn off for VBF and single top processes)
#**********************************************************
   T  = auto_ptj_mjj  ! Automatic setting of ptj and mjj
#**********************************************************
#                                                                    
#**********************************
# BW cutoff (M+/-bwcutoff*Gamma)
#**********************************
  15  = bwcutoff      ! (M+/-bwcutoff*Gamma)
#**********************************************************
# Apply pt/E/eta/dr/mij cuts on decay products or not
# (note that etmiss/ptll/ptheavy/ht/sorted cuts always apply)
#**********************************************************
   T  = cut_decays    ! Cut decay products 
#*************************************************************
# Number of helicities to sum per event (0 = all helicities)
# 0 gives more stable result, but longer run time (needed for
# long decay chains e.g.).
# Use >=2 if most helicities contribute, e.g. pure QCD.
#*************************************************************
   0  = nhel          ! Number of helicities used per event
#*******************                                                 
# Standard Cuts
#*******************                                                 
#                                                                    
#*********************************************************************
# Minimum and maximum pt's (for max, -1 means no cut)                *
#*********************************************************************
 20  = ptj       ! minimum pt for the jets 
  0  = ptb       ! minimum pt for the b 
 10  = pta       ! minimum pt for the photons 
 10  = ptl       ! minimum pt for the charged leptons 
  0  = misset    ! minimum missing Et (sum of neutrino's momenta)
  0  = ptheavy   ! minimum pt for one heavy final state
 1.0 = ptonium   ! minimum pt for the quarkonium states
 -1  = ptjmax    ! maximum pt for the jets
 -1  = ptbmax    ! maximum pt for the b
 -1  = ptamax    ! maximum pt for the photons
 -1  = ptlmax    ! maximum pt for the charged leptons
 -1  = missetmax ! maximum missing Et (sum of neutrino's momenta)
#*********************************************************************
# Minimum and maximum E's (in the center of mass frame)              *
#*********************************************************************
  0  = ej     ! minimum E for the jets 
  0  = eb     ! minimum E for the b 
  0  = ea     ! minimum E for the photons 
  0  = el     ! minimum E for the charged leptons 
 -1   = ejmax ! maximum E for the jets
 -1   = ebmax ! maximum E for the b
 -1   = eamax ! maximum E for the photons
 -1   = elmax ! maximum E for the charged leptons
#*********************************************************************
# Maximum and minimum absolute rapidity (for max, -1 means no cut)   *
#*********************************************************************
   5  = etaj    ! max rap for the jets 
  -1  = etab    ! max rap for the b
 2.5  = etaa    ! max rap for the photons 
 2.5  = etal    ! max rap for the charged leptons 
 0.6  = etaonium ! max rap for the quarkonium states
   0  = etajmin ! min rap for the jets
   0  = etabmin ! min rap for the b
   0  = etaamin ! min rap for the photons
   0  = etalmin ! main rap for the charged leptons
#*********************************************************************
# Minimum and maximum DeltaR distance                                *
#*********************************************************************
 0.4 = drjj    ! min distance between jets 
 0   = drbb    ! min distance between b's 
 0.4 = drll    ! min distance between leptons 
 0.4 = draa    ! min distance between gammas 
 0   = drbj    ! min distance between b and jet 
 0.4 = draj    ! min distance between gamma and jet 
 0.4 = drjl    ! min distance between jet and lepton 
 0   = drab    ! min distance between gamma and b 
 0   = drbl    ! min distance between b and lepton 
 0.4 = dral    ! min distance between gamma and lepton 
 -1  = drjjmax ! max distance between jets
 -1  = drbbmax ! max distance between b's
 -1  = drllmax ! max distance between leptons
 -1  = draamax ! max distance between gammas
 -1  = drbjmax ! max distance between b and jet
 -1  = drajmax ! max distance between gamma and jet
 -1  = drjlmax ! max distance between jet and lepton
 -1  = drabmax ! max distance between gamma and b
 -1  = drblmax ! max distance between b and lepton
 -1  = dralmax ! maxdistance between gamma and lepton
#*********************************************************************
# Minimum and maximum invariant mass for pairs                       *
# WARNING: for four lepton final state mmll cut require to have      *
#          different lepton masses for each flavor!                  *           
#*********************************************************************
 0   = mmjj    ! min invariant mass of a jet pair 
 0   = mmbb    ! min invariant mass of a b pair 
 0   = mmaa    ! min invariant mass of gamma gamma pair
 0   = mmll    ! min invariant mass of l+l- (same flavour) lepton pair
 -1  = mmjjmax ! max invariant mass of a jet pair
 -1  = mmbbmax ! max invariant mass of a b pair
 -1  = mmaamax ! max invariant mass of gamma gamma pair
 -1  = mmllmax ! max invariant mass of l+l- (same flavour) lepton pair
#*********************************************************************
# Minimum and maximum invariant mass for all letpons                 *
#*********************************************************************
 0   = mmnl    ! min invariant mass for all letpons (l+- and vl) 
 -1  = mmnlmax ! max invariant mass for all letpons (l+- and vl) 
#*********************************************************************
# Minimum and maximum pt for 4-momenta sum of leptons                *
#*********************************************************************
 0   = ptllmin  ! Minimum pt for 4-momenta sum of leptons(l and vl)
 -1  = ptllmax  ! Maximum pt for 4-momenta sum of leptons(l and vl)
#*********************************************************************
# Inclusive cuts                                                     *
#*********************************************************************
 0  = xptj ! minimum pt for at least one jet  
 0  = xptb ! minimum pt for at least one b 
 0  = xpta ! minimum pt for at least one photon 
 0  = xptl ! minimum pt for at least one charged lepton 
#*********************************************************************
# Control the pt's of the jets sorted by pt                          *
#*********************************************************************
 0   = ptj1min ! minimum pt for the leading jet in pt
 0   = ptj2min ! minimum pt for the second jet in pt
 0   = ptj3min ! minimum pt for the third jet in pt
 0   = ptj4min ! minimum pt for the fourth jet in pt
 -1  = ptj1max ! maximum pt for the leading jet in pt 
 -1  = ptj2max ! maximum pt for the second jet in pt
 -1  = ptj3max ! maximum pt for the third jet in pt
 -1  = ptj4max ! maximum pt for the fourth jet in pt
 0   = cutuse  ! reject event if fails any (0) / all (1) jet pt cuts
#*********************************************************************
# Control the pt's of leptons sorted by pt                           *
#*********************************************************************
 0   = ptl1min ! minimum pt for the leading lepton in pt
 0   = ptl2min ! minimum pt for the second lepton in pt
 0   = ptl3min ! minimum pt for the third lepton in pt
 0   = ptl4min ! minimum pt for the fourth lepton in pt
 -1  = ptl1max ! maximum pt for the leading lepton in pt 
 -1  = ptl2max ! maximum pt for the second lepton in pt
 -1  = ptl3max ! maximum pt for the third lepton in pt
 -1  = ptl4max ! maximum pt for the fourth lepton in pt
#*********************************************************************
# Control the Ht(k)=Sum of k leading jets                            *
#*********************************************************************
 0   = htjmin ! minimum jet HT=Sum(jet pt)
 -1  = htjmax ! maximum jet HT=Sum(jet pt)
 0   = ihtmin  !inclusive Ht for all partons (including b)
 -1  = ihtmax  !inclusive Ht for all partons (including b)
 0   = ht2min ! minimum Ht for the two leading jets
 0   = ht3min ! minimum Ht for the three leading jets
 0   = ht4min ! minimum Ht for the four leading jets
 -1  = ht2max ! maximum Ht for the two leading jets
 -1  = ht3max ! maximum Ht for the three leading jets
 -1  = ht4max ! maximum Ht for the four leading jets
#***********************************************************************
# Photon-isolation cuts, according to hep-ph/9801442                   *
# When ptgmin=0, all the other parameters are ignored                  *
# When ptgmin>0, pta and draj are not going to be used                 *
#***********************************************************************
   0 = ptgmin ! Min photon transverse momentum
 0.4 = R0gamma ! Radius of isolation code
 1.0 = xn ! n parameter of eq.(3.4) in hep-ph/9801442
 1.0 = epsgamma ! epsilon_gamma parameter of eq.(3.4) in hep-ph/9801442
 .true. = isoEM ! isolate photons from EM energy (photons and leptons)
#*********************************************************************
# WBF cuts                                                           *
#*********************************************************************
 0   = xetamin ! minimum rapidity for two jets in the WBF case  
 0   = deltaeta ! minimum rapidity for two jets in the WBF case 
#*********************************************************************
# KT DURHAM CUT                                                      *
#*********************************************************************
 -1    =  ktdurham        
 0.4  =  dparameter 
#*********************************************************************
# maximal pdg code for quark to be considered as a light jet         *
# (otherwise b cuts are applied)                                     *
#*********************************************************************
 4 = maxjetflavor    ! Maximum jet pdg code
#*********************************************************************
# Jet measure cuts                                                   *
#*********************************************************************
 0   = xqcut   ! minimum kt jet measure between partons
#*********************************************************************
#
#*********************************************************************
# Store info for systematics studies                                 *
# WARNING: If use_syst is T, matched Pythia output is                *
#          meaningful ONLY if plotted taking matchscale              *
#          reweighting into account!                                 *
#*********************************************************************
   F  = use_syst      ! Enable systematics studies
#
#**************************************
# Parameter of the systematics study
#  will be used by SysCalc (if installed)
#**************************************                                  
#
0.5 1 2 = sys_scalefact  # factorization/renormalization scale factor
0.5 1 2 = sys_alpsfact  # \alpha_s emission scale factors
30 50 = sys_matchscale # variation of merging scale
# PDF sets and number of members (0 or none for all members).
CT10nlo.LHgrid = sys_pdf # matching scales
# MSTW2008nlo68cl.LHgrid 1  = sys_pdf
</MGRunCard>
<slha>
######################################################################
## PARAM_CARD AUTOMATICALY GENERATED BY MG5 FOLLOWING UFO MODEL   ####
######################################################################
##                                                                  ##
##  Width set on Auto will be computed following the information    ##
##        present in the decay.py files of the model.               ##
##        See  arXiv:1402.1178 for more details.                    ##
##                                                                  ##
######################################################################

###################################
## INFORMATION FOR CKMBLOCK
###################################
Block ckmblock 
    1 2.277360e-01 # cabi 

###################################
## INFORMATION FOR FRBLOCK
###################################
Block frblock 
    1 1.200000e+00 # gz 

###################################
## INFORMATION FOR MASS
###################################
Block mass 
    1 5.040000e-03 # MD 
    2 2.550000e-03 # MU 
    3 1.010000e-01 # MS 
    4 1.270000e+00 # MC 
    5 4.700000e+00 # MB 
    6 1.720000e+02 # MT 
   11 5.110000e-04 # Me 
   13 1.056600e-01 # MM 
   15 1.777000e+00 # MTA 
   23 9.118760e+01 # MZ 
   25 1.200000e+02 # MH 
  10030 2.200000e+03 # MZph 
  10031 3.000000e+02 # MZpl 
## Dependent parameters, given by model restrictions.
## Those values should be edited following the 
## analytical expression. MG5 ignores those values 
## but they are important for interfacing the output of MG5
## to external program such as Pythia.
  12 0.000000 # ve : 0.0 
  14 0.000000 # vm : 0.0 
  16 0.000000 # vt : 0.0 
  21 0.000000 # g : 0.0 
  22 0.000000 # a : 0.0 
  24 79.824360 # w+ : cmath.sqrt(MZ__exp__2/2. + cmath.sqrt(MZ__exp__4/4. - (aEW*cmath.pi*MZ__exp__2)/(Gf*sqrt__2))) 

###################################
## INFORMATION FOR SMINPUTS
###################################
Block sminputs 
    1 1.279000e+02 # aEWM1 
    2 1.166370e-05 # Gf 
    3 1.184000e-01 # aS 

###################################
## INFORMATION FOR YUKAWA
###################################
Block yukawa 
    1 5.040000e-03 # ymdo 
    2 2.550000e-03 # ymup 
    3 1.010000e-01 # yms 
    4 1.270000e+00 # ymc 
    5 4.700000e+00 # ymb 
    6 1.720000e+02 # ymt 
   11 5.110000e-04 # yme 
   13 1.056600e-01 # ymm 
   15 1.777000e+00 # ymtau 

###################################
## INFORMATION FOR DECAY
###################################
DECAY   6 1.508336e+00 # WT 
DECAY  23 2.495200e+00 # WZ 
DECAY  24 2.085000e+00 # WW 
DECAY  25 5.753088e-03 # WH 
## Dependent parameters, given by model restrictions.
## Those values should be edited following the 
## analytical expression. MG5 ignores those values 
## but they are important for interfacing the output of MG5
## to external program such as Pythia.
DECAY  1 0.000000 # d : 0.0 
DECAY  2 0.000000 # u : 0.0 
DECAY  3 0.000000 # s : 0.0 
DECAY  4 0.000000 # c : 0.0 
DECAY  5 0.000000 # b : 0.0 
DECAY  11 0.000000 # e- : 0.0 
DECAY  12 0.000000 # ve : 0.0 
DECAY  13 0.000000 # mu- : 0.0 
DECAY  14 0.000000 # vm : 0.0 
DECAY  15 0.000000 # ta- : 0.0 
DECAY  16 0.000000 # vt : 0.0 
DECAY  21 0.000000 # g : 0.0 
DECAY  22 0.000000 # a : 0.0 
DECAY  10030 0.308725 # zph : (gz__exp__2*MZph*(5 + cmath.sqrt(1 - (4*MT__exp__2)/MZph__exp__2)))/(144.*cmath.pi) 
DECAY  10031 0.132629 # zpl : (5*gz__exp__2*MZpl)/(144.*cmath.pi) 
#===========================================================
# QUANTUM NUMBERS OF NEW STATE(S) (NON SM PDG CODE)
#===========================================================

Block QNUMBERS 10030  # zph 
        1 0  # 3 times electric charge
        2 3  # number of spin states (2S+1)
        3 1  # colour rep (1: singlet, 3: triplet, 8: octet)
        4 0  # Particle/Antiparticle distinction (0=own anti)
Block QNUMBERS 10031  # zpl 
        1 0  # 3 times electric charge
        2 3  # number of spin states (2S+1)
        3 1  # colour rep (1: singlet, 3: triplet, 8: octet)
        4 0  # Particle/Antiparticle distinction (0=own anti)
</slha>
## END BANNER##
<MGGenerationInfo>
#  Number of Events        :         3958
#  Integrated weight (pb)  :  0.26265E-01
#  Max wgt                 :  0.99382E-05
#  Average wgt             :  0.66359E-05
</MGGenerationInfo>
</header>
<init>
     2212     2212  0.40000000000E+04  0.40000000000E+04 0 0  247000  247000 2   1
  0.26270167144E-01  0.53093443080E-04  0.99381760000E-05   0
</init>
<event>
 5   0  0.9457742E-05  0.2189073E+04  0.7818609E-02  0.8522990E-01
       -2   -1    0    0    0  501  0.00000000000E+00  0.00000000000E+00  0.57894653951E+03  0.57894653952E+03  0.25500000920E-02 0. -1.
        2   -1    0    0  501    0  0.00000000000E+00  0.00000000000E+00 -0.20692932914E+04  0.20692932914E+04  0.25500000920E-02 0.  1.
    10030    2    1    2    0    0  0.00000000000E+00  0.00000000000E+00 -0.14903467519E+04  0.26482398309E+04  0.21890730370E+04 0.  0.
        1    1    3    3  502    0  0.10457970972E+04  0.10762096037E+03 -0.37677130541E+03  0.11167947243E+04  0.50400001928E-02 0. -1.
       -1    1    3    3    0  502 -0.10457970972E+04 -0.10762096037E+03 -0.11135754465E+04  0.15314451066E+04  0.50400001928E-02 0.  1.
</event>
<event>
 5   0  0.9457742E-05  0.2173788E+04  0.7818609E-02  0.8529418E-01
        2   -1    0    0  501    0  0.00000000000E+00  0.00000000000E+00  0.15411914868E+04  0.15411914868E+04  0.25500000920E-02 0.  1.
       -2   -1    0    0    0  501  0.00000000000E+00  0.00000000000E+00 -0.76651024793E+03  0.76651024794E+03  0.25500000920E-02 0. -1.
    10030    2    1    2    0    0  0.00000000000E+00  0.00000000000E+00  0.77468123882E+03  0.23077017347E+04  0.21737884613E+04 0.  0.
        1    1    3    3  502    0 -0.75422607294E+03  0.65168573667E+03 -0.72699899392E+02  0.99941810264E+03  0.50400001928E-02 0. -1.
       -1    1    3    3    0  502  0.75422607294E+03 -0.65168573667E+03  0.84738113821E+03  0.13082836321E+04  0.50400001928E-02 0.  1.
</event>
<event>
 5   0  0.9179618E-05  0.2210003E+04  0.7818609E-02  0.8514276E-01
       -2   -1    0    0    0  501  0.00000000000E+00  0.00000000000E+00  0.55011187350E+03  0.55011187351E+03  0.25500000920E-02 0. -1.
        2   -1    0    0  501    0  0.00000000000E+00  0.00000000000E+00 -0.22195996548E+04  0.22195996548E+04  0.25500000920E-02 0.  1.
    10030    2    1    2    0    0  0.00000000000E+00  0.00000000000E+00 -0.16694877813E+04  0.27697115283E+04  0.22100028276E+04 0.  0.
        3    1    3    3  502    0  0.10202818010E+04  0.70350679521E+02 -0.31031130136E+03  0.10687456599E+04  0.10100000352E+00 0. -1.
       -3    1    3    3    0  502 -0.10202818010E+04 -0.70350679521E+02 -0.13591764800E+04  0.17009658684E+04  0.10100000352E+00 0.  1.
</event>
<event>
 5   0  0.9457742E-05  0.2252099E+04  0.7818609E-02  0.8497051E-01
        2   -1    0    0  501    0  0.00000000000E+00  0.00000000000E+00  0.84336638459E+03  0.84336638459E+03  0.25500000920E-02 0.  1.
       -2   -1    0    0    0  501  0.00000000000E+00  0.00000000000E+00 -0.15034837051E+04  0.15034837051E+04  0.25500000920E-02 0. -1.
    10030    2    1    2    0    0  0.00000000000E+00  0.00000000000E+00 -0.66011732046E+03  0.23468500897E+04  0.22520991245E+04 0.  0.
        1    1    3    3  502    0  0.24439750001E+03  0.21805812165E+03  0.79263006493E+03  0.85763739557E+03  0.50400001928E-02 0.  1.
       -1    1    3    3    0  502 -0.24439750001E+03 -0.21805812165E+03 -0.14527473854E+04  0.14892126941E+04  0.50400001928E-02 0. -1.
</event>
<event>
 5   0  0.9179618E-05  0.2169252E+04  0.7818609E-02  0.8531336E-01
       -2   -1    0    0    0  501  0.00000000000E+00  0.00000000000E+00  0.72210770529E+03  0.72210770530E+03  0.25500000920E-02 0.  1.
        2   -1    0    0  501    0  0.00000000000E+00  0.00000000000E+00 -0.16291387291E+04  0.16291387291E+04  0.25500000920E-02 0. -1.
    10030    2    1    2    0    0  0.00000000000E+00  0.00000000000E+00 -0.90703102385E+03  0.23512464344E+04  0.21692520640E+04 0.  0.
        3    1    3    3  502    0 -0.18381106509E+03  0.30417960983E+02  0.70463361667E+03  0.72884861525E+03  0.10100000352E+00 0.  1.
       -3    1    3    3    0  502  0.18381106509E+03 -0.30417960983E+02 -0.16116646405E+04  0.16223978192E+04  0.10100000352E+00 0. -1.
</event>
<event>
 5   0  0.4063293E-05  0.2355227E+04  0.7818609E-02  0.8456459E-01
       -1   -1    0    0    0  501  0.00000000000E+00  0.00000000000E+00  0.42006509188E+03  0.42006509192E+03  0.50400001928E-02 0.  1.
        1   -1    0    0  501    0  0.00000000000E+00  0.00000000000E+00 -0.33013302097E+04  0.33013302097E+04  0.50400001928E-02 0. -1.
    10030    2    1    2    0    0  0.00000000000E+00  0.00000000000E+00 -0.28812651178E+04  0.37213953016E+04  0.23552270192E+04 0.  0.
        1    1    3    3  502    0 -0.20345802807E+03 -0.33512204463E+03  0.31392323019E+03  0.50224470973E+03  0.50400001928E-02 0.  1.
       -1    1    3    3    0  502  0.20345802807E+03  0.33512204463E+03 -0.31951883480E+04  0.32191505919E+04  0.50400001928E-02 0. -1.
</event>
<event>
 5   0  0.4188865E-05  0.2196359E+04  0.7818609E-02  0.8519945E-01
       -1   -1    0    0    0  501  0.00000000000E+00  0.00000000000E+00  0.16292828340E+04  0.16292828340E+04  0.50400001928E-02 0. -1.
        1   -1    0    0  501    0  0.00000000000E+00  0.00000000000E+00 -0.74020184741E+03  0.74020184743E+03  0.50400001928E-02 0.  1.
    10030    2    1    2    0    0  0.00000000000E+00  0.00000000000E+00  0.88908098659E+03  0.23694846814E+04  0.21963589540E+04 0.  0.
        3    1    3    3  502    0  0.18256376748E+03  0.80561735680E+03  0.12252165316E+04  0.14776685739E+04  0.10100000352E+00 0. -1.
       -3    1    3    3    0  502 -0.18256376748E+03 -0.80561735680E+03 -0.33613554505E+03  0.89181610751E+03  0.10100000352E+00 0.  1.
</event>
<event>
 5   0  0.9457742E-05  0.2242076E+04  0.7818609E-02  0.8501116E-01
        2   -1    0    0  501    0  0.00000000000E+00  0.00000000000E+00  0.11561463534E+04  0.11561463534E+04  0.25500000920E-02 0. -1.
       -2   -1    0    0    0  501  0.00000000000E+00  0.00000000000E+00 -0.10869958749E+04  0.10869958749E+04  0.25500000920E-02 0.  1.
    10030    2    1    2    0    0  0.00000000000E+00  0.00000000000E+00  0.69150478475E+02  0.22431422283E+04  0.22420761065E+04 0.  0.
        1    1    3    3  502    0  0.29326182265E+03 -0.43773072750E+03  0.10245484730E+04  0.11520895190E+04  0.50400001928E-02 0. -1.
       -1    1    3    3    0  502 -0.29326182265E+03  0.43773072750E+03 -0.95539799448E+03  0.10910527092E+04  0.50400001928E-02 0.  1.
</event>
<event>
 5   0  0.4174030E-05  0.2211914E+04  0.7818609E-02  0.8513485E-01
        1   -1    0    0  501    0  0.00000000000E+00  0.00000000000E+00  0.17439909000E+04  0.17439909000E+04  0.50400001928E-02 0. -1.
       -1   -1    0    0    0  501  0.00000000000E+00  0.00000000000E+00 -0.70134601690E+03  0.70134601692E+03  0.50400001928E-02 0.  1.
    10030    2    1    2    0    0  0.00000000000E+00  0.00000000000E+00  0.10426448831E+04  0.24453369170E+04  0.22119141677E+04 0.  0.
        2    1    3    3  502    0 -0.38056941065E+03  0.65340220506E+03 -0.37092537707E+03  0.84223105693E+03  0.25500000920E-02 0.  1.
       -2    1    3    3    0  502  0.38056941065E+03 -0.65340220506E+03  0.14135702602E+04  0.16031058600E+04  0.25500000920E-02 0. -1.
</event>
<event>
 5   0  0.9457742E-05  0.2181403E+04  0.7818609E-02  0.8526209E-01
       -2   -1    0    0    0  501  0.00000000000E+00  0.00000000000E+00  0.23016773215E+04  0.23016773215E+04  0.25500000920E-02 0.  1.
        2   -1    0    0  501    0  0.00000000000E+00  0.00000000000E+00 -0.51685322807E+03  0.51685322808E+03  0.25500000920E-02 0. -1.
    10030    2    1    2    0    0  0.00000000000E+00  0.00000000000E+00  0.17848240935E+04  0.28185305496E+04  0.21814026255E+04 0.  0.
        1    1    3    3  502    0 -0.49255187585E+03  0.55626336601E+03 -0.13930049331E+03  0.75593710732E+03  0.50400001928E-02 0. -1.
       -1    1    3    3    0  502  0.49255187585E+03 -0.55626336601E+03  0.19241245868E+04  0.20625934423E+04  0.50400001928E-02 0.  1.
</event>
<event>
 5   0  0.4174030E-05  0.2194502E+04  0.7818609E-02  0.8520720E-01
       -1   -1    0    0    0  501  0.00000000000E+00  0.00000000000E+00  0.65469727212E+03  0.65469727214E+03  0.50400001928E-02 0.  1.
        1   -1    0    0  501    0  0.00000000000E+00  0.00000000000E+00 -0.18389566471E+04  0.18389566471E+04  0.50400001928E-02 0. -1.
    10030    2    1    2    0    0  0.00000000000E+00  0.00000000000E+00 -0.11842593750E+04  0.24936539192E+04  0.21945021307E+04 0.  0.
        2    1    3    3  502    0 -0.62547381523E+03 -0.26893006282E+03  0.38564537960E+03  0.78247251136E+03  0.25500000920E-02 0.  1.
       -2    1    3    3    0  502  0.62547381523E+03  0.26893006282E+03 -0.15699047546E+04  0.17111814079E+04  0.25500000920E-02 0. -1.
</event>
<event>
 5   0  0.9938176E-05  0.1874635E+04  0.7818609E-02  0.8667586E-01
        2   -1    0    0  501    0  0.00000000000E+00  0.00000000000E+00  0.71460013091E+03  0.71460013091E+03  0.25500000920E-02 0.  1.
       -2   -1    0    0    0  501  0.00000000000E+00  0.00000000000E+00 -0.12294485649E+04  0.12294485649E+04  0.25500000920E-02 0. -1.
    10030    2    1    2    0    0  0.00000000000E+00  0.00000000000E+00 -0.51484843395E+03  0.19440486958E+04  0.18746350102E+04 0.  0.
        5    1    3    3  502    0 -0.65543886933E+02  0.63188288560E+03  0.45727535276E+03  0.78274824846E+03  0.46999998093E+01 0.  1.
       -5    1    3    3    0  502  0.65543886933E+02 -0.63188288560E+03 -0.97212378670E+03  0.11613004473E+04  0.46999998093E+01 0. -1.
</event>
<event>
 5   0  0.4174075E-05  0.2218968E+04  0.7818609E-02  0.8510574E-01
       -1   -1    0    0    0  501  0.00000000000E+00  0.00000000000E+00  0.56531260644E+03  0.56531260646E+03  0.50400001928E-02 0.  1.
        1   -1    0    0  501    0  0.00000000000E+00  0.00000000000E+00 -0.21774760408E+04  0.21774760408E+04  0.50400001928E-02 0. -1.
    10030    2    1    2    0    0  0.00000000000E+00  0.00000000000E+00 -0.16121634344E+04  0.27427886473E+04  0.22189679188E+04 0.  0.
        5    1    3    3  502    0  0.33185451159E+03  0.10557294904E+04 -0.70843733311E+03  0.13140006540E+04  0.46999998093E+01 0.  1.
       -5    1    3    3    0  502 -0.33185451159E+03 -0.10557294904E+04 -0.90372610127E+03  0.14287879933E+04  0.46999998093E+01 0. -1.
</event>
<event>
 5   0  0.4063293E-05  0.2303538E+04  0.7818609E-02  0.8476527E-01
        1   -1    0    0  501    0  0.00000000000E+00  0.00000000000E+00  0.11705997042E+04  0.11705997042E+04  0.50400001928E-02 0. -1.
       -1   -1    0    0    0  501  0.00000000000E+00  0.00000000000E+00 -0.11332411581E+04  0.11332411581E+04  0.50400001928E-02 0.  1.
    10030    2    1    2    0    0  0.00000000000E+00  0.00000000000E+00  0.37358546121E+02  0.23038408623E+04  0.23035379436E+04 0.  0.
        1    1    3    3  502    0  0.25086837100E+02  0.41379922554E+03  0.10933961329E+04  0.11693477891E+04  0.50400001928E-02 0. -1.
       -1    1    3    3    0  502 -0.25086837100E+02 -0.41379922554E+03 -0.10560375867E+04  0.11344930732E+04  0.50400001928E-02 0.  1.
</event>
<event>
 5   0  0.4188865E-05  0.2265318E+04  0.7818609E-02  0.8491723E-01
        1   -1    0    0  501    0  0.00000000000E+00  0.00000000000E+00  0.13003157601E+04  0.13003157601E+04  0.50400001928E-02 0.  1.
       -1   -1    0    0    0  501  0.00000000000E+00  0.00000000000E+00 -0.98661933090E+03  0.98661933092E+03  0.50400001928E-02 0. -1.
    10030    2    1    2    0    0  0.00000000000E+00  0.00000000000E+00  0.31369642921E+03  0.22869350910E+04  0.22653182251E+04 0.  0.
        3    1    3    3  502    0  0.42671565753E+03  0.99196745478E+03 -0.18821893232E+03  0.10961350557E+04  0.10100000352E+00 0. -1.
       -3    1    3    3    0  502 -0.42671565753E+03 -0.99196745478E+03  0.50191536153E+03  0.11908000353E+04  0.10100000352E+00 0.  1.
</event>
<event>
 5   0  0.4188865E-05  0.2230692E+04  0.7818609E-02  0.8505761E-01
        1   -1    0    0  501    0  0.00000000000E+00  0.00000000000E+00  0.16058359531E+04  0.16058359531E+04  0.50400001928E-02 0. -1.
       -1   -1    0    0    0  501  0.00000000000E+00  0.00000000000E+00 -0.77467234080E+03  0.77467234082E+03  0.50400001928E-02 0.  1.
    10030    2    1    2    0    0  0.00000000000E+00  0.00000000000E+00  0.83116361232E+03  0.23805082940E+04  0.22306919974E+04 0.  0.
        3    1    3    3  502    0  0.91708203594E+03  0.63473776932E+03  0.42419811019E+03  0.11932625626E+04  0.10100000352E+00 0.  1.
       -3    1    3    3    0  502 -0.91708203594E+03 -0.63473776932E+03  0.40696550213E+03  0.11872457313E+04  0.10100000352E+00 0. -1.
</event>
<event>
 5   0  0.9457742E-05  0.2171277E+04  0.7818609E-02  0.8530479E-01
       -2   -1    0    0    0  501  0.00000000000E+00  0.00000000000E+00  0.49435642012E+03  0.49435642013E+03  0.25500000920E-02 0.  1.
        2   -1    0    0  501    0  0.00000000000E+00  0.00000000000E+00 -0.23841320087E+04  0.23841320087E+04  0.25500000920E-02 0. -1.
    10030    2    1    2    0    0  0.00000000000E+00  0.00000000000E+00 -0.18897755886E+04  0.28784884289E+04  0.21712770113E+04 0.  0.
        1    1    3    3  502    0  0.87027338482E+03 -0.57768788275E+03 -0.55271014697E+03  0.11817730581E+04  0.50400001928E-02 0. -1.
       -1    1    3    3    0  502 -0.87027338482E+03  0.57768788275E+03 -0.13370654416E+04  0.16967153708E+04  0.50400001928E-02 0.  1.
</event>
<event>
 5   0  0.4133418E-05  0.2199948E+04  0.7818609E-02  0.8518450E-01
       -1   -1    0    0    0  501  0.00000000000E+00  0.00000000000E+00  0.18138382681E+04  0.18138382681E+04  0.50400001928E-02 0. -1.
        1   -1    0    0  501    0  0.00000000000E+00  0.00000000000E+00 -0.66706185670E+03  0.66706185672E+03  0.50400001928E-02 0.  1.
    10030    2    1    2    0    0  0.00000000000E+00  0.00000000000E+00  0.11467764114E+04  0.24809001249E+04  0.21999475657E+04 0.  0.
        4    1    3    3  502    0  0.90051486009E+03 -0.49733044599E+02  0.12835227317E+04  0.15687041163E+04  0.12699999809E+01 0. -1.
       -4    1    3    3    0  502 -0.90051486009E+03  0.49733044599E+02 -0.13674632024E+03  0.91219600853E+03  0.12699999809E+01 0.  1.
</event>
<event>
 5   0  0.4063293E-05  0.2217999E+04  0.7818609E-02  0.8510974E-01
        1   -1    0    0  501    0  0.00000000000E+00  0.00000000000E+00  0.14820396287E+04  0.14820396287E+04  0.50400001928E-02 0. -1.
       -1   -1    0    0    0  501  0.00000000000E+00  0.00000000000E+00 -0.82985620711E+03  0.82985620712E+03  0.50400001928E-02 0.  1.
    10030    2    1    2    0    0  0.00000000000E+00  0.00000000000E+00  0.65218342155E+03  0.23118958358E+04  0.22179989045E+04 0.  0.
        1    1    3    3  502    0  0.35441609656E+02  0.10962461168E+04  0.15523751633E+03  0.11077501265E+04  0.50400001928E-02 0. -1.
       -1    1    3    3    0  502 -0.35441609656E+02 -0.10962461168E+04  0.49694590522E+03  0.12041457092E+04  0.50400001928E-02 0.  1.
</event>
<event>
 5   0  0.9254673E-05  0.2241817E+04  0.7818609E-02  0.8501222E-01
        2   -1    0    0  501    0  0.00000000000E+00  0.00000000000E+00  0.25302928441E+04  0.25302928441E+04  0.25500000920E-02 0. -1.
       -2   -1    0    0    0  501  0.00000000000E+00  0.00000000000E+00 -0.49655735285E+03  0.49655735286E+03  0.25500000920E-02 0.  1.
    10030    2    1    2    0    0  0.00000000000E+00  0.00000000000E+00  0.20337354913E+04  0.30268501970E+04  0.22418166889E+04 0.  0.
        2    1    3    3  502    0 -0.10215855537E+04 -0.45187196121E+03  0.11421523033E+04  0.15976035793E+04  0.25500000920E-02 0.  1.
       -2    1    3    3    0  502  0.10215855537E+04  0.45187196121E+03  0.89158318803E+03  0.14292466177E+04  0.25500000920E-02 0. -1.
</event>
<event>
 5   0  0.4188865E-05  0.2325905E+04  0.7818609E-02  0.8467777E-01
        1   -1    0    0  501    0  0.00000000000E+00  0.00000000000E+00  0.12179500283E+04  0.12179500283E+04  0.50400001928E-02 0.  1.
       -1   -1    0    0    0  501  0.00000000000E+00  0.00000000000E+00 -0.11104379726E+04  0.11104379726E+04  0.50400001928E-02 0. -1.
    10030    2    1    2    0    0  0.00000000000E+00  0.00000000000E+00  0.10751205570E+03  0.23283880008E+04  0.23259045209E+04 0.  0.
        3    1    3    3  502    0 -0.75589326336E+03 -0.30637913598E+03 -0.77611352698E+03  0.11258752229E+04  0.10100000352E+00 0. -1.
       -3    1    3    3    0  502  0.75589326336E+03  0.30637913598E+03  0.88362558267E+03  0.12025127779E+04  0.10100000352E+00 0.  1.
</event>
<event>
 5   0  0.9179618E-05  0.2117443E+04  0.7818609E-02  0.8553598E-01
       -2   -1    0    0    0  501  0.00000000000E+00  0.00000000000E+00  0.69605736421E+03  0.69605736421E+03  0.25500000920E-02 0. -1.
        2   -1    0    0  501    0  0.00000000000E+00  0.00000000000E+00 -0.16103426716E+04  0.16103426716E+04  0.25500000920E-02 0.  1.
    10030    2    1    2    0    0  0.00000000000E+00  0.00000000000E+00 -0.91428530743E+03  0.23064000359E+04  0.21174426797E+04 0.  0.
        3    1    3    3  502    0 -0.83250485999E+03  0.60696487732E+03 -0.19162714944E+03  0.10479464103E+04  0.10100000352E+00 0. -1.
       -3    1    3    3    0  502  0.83250485999E+03 -0.60696487732E+03 -0.72265815800E+03  0.12584536256E+04  0.10100000352E+00 0.  1.
</event>
<event>
 5   0  0.4063293E-05  0.2215030E+04  0.7818609E-02  0.8512198E-01
        1   -1    0    0  501    0  0.00000000000E+00  0.00000000000E+00  0.11605114903E+04  0.11605114903E+04  0.50400001928E-02 0.  1.
       -1   -1    0    0    0  501  0.00000000000E+00  0.00000000000E+00 -0.10569383836E+04  0.10569383836E+04  0.50400001928E-02 0. -1.
    10030    2    1    2    0    0  0.00000000000E+00  0.00000000000E+00  0.10357310663E+03  0.22174498739E+04  0.22150296962E+04 0.  0.
        1    1    3    3  502    0 -0.13558154614E+03 -0.90394610674E+03 -0.57426720222E+03  0.10794830889E+04  0.50400001928E-02 0. -1.
       -1    1    3    3    0  502  0.13558154614E+03  0.90394610674E+03  0.67784030885E+03  0.11379667851E+04  0.50400001928E-02 0.  1.
</event>
<event>
 5   0  0.9254673E-05  0.2238840E+04  0.7818609E-02  0.8502434E-01
       -2   -1    0    0    0  501  0.00000000000E+00  0.00000000000E+00  0.85621656256E+03  0.85621656256E+03  0.25500000920E-02 0. -1.
        2   -1    0    0  501    0  0.00000000000E+00  0.00000000000E+00 -0.14635330224E+04  0.14635330224E+04  0.25500000920E-02 0.  1.
    10030    2    1    2    0    0  0.00000000000E+00  0.00000000000E+00 -0.60731645987E+03  0.23197495850E+04  0.22388400690E+04 0.  0.
        2    1    3    3  502    0  0.18879743709E+03 -0.75061342608E+03  0.53429337413E+03  0.94049688851E+03  0.25500000920E-02 0. -1.
       -2    1    3    3    0  502 -0.18879743709E+03  0.75061342608E+03 -0.11416098340E+04  0.13792526965E+04  0.25500000920E-02 0.  1.
</event>
<event>
 5   0  0.4174030E-05  0.2154592E+04  0.7818609E-02  0.8537569E-01
        1   -1    0    0  501    0  0.00000000000E+00  0.00000000000E+00  0.15384078230E+04  0.15384078230E+04  0.50400001928E-02 0.  1.
       -1   -1    0    0    0  501  0.00000000000E+00  0.00000000000E+00 -0.75439438761E+03  0.75439438762E+03  0.50400001928E-02 0. -1.
    10030    2    1    2    0    0  0.00000000000E+00  0.00000000000E+00  0.78401343536E+03  0.22928022106E+04  0.21545915878E+04 0.  0.
        2    1    3    3  502    0 -0.51339575366E+03 -0.92509043084E+03  0.17601181300E+03  0.10725426161E+04  0.25500000920E-02 0. -1.
       -2    1    3    3    0  502  0.51339575366E+03  0.92509043084E+03  0.60800162236E+03  0.12202595945E+04  0.25500000920E-02 0.  1.
</event>
<event>
 5   0  0.9179618E-05  0.2212789E+04  0.7818609E-02  0.8513124E-01
       -2   -1    0    0    0  501  0.00000000000E+00  0.00000000000E+00  0.97755562289E+03  0.97755562289E+03  0.25500000920E-02 0.  1.
        2   -1    0    0  501    0  0.00000000000E+00  0.00000000000E+00 -0.12522137730E+04  0.12522137730E+04  0.25500000920E-02 0. -1.
    10030    2    1    2    0    0  0.00000000000E+00  0.00000000000E+00 -0.27465815011E+03  0.22297693959E+04  0.22127888420E+04 0.  0.
        3    1    3    3  502    0 -0.52876918545E+03 -0.63275535014E+03 -0.88064301706E+03  0.12064444945E+04  0.10100000352E+00 0. -1.
       -3    1    3    3    0  502  0.52876918545E+03  0.63275535014E+03  0.60598486696E+03  0.10233249014E+04  0.10100000352E+00 0.  1.
</event>
<event>
 5   0  0.9938176E-05  0.2205509E+04  0.7818609E-02  0.8516139E-01
        2   -1    0    0  501    0  0.00000000000E+00  0.00000000000E+00  0.19656103716E+04  0.19656103716E+04  0.25500000920E-02 0. -1.
       -2   -1    0    0    0  501  0.00000000000E+00  0.00000000000E+00 -0.61867161997E+03  0.61867161998E+03  0.25500000920E-02 0.  1.
    10030    2    1    2    0    0  0.00000000000E+00  0.00000000000E+00  0.13469387517E+04  0.25842819916E+04  0.22055088781E+04 0.  0.
        5    1    3    3  502    0  0.39191436777E+03  0.90536176292E+03  0.96135247435E+02  0.99123199566E+03  0.46999998093E+01 0.  1.
       -5    1    3    3    0  502 -0.39191436777E+03 -0.90536176292E+03  0.12508035042E+04  0.15930499959E+04  0.46999998093E+01 0. -1.
</event>
<event>
 5   0  0.4174030E-05  0.2178020E+04  0.7818609E-02  0.8527633E-01
        1   -1    0    0  501    0  0.00000000000E+00  0.00000000000E+00  0.11111460572E+04  0.11111460573E+04  0.50400001928E-02 0.  1.
       -1   -1    0    0    0  501  0.00000000000E+00  0.00000000000E+00 -0.10673147794E+04  0.10673147794E+04  0.50400001928E-02 0. -1.
    10030    2    1    2    0    0  0.00000000000E+00  0.00000000000E+00  0.43831277825E+02  0.21784608367E+04  0.21780198429E+04 0.  0.
        2    1    3    3  502    0 -0.15596811621E+03 -0.85132946236E+03  0.68299931302E+03  0.11025316178E+04  0.25500000920E-02 0.  1.
       -2    1    3    3    0  502  0.15596811621E+03  0.85132946236E+03 -0.63916803519E+03  0.10759292189E+04  0.25500000920E-02 0. -1.
</event>
<event>
 5   0  0.9179618E-05  0.2197472E+04  0.7818609E-02  0.8519481E-01
        2   -1    0    0  501    0  0.00000000000E+00  0.00000000000E+00  0.84394042000E+03  0.84394042000E+03  0.25500000920E-02 0.  1.
       -2   -1    0    0    0  501  0.00000000000E+00  0.00000000000E+00 -0.14304579873E+04  0.14304579873E+04  0.25500000920E-02 0. -1.
    10030    2    1    2    0    0  0.00000000000E+00  0.00000000000E+00 -0.58651756725E+03  0.22743984073E+04  0.21974724704E+04 0.  0.
        3    1    3    3  502    0 -0.19654600054E+03  0.69199047595E+03 -0.11528378982E+04  0.13588658428E+04  0.10100000352E+00 0. -1.
       -3    1    3    3    0  502  0.19654600054E+03 -0.69199047595E+03  0.56632033091E+03  0.91553256444E+03  0.10100000352E+00 0.  1.
</event>
<event>
 5   0  0.9457742E-05  0.2026723E+04  0.7818609E-02  0.8594228E-01
       -2   -1    0    0    0  501  0.00000000000E+00  0.00000000000E+00  0.17233633524E+04  0.17233633524E+04  0.25500000920E-02 0. -1.
        2   -1    0    0  501    0  0.00000000000E+00  0.00000000000E+00 -0.59587077032E+03  0.59587077032E+03  0.25500000920E-02 0.  1.
    10030    2    1    2    0    0  0.00000000000E+00  0.00000000000E+00  0.11274925821E+04  0.23192341227E+04  0.20267233145E+04 0.  0.
        1    1    3    3  502    0 -0.75264564960E+03  0.61604642471E+03  0.88925285878E+03  0.13178616460E+04  0.50400001928E-02 0. -1.
       -1    1    3    3    0  502  0.75264564960E+03 -0.61604642471E+03  0.23823972330E+03  0.10013724767E+04  0.50400001928E-02 0.  1.
</event>
<event>
 5   0  0.4174075E-05  0.2184993E+04  0.7818609E-02  0.8524700E-01
       -1   -1    0    0    0  501  0.00000000000E+00  0.00000000000E+00  0.75235494225E+03  0.75235494226E+03  0.50400001928E-02 0. -1.
        1   -1    0    0  501    0  0.00000000000E+00  0.00000000000E+00 -0.15864173548E+04  0.15864173548E+04  0.50400001928E-02 0.  1.
    10030    2    1    2    0    0  0.00000000000E+00  0.00000000000E+00 -0.83406241256E+03  0.23387722971E+04  0.21849933065E+04 0.  0.
        5    1    3    3  502    0  0.64987566505E+03  0.76137010207E+03 -0.88544189271E+03  0.13364326574E+04  0.46999998093E+01 0. -1.
       -5    1    3    3    0  502 -0.64987566505E+03 -0.76137010207E+03  0.51379480145E+02  0.10023396397E+04  0.46999998093E+01 0.  1.
</event>
<event>
 5   0  0.9179618E-05  0.2187239E+04  0.7818609E-02  0.8523758E-01
       -2   -1    0    0    0  501  0.00000000000E+00  0.00000000000E+00  0.30297623627E+04  0.30297623627E+04  0.25500000920E-02 0. -1.
        2   -1    0    0  501    0  0.00000000000E+00  0.00000000000E+00 -0.39475168926E+03  0.39475168927E+03  0.25500000920E-02 0.  1.
    10030    2    1    2    0    0  0.00000000000E+00  0.00000000000E+00  0.26350106734E+04  0.34245140519E+04  0.21872391828E+04 0.  0.
        3    1    3    3  502    0 -0.96961047587E+03  0.35615713190E+03  0.18798683613E+04  0.21449702663E+04  0.10100000352E+00 0. -1.
       -3    1    3    3    0  502  0.96961047587E+03 -0.35615713190E+03  0.75514231214E+03  0.12795437856E+04  0.10100000352E+00 0.  1.
</event>
<event>
 5   0  0.4133418E-05  0.2159625E+04  0.7818609E-02  0.8535424E-01
       -1   -1    0    0    0  501  0.00000000000E+00  0.00000000000E+00  0.83869963868E+03  0.83869963870E+03  0.50400001928E-02 0.  1.
        1   -1    0    0  501    0  0.00000000000E+00  0.00000000000E+00 -0.13902414201E+04  0.13902414201E+04  0.50400001928E-02 0. -1.
    10030    2    1    2    0    0  0.00000000000E+00  0.00000000000E+00 -0.55154178142E+03  0.22289410588E+04  0.21596249459E+04 0.  0.
        4    1    3    3  502    0  0.34181406853E+03 -0.43060428483E+03  0.68343287309E+03  0.87711972529E+03  0.12699999809E+01 0.  1.
       -4    1    3    3    0  502 -0.34181406853E+03  0.43060428483E+03 -0.12349746545E+04  0.13518213335E+04  0.12699999809E+01 0. -1.
</event>
<event>
 5   0  0.4063293E-05  0.2088634E+04  0.7818609E-02  0.8566267E-01
        1   -1    0    0  501    0  0.00000000000E+00  0.00000000000E+00  0.17568942029E+04  0.17568942029E+04  0.50400001928E-02 0.  1.
       -1   -1    0    0    0  501  0.00000000000E+00  0.00000000000E+00 -0.62075355355E+03  0.62075355357E+03  0.50400001928E-02 0. -1.
    10030    2    1    2    0    0  0.00000000000E+00  0.00000000000E+00  0.11361406493E+04  0.23776477565E+04  0.20886343095E+04 0.  0.
        1    1    3    3  502    0 -0.48172948988E+02 -0.12102354688E+03  0.17476101979E+04  0.17524579127E+04  0.50400001928E-02 0.  1.
       -1    1    3    3    0  502  0.48172948988E+02  0.12102354688E+03 -0.61146954856E+03  0.62518984377E+03  0.50400001928E-02 0. -1.
</event>
<event>
 5   0  0.4188865E-05  0.2205713E+04  0.7818609E-02  0.8516054E-01
        1   -1    0    0  501    0  0.00000000000E+00  0.00000000000E+00  0.10024040525E+04  0.10024040525E+04  0.50400001928E-02 0.  1.
       -1   -1    0    0    0  501  0.00000000000E+00  0.00000000000E+00 -0.12133754729E+04  0.12133754729E+04  0.50400001928E-02 0. -1.
    10030    2    1    2    0    0  0.00000000000E+00  0.00000000000E+00 -0.21097142042E+03  0.22157795254E+04  0.22057130287E+04 0.  0.
        3    1    3    3  502    0  0.84756055851E+03  0.66791724830E+02 -0.81116763008E+03  0.11750799841E+04  0.10100000352E+00 0. -1.
       -3    1    3    3    0  502 -0.84756055851E+03 -0.66791724830E+02  0.60019620966E+03  0.10406995412E+04  0.10100000352E+00 0.  1.
</event>
<event>
 5   0  0.9442578E-05  0.2200238E+04  0.7818609E-02  0.8518329E-01
        2   -1    0    0  501    0  0.00000000000E+00  0.00000000000E+00  0.17241253351E+04  0.17241253351E+04  0.25500000920E-02 0.  1.
       -2   -1    0    0    0  501  0.00000000000E+00  0.00000000000E+00 -0.70195696269E+03  0.70195696270E+03  0.25500000920E-02 0. -1.
    10030    2    1    2    0    0  0.00000000000E+00  0.00000000000E+00  0.10221683724E+04  0.24260822978E+04  0.22002379722E+04 0.  0.
        4    1    3    3  502    0 -0.46791675061E+03 -0.99122101276E+03  0.40767633253E+03  0.11694728670E+04  0.12699999809E+01 0.  1.
       -4    1    3    3    0  502  0.46791675061E+03  0.99122101276E+03  0.61449203990E+03  0.12566094308E+04  0.12699999809E+01 0. -1.
</event>
<event>
 5   0  0.9442578E-05  0.1790537E+04  0.7818609E-02  0.8711348E-01
        2   -1    0    0  501    0  0.00000000000E+00  0.00000000000E+00  0.93812041540E+03  0.93812041541E+03  0.25500000920E-02 0.  1.
       -2   -1    0    0    0  501  0.00000000000E+00  0.00000000000E+00 -0.85437403155E+03  0.85437403156E+03  0.25500000920E-02 0. -1.
    10030    2    1    2    0    0  0.00000000000E+00  0.00000000000E+00  0.83746383849E+02  0.17924944470E+04  0.17905370383E+04 0.  0.
        4    1    3    3  502    0  0.59621752216E+03  0.76397708596E+02 -0.62232190286E+03  0.86521564207E+03  0.12699999809E+01 0. -1.
       -4    1    3    3    0  502 -0.59621752216E+03 -0.76397708596E+02  0.70606828671E+03  0.92727880489E+03  0.12699999809E+01 0.  1.
</event>
<event>
 5   0  0.4174030E-05  0.2202937E+04  0.7818609E-02  0.8517207E-01
       -1   -1    0    0    0  501  0.00000000000E+00  0.00000000000E+00  0.93513859790E+03  0.93513859792E+03  0.50400001928E-02 0.  1.
        1   -1    0    0  501    0  0.00000000000E+00  0.00000000000E+00 -0.12973832264E+04  0.12973832264E+04  0.50400001928E-02 0. -1.
    10030    2    1    2    0    0  0.00000000000E+00  0.00000000000E+00 -0.36224462852E+03  0.22325218244E+04  0.22029372495E+04 0.  0.
        2    1    3    3  502    0 -0.23832735335E+03  0.60834966713E+01  0.90867796188E+03  0.93943204901E+03  0.25500000920E-02 0.  1.
       -2    1    3    3    0  502  0.23832735335E+03 -0.60834966713E+01 -0.12709225904E+04  0.12930897753E+04  0.25500000920E-02 0. -1.
</event>
<event>
 5   0  0.4188865E-05  0.2699891E+04  0.7818609E-02  0.8335040E-01
        1   -1    0    0  501    0  0.00000000000E+00  0.00000000000E+00  0.99723391305E+03  0.99723391306E+03  0.50400001928E-02 0. -1.
       -1   -1    0    0    0  501  0.00000000000E+00  0.00000000000E+00 -0.18274077974E+04  0.18274077974E+04  0.50400001928E-02 0.  1.
    10030    2    1    2    0    0  0.00000000000E+00  0.00000000000E+00 -0.83017388431E+03  0.28246417104E+04  0.26998911300E+04 0.  0.
        3    1    3    3  502    0  0.10866867676E+04 -0.16160005106E+03 -0.12357754046E+04  0.16535245895E+04  0.10100000352E+00 0.  1.
       -3    1    3    3    0  502 -0.10866867676E+04  0.16160005106E+03  0.40560152028E+03  0.11711171209E+04  0.10100000352E+00 0. -1.
</event>
<event>
 5   0  0.4174075E-05  0.2179445E+04  0.7818609E-02  0.8527033E-01
       -1   -1    0    0    0  501  0.00000000000E+00  0.00000000000E+00  0.67245180219E+03  0.67245180221E+03  0.50400001928E-02 0.  1.
        1   -1    0    0  501    0  0.00000000000E+00  0.00000000000E+00 -0.17659185458E+04  0.17659185458E+04  0.50400001928E-02 0. -1.
    10030    2    1    2    0    0  0.00000000000E+00  0.00000000000E+00 -0.10934667436E+04  0.24383703481E+04  0.21794449832E+04 0.  0.
        5    1    3    3  502    0  0.39355558053E+03  0.67247425477E+03  0.30559022989E+03  0.83696779920E+03  0.46999998093E+01 0.  1.
       -5    1    3    3    0  502 -0.39355558053E+03 -0.67247425477E+03 -0.13990569735E+04  0.16014025489E+04  0.46999998093E+01 0. -1.
</event>
<event>
 5   0  0.9254673E-05  0.2192710E+04  0.7818609E-02  0.8521468E-01
        2   -1    0    0  501    0  0.00000000000E+00  0.00000000000E+00  0.14844058559E+04  0.14844058559E+04  0.25500000920E-02 0.  1.
       -2   -1    0    0    0  501  0.00000000000E+00  0.00000000000E+00 -0.80974786381E+03  0.80974786382E+03  0.25500000920E-02 0. -1.
    10030    2    1    2    0    0  0.00000000000E+00  0.00000000000E+00  0.67465799208E+03  0.22941537197E+04  0.21927101686E+04 0.  0.
        2    1    3    3  502    0 -0.20679264864E+03 -0.88813220965E+03  0.97413554224E+03  0.13343470598E+04  0.25500000920E-02 0.  1.
       -2    1    3    3    0  502  0.20679264864E+03  0.88813220965E+03 -0.29947755016E+03  0.95980665991E+03  0.25500000920E-02 0. -1.
</event>
<event>
 5   0  0.9179618E-05  0.2202488E+04  0.7818609E-02  0.8517393E-01
       -2   -1    0    0    0  501  0.00000000000E+00  0.00000000000E+00  0.48793563452E+03  0.48793563452E+03  0.25500000920E-02 0. -1.
        2   -1    0    0  501    0  0.00000000000E+00  0.00000000000E+00 -0.24854467521E+04  0.24854467521E+04  0.25500000920E-02 0.  1.
    10030    2    1    2    0    0  0.00000000000E+00  0.00000000000E+00 -0.19975111176E+04  0.29733823867E+04  0.22024877190E+04 0.  0.
        3    1    3    3  502    0  0.31801528633E+03 -0.73844758807E+03  0.17166393445E+02  0.80419727551E+03  0.10100000352E+00 0. -1.
       -3    1    3    3    0  502 -0.31801528633E+03  0.73844758807E+03 -0.20146775111E+04  0.21691851112E+04  0.10100000352E+00 0.  1.
</event>
<event>
 5   0  0.9457742E-05  0.2173396E+04  0.7818609E-02  0.8529584E-01
        2   -1    0    0  501    0  0.00000000000E+00  0.00000000000E+00  0.41534565860E+03  0.41534565860E+03  0.25500000920E-02 0.  1.
       -2   -1    0    0    0  501  0.00000000000E+00  0.00000000000E+00 -0.28432039875E+04  0.28432039875E+04  0.25500000920E-02 0. -1.
    10030    2    1    2    0    0  0.00000000000E+00  0.00000000000E+00 -0.24278583289E+04  0.32585496461E+04  0.21733958983E+04 0.  0.
        1    1    3    3  502    0  0.14727564704E+03  0.40291152448E+03 -0.27108814127E+04  0.27446139704E+04  0.50400001928E-02 0. -1.
       -1    1    3    3    0  502 -0.14727564704E+03 -0.40291152448E+03  0.28302308380E+03  0.51393567570E+03  0.50400001928E-02 0.  1.
</event>
<event>
 5   0  0.9254673E-05  0.2209327E+04  0.7818609E-02  0.8514556E-01
        2   -1    0    0  501    0  0.00000000000E+00  0.00000000000E+00  0.75392912294E+03  0.75392912294E+03  0.25500000920E-02 0.  1.
       -2   -1    0    0    0  501  0.00000000000E+00  0.00000000000E+00 -0.16185630935E+04  0.16185630935E+04  0.25500000920E-02 0. -1.
    10030    2    1    2    0    0  0.00000000000E+00  0.00000000000E+00 -0.86463397057E+03  0.23724922165E+04  0.22093273669E+04 0.  0.
        2    1    3    3  502    0 -0.63213237531E+03 -0.40539127548E+03 -0.13023023536E+04  0.15033046419E+04  0.25500000920E-02 0.  1.
       -2    1    3    3    0  502  0.63213237531E+03  0.40539127548E+03  0.43766838307E+03  0.86918757452E+03  0.25500000920E-02 0. -1.
</event>
<event>
 5   0  0.9179618E-05  0.2378674E+04  0.7818609E-02  0.8447531E-01
       -2   -1    0    0    0  501  0.00000000000E+00  0.00000000000E+00  0.11222360811E+04  0.11222360811E+04  0.25500000920E-02 0. -1.
        2   -1    0    0  501    0  0.00000000000E+00  0.00000000000E+00 -0.12604505302E+04  0.12604505302E+04  0.25500000920E-02 0.  1.
    10030    2    1    2    0    0  0.00000000000E+00  0.00000000000E+00 -0.13821444912E+03  0.23826866113E+04  0.23786744741E+04 0.  0.
        3    1    3    3  502    0  0.92362544241E+03 -0.20387317394E+03  0.65313239003E+03  0.11494477622E+04  0.10100000352E+00 0.  1.
       -3    1    3    3    0  502 -0.92362544241E+03  0.20387317394E+03 -0.79134683915E+03  0.12332388491E+04  0.10100000352E+00 0. -1.
</event>
<event>
 5   0  0.4188865E-05  0.2198191E+04  0.7818609E-02  0.8519181E-01
       -1   -1    0    0    0  501  0.00000000000E+00  0.00000000000E+00  0.10806511942E+04  0.10806511942E+04  0.50400001928E-02 0.  1.
        1   -1    0    0  501    0  0.00000000000E+00  0.00000000000E+00 -0.11178549140E+04  0.11178549140E+04  0.50400001928E-02 0. -1.
    10030    2    1    2    0    0  0.00000000000E+00  0.00000000000E+00 -0.37203719744E+02  0.21985061082E+04  0.21981912999E+04 0.  0.
        3    1    3    3  502    0 -0.13801125327E+03  0.47609426155E+03  0.96250671288E+03  0.10826504673E+04  0.10100000352E+00 0.  1.
       -3    1    3    3    0  502  0.13801125327E+03 -0.47609426155E+03 -0.99971043262E+03  0.11158556408E+04  0.10100000352E+00 0. -1.
</event>
<event>
 5   0  0.9938176E-05  0.2180075E+04  0.7818609E-02  0.8526767E-01
       -2   -1    0    0    0  501  0.00000000000E+00  0.00000000000E+00  0.51323106506E+03  0.51323106506E+03  0.25500000920E-02 0. -1.
        2   -1    0    0  501    0  0.00000000000E+00  0.00000000000E+00 -0.23151004565E+04  0.23151004565E+04  0.25500000920E-02 0.  1.
    10030    2    1    2    0    0  0.00000000000E+00  0.00000000000E+00 -0.18018693914E+04  0.28283315215E+04  0.21800747446E+04 0.  0.
        5    1    3    3  502    0 -0.15148771204E+03 -0.33795453434E+03 -0.22309596512E+04  0.22614961528E+04  0.46999998093E+01 0.  1.
       -5    1    3    3    0  502  0.15148771204E+03  0.33795453434E+03  0.42909025976E+03  0.56683536869E+03  0.46999998093E+01 0. -1.
</event>
<event>
 5   0  0.4174075E-05  0.2215068E+04  0.7818609E-02  0.8512182E-01
       -1   -1    0    0    0  501  0.00000000000E+00  0.00000000000E+00  0.78201166644E+03  0.78201166646E+03  0.50400001928E-02 0. -1.
        1   -1    0    0  501    0  0.00000000000E+00  0.00000000000E+00 -0.15685594815E+04  0.15685594815E+04  0.50400001928E-02 0.  1.
    10030    2    1    2    0    0  0.00000000000E+00  0.00000000000E+00 -0.78654781503E+03  0.23505711479E+04  0.22150682283E+04 0.  0.
        5    1    3    3  502    0  0.32101167324E+03 -0.51710200918E+03  0.58862204532E+03  0.84672367659E+03  0.46999998093E+01 0. -1.
       -5    1    3    3    0  502 -0.32101167324E+03  0.51710200918E+03 -0.13751698604E+04  0.15038474713E+04  0.46999998093E+01 0.  1.
</event>
<event>
 5   0  0.4188865E-05  0.2192174E+04  0.7818609E-02  0.8521692E-01
       -1   -1    0    0    0  501  0.00000000000E+00  0.00000000000E+00  0.13277100996E+04  0.13277100997E+04  0.50400001928E-02 0.  1.
        1   -1    0    0  501    0  0.00000000000E+00  0.00000000000E+00 -0.90487138254E+03  0.90487138256E+03  0.50400001928E-02 0. -1.
    10030    2    1    2    0    0  0.00000000000E+00  0.00000000000E+00  0.42283871710E+03  0.22325814822E+04  0.21921741477E+04 0.  0.
        3    1    3    3  502    0  0.37807514253E+03  0.43015786603E+03  0.11632208554E+04  0.12965567368E+04  0.10100000352E+00 0.  1.
       -3    1    3    3    0  502 -0.37807514253E+03 -0.43015786603E+03 -0.74038213830E+03  0.93602474541E+03  0.10100000352E+00 0. -1.
</event>
<event>
 5   0  0.9179618E-05  0.2196598E+04  0.7818609E-02  0.8519845E-01
       -2   -1    0    0    0  501  0.00000000000E+00  0.00000000000E+00  0.10759990081E+04  0.10759990081E+04  0.25500000920E-02 0.  1.
        2   -1    0    0  501    0  0.00000000000E+00  0.00000000000E+00 -0.11210616503E+04  0.11210616503E+04  0.25500000920E-02 0. -1.
    10030    2    1    2    0    0  0.00000000000E+00  0.00000000000E+00 -0.45062642224E+02  0.21970606584E+04  0.21965984828E+04 0.  0.
        3    1    3    3  502    0 -0.15080687750E+03 -0.99368474843E+03 -0.46546659103E+03  0.11076151187E+04  0.10100000352E+00 0. -1.
       -3    1    3    3    0  502  0.15080687750E+03  0.99368474843E+03  0.42040394880E+03  0.10894455397E+04  0.10100000352E+00 0.  1.
</event>
<event>
 5   0  0.4063293E-05  0.2193664E+04  0.7818609E-02  0.8521070E-01
       -1   -1    0    0    0  501  0.00000000000E+00  0.00000000000E+00  0.65852515946E+03  0.65852515948E+03  0.50400001928E-02 0. -1.
        1   -1    0    0  501    0  0.00000000000E+00  0.00000000000E+00 -0.18268714014E+04  0.18268714014E+04  0.50400001928E-02 0.  1.
    10030    2    1    2    0    0  0.00000000000E+00  0.00000000000E+00 -0.11683462419E+04  0.24853965609E+04  0.21936643143E+04 0.  0.
        1    1    3    3  502    0 -0.46562224039E+03  0.55092125892E+03 -0.15203278234E+04  0.16827700363E+04  0.50400001928E-02 0.  1.
       -1    1    3    3    0  502  0.46562224039E+03 -0.55092125892E+03  0.35198158149E+03  0.80262652461E+03  0.50400001928E-02 0. -1.
</event>
<event>
 5   0  0.4188865E-05  0.2204823E+04  0.7818609E-02  0.8516423E-01
       -1   -1    0    0    0  501  0.00000000000E+00  0.00000000000E+00  0.59973355212E+03  0.59973355214E+03  0.50400001928E-02 0.  1.
        1   -1    0    0  501    0  0.00000000000E+00  0.00000000000E+00 -0.20264190269E+04  0.20264190269E+04  0.50400001928E-02 0. -1.
    10030    2    1    2    0    0  0.00000000000E+00  0.00000000000E+00 -0.14266854748E+04  0.26261525790E+04  0.22048233318E+04 0.  0.
        3    1    3    3  502    0  0.32668729120E+03  0.10524107174E+04 -0.67532897359E+03  0.12924249058E+04  0.10100000352E+00 0. -1.
       -3    1    3    3    0  502 -0.32668729120E+03 -0.10524107174E+04 -0.75135650117E+03  0.13337276732E+04  0.10100000352E+00 0.  1.
</event>
<event>
 5   0  0.4133418E-05  0.2204802E+04  0.7818609E-02  0.8516432E-01
       -1   -1    0    0    0  501  0.00000000000E+00  0.00000000000E+00  0.76542166114E+03  0.76542166115E+03  0.50400001928E-02 0. -1.
        1   -1    0    0  501    0  0.00000000000E+00  0.00000000000E+00 -0.15877365471E+04  0.15877365471E+04  0.50400001928E-02 0.  1.
    10030    2    1    2    0    0  0.00000000000E+00  0.00000000000E+00 -0.82231488596E+03  0.23531582083E+04  0.22048019824E+04 0.  0.
        4    1    3    3  502    0 -0.17641544822E+03  0.15582686469E+03  0.73828816097E+03  0.77490350603E+03  0.12699999809E+01 0. -1.
       -4    1    3    3    0  502  0.17641544822E+03 -0.15582686469E+03 -0.15606030469E+04  0.15782547022E+04  0.12699999809E+01 0.  1.
</event>
<event>
 5   0  0.4174075E-05  0.2144528E+04  0.7818609E-02  0.8541878E-01
        1   -1    0    0  501    0  0.00000000000E+00  0.00000000000E+00  0.10707975979E+04  0.10707975979E+04  0.50400001928E-02 0. -1.
       -1   -1    0    0    0  501  0.00000000000E+00  0.00000000000E+00 -0.10737327932E+04  0.10737327932E+04  0.50400001928E-02 0.  1.
    10030    2    1    2    0    0  0.00000000000E+00  0.00000000000E+00 -0.29351952846E+01  0.21445303911E+04  0.21445283824E+04 0.  0.
        5    1    3    3  502    0 -0.57727386974E+03 -0.36923773435E+03 -0.82617848923E+03  0.10733939683E+04  0.46999998093E+01 0.  1.
       -5    1    3    3    0  502  0.57727386974E+03  0.36923773435E+03  0.82324329395E+03  0.10711364228E+04  0.46999998093E+01 0. -1.
</event>
<event>
 5   0  0.9442578E-05  0.2238183E+04  0.7818609E-02  0.8502701E-01
       -2   -1    0    0    0  501  0.00000000000E+00  0.00000000000E+00  0.61786405601E+03  0.61786405602E+03  0.25500000920E-02 0.  1.
        2   -1    0    0  501    0  0.00000000000E+00  0.00000000000E+00 -0.20269284618E+04  0.20269284618E+04  0.25500000920E-02 0. -1.
    10030    2    1    2    0    0  0.00000000000E+00  0.00000000000E+00 -0.14090644058E+04  0.26447925178E+04  0.22381834068E+04 0.  0.
        4    1    3    3  502    0 -0.92654143822E+03 -0.49399611456E+03 -0.24709732017E+03  0.10786889711E+04  0.12699999809E+01 0.  1.
       -4    1    3    3    0  502  0.92654143822E+03  0.49399611456E+03 -0.11619670856E+04  0.15661035467E+04  0.12699999809E+01 0. -1.
</event>
<event>
 5   0  0.9457742E-05  0.2281731E+04  0.7818609E-02  0.8485159E-01
        2   -1    0    0  501    0  0.00000000000E+00  0.00000000000E+00  0.18937750357E+04  0.18937750357E+04  0.25500000920E-02 0.  1.
       -2   -1    0    0    0  501  0.00000000000E+00  0.00000000000E+00 -0.68729078368E+03  0.68729078368E+03  0.25500000920E-02 0. -1.
    10030    2    1    2    0    0  0.00000000000E+00  0.00000000000E+00  0.12064842520E+04  0.25810658193E+04  0.22817310344E+04 0.  0.
        1    1    3    3  502    0 -0.31372493733E+03 -0.10683448851E+04  0.88442814464E+03  0.14219695049E+04  0.50400001928E-02 0. -1.
       -1    1    3    3    0  502  0.31372493733E+03  0.10683448851E+04  0.32205610734E+03  0.11590963144E+04  0.50400001928E-02 0.  1.
</event>
<event>
 5   0  0.4133418E-05  0.2206365E+04  0.7818609E-02  0.8515784E-01
        1   -1    0    0  501    0  0.00000000000E+00  0.00000000000E+00  0.16721775654E+04  0.16721775654E+04  0.50400001928E-02 0. -1.
       -1   -1    0    0    0  501  0.00000000000E+00  0.00000000000E+00 -0.72780042688E+03  0.72780042689E+03  0.50400001928E-02 0.  1.
    10030    2    1    2    0    0  0.00000000000E+00  0.00000000000E+00  0.94437713851E+03  0.23999779923E+04  0.22063649253E+04 0.  0.
        4    1    3    3  502    0 -0.37468658310E+03 -0.86162157920E+03 -0.15666774800E+03  0.95253775645E+03  0.12699999809E+01 0. -1.
       -4    1    3    3    0  502  0.37468658310E+03  0.86162157920E+03  0.11010448865E+04  0.14474402358E+04  0.12699999809E+01 0.  1.
</event>
<event>
 5   0  0.9254673E-05  0.2201081E+04  0.7818609E-02  0.8517978E-01
        2   -1    0    0  501    0  0.00000000000E+00  0.00000000000E+00  0.88036388261E+03  0.88036388261E+03  0.25500000920E-02 0. -1.
       -2   -1    0    0    0  501  0.00000000000E+00  0.00000000000E+00 -0.13757826067E+04  0.13757826067E+04  0.25500000920E-02 0.  1.
    10030    2    1    2    0    0  0.00000000000E+00  0.00000000000E+00 -0.49541872408E+03  0.22561464893E+04  0.22010809320E+04 0.  0.
        2    1    3    3  502    0 -0.19190459302E+03  0.59624226496E+02 -0.13568175690E+04  0.13716181454E+04  0.25500000920E-02 0.  1.
       -2    1    3    3    0  502  0.19190459302E+03 -0.59624226496E+02  0.86139884491E+03  0.88452834393E+03  0.25500000920E-02 0. -1.
</event>
<event>
 5   0  0.4174075E-05  0.2212589E+04  0.7818609E-02  0.8513207E-01
       -1   -1    0    0    0  501  0.00000000000E+00  0.00000000000E+00  0.72647362329E+03  0.72647362331E+03  0.50400001928E-02 0.  1.
        1   -1    0    0  501    0  0.00000000000E+00  0.00000000000E+00 -0.16846956768E+04  0.16846956768E+04  0.50400001928E-02 0. -1.
    10030    2    1    2    0    0  0.00000000000E+00  0.00000000000E+00 -0.95822205348E+03  0.24111693001E+04  0.22125885044E+04 0.  0.
        5    1    3    3  502    0 -0.96876630887E+03  0.52671390945E+03 -0.57614887575E+03  0.12441484319E+04  0.46999998093E+01 0. -1.
       -5    1    3    3    0  502  0.96876630887E+03 -0.52671390945E+03 -0.38207317774E+03  0.11670208682E+04  0.46999998093E+01 0.  1.
</event>
<event>
 5   0  0.9254673E-05  0.2186097E+04  0.7818609E-02  0.8524237E-01
        2   -1    0    0  501    0  0.00000000000E+00  0.00000000000E+00  0.14924214731E+04  0.14924214731E+04  0.25500000920E-02 0.  1.
       -2   -1    0    0    0  501  0.00000000000E+00  0.00000000000E+00 -0.80054821052E+03  0.80054821052E+03  0.25500000920E-02 0. -1.
    10030    2    1    2    0    0  0.00000000000E+00  0.00000000000E+00  0.69187326257E+03  0.22929696836E+04  0.21860972894E+04 0.  0.
        2    1    3    3  502    0 -0.17527160401E+03 -0.62633376864E+03 -0.57549830421E+03  0.86845404200E+03  0.25500000920E-02 0. -1.
       -2    1    3    3    0  502  0.17527160401E+03  0.62633376864E+03  0.12673715668E+04  0.14245156416E+04  0.25500000920E-02 0.  1.
</event>
<event>
 5   0  0.4133418E-05  0.2197290E+04  0.7818609E-02  0.8519557E-01
       -1   -1    0    0    0  501  0.00000000000E+00  0.00000000000E+00  0.84349243061E+03  0.84349243062E+03  0.50400001928E-02 0.  1.
        1   -1    0    0  501    0  0.00000000000E+00  0.00000000000E+00 -0.14309805555E+04  0.14309805555E+04  0.50400001928E-02 0. -1.
    10030    2    1    2    0    0  0.00000000000E+00  0.00000000000E+00 -0.58748812491E+03  0.22744729861E+04  0.21972903922E+04 0.  0.
        4    1    3    3  502    0 -0.65625774322E+03 -0.56788794232E+03 -0.99109097221E+03  0.13173586712E+04  0.12699999809E+01 0. -1.
       -4    1    3    3    0  502  0.65625774322E+03  0.56788794232E+03  0.40360284731E+03  0.95711431492E+03  0.12699999809E+01 0.  1.
</event>
<event>
 5   0  0.4133418E-05  0.2199857E+04  0.7818609E-02  0.8518488E-01
       -1   -1    0    0    0  501  0.00000000000E+00  0.00000000000E+00  0.65346199354E+03  0.65346199355E+03  0.50400001928E-02 0. -1.
        1   -1    0    0  501    0  0.00000000000E+00  0.00000000000E+00 -0.18514353841E+04  0.18514353842E+04  0.50400001928E-02 0.  1.
    10030    2    1    2    0    0  0.00000000000E+00  0.00000000000E+00 -0.11979733906E+04  0.25048973777E+04  0.21998569563E+04 0.  0.
        4    1    3    3  502    0  0.27001130547E+03 -0.86578759807E+03 -0.13076590115E+04  0.15913729837E+04  0.12699999809E+01 0.  1.
       -4    1    3    3    0  502 -0.27001130547E+03  0.86578759807E+03  0.10968562090E+03  0.91352439398E+03  0.12699999809E+01 0. -1.
</event>
<event>
 5   0  0.4133418E-05  0.2184518E+04  0.7818609E-02  0.8524900E-01
        1   -1    0    0  501    0  0.00000000000E+00  0.00000000000E+00  0.94686715562E+03  0.94686715563E+03  0.50400001928E-02 0. -1.
       -1   -1    0    0    0  501  0.00000000000E+00  0.00000000000E+00 -0.12599753300E+04  0.12599753300E+04  0.50400001928E-02 0.  1.
    10030    2    1    2    0    0  0.00000000000E+00  0.00000000000E+00 -0.31310817441E+03  0.22068424857E+04  0.21845175732E+04 0.  0.
        4    1    3    3  502    0 -0.82174858972E+03 -0.48433997710E+03 -0.69413112123E+03  0.11796930043E+04  0.12699999809E+01 0.  1.
       -4    1    3    3    0  502  0.82174858972E+03  0.48433997710E+03  0.38102294681E+03  0.10271494813E+04  0.12699999809E+01 0. -1.
</event>
<event>
 5   0  0.9254673E-05  0.2195171E+04  0.7818609E-02  0.8520441E-01
        2   -1    0    0  501    0  0.00000000000E+00  0.00000000000E+00  0.90940482181E+03  0.90940482182E+03  0.25500000920E-02 0. -1.
       -2   -1    0    0    0  501  0.00000000000E+00  0.00000000000E+00 -0.13247062460E+04  0.13247062460E+04  0.25500000920E-02 0.  1.
    10030    2    1    2    0    0  0.00000000000E+00  0.00000000000E+00 -0.41530142418E+03  0.22341110678E+04  0.21951712895E+04 0.  0.
        2    1    3    3  502    0 -0.10492441710E+04 -0.16937276632E+03  0.71242753251E+02  0.10652117133E+04  0.25500000920E-02 0.  1.
       -2    1    3    3    0  502  0.10492441710E+04  0.16937276632E+03 -0.48654417743E+03  0.11688993545E+04  0.25500000920E-02 0. -1.
</event>
<event>
 5   0  0.4174075E-05  0.2198864E+04  0.7818609E-02  0.8518901E-01
        1   -1    0    0  501    0  0.00000000000E+00  0.00000000000E+00  0.11648220002E+04  0.11648220003E+04  0.50400001928E-02 0. -1.
       -1   -1    0    0    0  501  0.00000000000E+00  0.00000000000E+00 -0.10377130150E+04  0.10377130151E+04  0.50400001928E-02 0.  1.
    10030    2    1    2    0    0  0.00000000000E+00  0.00000000000E+00  0.12710898519E+03  0.22025350153E+04  0.21988642067E+04 0.  0.
        5    1    3    3  502    0  0.16069373390E+03 -0.16429095827E+03 -0.10133751619E+04  0.10391175602E+04  0.46999998093E+01 0.  1.
       -5    1    3    3    0  502 -0.16069373390E+03  0.16429095827E+03  0.11404841471E+04  0.11634174551E+04  0.46999998093E+01 0. -1.
</event>
<event>
 5   0  0.9938176E-05  0.2216209E+04  0.7818609E-02  0.8511712E-01
        2   -1    0    0  501    0  0.00000000000E+00  0.00000000000E+00  0.12912741182E+04  0.12912741182E+04  0.25500000920E-02 0.  1.
       -2   -1    0    0    0  501  0.00000000000E+00  0.00000000000E+00 -0.95091744116E+03  0.95091744117E+03  0.25500000920E-02 0. -1.
    10030    2    1    2    0    0  0.00000000000E+00  0.00000000000E+00  0.34035667707E+03  0.22421915594E+04  0.22162085465E+04 0.  0.
        5    1    3    3  502    0  0.10552190357E+03  0.15814674805E+02  0.12860545138E+04  0.12904818009E+04  0.46999998093E+01 0.  1.
       -5    1    3    3    0  502 -0.10552190357E+03 -0.15814674805E+02 -0.94569783670E+03  0.95170975850E+03  0.46999998093E+01 0. -1.
</event>
<event>
 5   0  0.9938176E-05  0.1895525E+04  0.7818609E-02  0.8657087E-01
        2   -1    0    0  501    0  0.00000000000E+00  0.00000000000E+00  0.17133638416E+04  0.17133638416E+04  0.25500000920E-02 0.  1.
       -2   -1    0    0    0  501  0.00000000000E+00  0.00000000000E+00 -0.52426345467E+03  0.52426345468E+03  0.25500000920E-02 0. -1.
    10030    2    1    2    0    0  0.00000000000E+00  0.00000000000E+00  0.11891003869E+04  0.22376272962E+04  0.18955253063E+04 0.  0.
        5    1    3    3  502    0  0.35611971852E+01 -0.87440319833E+03  0.10260927898E+04  0.13481402519E+04  0.46999998093E+01 0.  1.
       -5    1    3    3    0  502 -0.35611971852E+01  0.87440319833E+03  0.16300759704E+03  0.88948704435E+03  0.46999998093E+01 0. -1.
</event>
<event>
 5   0  0.9442578E-05  0.2207080E+04  0.7818609E-02  0.8515487E-01
       -2   -1    0    0    0  501  0.00000000000E+00  0.00000000000E+00  0.72166630133E+03  0.72166630134E+03  0.25500000920E-02 0.  1.
        2   -1    0    0  501    0  0.00000000000E+00  0.00000000000E+00 -0.16874838991E+04  0.16874838991E+04  0.25500000920E-02 0. -1.
    10030    2    1    2    0    0  0.00000000000E+00  0.00000000000E+00 -0.96581759775E+03  0.24091502004E+04  0.22070797575E+04 0.  0.
        4    1    3    3  502    0 -0.38351559882E+03 -0.48252643684E+03  0.51625675826E+03  0.80401407335E+03  0.12699999809E+01 0.  1.
       -4    1    3    3    0  502  0.38351559882E+03  0.48252643684E+03 -0.14820743560E+04  0.16051361271E+04  0.12699999809E+01 0. -1.
</event>
<event>
 5   0  0.4133418E-05  0.1906279E+04  0.7818609E-02  0.8651737E-01
        1   -1    0    0  501    0  0.00000000000E+00  0.00000000000E+00  0.10275306881E+04  0.10275306881E+04  0.50400001928E-02 0.  1.
       -1   -1    0    0    0  501  0.00000000000E+00  0.00000000000E+00 -0.88413448649E+03  0.88413448650E+03  0.50400001928E-02 0. -1.
    10030    2    1    2    0    0  0.00000000000E+00  0.00000000000E+00  0.14339620159E+03  0.19116651746E+04  0.19062794310E+04 0.  0.
        4    1    3    3  502    0  0.62018750208E+02 -0.52078380111E+03 -0.72642205190E+03  0.89596467746E+03  0.12699999809E+01 0. -1.
       -4    1    3    3    0  502 -0.62018750208E+02  0.52078380111E+03  0.86981825349E+03  0.10157004971E+04  0.12699999809E+01 0.  1.
</event>
<event>
 5   0  0.4174030E-05  0.2173367E+04  0.7818609E-02  0.8529596E-01
       -1   -1    0    0    0  501  0.00000000000E+00  0.00000000000E+00  0.74972321341E+03  0.74972321343E+03  0.50400001928E-02 0. -1.
        1   -1    0    0  501    0  0.00000000000E+00  0.00000000000E+00 -0.15750897354E+04  0.15750897354E+04  0.50400001928E-02 0.  1.
    10030    2    1    2    0    0  0.00000000000E+00  0.00000000000E+00 -0.82536652201E+03  0.23248129489E+04  0.21733672841E+04 0.  0.
        2    1    3    3  502    0 -0.32991612694E+03  0.75759491089E+03 -0.11676143947E+04  0.14304258368E+04  0.25500000920E-02 0.  1.
       -2    1    3    3    0  502  0.32991612694E+03 -0.75759491089E+03  0.34224787271E+03  0.89438711206E+03  0.25500000920E-02 0. -1.
</event>
<event>
 5   0  0.9254673E-05  0.2217129E+04  0.7818609E-02  0.8511332E-01
       -2   -1    0    0    0  501  0.00000000000E+00  0.00000000000E+00  0.86088824674E+03  0.86088824674E+03  0.25500000920E-02 0.  1.
        2   -1    0    0  501    0  0.00000000000E+00  0.00000000000E+00 -0.14274967382E+04  0.14274967382E+04  0.25500000920E-02 0. -1.
    10030    2    1    2    0    0  0.00000000000E+00  0.00000000000E+00 -0.56660849151E+03  0.22883849850E+04  0.22171289220E+04 0.  0.
        2    1    3    3  502    0 -0.11770017350E+03  0.38917253898E+03 -0.13477625332E+04  0.14077543968E+04  0.25500000920E-02 0. -1.
       -2    1    3    3    0  502  0.11770017350E+03 -0.38917253898E+03  0.78115404168E+03  0.88063058815E+03  0.25500000920E-02 0.  1.
</event>
<event>
 5   0  0.4174030E-05  0.2220167E+04  0.7818609E-02  0.8510081E-01
        1   -1    0    0  501    0  0.00000000000E+00  0.00000000000E+00  0.14776643496E+04  0.14776643496E+04  0.50400001928E-02 0.  1.
       -1   -1    0    0    0  501  0.00000000000E+00  0.00000000000E+00 -0.83394109173E+03  0.83394109175E+03  0.50400001928E-02 0. -1.
    10030    2    1    2    0    0  0.00000000000E+00  0.00000000000E+00  0.64372325787E+03  0.23116054414E+04  0.22201666793E+04 0.  0.
        2    1    3    3  502    0 -0.31402016923E+03 -0.62100557585E+03 -0.57864555027E+03  0.90503439977E+03  0.25500000920E-02 0. -1.
       -2    1    3    3    0  502  0.31402016923E+03  0.62100557585E+03  0.12223688081E+04  0.14065710416E+04  0.25500000920E-02 0.  1.
</event>
<event>
 5   0  0.9179618E-05  0.2193900E+04  0.7818609E-02  0.8520971E-01
        2   -1    0    0  501    0  0.00000000000E+00  0.00000000000E+00  0.28969415284E+04  0.28969415284E+04  0.25500000920E-02 0.  1.
       -2   -1    0    0    0  501  0.00000000000E+00  0.00000000000E+00 -0.41536879348E+03  0.41536879349E+03  0.25500000920E-02 0. -1.
    10030    2    1    2    0    0  0.00000000000E+00  0.00000000000E+00  0.24815727349E+04  0.33123103219E+04  0.21938998222E+04 0.  0.
        3    1    3    3  502    0  0.77112654273E+03  0.52244490630E+03  0.36600579907E+03  0.10007722419E+04  0.10100000352E+00 0. -1.
       -3    1    3    3    0  502 -0.77112654273E+03 -0.52244490630E+03  0.21155669359E+04  0.23115380800E+04  0.10100000352E+00 0.  1.
</event>
<event>
 5   0  0.9938176E-05  0.2216225E+04  0.7818609E-02  0.8511705E-01
        2   -1    0    0  501    0  0.00000000000E+00  0.00000000000E+00  0.21946149918E+04  0.21946149918E+04  0.25500000920E-02 0. -1.
       -2   -1    0    0    0  501  0.00000000000E+00  0.00000000000E+00 -0.55951174771E+03  0.55951174771E+03  0.25500000920E-02 0.  1.
    10030    2    1    2    0    0  0.00000000000E+00  0.00000000000E+00  0.16351032441E+04  0.27541267395E+04  0.22162246002E+04 0.  0.
        5    1    3    3  502    0 -0.34657734122E+03 -0.75376651088E+03 -0.95321745137E+02  0.83509767780E+03  0.46999998093E+01 0.  1.
       -5    1    3    3    0  502  0.34657734122E+03  0.75376651088E+03  0.17304249893E+04  0.19190290617E+04  0.46999998093E+01 0. -1.
</event>
<event>
 5   0  0.4174075E-05  0.2194993E+04  0.7818609E-02  0.8520515E-01
       -1   -1    0    0    0  501  0.00000000000E+00  0.00000000000E+00  0.92635847801E+03  0.92635847803E+03  0.50400001928E-02 0.  1.
        1   -1    0    0  501    0  0.00000000000E+00  0.00000000000E+00 -0.13002509997E+04  0.13002509997E+04  0.50400001928E-02 0. -1.
    10030    2    1    2    0    0  0.00000000000E+00  0.00000000000E+00 -0.37389252169E+03  0.22266094777E+04  0.21949929723E+04 0.  0.
        5    1    3    3  502    0  0.25182295613E+03  0.61515321199E+02 -0.12687392061E+04  0.12949595357E+04  0.46999998093E+01 0. -1.
       -5    1    3    3    0  502 -0.25182295613E+03 -0.61515321199E+02  0.89484668439E+03  0.93164994206E+03  0.46999998093E+01 0.  1.
</event>
<event>
 5   0  0.4188865E-05  0.2254049E+04  0.7818609E-02  0.8496263E-01
       -1   -1    0    0    0  501  0.00000000000E+00  0.00000000000E+00  0.86074052744E+03  0.86074052746E+03  0.50400001928E-02 0. -1.
        1   -1    0    0  501    0  0.00000000000E+00  0.00000000000E+00 -0.14756874273E+04  0.14756874273E+04  0.50400001928E-02 0.  1.
    10030    2    1    2    0    0  0.00000000000E+00  0.00000000000E+00 -0.61494689990E+03  0.23364279548E+04  0.22540487790E+04 0.  0.
        3    1    3    3  502    0  0.10115087220E+03  0.73394132141E+03  0.57284907027E+03  0.93651344343E+03  0.10100000352E+00 0. -1.
       -3    1    3    3    0  502 -0.10115087220E+03 -0.73394132141E+03 -0.11877959702E+04  0.13999145114E+04  0.10100000352E+00 0.  1.
</event>
<event>
 5   0  0.9179618E-05  0.2090023E+04  0.7818609E-02  0.8565651E-01
        2   -1    0    0  501    0  0.00000000000E+00  0.00000000000E+00  0.60498042201E+03  0.60498042201E+03  0.25500000920E-02 0. -1.
       -2   -1    0    0    0  501  0.00000000000E+00  0.00000000000E+00 -0.18050975307E+04  0.18050975307E+04  0.25500000920E-02 0.  1.
    10030    2    1    2    0    0  0.00000000000E+00  0.00000000000E+00 -0.12001171087E+04  0.24100779527E+04  0.20900226467E+04 0.  0.
        3    1    3    3  502    0  0.28715305440E+03 -0.37060606044E+03  0.47689959291E+03  0.66875926955E+03  0.10100000352E+00 0. -1.
       -3    1    3    3    0  502 -0.28715305440E+03  0.37060606044E+03 -0.16770167016E+04  0.17413186832E+04  0.10100000352E+00 0.  1.
</event>
<event>
 5   0  0.9457742E-05  0.2197186E+04  0.7818609E-02  0.8519600E-01
        2   -1    0    0  501    0  0.00000000000E+00  0.00000000000E+00  0.26545201925E+04  0.26545201925E+04  0.25500000920E-02 0. -1.
       -2   -1    0    0    0  501  0.00000000000E+00  0.00000000000E+00 -0.45466110947E+03  0.45466110948E+03  0.25500000920E-02 0.  1.
    10030    2    1    2    0    0  0.00000000000E+00  0.00000000000E+00  0.21998590830E+04  0.31091813020E+04  0.21971864699E+04 0.  0.
        1    1    3    3  502    0  0.18941741764E+03  0.10799629764E+04  0.11970257587E+04  0.16232897633E+04  0.50400001928E-02 0. -1.
       -1    1    3    3    0  502 -0.18941741764E+03 -0.10799629764E+04  0.10028333243E+04  0.14858915387E+04  0.50400001928E-02 0.  1.
</event>
<event>
 5   0  0.9457742E-05  0.2081288E+04  0.7818609E-02  0.8569531E-01
       -2   -1    0    0    0  501  0.00000000000E+00  0.00000000000E+00  0.75196214005E+03  0.75196214005E+03  0.25500000920E-02 0.  1.
        2   -1    0    0  501    0  0.00000000000E+00  0.00000000000E+00 -0.14401523084E+04  0.14401523084E+04  0.25500000920E-02 0. -1.
    10030    2    1    2    0    0  0.00000000000E+00  0.00000000000E+00 -0.68819016834E+03  0.21921144484E+04  0.20812880741E+04 0.  0.
        1    1    3    3  502    0 -0.95381764666E+03 -0.41572174525E+03 -0.36372452596E+03  0.11022196711E+04  0.50400001928E-02 0. -1.
       -1    1    3    3    0  502  0.95381764666E+03  0.41572174525E+03 -0.32446564238E+03  0.10898947773E+04  0.50400001928E-02 0.  1.
</event>
<event>
 5   0  0.9254673E-05  0.2246927E+04  0.7818609E-02  0.8499146E-01
       -2   -1    0    0    0  501  0.00000000000E+00  0.00000000000E+00  0.56220414080E+03  0.56220414080E+03  0.25500000920E-02 0. -1.
        2   -1    0    0  501    0  0.00000000000E+00  0.00000000000E+00 -0.22450398176E+04  0.22450398176E+04  0.25500000920E-02 0.  1.
    10030    2    1    2    0    0  0.00000000000E+00  0.00000000000E+00 -0.16828356768E+04  0.28072439584E+04  0.22469273969E+04 0.  0.
        2    1    3    3  502    0  0.94746137081E+03  0.54822233481E+03 -0.52549784866E+03  0.12142399954E+04  0.25500000920E-02 0.  1.
       -2    1    3    3    0  502 -0.94746137081E+03 -0.54822233481E+03 -0.11573378281E+04  0.15930039630E+04  0.25500000920E-02 0. -1.
</event>
<event>
 5   0  0.4063293E-05  0.2203394E+04  0.7818609E-02  0.8517017E-01
        1   -1    0    0  501    0  0.00000000000E+00  0.00000000000E+00  0.14808430030E+04  0.14808430031E+04  0.50400001928E-02 0. -1.
       -1   -1    0    0    0  501  0.00000000000E+00  0.00000000000E+00 -0.81962541269E+03  0.81962541271E+03  0.50400001928E-02 0.  1.
    10030    2    1    2    0    0  0.00000000000E+00  0.00000000000E+00  0.66121759036E+03  0.23004684158E+04  0.22033942521E+04 0.  0.
        1    1    3    3  502    0 -0.21612028712E+03  0.39061570222E+02 -0.79653861722E+03  0.82626118965E+03  0.50400001928E-02 0.  1.
       -1    1    3    3    0  502  0.21612028712E+03 -0.39061570222E+02  0.14577562076E+04  0.14742072261E+04  0.50400001928E-02 0. -1.
</event>
<event>
 5   0  0.9457742E-05  0.2205433E+04  0.7818609E-02  0.8516170E-01
        2   -1    0    0  501    0  0.00000000000E+00  0.00000000000E+00  0.19389431717E+04  0.19389431717E+04  0.25500000920E-02 0.  1.
       -2   -1    0    0    0  501  0.00000000000E+00  0.00000000000E+00 -0.62713758995E+03  0.62713758996E+03  0.25500000920E-02 0. -1.
    10030    2    1    2    0    0  0.00000000000E+00  0.00000000000E+00  0.13118055817E+04  0.25660807616E+04  0.22054334247E+04 0.  0.
        1    1    3    3  502    0 -0.72212050124E+03  0.72357085623E+03  0.11370057554E+04  0.15289849215E+04  0.50400001928E-02 0.  1.
       -1    1    3    3    0  502  0.72212050124E+03 -0.72357085623E+03  0.17479982630E+03  0.10370958401E+04  0.50400001928E-02 0. -1.
</event>
<event>
 5   0  0.9442578E-05  0.2288283E+04  0.7818609E-02  0.8482555E-01
       -2   -1    0    0    0  501  0.00000000000E+00  0.00000000000E+00  0.22230199709E+04  0.22230199709E+04  0.25500000920E-02 0.  1.
        2   -1    0    0  501    0  0.00000000000E+00  0.00000000000E+00 -0.58886552666E+03  0.58886552667E+03  0.25500000920E-02 0. -1.
    10030    2    1    2    0    0  0.00000000000E+00  0.00000000000E+00  0.16341544443E+04  0.28118854976E+04  0.22882830471E+04 0.  0.
        4    1    3    3  502    0  0.97123092193E+03  0.36308777141E+03  0.22273525177E+03  0.10605351662E+04  0.12699999809E+01 0. -1.
       -4    1    3    3    0  502 -0.97123092193E+03 -0.36308777141E+03  0.14114191925E+04  0.17513503314E+04  0.12699999809E+01 0.  1.
</event>
<event>
 5   0  0.9179618E-05  0.2172268E+04  0.7818609E-02  0.8530060E-01
       -2   -1    0    0    0  501  0.00000000000E+00  0.00000000000E+00  0.15528830574E+04  0.15528830574E+04  0.25500000920E-02 0. -1.
        2   -1    0    0  501    0  0.00000000000E+00  0.00000000000E+00 -0.75967525769E+03  0.75967525769E+03  0.25500000920E-02 0.  1.
    10030    2    1    2    0    0  0.00000000000E+00  0.00000000000E+00  0.79320779971E+03  0.23125583151E+04  0.21722677890E+04 0.  0.
        3    1    3    3  502    0  0.46451212381E+03  0.66418330781E+03  0.11663315504E+04  0.14202958408E+04  0.10100000352E+00 0. -1.
       -3    1    3    3    0  502 -0.46451212381E+03 -0.66418330781E+03 -0.37312375072E+03  0.89226247433E+03  0.10100000352E+00 0.  1.
</event>
<event>
 5   0  0.4174075E-05  0.2172249E+04  0.7818609E-02  0.8530068E-01
       -1   -1    0    0    0  501  0.00000000000E+00  0.00000000000E+00  0.93406205343E+03  0.93406205345E+03  0.50400001928E-02 0.  1.
        1   -1    0    0  501    0  0.00000000000E+00  0.00000000000E+00 -0.12629426112E+04  0.12629426112E+04  0.50400001928E-02 0. -1.
    10030    2    1    2    0    0  0.00000000000E+00  0.00000000000E+00 -0.32888055774E+03  0.21970046646E+04  0.21722493124E+04 0.  0.
        5    1    3    3  502    0 -0.59058205909E+03 -0.19475318138E+03 -0.10650536316E+04  0.12333196254E+04  0.46999998093E+01 0. -1.
       -5    1    3    3    0  502  0.59058205909E+03  0.19475318138E+03  0.73617307387E+03  0.96368503924E+03  0.46999998093E+01 0.  1.
</event>
<event>
 5   0  0.4174030E-05  0.2206865E+04  0.7818609E-02  0.8515576E-01
       -1   -1    0    0    0  501  0.00000000000E+00  0.00000000000E+00  0.84564340090E+03  0.84564340091E+03  0.50400001928E-02 0.  1.
        1   -1    0    0  501    0  0.00000000000E+00  0.00000000000E+00 -0.14398066176E+04  0.14398066177E+04  0.50400001928E-02 0. -1.
    10030    2    1    2    0    0  0.00000000000E+00  0.00000000000E+00 -0.59416321675E+03  0.22854500186E+04  0.22068647125E+04 0.  0.
        2    1    3    3  502    0 -0.38320063761E+03 -0.77871058187E+02 -0.13656461006E+04  0.14205266286E+04  0.25500000920E-02 0. -1.
       -2    1    3    3    0  502  0.38320063761E+03  0.77871058187E+02  0.77148288389E+03  0.86492338997E+03  0.25500000920E-02 0.  1.
</event>
<event>
 5   0  0.9457742E-05  0.2181368E+04  0.7818609E-02  0.8526223E-01
        2   -1    0    0  501    0  0.00000000000E+00  0.00000000000E+00  0.25509947942E+04  0.25509947942E+04  0.25500000920E-02 0.  1.
       -2   -1    0    0    0  501  0.00000000000E+00  0.00000000000E+00 -0.46632467057E+03  0.46632467057E+03  0.25500000920E-02 0. -1.
    10030    2    1    2    0    0  0.00000000000E+00  0.00000000000E+00  0.20846701236E+04  0.30173194648E+04  0.21813682010E+04 0.  0.
        1    1    3    3  502    0 -0.37369698193E+03  0.36837669562E+03  0.23649172188E+04  0.24224335442E+04  0.50400001928E-02 0.  1.
       -1    1    3    3    0  502  0.37369698193E+03 -0.36837669562E+03 -0.28024709514E+03  0.59488592061E+03  0.50400001928E-02 0. -1.
</event>
<event>
 5   0  0.9442578E-05  0.2165434E+04  0.7818609E-02  0.8532954E-01
       -2   -1    0    0    0  501  0.00000000000E+00  0.00000000000E+00  0.72951759072E+03  0.72951759072E+03  0.25500000920E-02 0. -1.
        2   -1    0    0  501    0  0.00000000000E+00  0.00000000000E+00 -0.16069196915E+04  0.16069196915E+04  0.25500000920E-02 0.  1.
    10030    2    1    2    0    0  0.00000000000E+00  0.00000000000E+00 -0.87740210076E+03  0.23364372822E+04  0.21654340736E+04 0.  0.
        4    1    3    3  502    0 -0.57615039830E+03 -0.63914084797E+03  0.27032580022E+03  0.90195784611E+03  0.12699999809E+01 0. -1.
       -4    1    3    3    0  502  0.57615039830E+03  0.63914084797E+03 -0.11477279010E+04  0.14344794361E+04  0.12699999809E+01 0.  1.
</event>
<event>
 5   0  0.9179618E-05  0.2199313E+04  0.7818609E-02  0.8518714E-01
        2   -1    0    0  501    0  0.00000000000E+00  0.00000000000E+00  0.11560988832E+04  0.11560988832E+04  0.25500000920E-02 0. -1.
       -2   -1    0    0    0  501  0.00000000000E+00  0.00000000000E+00 -0.10459694245E+04  0.10459694245E+04  0.25500000920E-02 0.  1.
    10030    2    1    2    0    0  0.00000000000E+00  0.00000000000E+00  0.11012945872E+03  0.22020683078E+04  0.21993126959E+04 0.  0.
        3    1    3    3  502    0  0.20096882510E+03  0.85486182278E+03  0.71776021100E+03  0.11341767655E+04  0.10100000352E+00 0. -1.
       -3    1    3    3    0  502 -0.20096882510E+03 -0.85486182278E+03 -0.60763075228E+03  0.10678915423E+04  0.10100000352E+00 0.  1.
</event>
<event>
 5   0  0.4063293E-05  0.2251111E+04  0.7818609E-02  0.8497451E-01
       -1   -1    0    0    0  501  0.00000000000E+00  0.00000000000E+00  0.10508292417E+04  0.10508292418E+04  0.50400001928E-02 0.  1.
        1   -1    0    0  501    0  0.00000000000E+00  0.00000000000E+00 -0.12055956457E+04  0.12055956457E+04  0.50400001928E-02 0. -1.
    10030    2    1    2    0    0  0.00000000000E+00  0.00000000000E+00 -0.15476640396E+03  0.22564248875E+04  0.22511109775E+04 0.  0.
        1    1    3    3  502    0 -0.75851078635E+03  0.52275282223E+03 -0.72564476732E+03  0.11726761934E+04  0.50400001928E-02 0.  1.
       -1    1    3    3    0  502  0.75851078635E+03 -0.52275282223E+03  0.57087836336E+03  0.10837486941E+04  0.50400001928E-02 0. -1.
</event>
<event>
 5   0  0.9254673E-05  0.2140113E+04  0.7818609E-02  0.8543776E-01
       -2   -1    0    0    0  501  0.00000000000E+00  0.00000000000E+00  0.13429304937E+04  0.13429304937E+04  0.25500000920E-02 0.  1.
        2   -1    0    0  501    0  0.00000000000E+00  0.00000000000E+00 -0.85262857280E+03  0.85262857280E+03  0.25500000920E-02 0. -1.
    10030    2    1    2    0    0  0.00000000000E+00  0.00000000000E+00  0.49030192085E+03  0.21955590665E+04  0.21401129972E+04 0.  0.
        2    1    3    3  502    0 -0.68010248116E+03 -0.49697901217E+03 -0.43186546107E+03  0.94659141127E+03  0.25500000920E-02 0. -1.
       -2    1    3    3    0  502  0.68010248116E+03  0.49697901217E+03  0.92216738192E+03  0.12489676552E+04  0.25500000920E-02 0.  1.
</event>
<event>
 5   0  0.4063293E-05  0.2187554E+04  0.7818609E-02  0.8523626E-01
        1   -1    0    0  501    0  0.00000000000E+00  0.00000000000E+00  0.82253622694E+03  0.82253622696E+03  0.50400001928E-02 0.  1.
       -1   -1    0    0    0  501  0.00000000000E+00  0.00000000000E+00 -0.14544625233E+04  0.14544625234E+04  0.50400001928E-02 0. -1.
    10030    2    1    2    0    0  0.00000000000E+00  0.00000000000E+00 -0.63192629640E+03  0.22769987503E+04  0.21875539913E+04 0.  0.
        1    1    3    3  502    0 -0.72525234789E+03 -0.23276871411E+02  0.53592299640E+03  0.90207884298E+03  0.50400001928E-02 0.  1.
       -1    1    3    3    0  502  0.72525234789E+03  0.23276871411E+02 -0.11678492928E+04  0.13749199073E+04  0.50400001928E-02 0. -1.
</event>
<event>
 5   0  0.4174030E-05  0.2207110E+04  0.7818609E-02  0.8515475E-01
        1   -1    0    0  501    0  0.00000000000E+00  0.00000000000E+00  0.14113918034E+04  0.14113918034E+04  0.50400001928E-02 0. -1.
       -1   -1    0    0    0  501  0.00000000000E+00  0.00000000000E+00 -0.86286024443E+03  0.86286024445E+03  0.50400001928E-02 0.  1.
    10030    2    1    2    0    0  0.00000000000E+00  0.00000000000E+00  0.54853155892E+03  0.22742520478E+04  0.22071102161E+04 0.  0.
        2    1    3    3  502    0 -0.19481115464E+03  0.78626939352E+03 -0.49797450747E+03  0.95086779063E+03  0.25500000920E-02 0.  1.
       -2    1    3    3    0  502  0.19481115464E+03 -0.78626939352E+03  0.10465060664E+04  0.13233842572E+04  0.25500000920E-02 0. -1.
</event>
<event>
 5   0  0.9938176E-05  0.2232705E+04  0.7818609E-02  0.8504937E-01
       -2   -1    0    0    0  501  0.00000000000E+00  0.00000000000E+00  0.35487298943E+04  0.35487298943E+04  0.25500000920E-02 0.  1.
        2   -1    0    0  501    0  0.00000000000E+00  0.00000000000E+00 -0.35118010787E+03  0.35118010788E+03  0.25500000920E-02 0. -1.
    10030    2    1    2    0    0  0.00000000000E+00  0.00000000000E+00  0.31975497865E+04  0.38999100022E+04  0.22327053967E+04 0.  0.
        5    1    3    3  502    0  0.22119261506E+03 -0.62874495276E+03  0.34534334578E+02  0.66742872192E+03  0.46999998093E+01 0. -1.
       -5    1    3    3    0  502 -0.22119261506E+03  0.62874495276E+03  0.31630154519E+04  0.32324812803E+04  0.46999998093E+01 0.  1.
</event>
<event>
 5   0  0.4063293E-05  0.2217705E+04  0.7818609E-02  0.8511095E-01
        1   -1    0    0  501    0  0.00000000000E+00  0.00000000000E+00  0.31598405521E+04  0.31598405521E+04  0.50400001928E-02 0.  1.
       -1   -1    0    0    0  501  0.00000000000E+00  0.00000000000E+00 -0.38911894857E+03  0.38911894861E+03  0.50400001928E-02 0. -1.
    10030    2    1    2    0    0  0.00000000000E+00  0.00000000000E+00  0.27707216035E+04  0.35489595007E+04  0.22177049699E+04 0.  0.
        1    1    3    3  502    0  0.42941292022E+03 -0.91108862250E+03  0.21275132891E+04  0.23538884276E+04  0.50400001928E-02 0. -1.
       -1    1    3    3    0  502 -0.42941292022E+03  0.91108862250E+03  0.64320831442E+03  0.11950710731E+04  0.50400001928E-02 0.  1.
</event>
<event>
 5   0  0.9442578E-05  0.2074059E+04  0.7818609E-02  0.8572757E-01
       -2   -1    0    0    0  501  0.00000000000E+00  0.00000000000E+00  0.10832464919E+04  0.10832464919E+04  0.25500000920E-02 0. -1.
        2   -1    0    0  501    0  0.00000000000E+00  0.00000000000E+00 -0.99278467909E+03  0.99278467909E+03  0.25500000920E-02 0.  1.
    10030    2    1    2    0    0  0.00000000000E+00  0.00000000000E+00  0.90461812776E+02  0.20760311710E+04  0.20740593249E+04 0.  0.
        4    1    3    3  502    0 -0.40382415149E+03 -0.13240021141E+03  0.99208221921E+03  0.10792740634E+04  0.12699999809E+01 0. -1.
       -4    1    3    3    0  502  0.40382415149E+03  0.13240021141E+03 -0.90162040644E+03  0.99675710758E+03  0.12699999809E+01 0.  1.
</event>
<event>
 5   0  0.3283125E-05  0.1932985E+04  0.7818609E-02  0.8638610E-01
       -3   -1    0    0    0  501  0.00000000000E+00  0.00000000000E+00  0.12473600435E+04  0.12473600476E+04  0.10100000352E+00 0. -1.
        3   -1    0    0  501    0  0.00000000000E+00  0.00000000000E+00 -0.74886767435E+03  0.74886768116E+03  0.10100000352E+00 0.  1.
    10030    2    1    2    0    0  0.00000000000E+00  0.00000000000E+00  0.49849236912E+03  0.19962277287E+04  0.19329848687E+04 0.  0.
        2    1    3    3  502    0  0.91464098997E+03  0.16507384645E+03 -0.24550851307E+02  0.92974203929E+03  0.25500000920E-02 0.  1.
       -2    1    3    3    0  502 -0.91464098997E+03 -0.16507384645E+03  0.52304322043E+03  0.10664856894E+04  0.25500000920E-02 0. -1.
</event>
<event>
 5   0  0.9179618E-05  0.2204658E+04  0.7818609E-02  0.8516492E-01
       -2   -1    0    0    0  501  0.00000000000E+00  0.00000000000E+00  0.95517228286E+03  0.95517228287E+03  0.25500000920E-02 0. -1.
        2   -1    0    0  501    0  0.00000000000E+00  0.00000000000E+00 -0.12721574293E+04  0.12721574293E+04  0.25500000920E-02 0.  1.
    10030    2    1    2    0    0  0.00000000000E+00  0.00000000000E+00 -0.31698514641E+03  0.22273297121E+04  0.22046582646E+04 0.  0.
        3    1    3    3  502    0  0.78554514686E+03 -0.14118438202E+02 -0.93965074887E+03  0.12248363352E+04  0.10100000352E+00 0.  1.
       -3    1    3    3    0  502 -0.78554514686E+03  0.14118438202E+02  0.62266560246E+03  0.10024933769E+04  0.10100000352E+00 0. -1.
</event>
<event>
 5   0  0.9179618E-05  0.2129123E+04  0.7818609E-02  0.8548522E-01
       -2   -1    0    0    0  501  0.00000000000E+00  0.00000000000E+00  0.95143041670E+03  0.95143041670E+03  0.25500000920E-02 0.  1.
        2   -1    0    0  501    0  0.00000000000E+00  0.00000000000E+00 -0.11911449041E+04  0.11911449041E+04  0.25500000920E-02 0. -1.
    10030    2    1    2    0    0  0.00000000000E+00  0.00000000000E+00 -0.23971448738E+03  0.21425753208E+04  0.21291232867E+04 0.  0.
        3    1    3    3  502    0 -0.44124916340E+03 -0.66915716552E+03  0.58515413170E+03  0.99240994776E+03  0.10100000352E+00 0. -1.
       -3    1    3    3    0  502  0.44124916340E+03  0.66915716552E+03 -0.82486861908E+03  0.11501653730E+04  0.10100000352E+00 0.  1.
</event>
<event>
 5   0  0.4188865E-05  0.2204693E+04  0.7818609E-02  0.8516477E-01
       -1   -1    0    0    0  501  0.00000000000E+00  0.00000000000E+00  0.88621565199E+03  0.88621565200E+03  0.50400001928E-02 0.  1.
        1   -1    0    0  501    0  0.00000000000E+00  0.00000000000E+00 -0.13711879641E+04  0.13711879641E+04  0.50400001928E-02 0. -1.
    10030    2    1    2    0    0  0.00000000000E+00  0.00000000000E+00 -0.48497231209E+03  0.22574036161E+04  0.22046933897E+04 0.  0.
        3    1    3    3  502    0 -0.44841307364E+03 -0.85559697971E+02 -0.12698562031E+04  0.13494182203E+04  0.10100000352E+00 0. -1.
       -3    1    3    3    0  502  0.44841307364E+03  0.85559697971E+02  0.78488389097E+03  0.90798539583E+03  0.10100000352E+00 0.  1.
</event>
<event>
 5   0  0.9254673E-05  0.2375711E+04  0.7818609E-02  0.8448653E-01
       -2   -1    0    0    0  501  0.00000000000E+00  0.00000000000E+00  0.13620554558E+04  0.13620554558E+04  0.25500000920E-02 0.  1.
        2   -1    0    0  501    0  0.00000000000E+00  0.00000000000E+00 -0.10359346926E+04  0.10359346926E+04  0.25500000920E-02 0. -1.
    10030    2    1    2    0    0  0.00000000000E+00  0.00000000000E+00  0.32612076326E+03  0.23979901484E+04  0.23757108409E+04 0.  0.
        2    1    3    3  502    0 -0.25096171953E+03 -0.76513304813E+03 -0.71839311765E+03  0.10791195659E+04  0.25500000920E-02 0. -1.
       -2    1    3    3    0  502  0.25096171953E+03  0.76513304813E+03  0.10445138809E+04  0.13188705825E+04  0.25500000920E-02 0.  1.
</event>
<event>
 5   0  0.9442578E-05  0.2185900E+04  0.7818609E-02  0.8524320E-01
        2   -1    0    0  501    0  0.00000000000E+00  0.00000000000E+00  0.12142838520E+04  0.12142838520E+04  0.25500000920E-02 0. -1.
       -2   -1    0    0    0  501  0.00000000000E+00  0.00000000000E+00 -0.98374034179E+03  0.98374034179E+03  0.25500000920E-02 0.  1.
    10030    2    1    2    0    0  0.00000000000E+00  0.00000000000E+00  0.23054351016E+03  0.21980241937E+04  0.21859002828E+04 0.  0.
        4    1    3    3  502    0  0.50012404424E+03 -0.14090105868E+03 -0.85160242184E+03  0.99759985252E+03  0.12699999809E+01 0.  1.
       -4    1    3    3    0  502 -0.50012404424E+03  0.14090105868E+03  0.10821459320E+04  0.12004243412E+04  0.12699999809E+01 0. -1.
</event>
<event>
 5   0  0.9442578E-05  0.2156286E+04  0.7818609E-02  0.8536846E-01
       -2   -1    0    0    0  501  0.00000000000E+00  0.00000000000E+00  0.71184468599E+03  0.71184468599E+03  0.25500000920E-02 0. -1.
        2   -1    0    0  501    0  0.00000000000E+00  0.00000000000E+00 -0.16329298459E+04  0.16329298459E+04  0.25500000920E-02 0.  1.
    10030    2    1    2    0    0  0.00000000000E+00  0.00000000000E+00 -0.92108515990E+03  0.23447745319E+04  0.21562860973E+04 0.  0.
        4    1    3    3  502    0 -0.13500871743E+03 -0.72132832960E+03  0.39834122738E+03  0.83499656238E+03  0.12699999809E+01 0. -1.
       -4    1    3    3    0  502  0.13500871743E+03  0.72132832960E+03 -0.13194263873E+04  0.15097779695E+04  0.12699999809E+01 0.  1.
</event>
<event>
 5   0  0.4133418E-05  0.2150864E+04  0.7818609E-02  0.8539163E-01
        1   -1    0    0  501    0  0.00000000000E+00  0.00000000000E+00  0.10407017457E+04  0.10407017457E+04  0.50400001928E-02 0. -1.
       -1   -1    0    0    0  501  0.00000000000E+00  0.00000000000E+00 -0.11113208245E+04  0.11113208246E+04  0.50400001928E-02 0.  1.
    10030    2    1    2    0    0  0.00000000000E+00  0.00000000000E+00 -0.70619078825E+02  0.21520225703E+04  0.21508635681E+04 0.  0.
        4    1    3    3  502    0 -0.95507882585E+03  0.48398838357E+03 -0.13601957917E+03  0.10793161065E+04  0.12699999809E+01 0. -1.
       -4    1    3    3    0  502  0.95507882585E+03 -0.48398838357E+03  0.65400500344E+02  0.10727064637E+04  0.12699999809E+01 0.  1.
</event>
<event>
 5   0  0.4188865E-05  0.2264314E+04  0.7818609E-02  0.8492126E-01
       -1   -1    0    0    0  501  0.00000000000E+00  0.00000000000E+00  0.84141783312E+03  0.84141783313E+03  0.50400001928E-02 0.  1.
        1   -1    0    0  501    0  0.00000000000E+00  0.00000000000E+00 -0.15233563845E+04  0.15233563845E+04  0.50400001928E-02 0. -1.
    10030    2    1    2    0    0  0.00000000000E+00  0.00000000000E+00 -0.68193855136E+03  0.23647742176E+04  0.22643137840E+04 0.  0.
        3    1    3    3  502    0 -0.11152413299E+03 -0.15550110473E+03  0.82440606675E+03  0.84632357814E+03  0.10100000352E+00 0.  1.
       -3    1    3    3    0  502  0.11152413299E+03  0.15550110473E+03 -0.15063446181E+04  0.15184506395E+04  0.10100000352E+00 0. -1.
</event>
<event>
 5   0  0.4063293E-05  0.2220158E+04  0.7818609E-02  0.8510084E-01
       -1   -1    0    0    0  501  0.00000000000E+00  0.00000000000E+00  0.11336761679E+04  0.11336761679E+04  0.50400001928E-02 0. -1.
        1   -1    0    0  501    0  0.00000000000E+00  0.00000000000E+00 -0.10869731034E+04  0.10869731034E+04  0.50400001928E-02 0.  1.
    10030    2    1    2    0    0  0.00000000000E+00  0.00000000000E+00  0.46703064461E+02  0.22206492713E+04  0.22201581047E+04 0.  0.
        1    1    3    3  502    0 -0.23667346069E+03  0.70500322703E+03 -0.80098589386E+03  0.10929877764E+04  0.50400001928E-02 0.  1.
       -1    1    3    3    0  502  0.23667346069E+03 -0.70500322703E+03  0.84768895832E+03  0.11276614950E+04  0.50400001928E-02 0. -1.
</event>
<event>
 5   0  0.4133418E-05  0.2195371E+04  0.7818609E-02  0.8520357E-01
       -1   -1    0    0    0  501  0.00000000000E+00  0.00000000000E+00  0.57176167636E+03  0.57176167638E+03  0.50400001928E-02 0.  1.
        1   -1    0    0  501    0  0.00000000000E+00  0.00000000000E+00 -0.21073697532E+04  0.21073697532E+04  0.50400001928E-02 0. -1.
    10030    2    1    2    0    0  0.00000000000E+00  0.00000000000E+00 -0.15356080768E+04  0.26791314295E+04  0.21953708232E+04 0.  0.
        4    1    3    3  502    0 -0.78837680085E+02  0.93224706021E+03 -0.14684319478E+04  0.17411473112E+04  0.12699999809E+01 0. -1.
       -4    1    3    3    0  502  0.78837680085E+02 -0.93224706021E+03 -0.67176129009E+02  0.93798411835E+03  0.12699999809E+01 0.  1.
</event>
<event>
 5   0  0.4063293E-05  0.2156076E+04  0.7818609E-02  0.8536936E-01
        1   -1    0    0  501    0  0.00000000000E+00  0.00000000000E+00  0.14429378751E+04  0.14429378751E+04  0.50400001928E-02 0. -1.
       -1   -1    0    0    0  501  0.00000000000E+00  0.00000000000E+00 -0.80541670984E+03  0.80541670986E+03  0.50400001928E-02 0.  1.
    10030    2    1    2    0    0  0.00000000000E+00  0.00000000000E+00  0.63752116526E+03  0.22483545850E+04  0.21560763214E+04 0.  0.
        1    1    3    3  502    0 -0.87564354958E+03  0.56969134376E+03  0.59636152093E+03  0.12028910660E+04  0.50400001928E-02 0. -1.
       -1    1    3    3    0  502  0.87564354958E+03 -0.56969134376E+03  0.41159644326E+02  0.10454635189E+04  0.50400001928E-02 0.  1.
</event>
<event>
 5   0  0.9254673E-05  0.1971221E+04  0.7818609E-02  0.8620195E-01
        2   -1    0    0  501    0  0.00000000000E+00  0.00000000000E+00  0.14425808387E+04  0.14425808387E+04  0.25500000920E-02 0.  1.
       -2   -1    0    0    0  501  0.00000000000E+00  0.00000000000E+00 -0.67339624607E+03  0.67339624607E+03  0.25500000920E-02 0. -1.
    10030    2    1    2    0    0  0.00000000000E+00  0.00000000000E+00  0.76918459265E+03  0.21159770848E+04  0.19712214705E+04 0.  0.
        2    1    3    3  502    0  0.94029358896E+03  0.29250947369E+03  0.34014257094E+03  0.10418305017E+04  0.25500000920E-02 0. -1.
       -2    1    3    3    0  502 -0.94029358896E+03 -0.29250947369E+03  0.42904202170E+03  0.10741465831E+04  0.25500000920E-02 0.  1.
</event>
<event>
 5   0  0.4133418E-05  0.2200655E+04  0.7818609E-02  0.8518156E-01
        1   -1    0    0  501    0  0.00000000000E+00  0.00000000000E+00  0.11099730400E+04  0.11099730401E+04  0.50400001928E-02 0.  1.
       -1   -1    0    0    0  501  0.00000000000E+00  0.00000000000E+00 -0.10907656195E+04  0.10907656195E+04  0.50400001928E-02 0. -1.
    10030    2    1    2    0    0  0.00000000000E+00  0.00000000000E+00  0.19207420525E+02  0.22007386596E+04  0.22006548395E+04 0.  0.
        4    1    3    3  502    0 -0.10748697477E+02 -0.43035282370E+03 -0.10030550892E+04  0.10915311321E+04  0.12699999809E+01 0. -1.
       -4    1    3    3    0  502  0.10748697477E+02  0.43035282370E+03  0.10222625097E+04  0.11092075275E+04  0.12699999809E+01 0.  1.
</event>
<event>
 5   0  0.9254673E-05  0.2190032E+04  0.7818609E-02  0.8522588E-01
       -2   -1    0    0    0  501  0.00000000000E+00  0.00000000000E+00  0.82180112977E+03  0.82180112977E+03  0.25500000920E-02 0. -1.
        2   -1    0    0  501    0  0.00000000000E+00  0.00000000000E+00 -0.14590635443E+04  0.14590635443E+04  0.25500000920E-02 0.  1.
    10030    2    1    2    0    0  0.00000000000E+00  0.00000000000E+00 -0.63726241454E+03  0.22808646741E+04  0.21900320264E+04 0.  0.
        2    1    3    3  502    0  0.54860936710E+03  0.12049034515E+02 -0.13055316722E+04  0.14161674915E+04  0.25500000920E-02 0.  1.
       -2    1    3    3    0  502 -0.54860936710E+03 -0.12049034515E+02  0.66826925762E+03  0.86469718260E+03  0.25500000920E-02 0. -1.
</event>
<event>
 5   0  0.4063293E-05  0.2180847E+04  0.7818609E-02  0.8526442E-01
        1   -1    0    0  501    0  0.00000000000E+00  0.00000000000E+00  0.89800588522E+03  0.89800588524E+03  0.50400001928E-02 0. -1.
       -1   -1    0    0    0  501  0.00000000000E+00  0.00000000000E+00 -0.13240713608E+04  0.13240713608E+04  0.50400001928E-02 0.  1.
    10030    2    1    2    0    0  0.00000000000E+00  0.00000000000E+00 -0.42606547558E+03  0.22220772460E+04  0.21808474266E+04 0.  0.
        1    1    3    3  502    0 -0.93520732416E+03 -0.44243076792E+03  0.13795932607E+03  0.10437387121E+04  0.50400001928E-02 0. -1.
       -1    1    3    3    0  502  0.93520732416E+03  0.44243076792E+03 -0.56402480165E+03  0.11783385339E+04  0.50400001928E-02 0.  1.
</event>
<event>
 5   0  0.4188865E-05  0.2233423E+04  0.7818609E-02  0.8504644E-01
        1   -1    0    0  501    0  0.00000000000E+00  0.00000000000E+00  0.10391517452E+04  0.10391517452E+04  0.50400001928E-02 0. -1.
       -1   -1    0    0    0  501  0.00000000000E+00  0.00000000000E+00 -0.12000598266E+04  0.12000598267E+04  0.50400001928E-02 0.  1.
    10030    2    1    2    0    0  0.00000000000E+00  0.00000000000E+00 -0.16090808143E+03  0.22392115719E+04  0.22334227215E+04 0.  0.
        3    1    3    3  502    0 -0.58360334051E+02 -0.38492207283E+03  0.96890740206E+03  0.10441994516E+04  0.10100000352E+00 0. -1.
       -3    1    3    3    0  502  0.58360334051E+02  0.38492207283E+03 -0.11298154835E+04  0.11950121203E+04  0.10100000352E+00 0.  1.
</event>
<event>
 5   0  0.9254673E-05  0.2172915E+04  0.7818609E-02  0.8529787E-01
       -2   -1    0    0    0  501  0.00000000000E+00  0.00000000000E+00  0.13992101943E+04  0.13992101943E+04  0.25500000920E-02 0. -1.
        2   -1    0    0  501    0  0.00000000000E+00  0.00000000000E+00 -0.84361169507E+03  0.84361169507E+03  0.25500000920E-02 0.  1.
    10030    2    1    2    0    0  0.00000000000E+00  0.00000000000E+00  0.55559849925E+03  0.22428218894E+04  0.21729151698E+04 0.  0.
        2    1    3    3  502    0  0.27264419445E+02 -0.97903645626E+03 -0.20757878771E+03  0.10011716558E+04  0.25500000920E-02 0.  1.
       -2    1    3    3    0  502 -0.27264419445E+02  0.97903645626E+03  0.76317728696E+03  0.12416502336E+04  0.25500000920E-02 0. -1.
</event>
<event>
 5   0  0.9179618E-05  0.2205938E+04  0.7818609E-02  0.8515961E-01
        2   -1    0    0  501    0  0.00000000000E+00  0.00000000000E+00  0.11021327741E+04  0.11021327741E+04  0.25500000920E-02 0.  1.
       -2   -1    0    0    0  501  0.00000000000E+00  0.00000000000E+00 -0.11038061973E+04  0.11038061973E+04  0.25500000920E-02 0. -1.
    10030    2    1    2    0    0  0.00000000000E+00  0.00000000000E+00 -0.16734232190E+01  0.22059389715E+04  0.22059383367E+04 0.  0.
        3    1    3    3  502    0 -0.77215582082E+03 -0.31204761509E+03  0.72231123411E+03  0.11024209064E+04  0.10100000352E+00 0.  1.
       -3    1    3    3    0  502  0.77215582082E+03  0.31204761509E+03 -0.72398465733E+03  0.11035180651E+04  0.10100000352E+00 0. -1.
</event>
<event>
 5   0  0.9938176E-05  0.2111435E+04  0.7818609E-02  0.8556223E-01
        2   -1    0    0  501    0  0.00000000000E+00  0.00000000000E+00  0.18473594774E+04  0.18473594774E+04  0.25500000920E-02 0.  1.
       -2   -1    0    0    0  501  0.00000000000E+00  0.00000000000E+00 -0.60331474448E+03  0.60331474449E+03  0.25500000920E-02 0. -1.
    10030    2    1    2    0    0  0.00000000000E+00  0.00000000000E+00  0.12440447329E+04  0.24506742219E+04  0.21114347833E+04 0.  0.
        5    1    3    3  502    0  0.58106949700E+03 -0.74804847858E+02  0.16413500796E+04  0.17427821721E+04  0.46999998093E+01 0.  1.
       -5    1    3    3    0  502 -0.58106949700E+03  0.74804847858E+02 -0.39730534670E+03  0.70789204976E+03  0.46999998093E+01 0. -1.
</event>
<event>
 5   0  0.4133418E-05  0.2165308E+04  0.7818609E-02  0.8533008E-01
        1   -1    0    0  501    0  0.00000000000E+00  0.00000000000E+00  0.14017586035E+04  0.14017586035E+04  0.50400001928E-02 0.  1.
       -1   -1    0    0    0  501  0.00000000000E+00  0.00000000000E+00 -0.83619217432E+03  0.83619217433E+03  0.50400001928E-02 0. -1.
    10030    2    1    2    0    0  0.00000000000E+00  0.00000000000E+00  0.56556642917E+03  0.22379507778E+04  0.21653078992E+04 0.  0.
        4    1    3    3  502    0  0.77261268607E+03  0.48463896479E+03  0.88573514826E+03  0.12713511138E+04  0.12699999809E+01 0.  1.
       -4    1    3    3    0  502 -0.77261268607E+03 -0.48463896479E+03 -0.32016871909E+03  0.96659966400E+03  0.12699999809E+01 0. -1.
</event>
<event>
 5   0  0.4063293E-05  0.2166339E+04  0.7818609E-02  0.8532571E-01
       -1   -1    0    0    0  501  0.00000000000E+00  0.00000000000E+00  0.78685293939E+03  0.78685293941E+03  0.50400001928E-02 0. -1.
        1   -1    0    0  501    0  0.00000000000E+00  0.00000000000E+00 -0.14910736861E+04  0.14910736861E+04  0.50400001928E-02 0.  1.
    10030    2    1    2    0    0  0.00000000000E+00  0.00000000000E+00 -0.70422074667E+03  0.22779266255E+04  0.21663385818E+04 0.  0.
        1    1    3    3  502    0 -0.92132372356E+03  0.56252559500E+03 -0.25815888917E+03  0.11099182225E+04  0.50400001928E-02 0.  1.
       -1    1    3    3    0  502  0.92132372356E+03 -0.56252559500E+03 -0.44606185750E+03  0.11680084030E+04  0.50400001928E-02 0. -1.
</event>
<event>
 5   0  0.4188865E-05  0.2014708E+04  0.7818609E-02  0.8599775E-01
        1   -1    0    0  501    0  0.00000000000E+00  0.00000000000E+00  0.13219981583E+04  0.13219981583E+04  0.50400001928E-02 0.  1.
       -1   -1    0    0    0  501  0.00000000000E+00  0.00000000000E+00 -0.76759731206E+03  0.76759731208E+03  0.50400001928E-02 0. -1.
    10030    2    1    2    0    0  0.00000000000E+00  0.00000000000E+00  0.55440084619E+03  0.20895954703E+04  0.20147081504E+04 0.  0.
        3    1    3    3  502    0  0.17117599450E+03  0.82920672920E+03  0.84326855708E+03  0.11949840545E+04  0.10100000352E+00 0.  1.
       -3    1    3    3    0  502 -0.17117599450E+03 -0.82920672920E+03 -0.28886771088E+03  0.89461141589E+03  0.10100000352E+00 0. -1.
</event>
<event>
 5   0  0.9179618E-05  0.2208889E+04  0.7818609E-02  0.8514738E-01
        2   -1    0    0  501    0  0.00000000000E+00  0.00000000000E+00  0.11015890540E+04  0.11015890540E+04  0.25500000920E-02 0.  1.
       -2   -1    0    0    0  501  0.00000000000E+00  0.00000000000E+00 -0.11073068510E+04  0.11073068510E+04  0.25500000920E-02 0. -1.
    10030    2    1    2    0    0  0.00000000000E+00  0.00000000000E+00 -0.57177969835E+01  0.22088959051E+04  0.22088885047E+04 0.  0.
        3    1    3    3  502    0  0.75188635413E+03 -0.55769847140E+03  0.58317755347E+03  0.11029309786E+04  0.10100000352E+00 0.  1.
       -3    1    3    3    0  502 -0.75188635413E+03  0.55769847140E+03 -0.58889535046E+03  0.11059649264E+04  0.10100000352E+00 0. -1.
</event>
<event>
 5   0  0.9254673E-05  0.2192090E+04  0.7818609E-02  0.8521728E-01
       -2   -1    0    0    0  501  0.00000000000E+00  0.00000000000E+00  0.10381273921E+04  0.10381273921E+04  0.25500000920E-02 0.  1.
        2   -1    0    0  501    0  0.00000000000E+00  0.00000000000E+00 -0.11571935793E+04  0.11571935793E+04  0.25500000920E-02 0. -1.
    10030    2    1    2    0    0  0.00000000000E+00  0.00000000000E+00 -0.11906618711E+03  0.21953209714E+04  0.21920897360E+04 0.  0.
        2    1    3    3  502    0 -0.28178301231E+03  0.67266500623E+03  0.75986270917E+03  0.10532194517E+04  0.25500000920E-02 0.  1.
       -2    1    3    3    0  502  0.28178301231E+03 -0.67266500623E+03 -0.87892889628E+03  0.11421015197E+04  0.25500000920E-02 0. -1.
</event>
<event>
 5   0  0.4174030E-05  0.2212969E+04  0.7818609E-02  0.8513050E-01
       -1   -1    0    0    0  501  0.00000000000E+00  0.00000000000E+00  0.85043279577E+03  0.85043279578E+03  0.50400001928E-02 0.  1.
        1   -1    0    0  501    0  0.00000000000E+00  0.00000000000E+00 -0.14396287627E+04  0.14396287627E+04  0.50400001928E-02 0. -1.
    10030    2    1    2    0    0  0.00000000000E+00  0.00000000000E+00 -0.58919596695E+03  0.22900615585E+04  0.22129686067E+04 0.  0.
        2    1    3    3  502    0  0.42995401834E+03 -0.99719792431E+03 -0.74970203790E+02  0.10885240877E+04  0.25500000920E-02 0.  1.
       -2    1    3    3    0  502 -0.42995401834E+03  0.99719792431E+03 -0.51422576316E+03  0.12015374708E+04  0.25500000920E-02 0. -1.
</event>
<event>
 5   0  0.4174030E-05  0.2201598E+04  0.7818609E-02  0.8517763E-01
       -1   -1    0    0    0  501  0.00000000000E+00  0.00000000000E+00  0.12798725907E+04  0.12798725907E+04  0.50400001928E-02 0. -1.
        1   -1    0    0  501    0  0.00000000000E+00  0.00000000000E+00 -0.94678056599E+03  0.94678056600E+03  0.50400001928E-02 0.  1.
    10030    2    1    2    0    0  0.00000000000E+00  0.00000000000E+00  0.33309202472E+03  0.22266531567E+04  0.22015980522E+04 0.  0.
        2    1    3    3  502    0 -0.61724986747E+03 -0.77913053970E+03 -0.31182377375E+03  0.10417657427E+04  0.25500000920E-02 0.  1.
       -2    1    3    3    0  502  0.61724986747E+03  0.77913053970E+03  0.64491579847E+03  0.11848874140E+04  0.25500000920E-02 0. -1.
</event>
<event>
 5   0  0.9457742E-05  0.2209249E+04  0.7818609E-02  0.8514588E-01
        2   -1    0    0  501    0  0.00000000000E+00  0.00000000000E+00  0.11495890832E+04  0.11495890832E+04  0.25500000920E-02 0.  1.
       -2   -1    0    0    0  501  0.00000000000E+00  0.00000000000E+00 -0.10614182953E+04  0.10614182953E+04  0.25500000920E-02 0. -1.
    10030    2    1    2    0    0  0.00000000000E+00  0.00000000000E+00  0.88170787834E+02  0.22110073785E+04  0.22092486370E+04 0.  0.
        1    1    3    3  502    0 -0.65609660473E+03  0.54215157940E+03  0.74877930595E+03  0.11336055482E+04  0.50400001928E-02 0.  1.
       -1    1    3    3    0  502  0.65609660473E+03 -0.54215157940E+03 -0.66060851811E+03  0.10774018303E+04  0.50400001928E-02 0. -1.
</event>
<event>
 5   0  0.4188865E-05  0.2148130E+04  0.7818609E-02  0.8540333E-01
       -1   -1    0    0    0  501  0.00000000000E+00  0.00000000000E+00  0.87363199931E+03  0.87363199932E+03  0.50400001928E-02 0. -1.
        1   -1    0    0  501    0  0.00000000000E+00  0.00000000000E+00 -0.13204824895E+04  0.13204824896E+04  0.50400001928E-02 0.  1.
    10030    2    1    2    0    0  0.00000000000E+00  0.00000000000E+00 -0.44685049024E+03  0.21941144889E+04  0.21481301240E+04 0.  0.
        3    1    3    3  502    0 -0.96946042758E+03  0.38147608172E+03  0.43391180995E+02  0.10427177597E+04  0.10100000352E+00 0. -1.
       -3    1    3    3    0  502  0.96946042758E+03 -0.38147608172E+03 -0.49024167123E+03  0.11513967292E+04  0.10100000352E+00 0.  1.
</event>
<event>
 5   0  0.9457742E-05  0.1726957E+04  0.7818609E-02  0.8746138E-01
        2   -1    0    0  501    0  0.00000000000E+00  0.00000000000E+00  0.10148449355E+04  0.10148449356E+04  0.25500000920E-02 0.  1.
       -2   -1    0    0    0  501  0.00000000000E+00  0.00000000000E+00 -0.73468850891E+03  0.73468850892E+03  0.25500000920E-02 0. -1.
    10030    2    1    2    0    0  0.00000000000E+00  0.00000000000E+00  0.28015642664E+03  0.17495334445E+04  0.17269567597E+04 0.  0.
        1    1    3    3  502    0 -0.51272532887E+03 -0.56518986738E+03 -0.26926859263E+03  0.80921716742E+03  0.50400001928E-02 0. -1.
       -1    1    3    3    0  502  0.51272532887E+03  0.56518986738E+03  0.54942501927E+03  0.94031627704E+03  0.50400001928E-02 0.  1.
</event>
<event>
 5   0  0.4174030E-05  0.2187120E+04  0.7818609E-02  0.8523808E-01
        1   -1    0    0  501    0  0.00000000000E+00  0.00000000000E+00  0.92536598352E+03  0.92536598354E+03  0.50400001928E-02 0. -1.
       -1   -1    0    0    0  501  0.00000000000E+00  0.00000000000E+00 -0.12923253019E+04  0.12923253019E+04  0.50400001928E-02 0.  1.
    10030    2    1    2    0    0  0.00000000000E+00  0.00000000000E+00 -0.36695931841E+03  0.22176912855E+04  0.21871203662E+04 0.  0.
        2    1    3    3  502    0 -0.10177179607E+04 -0.38839919963E+03 -0.85852570287E+02  0.10926913790E+04  0.25500000920E-02 0.  1.
       -2    1    3    3    0  502  0.10177179607E+04  0.38839919963E+03 -0.28110674812E+03  0.11249999065E+04  0.25500000920E-02 0. -1.
</event>
<event>
 5   0  0.4133418E-05  0.2172081E+04  0.7818609E-02  0.8530139E-01
       -1   -1    0    0    0  501  0.00000000000E+00  0.00000000000E+00  0.12227759469E+04  0.12227759469E+04  0.50400001928E-02 0. -1.
        1   -1    0    0  501    0  0.00000000000E+00  0.00000000000E+00 -0.96459566209E+03  0.96459566211E+03  0.50400001928E-02 0.  1.
    10030    2    1    2    0    0  0.00000000000E+00  0.00000000000E+00  0.25818028481E+03  0.21873716090E+04  0.21720813743E+04 0.  0.
        4    1    3    3  502    0 -0.33875121678E+03  0.18620685799E+03  0.11511520173E+04  0.12143220169E+04  0.12699999809E+01 0. -1.
       -4    1    3    3    0  502  0.33875121678E+03 -0.18620685799E+03 -0.89297173249E+03  0.97304959214E+03  0.12699999809E+01 0.  1.
</event>
<event>
 5   0  0.9442578E-05  0.2295419E+04  0.7818609E-02  0.8479729E-01
        2   -1    0    0  501    0  0.00000000000E+00  0.00000000000E+00  0.12951791789E+04  0.12951791789E+04  0.25500000920E-02 0. -1.
       -2   -1    0    0    0  501  0.00000000000E+00  0.00000000000E+00 -0.10170308961E+04  0.10170308961E+04  0.25500000920E-02 0.  1.
    10030    2    1    2    0    0  0.00000000000E+00  0.00000000000E+00  0.27814828286E+03  0.23122100750E+04  0.22954191260E+04 0.  0.
        4    1    3    3  502    0 -0.38667501932E+03 -0.34657379964E+03  0.11700868150E+04  0.12801311404E+04  0.12699999809E+01 0. -1.
       -4    1    3    3    0  502  0.38667501932E+03  0.34657379964E+03 -0.89193853215E+03  0.10320789346E+04  0.12699999809E+01 0.  1.
</event>
<event>
 5   0  0.9254673E-05  0.2258259E+04  0.7818609E-02  0.8494563E-01
       -2   -1    0    0    0  501  0.00000000000E+00  0.00000000000E+00  0.59555489443E+03  0.59555489443E+03  0.25500000920E-02 0.  1.
        2   -1    0    0  501    0  0.00000000000E+00  0.00000000000E+00 -0.21407491465E+04  0.21407491465E+04  0.25500000920E-02 0. -1.
    10030    2    1    2    0    0  0.00000000000E+00  0.00000000000E+00 -0.15451942521E+04  0.27363040410E+04  0.22582591808E+04 0.  0.
        2    1    3    3  502    0  0.19290700089E+03  0.14957386446E+03 -0.21083955440E+04  0.21224790275E+04  0.25500000920E-02 0. -1.
       -2    1    3    3    0  502 -0.19290700089E+03 -0.14957386446E+03  0.56320129195E+03  0.61382501349E+03  0.25500000920E-02 0.  1.
</event>
<event>
 5   0  0.4174075E-05  0.2162790E+04  0.7818609E-02  0.8534077E-01
        1   -1    0    0  501    0  0.00000000000E+00  0.00000000000E+00  0.81817419440E+03  0.81817419441E+03  0.50400001928E-02 0.  1.
       -1   -1    0    0    0  501  0.00000000000E+00  0.00000000000E+00 -0.14292978525E+04  0.14292978525E+04  0.50400001928E-02 0. -1.
    10030    2    1    2    0    0  0.00000000000E+00  0.00000000000E+00 -0.61112365812E+03  0.22474720469E+04  0.21627895127E+04 0.  0.
        5    1    3    3  502    0  0.45023544622E+03 -0.49259520820E+03  0.57865440537E+03  0.88330346259E+03  0.46999998093E+01 0.  1.
       -5    1    3    3    0  502 -0.45023544622E+03  0.49259520820E+03 -0.11897780635E+04  0.13641685844E+04  0.46999998093E+01 0. -1.
</event>
<event>
 5   0  0.9938176E-05  0.1811769E+04  0.7818609E-02  0.8700066E-01
       -2   -1    0    0    0  501  0.00000000000E+00  0.00000000000E+00  0.68736275484E+03  0.68736275484E+03  0.25500000920E-02 0. -1.
        2   -1    0    0  501    0  0.00000000000E+00  0.00000000000E+00 -0.11938765535E+04  0.11938765535E+04  0.25500000920E-02 0.  1.
    10030    2    1    2    0    0  0.00000000000E+00  0.00000000000E+00 -0.50651379863E+03  0.18812393083E+04  0.18117685026E+04 0.  0.
        5    1    3    3  502    0 -0.89321206546E+03 -0.21551652605E+02 -0.98157611749E+02  0.89885998596E+03  0.46999998093E+01 0. -1.
       -5    1    3    3    0  502  0.89321206546E+03  0.21551652605E+02 -0.40835618689E+03  0.98237932235E+03  0.46999998093E+01 0.  1.
</event>
<event>
 5   0  0.9254673E-05  0.2185788E+04  0.7818609E-02  0.8524367E-01
       -2   -1    0    0    0  501  0.00000000000E+00  0.00000000000E+00  0.59739164171E+03  0.59739164172E+03  0.25500000920E-02 0.  1.
        2   -1    0    0  501    0  0.00000000000E+00  0.00000000000E+00 -0.19993874342E+04  0.19993874342E+04  0.25500000920E-02 0. -1.
    10030    2    1    2    0    0  0.00000000000E+00  0.00000000000E+00 -0.14019957925E+04  0.25967790760E+04  0.21857880426E+04 0.  0.
        2    1    3    3  502    0 -0.61593219057E+03  0.22957321432E+03 -0.17382912639E+04  0.18584221378E+04  0.25500000920E-02 0. -1.
       -2    1    3    3    0  502  0.61593219057E+03 -0.22957321432E+03  0.33629547135E+03  0.73835693818E+03  0.25500000920E-02 0.  1.
</event>
<event>
 5   0  0.3283125E-05  0.2204860E+04  0.7818609E-02  0.8516408E-01
       -4   -1    0    0    0  501  0.00000000000E+00  0.00000000000E+00  0.61868073357E+03  0.61868203707E+03  0.12699999809E+01 0.  1.
        4   -1    0    0  501    0  0.00000000000E+00  0.00000000000E+00 -0.19644207911E+04  0.19644212016E+04  0.12699999809E+01 0. -1.
    10030    2    1    2    0    0  0.00000000000E+00  0.00000000000E+00 -0.13457400575E+04  0.25831032386E+04  0.22048596416E+04 0.  0.
        5    1    3    3  502    0 -0.11003202152E+04  0.66961180246E+02 -0.68678359144E+03  0.12988002799E+04  0.46999998093E+01 0. -1.
       -5    1    3    3    0  502  0.11003202152E+04 -0.66961180246E+02 -0.65895646604E+03  0.12843029587E+04  0.46999998093E+01 0.  1.
</event>
<event>
 5   0  0.4188865E-05  0.2176666E+04  0.7818609E-02  0.8528204E-01
        1   -1    0    0  501    0  0.00000000000E+00  0.00000000000E+00  0.12688185020E+04  0.12688185020E+04  0.50400001928E-02 0.  1.
       -1   -1    0    0    0  501  0.00000000000E+00  0.00000000000E+00 -0.93352070473E+03  0.93352070474E+03  0.50400001928E-02 0. -1.
    10030    2    1    2    0    0  0.00000000000E+00  0.00000000000E+00  0.33529779725E+03  0.22023392067E+04  0.21766656538E+04 0.  0.
        3    1    3    3  502    0  0.80309568947E+03  0.71150541791E+03  0.35218898794E+03  0.11292651325E+04  0.10100000352E+00 0.  1.
       -3    1    3    3    0  502 -0.80309568947E+03 -0.71150541791E+03 -0.16891190693E+02  0.10730740742E+04  0.10100000352E+00 0. -1.
</event>
<event>
 5   0  0.9457742E-05  0.2187072E+04  0.7818609E-02  0.8523828E-01
       -2   -1    0    0    0  501  0.00000000000E+00  0.00000000000E+00  0.16517382237E+04  0.16517382237E+04  0.25500000920E-02 0.  1.
        2   -1    0    0  501    0  0.00000000000E+00  0.00000000000E+00 -0.72397709663E+03  0.72397709663E+03  0.25500000920E-02 0. -1.
    10030    2    1    2    0    0  0.00000000000E+00  0.00000000000E+00  0.92776112711E+03  0.23757153204E+04  0.21870716894E+04 0.  0.
        1    1    3    3  502    0  0.95216300257E+03  0.50251521151E+03  0.25582755629E+03  0.11066090818E+04  0.50400001928E-02 0. -1.
       -1    1    3    3    0  502 -0.95216300257E+03 -0.50251521151E+03  0.67193357082E+03  0.12691062386E+04  0.50400001928E-02 0.  1.
</event>
<event>
 5   0  0.4188865E-05  0.2164623E+04  0.7818609E-02  0.8533299E-01
       -1   -1    0    0    0  501  0.00000000000E+00  0.00000000000E+00  0.11246932142E+04  0.11246932142E+04  0.50400001928E-02 0.  1.
        1   -1    0    0  501    0  0.00000000000E+00  0.00000000000E+00 -0.10415270399E+04  0.10415270399E+04  0.50400001928E-02 0. -1.
    10030    2    1    2    0    0  0.00000000000E+00  0.00000000000E+00  0.83166174306E+02  0.21662202540E+04  0.21646231950E+04 0.  0.
        3    1    3    3  502    0 -0.26635465795E+03 -0.93009594757E+03 -0.44392958627E+03  0.10644701796E+04  0.10100000352E+00 0. -1.
       -3    1    3    3    0  502  0.26635465795E+03  0.93009594757E+03  0.52709576058E+03  0.11017500744E+04  0.10100000352E+00 0.  1.
</event>
<event>
 5   0  0.9254673E-05  0.1737879E+04  0.7818609E-02  0.8740051E-01
        2   -1    0    0  501    0  0.00000000000E+00  0.00000000000E+00  0.64420518945E+03  0.64420518945E+03  0.25500000920E-02 0. -1.
       -2   -1    0    0    0  501  0.00000000000E+00  0.00000000000E+00 -0.11720731733E+04  0.11720731733E+04  0.25500000920E-02 0.  1.
    10030    2    1    2    0    0  0.00000000000E+00  0.00000000000E+00 -0.52786798389E+03  0.18162783628E+04  0.17378787307E+04 0.  0.
        2    1    3    3  502    0 -0.16653622687E+03  0.50507642492E+02  0.62580603863E+03  0.64955256508E+03  0.25500000920E-02 0. -1.
       -2    1    3    3    0  502  0.16653622687E+03 -0.50507642492E+02 -0.11536740225E+04  0.11667257977E+04  0.25500000920E-02 0.  1.
</event>
<event>
 5   0  0.9179618E-05  0.2233699E+04  0.7818609E-02  0.8504532E-01
        2   -1    0    0  501    0  0.00000000000E+00  0.00000000000E+00  0.76968292127E+03  0.76968292128E+03  0.25500000920E-02 0.  1.
       -2   -1    0    0    0  501  0.00000000000E+00  0.00000000000E+00 -0.16206053843E+04  0.16206053843E+04  0.25500000920E-02 0. -1.
    10030    2    1    2    0    0  0.00000000000E+00  0.00000000000E+00 -0.85092246298E+03  0.23902883055E+04  0.22336985351E+04 0.  0.
        3    1    3    3  502    0  0.80588022624E+02 -0.94654850018E+03 -0.10539169851E+04  0.14188690970E+04  0.10100000352E+00 0. -1.
       -3    1    3    3    0  502 -0.80588022624E+02  0.94654850018E+03  0.20299452212E+03  0.97141920858E+03  0.10100000352E+00 0.  1.
</event>
<event>
 5   0  0.9457742E-05  0.2297090E+04  0.7818609E-02  0.8479069E-01
       -2   -1    0    0    0  501  0.00000000000E+00  0.00000000000E+00  0.88157582887E+03  0.88157582888E+03  0.25500000920E-02 0. -1.
        2   -1    0    0  501    0  0.00000000000E+00  0.00000000000E+00 -0.14963607474E+04  0.14963607474E+04  0.25500000920E-02 0.  1.
    10030    2    1    2    0    0  0.00000000000E+00  0.00000000000E+00 -0.61478491848E+03  0.23779365762E+04  0.22970898686E+04 0.  0.
        1    1    3    3  502    0 -0.97189366750E+03 -0.57089575209E+02 -0.93819848746E+03  0.13520550737E+04  0.50400001928E-02 0.  1.
       -1    1    3    3    0  502  0.97189366750E+03  0.57089575209E+02  0.32341356898E+03  0.10258815025E+04  0.50400001928E-02 0. -1.
</event>
<event>
 5   0  0.9938176E-05  0.2165356E+04  0.7818609E-02  0.8532988E-01
       -2   -1    0    0    0  501  0.00000000000E+00  0.00000000000E+00  0.13470771043E+04  0.13470771043E+04  0.25500000920E-02 0.  1.
        2   -1    0    0  501    0  0.00000000000E+00  0.00000000000E+00 -0.87017378744E+03  0.87017378745E+03  0.25500000920E-02 0. -1.
    10030    2    1    2    0    0  0.00000000000E+00  0.00000000000E+00  0.47690331685E+03  0.22172508917E+04  0.21653555697E+04 0.  0.
        5    1    3    3  502    0 -0.43745341607E+03 -0.40788372527E+03  0.11625404239E+04  0.13073855406E+04  0.46999998093E+01 0.  1.
       -5    1    3    3    0  502  0.43745341607E+03  0.40788372527E+03 -0.68563710708E+03  0.90986535112E+03  0.46999998093E+01 0. -1.
</event>
<event>
 5   0  0.4133418E-05  0.2180900E+04  0.7818609E-02  0.8526420E-01
       -1   -1    0    0    0  501  0.00000000000E+00  0.00000000000E+00  0.12726669255E+04  0.12726669255E+04  0.50400001928E-02 0. -1.
        1   -1    0    0  501    0  0.00000000000E+00  0.00000000000E+00 -0.93432275142E+03  0.93432275144E+03  0.50400001928E-02 0.  1.
    10030    2    1    2    0    0  0.00000000000E+00  0.00000000000E+00  0.33834417405E+03  0.22069896769E+04  0.21809004227E+04 0.  0.
        4    1    3    3  502    0 -0.28288394799E+03  0.15582524625E+03 -0.88481269915E+03  0.94191292638E+03  0.12699999809E+01 0.  1.
       -4    1    3    3    0  502  0.28288394799E+03 -0.15582524625E+03  0.12231568732E+04  0.12650767505E+04  0.12699999809E+01 0. -1.
</event>
<event>
 5   0  0.4174075E-05  0.2174305E+04  0.7818609E-02  0.8529200E-01
        1   -1    0    0  501    0  0.00000000000E+00  0.00000000000E+00  0.29087479844E+04  0.29087479844E+04  0.50400001928E-02 0.  1.
       -1   -1    0    0    0  501  0.00000000000E+00  0.00000000000E+00 -0.40632614586E+03  0.40632614589E+03  0.50400001928E-02 0. -1.
    10030    2    1    2    0    0  0.00000000000E+00  0.00000000000E+00  0.25024218385E+04  0.33150741303E+04  0.21743048156E+04 0.  0.
        5    1    3    3  502    0 -0.28093450514E+03  0.10445054601E+04  0.10844546167E+04  0.15316591520E+04  0.46999998093E+01 0. -1.
       -5    1    3    3    0  502  0.28093450514E+03 -0.10445054601E+04  0.14179672219E+04  0.17834149783E+04  0.46999998093E+01 0.  1.
</event>
<event>
 5   0  0.9442578E-05  0.2120961E+04  0.7818609E-02  0.8552066E-01
       -2   -1    0    0    0  501  0.00000000000E+00  0.00000000000E+00  0.81948557465E+03  0.81948557465E+03  0.25500000920E-02 0.  1.
        2   -1    0    0  501    0  0.00000000000E+00  0.00000000000E+00 -0.13723473506E+04  0.13723473506E+04  0.25500000920E-02 0. -1.
    10030    2    1    2    0    0  0.00000000000E+00  0.00000000000E+00 -0.55286177594E+03  0.21918329252E+04  0.21209609683E+04 0.  0.
        4    1    3    3  502    0 -0.23625914064E+03  0.87131069220E+03 -0.85145604735E+03  0.12409591925E+04  0.12699999809E+01 0. -1.
       -4    1    3    3    0  502  0.23625914064E+03 -0.87131069220E+03  0.29859427141E+03  0.95087373278E+03  0.12699999809E+01 0.  1.
</event>
<event>
 5   0  0.4133418E-05  0.2189858E+04  0.7818609E-02  0.8522661E-01
       -1   -1    0    0    0  501  0.00000000000E+00  0.00000000000E+00  0.10867872455E+04  0.10867872455E+04  0.50400001928E-02 0. -1.
        1   -1    0    0  501    0  0.00000000000E+00  0.00000000000E+00 -0.11031318113E+04  0.11031318113E+04  0.50400001928E-02 0.  1.
    10030    2    1    2    0    0  0.00000000000E+00  0.00000000000E+00 -0.16344565812E+02  0.21899190568E+04  0.21898580617E+04 0.  0.
        4    1    3    3  502    0  0.49309012450E+03 -0.42352930430E+03 -0.88930580063E+03  0.11015359106E+04  0.12699999809E+01 0.  1.
       -4    1    3    3    0  502 -0.49309012450E+03  0.42352930430E+03  0.87296123481E+03  0.10883831462E+04  0.12699999809E+01 0. -1.
</event>
<event>
 5   0  0.4063293E-05  0.2283499E+04  0.7818609E-02  0.8484456E-01
       -1   -1    0    0    0  501  0.00000000000E+00  0.00000000000E+00  0.85101713314E+03  0.85101713315E+03  0.50400001928E-02 0.  1.
        1   -1    0    0  501    0  0.00000000000E+00  0.00000000000E+00 -0.15318043644E+04  0.15318043644E+04  0.50400001928E-02 0. -1.
    10030    2    1    2    0    0  0.00000000000E+00  0.00000000000E+00 -0.68078723130E+03  0.23828214976E+04  0.22834988581E+04 0.  0.
        1    1    3    3  502    0  0.93368326528E+03  0.59342759933E+03 -0.63493129032E+03  0.12755620326E+04  0.50400001928E-02 0. -1.
       -1    1    3    3    0  502 -0.93368326528E+03 -0.59342759933E+03 -0.45855940981E+02  0.11072594650E+04  0.50400001928E-02 0.  1.
</event>
<event>
 5   0  0.9457742E-05  0.2207081E+04  0.7818609E-02  0.8515487E-01
       -2   -1    0    0    0  501  0.00000000000E+00  0.00000000000E+00  0.11964006374E+04  0.11964006374E+04  0.25500000920E-02 0. -1.
        2   -1    0    0  501    0  0.00000000000E+00  0.00000000000E+00 -0.10178879421E+04  0.10178879421E+04  0.25500000920E-02 0.  1.
    10030    2    1    2    0    0  0.00000000000E+00  0.00000000000E+00  0.17851269528E+03  0.22142885795E+04  0.22070811338E+04 0.  0.
        1    1    3    3  502    0  0.60300380944E+03  0.41927601000E+03  0.91559392406E+03  0.11737624123E+04  0.50400001928E-02 0. -1.
       -1    1    3    3    0  502 -0.60300380944E+03 -0.41927601000E+03 -0.73708122879E+03  0.10405261672E+04  0.50400001928E-02 0.  1.
</event>
<event>
 5   0  0.4174075E-05  0.2198803E+04  0.7818609E-02  0.8518927E-01
        1   -1    0    0  501    0  0.00000000000E+00  0.00000000000E+00  0.22683068783E+04  0.22683068783E+04  0.50400001928E-02 0. -1.
       -1   -1    0    0    0  501  0.00000000000E+00  0.00000000000E+00 -0.53285707125E+03  0.53285707128E+03  0.50400001928E-02 0.  1.
    10030    2    1    2    0    0  0.00000000000E+00  0.00000000000E+00  0.17354498070E+04  0.28011639496E+04  0.21988027287E+04 0.  0.
        5    1    3    3  502    0  0.51944520455E+03  0.33305096749E+03 -0.29143977052E+03  0.68242618452E+03  0.46999998093E+01 0.  1.
       -5    1    3    3    0  502 -0.51944520455E+03 -0.33305096749E+03  0.20268895775E+04  0.21187377650E+04  0.46999998093E+01 0. -1.
</event>
<event>
 5   0  0.9442578E-05  0.2193078E+04  0.7818609E-02  0.8521315E-01
       -2   -1    0    0    0  501  0.00000000000E+00  0.00000000000E+00  0.62599022622E+03  0.62599022622E+03  0.25500000920E-02 0.  1.
        2   -1    0    0  501    0  0.00000000000E+00  0.00000000000E+00 -0.19207926568E+04  0.19207926568E+04  0.25500000920E-02 0. -1.
    10030    2    1    2    0    0  0.00000000000E+00  0.00000000000E+00 -0.12948024306E+04  0.25467828830E+04  0.21930776819E+04 0.  0.
        4    1    3    3  502    0 -0.41184678799E+03  0.86802397397E+03 -0.12611392402E+04  0.15854201942E+04  0.12699999809E+01 0. -1.
       -4    1    3    3    0  502  0.41184678799E+03 -0.86802397397E+03 -0.33663190403E+02  0.96136268882E+03  0.12699999809E+01 0.  1.
</event>
<event>
 5   0  0.9457742E-05  0.2163896E+04  0.7818609E-02  0.8533607E-01
        2   -1    0    0  501    0  0.00000000000E+00  0.00000000000E+00  0.57369981059E+03  0.57369981059E+03  0.25500000920E-02 0. -1.
       -2   -1    0    0    0  501  0.00000000000E+00  0.00000000000E+00 -0.20404604462E+04  0.20404604462E+04  0.25500000920E-02 0.  1.
    10030    2    1    2    0    0  0.00000000000E+00  0.00000000000E+00 -0.14667606356E+04  0.26141602567E+04  0.21638962743E+04 0.  0.
        1    1    3    3  502    0  0.23991047544E+03 -0.10347763329E+04 -0.98182422573E+03  0.14464777584E+04  0.50400001928E-02 0.  1.
       -1    1    3    3    0  502 -0.23991047544E+03  0.10347763329E+04 -0.48493640984E+03  0.11676824983E+04  0.50400001928E-02 0. -1.
</event>
<event>
 5   0  0.9179618E-05  0.2185916E+04  0.7818609E-02  0.8524313E-01
        2   -1    0    0  501    0  0.00000000000E+00  0.00000000000E+00  0.14227838394E+04  0.14227838394E+04  0.25500000920E-02 0.  1.
       -2   -1    0    0    0  501  0.00000000000E+00  0.00000000000E+00 -0.83959165955E+03  0.83959165955E+03  0.25500000920E-02 0. -1.
    10030    2    1    2    0    0  0.00000000000E+00  0.00000000000E+00  0.58319217981E+03  0.22623754989E+04  0.21859162334E+04 0.  0.
        3    1    3    3  502    0 -0.16028978977E+03  0.66149999637E+03  0.11766581536E+04  0.13593378839E+04  0.10100000352E+00 0.  1.
       -3    1    3    3    0  502  0.16028978977E+03 -0.66149999637E+03 -0.59346597380E+03  0.90303761503E+03  0.10100000352E+00 0. -1.
</event>
<event>
 5   0  0.9254673E-05  0.2248815E+04  0.7818609E-02  0.8498380E-01
       -2   -1    0    0    0  501  0.00000000000E+00  0.00000000000E+00  0.14630476695E+04  0.14630476696E+04  0.25500000920E-02 0. -1.
        2   -1    0    0  501    0  0.00000000000E+00  0.00000000000E+00 -0.86415005158E+03  0.86415005158E+03  0.25500000920E-02 0.  1.
    10030    2    1    2    0    0  0.00000000000E+00  0.00000000000E+00  0.59889761797E+03  0.23271977211E+04  0.22488154385E+04 0.  0.
        2    1    3    3  502    0 -0.82490395947E+03 -0.45113236758E+03 -0.33873520687E+03  0.99936404568E+03  0.25500000920E-02 0.  1.
       -2    1    3    3    0  502  0.82490395947E+03  0.45113236758E+03  0.93763282485E+03  0.13278336754E+04  0.25500000920E-02 0. -1.
</event>
<event>
 5   0  0.9457742E-05  0.2176764E+04  0.7818609E-02  0.8528162E-01
        2   -1    0    0  501    0  0.00000000000E+00  0.00000000000E+00  0.81907101325E+03  0.81907101326E+03  0.25500000920E-02 0. -1.
       -2   -1    0    0    0  501  0.00000000000E+00  0.00000000000E+00 -0.14462419913E+04  0.14462419913E+04  0.25500000920E-02 0.  1.
    10030    2    1    2    0    0  0.00000000000E+00  0.00000000000E+00 -0.62717097800E+03  0.22653130045E+04  0.21767635546E+04 0.  0.
        1    1    3    3  502    0 -0.21383512909E+03  0.61433724732E+03 -0.12216873586E+04  0.13840721506E+04  0.50400001928E-02 0.  1.
       -1    1    3    3    0  502  0.21383512909E+03 -0.61433724732E+03  0.59451638056E+03  0.88124085394E+03  0.50400001928E-02 0. -1.
</event>
<event>
 5   0  0.9938176E-05  0.2169420E+04  0.7818609E-02  0.8531265E-01
        2   -1    0    0  501    0  0.00000000000E+00  0.00000000000E+00  0.83849767797E+03  0.83849767798E+03  0.25500000920E-02 0. -1.
       -2   -1    0    0    0  501  0.00000000000E+00  0.00000000000E+00 -0.14032191813E+04  0.14032191813E+04  0.25500000920E-02 0.  1.
    10030    2    1    2    0    0  0.00000000000E+00  0.00000000000E+00 -0.56472150333E+03  0.22417168593E+04  0.21694202223E+04 0.  0.
        5    1    3    3  502    0 -0.80408529851E+03 -0.24389308792E+03  0.42645593183E+03  0.94229706431E+03  0.46999998093E+01 0. -1.
       -5    1    3    3    0  502  0.80408529851E+03  0.24389308792E+03 -0.99117743516E+03  0.12994197950E+04  0.46999998093E+01 0.  1.
</event>
<event>
 5   0  0.9254673E-05  0.2300147E+04  0.7818609E-02  0.8477863E-01
        2   -1    0    0  501    0  0.00000000000E+00  0.00000000000E+00  0.10009264131E+04  0.10009264131E+04  0.25500000920E-02 0. -1.
       -2   -1    0    0    0  501  0.00000000000E+00  0.00000000000E+00 -0.13214447053E+04  0.13214447053E+04  0.25500000920E-02 0.  1.
    10030    2    1    2    0    0  0.00000000000E+00  0.00000000000E+00 -0.32051829219E+03  0.23223711184E+04  0.23001468727E+04 0.  0.
        2    1    3    3  502    0 -0.43768578590E+03 -0.38079104984E+03 -0.11628786418E+04  0.12995604666E+04  0.25500000920E-02 0.  1.
       -2    1    3    3    0  502  0.43768578590E+03  0.38079104984E+03  0.84236034962E+03  0.10228106518E+04  0.25500000920E-02 0. -1.
</event>
<event>
 5   0  0.4188865E-05  0.2285697E+04  0.7818609E-02  0.8483582E-01
        1   -1    0    0  501    0  0.00000000000E+00  0.00000000000E+00  0.15803294466E+04  0.15803294466E+04  0.50400001928E-02 0. -1.
       -1   -1    0    0    0  501  0.00000000000E+00  0.00000000000E+00 -0.82647515609E+03  0.82647515611E+03  0.50400001928E-02 0.  1.
    10030    2    1    2    0    0  0.00000000000E+00  0.00000000000E+00  0.75385429049E+03  0.24068046027E+04  0.22856972906E+04 0.  0.
        3    1    3    3  502    0 -0.96307007562E+03 -0.50477804782E+03  0.64348094100E+01  0.10873574689E+04  0.10100000352E+00 0.  1.
       -3    1    3    3    0  502  0.96307007562E+03  0.50477804782E+03  0.74741948108E+03  0.13194471338E+04  0.10100000352E+00 0. -1.
</event>
<event>
 5   0  0.4063293E-05  0.2182707E+04  0.7818609E-02  0.8525661E-01
        1   -1    0    0  501    0  0.00000000000E+00  0.00000000000E+00  0.13329469470E+04  0.13329469470E+04  0.50400001928E-02 0.  1.
       -1   -1    0    0    0  501  0.00000000000E+00  0.00000000000E+00 -0.89354810492E+03  0.89354810493E+03  0.50400001928E-02 0. -1.
    10030    2    1    2    0    0  0.00000000000E+00  0.00000000000E+00  0.43939884207E+03  0.22264950519E+04  0.21827067769E+04 0.  0.
        1    1    3    3  502    0  0.62845950669E+03 -0.70978304692E+03  0.77119231757E+03  0.12220846599E+04  0.50400001928E-02 0.  1.
       -1    1    3    3    0  502 -0.62845950669E+03  0.70978304692E+03 -0.33179347550E+03  0.10044103920E+04  0.50400001928E-02 0. -1.
</event>
<event>
 5   0  0.9254673E-05  0.1952247E+04  0.7818609E-02  0.8629278E-01
        2   -1    0    0  501    0  0.00000000000E+00  0.00000000000E+00  0.12958776749E+04  0.12958776749E+04  0.25500000920E-02 0.  1.
       -2   -1    0    0    0  501  0.00000000000E+00  0.00000000000E+00 -0.73526805243E+03  0.73526805243E+03  0.25500000920E-02 0. -1.
    10030    2    1    2    0    0  0.00000000000E+00  0.00000000000E+00  0.56060962252E+03  0.20311457274E+04  0.19522473760E+04 0.  0.
        2    1    3    3  502    0 -0.23523727325E+03  0.31362720794E+03 -0.64975723995E+03  0.75886960089E+03  0.25500000920E-02 0. -1.
       -2    1    3    3    0  502  0.23523727325E+03 -0.31362720794E+03  0.12103668625E+04  0.12722761265E+04  0.25500000920E-02 0.  1.
</event>
<event>
 5   0  0.9938176E-05  0.2244296E+04  0.7818609E-02  0.8500214E-01
       -2   -1    0    0    0  501  0.00000000000E+00  0.00000000000E+00  0.88146635068E+03  0.88146635068E+03  0.25500000920E-02 0. -1.
        2   -1    0    0  501    0  0.00000000000E+00  0.00000000000E+00 -0.14285476497E+04  0.14285476497E+04  0.25500000920E-02 0.  1.
    10030    2    1    2    0    0  0.00000000000E+00  0.00000000000E+00 -0.54708129906E+03  0.23100140004E+04  0.22442964899E+04 0.  0.
        5    1    3    3  502    0  0.37510316833E+02 -0.38962495556E+03 -0.13559910650E+04  0.14113640523E+04  0.46999998093E+01 0.  1.
       -5    1    3    3    0  502 -0.37510316833E+02  0.38962495556E+03  0.80890976591E+03  0.89864994811E+03  0.46999998093E+01 0. -1.
</event>
<event>
 5   0  0.9938176E-05  0.2191984E+04  0.7818609E-02  0.8521772E-01
       -2   -1    0    0    0  501  0.00000000000E+00  0.00000000000E+00  0.17291381892E+04  0.17291381892E+04  0.25500000920E-02 0.  1.
        2   -1    0    0  501    0  0.00000000000E+00  0.00000000000E+00 -0.69468048800E+03  0.69468048800E+03  0.25500000920E-02 0. -1.
    10030    2    1    2    0    0  0.00000000000E+00  0.00000000000E+00  0.10344577012E+04  0.24238186772E+04  0.21919840885E+04 0.  0.
        5    1    3    3  502    0 -0.65537992518E+03  0.79228588191E+03  0.97712868775E+02  0.10328647829E+04  0.46999998093E+01 0.  1.
       -5    1    3    3    0  502  0.65537992518E+03 -0.79228588191E+03  0.93674483242E+03  0.13909538943E+04  0.46999998093E+01 0. -1.
</event>
<event>
 5   0  0.4133418E-05  0.2210759E+04  0.7818609E-02  0.8513963E-01
        1   -1    0    0  501    0  0.00000000000E+00  0.00000000000E+00  0.14933259404E+04  0.14933259404E+04  0.50400001928E-02 0. -1.
       -1   -1    0    0    0  501  0.00000000000E+00  0.00000000000E+00 -0.81821661804E+03  0.81821661806E+03  0.50400001928E-02 0.  1.
    10030    2    1    2    0    0  0.00000000000E+00  0.00000000000E+00  0.67510932231E+03  0.23115425584E+04  0.22107592366E+04 0.  0.
        4    1    3    3  502    0  0.20960602788E+03  0.43966238968E+03  0.13750731081E+04  0.14587890078E+04  0.12699999809E+01 0. -1.
       -4    1    3    3    0  502 -0.20960602788E+03 -0.43966238968E+03 -0.69996378576E+03  0.85275355062E+03  0.12699999809E+01 0.  1.
</event>
<event>
 5   0  0.4174075E-05  0.2204782E+04  0.7818609E-02  0.8516440E-01
        1   -1    0    0  501    0  0.00000000000E+00  0.00000000000E+00  0.10576236293E+04  0.10576236293E+04  0.50400001928E-02 0. -1.
       -1   -1    0    0    0  501  0.00000000000E+00  0.00000000000E+00 -0.11490537110E+04  0.11490537110E+04  0.50400001928E-02 0.  1.
    10030    2    1    2    0    0  0.00000000000E+00  0.00000000000E+00 -0.91430081676E+02  0.22066773402E+04  0.22047823984E+04 0.  0.
        5    1    3    3  502    0 -0.23445275672E+03 -0.49832515855E+03 -0.10014955926E+04  0.11429398806E+04  0.46999998093E+01 0.  1.
       -5    1    3    3    0  502  0.23445275672E+03  0.49832515855E+03  0.91006551093E+03  0.10637374596E+04  0.46999998093E+01 0. -1.
</event>
<event>
 5   0  0.9457742E-05  0.2210463E+04  0.7818609E-02  0.8514086E-01
        2   -1    0    0  501    0  0.00000000000E+00  0.00000000000E+00  0.16420884268E+04  0.16420884268E+04  0.25500000920E-02 0.  1.
       -2   -1    0    0    0  501  0.00000000000E+00  0.00000000000E+00 -0.74389221780E+03  0.74389221780E+03  0.25500000920E-02 0. -1.
    10030    2    1    2    0    0  0.00000000000E+00  0.00000000000E+00  0.89819620901E+03  0.23859806446E+04  0.22104631204E+04 0.  0.
        1    1    3    3  502    0 -0.61118842232E+03 -0.90793654299E+03  0.28314800974E+03  0.11305188407E+04  0.50400001928E-02 0.  1.
       -1    1    3    3    0  502  0.61118842232E+03  0.90793654299E+03  0.61504819927E+03  0.12554618039E+04  0.50400001928E-02 0. -1.
</event>
<event>
 5   0  0.9442578E-05  0.2588635E+04  0.7818609E-02  0.8372072E-01
        2   -1    0    0  501    0  0.00000000000E+00  0.00000000000E+00  0.12313679222E+04  0.12313679222E+04  0.25500000920E-02 0.  1.
       -2   -1    0    0    0  501  0.00000000000E+00  0.00000000000E+00 -0.13604853874E+04  0.13604853874E+04  0.25500000920E-02 0. -1.
    10030    2    1    2    0    0  0.00000000000E+00  0.00000000000E+00 -0.12911746515E+03  0.25918533096E+04  0.25886352116E+04 0.  0.
        4    1    3    3  502    0 -0.68480258473E+03  0.95352101321E+03 -0.61030473131E+03  0.13231138956E+04  0.12699999809E+01 0.  1.
       -4    1    3    3    0  502  0.68480258473E+03 -0.95352101321E+03  0.48118726616E+03  0.12687394140E+04  0.12699999809E+01 0. -1.
</event>
<event>
 5   0  0.9254673E-05  0.2211211E+04  0.7818609E-02  0.8513776E-01
       -2   -1    0    0    0  501  0.00000000000E+00  0.00000000000E+00  0.74203910265E+03  0.74203910265E+03  0.25500000920E-02 0. -1.
        2   -1    0    0  501    0  0.00000000000E+00  0.00000000000E+00 -0.16473034740E+04  0.16473034740E+04  0.25500000920E-02 0.  1.
    10030    2    1    2    0    0  0.00000000000E+00  0.00000000000E+00 -0.90526437137E+03  0.23893425767E+04  0.22112110633E+04 0.  0.
        2    1    3    3  502    0  0.60113798129E+03 -0.28037346043E+03  0.50315050005E+03  0.83254824219E+03  0.25500000920E-02 0. -1.
       -2    1    3    3    0  502 -0.60113798129E+03  0.28037346043E+03 -0.14084148714E+04  0.15567943345E+04  0.25500000920E-02 0.  1.
</event>
<event>
 5   0  0.9254673E-05  0.2187307E+04  0.7818609E-02  0.8523730E-01
       -2   -1    0    0    0  501  0.00000000000E+00  0.00000000000E+00  0.76092619143E+03  0.76092619143E+03  0.25500000920E-02 0. -1.
        2   -1    0    0  501    0  0.00000000000E+00  0.00000000000E+00 -0.15718716148E+04  0.15718716148E+04  0.25500000920E-02 0.  1.
    10030    2    1    2    0    0  0.00000000000E+00  0.00000000000E+00 -0.81094542333E+03  0.23327978062E+04  0.21873072772E+04 0.  0.
        2    1    3    3  502    0  0.10548991952E+04 -0.23898331003E+03 -0.57794829203E+03  0.12263562137E+04  0.25500000920E-02 0. -1.
       -2    1    3    3    0  502 -0.10548991952E+04  0.23898331003E+03 -0.23299713130E+03  0.11064415925E+04  0.25500000920E-02 0.  1.
</event>
<event>
 5   0  0.4174030E-05  0.2203720E+04  0.7818609E-02  0.8516882E-01
       -1   -1    0    0    0  501  0.00000000000E+00  0.00000000000E+00  0.13242690311E+04  0.13242690311E+04  0.50400001928E-02 0.  1.
        1   -1    0    0  501    0  0.00000000000E+00  0.00000000000E+00 -0.91680388363E+03  0.91680388364E+03  0.50400001928E-02 0. -1.
    10030    2    1    2    0    0  0.00000000000E+00  0.00000000000E+00  0.40746514749E+03  0.22410729148E+04  0.22037195745E+04 0.  0.
        2    1    3    3  502    0  0.98702048772E+03 -0.14810775347E+03  0.67849652588E+03  0.12068566135E+04  0.25500000920E-02 0.  1.
       -2    1    3    3    0  502 -0.98702048772E+03  0.14810775347E+03 -0.27103137838E+03  0.10342163013E+04  0.25500000920E-02 0. -1.
</event>
<event>
 5   0  0.4188865E-05  0.2164188E+04  0.7818609E-02  0.8533483E-01
        1   -1    0    0  501    0  0.00000000000E+00  0.00000000000E+00  0.94096889792E+03  0.94096889793E+03  0.50400001928E-02 0.  1.
       -1   -1    0    0    0  501  0.00000000000E+00  0.00000000000E+00 -0.12443852958E+04  0.12443852958E+04  0.50400001928E-02 0. -1.
    10030    2    1    2    0    0  0.00000000000E+00  0.00000000000E+00 -0.30341639784E+03  0.21853541937E+04  0.21641884025E+04 0.  0.
        3    1    3    3  502    0  0.32565179147E+03 -0.86935390133E+03 -0.71311551497E+03  0.11706233566E+04  0.10100000352E+00 0. -1.
       -3    1    3    3    0  502 -0.32565179147E+03  0.86935390133E+03  0.40969911714E+03  0.10147308371E+04  0.10100000352E+00 0.  1.
</event>
<event>
 5   0  0.9938176E-05  0.2248610E+04  0.7818609E-02  0.8498464E-01
        2   -1    0    0  501    0  0.00000000000E+00  0.00000000000E+00  0.19157550970E+04  0.19157550970E+04  0.25500000920E-02 0. -1.
       -2   -1    0    0    0  501  0.00000000000E+00  0.00000000000E+00 -0.65982418437E+03  0.65982418437E+03  0.25500000920E-02 0.  1.
    10030    2    1    2    0    0  0.00000000000E+00  0.00000000000E+00  0.12559309126E+04  0.25755792813E+04  0.22486098321E+04 0.  0.
        5    1    3    3  502    0 -0.88560433018E+03 -0.69077604621E+03  0.56986621381E+03  0.12594586803E+04  0.46999998093E+01 0.  1.
       -5    1    3    3    0  502  0.88560433018E+03  0.69077604621E+03  0.68606469879E+03  0.13161206011E+04  0.46999998093E+01 0. -1.
</event>
<event>
 5   0  0.9457742E-05  0.2177275E+04  0.7818609E-02  0.8527947E-01
       -2   -1    0    0    0  501  0.00000000000E+00  0.00000000000E+00  0.99241127374E+03  0.99241127374E+03  0.25500000920E-02 0. -1.
        2   -1    0    0  501    0  0.00000000000E+00  0.00000000000E+00 -0.11941942533E+04  0.11941942533E+04  0.25500000920E-02 0.  1.
    10030    2    1    2    0    0  0.00000000000E+00  0.00000000000E+00 -0.20178297955E+03  0.21866055270E+04  0.21772752146E+04 0.  0.
        1    1    3    3  502    0  0.44520297581E+03  0.82690578372E+02 -0.10951280784E+04  0.11850522898E+04  0.50400001928E-02 0.  1.
       -1    1    3    3    0  502 -0.44520297581E+03 -0.82690578372E+02  0.89334509883E+03  0.10015532373E+04  0.50400001928E-02 0. -1.
</event>
<event>
 5   0  0.4133418E-05  0.2206731E+04  0.7818609E-02  0.8515632E-01
       -1   -1    0    0    0  501  0.00000000000E+00  0.00000000000E+00  0.91443161611E+03  0.91443161613E+03  0.50400001928E-02 0.  1.
        1   -1    0    0  501    0  0.00000000000E+00  0.00000000000E+00 -0.13313358655E+04  0.13313358655E+04  0.50400001928E-02 0. -1.
    10030    2    1    2    0    0  0.00000000000E+00  0.00000000000E+00 -0.41690424941E+03  0.22457674817E+04  0.22067311636E+04 0.  0.
        4    1    3    3  502    0  0.80241693717E+03 -0.43117555595E+02  0.56101947151E+03  0.98003904258E+03  0.12699999809E+01 0.  1.
       -4    1    3    3    0  502 -0.80241693717E+03  0.43117555595E+02 -0.97792372092E+03  0.12657284391E+04  0.12699999809E+01 0. -1.
</event>
<event>
 5   0  0.4188865E-05  0.2216208E+04  0.7818609E-02  0.8511712E-01
       -1   -1    0    0    0  501  0.00000000000E+00  0.00000000000E+00  0.10557485104E+04  0.10557485104E+04  0.50400001928E-02 0.  1.
        1   -1    0    0  501    0  0.00000000000E+00  0.00000000000E+00 -0.11630557684E+04  0.11630557684E+04  0.50400001928E-02 0. -1.
    10030    2    1    2    0    0  0.00000000000E+00  0.00000000000E+00 -0.10730725797E+03  0.22188042789E+04  0.22162079280E+04 0.  0.
        3    1    3    3  502    0  0.28350815460E+03 -0.26273855327E+03 -0.10933720515E+04  0.11596856791E+04  0.10100000352E+00 0. -1.
       -3    1    3    3    0  502 -0.28350815460E+03  0.26273855327E+03  0.98606479354E+03  0.10591185998E+04  0.10100000352E+00 0.  1.
</event>
<event>
 5   0  0.9938176E-05  0.2178856E+04  0.7818609E-02  0.8527281E-01
        2   -1    0    0  501    0  0.00000000000E+00  0.00000000000E+00  0.76785171706E+03  0.76785171706E+03  0.25500000920E-02 0.  1.
       -2   -1    0    0    0  501  0.00000000000E+00  0.00000000000E+00 -0.15456801463E+04  0.15456801463E+04  0.25500000920E-02 0. -1.
    10030    2    1    2    0    0  0.00000000000E+00  0.00000000000E+00 -0.77782842928E+03  0.23135318634E+04  0.21788558047E+04 0.  0.
        5    1    3    3  502    0  0.79410527198E+03 -0.45192407622E+03  0.24104684812E+03  0.94496784424E+03  0.46999998093E+01 0.  1.
       -5    1    3    3    0  502 -0.79410527198E+03  0.45192407622E+03 -0.10188752774E+04  0.13685640192E+04  0.46999998093E+01 0. -1.
</event>
<event>
 5   0  0.3283125E-05  0.2203665E+04  0.7818609E-02  0.8516904E-01
       -4   -1    0    0    0  501  0.00000000000E+00  0.00000000000E+00  0.14841649718E+04  0.14841655151E+04  0.12699999809E+01 0. -1.
        4   -1    0    0  501    0  0.00000000000E+00  0.00000000000E+00 -0.81799072008E+03  0.81799170597E+03  0.12699999809E+01 0.  1.
    10030    2    1    2    0    0  0.00000000000E+00  0.00000000000E+00  0.66617425168E+03  0.23021572211E+04  0.22036650692E+04 0.  0.
        4    1    3    3  502    0  0.59137780327E+03  0.44504250722E+03  0.11858055574E+04  0.13978293788E+04  0.12699999809E+01 0. -1.
       -4    1    3    3    0  502 -0.59137780327E+03 -0.44504250722E+03 -0.51963130575E+03  0.90432784224E+03  0.12699999809E+01 0.  1.
</event>
<event>
 5   0  0.9254673E-05  0.2216760E+04  0.7818609E-02  0.8511484E-01
        2   -1    0    0  501    0  0.00000000000E+00  0.00000000000E+00  0.14460923724E+04  0.14460923724E+04  0.25500000920E-02 0. -1.
       -2   -1    0    0    0  501  0.00000000000E+00  0.00000000000E+00 -0.84953545904E+03  0.84953545904E+03  0.25500000920E-02 0.  1.
    10030    2    1    2    0    0  0.00000000000E+00  0.00000000000E+00  0.59655691338E+03  0.22956278315E+04  0.22167604719E+04 0.  0.
        2    1    3    3  502    0  0.19620381708E+03 -0.47952262835E+03 -0.71641276691E+03  0.88412959544E+03  0.25500000920E-02 0.  1.
       -2    1    3    3    0  502 -0.19620381708E+03  0.47952262835E+03  0.13129696803E+04  0.14114982360E+04  0.25500000920E-02 0. -1.
</event>
<event>
 5   0  0.9442578E-05  0.2194848E+04  0.7818609E-02  0.8520575E-01
        2   -1    0    0  501    0  0.00000000000E+00  0.00000000000E+00  0.88335230313E+03  0.88335230313E+03  0.25500000920E-02 0. -1.
       -2   -1    0    0    0  501  0.00000000000E+00  0.00000000000E+00 -0.13633740290E+04  0.13633740290E+04  0.25500000920E-02 0.  1.
    10030    2    1    2    0    0  0.00000000000E+00  0.00000000000E+00 -0.48002172582E+03  0.22467263321E+04  0.21948481392E+04 0.  0.
        4    1    3    3  502    0 -0.11488137436E+03  0.68671289560E+03 -0.11083330705E+04  0.13088835468E+04  0.12699999809E+01 0.  1.
       -4    1    3    3    0  502  0.11488137436E+03 -0.68671289560E+03  0.62831134464E+03  0.93784278526E+03  0.12699999809E+01 0. -1.
</event>
<event>
 5   0  0.4063293E-05  0.2186546E+04  0.7818609E-02  0.8524049E-01
       -1   -1    0    0    0  501  0.00000000000E+00  0.00000000000E+00  0.14659783677E+04  0.14659783678E+04  0.50400001928E-02 0.  1.
        1   -1    0    0  501    0  0.00000000000E+00  0.00000000000E+00 -0.81532285446E+03  0.81532285448E+03  0.50400001928E-02 0. -1.
    10030    2    1    2    0    0  0.00000000000E+00  0.00000000000E+00  0.65065551328E+03  0.22813012222E+04  0.21865458307E+04 0.  0.
        1    1    3    3  502    0 -0.15733409349E+03  0.14604966246E+03 -0.79311694220E+03  0.82165625715E+03  0.50400001928E-02 0. -1.
       -1    1    3    3    0  502  0.15733409349E+03 -0.14604966246E+03  0.14437724555E+04  0.14596449651E+04  0.50400001928E-02 0.  1.
</event>
<event>
 5   0  0.4063293E-05  0.2246283E+04  0.7818609E-02  0.8499407E-01
       -1   -1    0    0    0  501  0.00000000000E+00  0.00000000000E+00  0.58291140083E+03  0.58291140085E+03  0.50400001928E-02 0. -1.
        1   -1    0    0  501    0  0.00000000000E+00  0.00000000000E+00 -0.21640452689E+04  0.21640452689E+04  0.50400001928E-02 0.  1.
    10030    2    1    2    0    0  0.00000000000E+00  0.00000000000E+00 -0.15811338680E+04  0.27469566697E+04  0.22462828488E+04 0.  0.
        1    1    3    3  502    0 -0.69411014749E+03 -0.75640550562E+03 -0.13476311806E+04  0.16941215968E+04  0.50400001928E-02 0.  1.
       -1    1    3    3    0  502  0.69411014749E+03  0.75640550562E+03 -0.23350268748E+03  0.10528350730E+04  0.50400001928E-02 0. -1.
</event>
<event>
 5   0  0.4188865E-05  0.2286593E+04  0.7818609E-02  0.8483226E-01
        1   -1    0    0  501    0  0.00000000000E+00  0.00000000000E+00  0.11271067423E+04  0.11271067424E+04  0.50400001928E-02 0. -1.
       -1   -1    0    0    0  501  0.00000000000E+00  0.00000000000E+00 -0.11597193073E+04  0.11597193073E+04  0.50400001928E-02 0.  1.
    10030    2    1    2    0    0  0.00000000000E+00  0.00000000000E+00 -0.32612564928E+02  0.22868260496E+04  0.22865934929E+04 0.  0.
        3    1    3    3  502    0  0.57205664605E+03 -0.14148387164E+03 -0.99613085973E+03  0.11573863625E+04  0.10100000352E+00 0.  1.
       -3    1    3    3    0  502 -0.57205664605E+03  0.14148387164E+03  0.96351829481E+03  0.11294396871E+04  0.10100000352E+00 0. -1.
</event>
<event>
 5   0  0.9457742E-05  0.2071075E+04  0.7818609E-02  0.8574093E-01
        2   -1    0    0  501    0  0.00000000000E+00  0.00000000000E+00  0.17361271020E+04  0.17361271020E+04  0.25500000920E-02 0.  1.
       -2   -1    0    0    0  501  0.00000000000E+00  0.00000000000E+00 -0.61766065630E+03  0.61766065631E+03  0.25500000920E-02 0. -1.
    10030    2    1    2    0    0  0.00000000000E+00  0.00000000000E+00  0.11184664457E+04  0.23537877583E+04  0.20710745088E+04 0.  0.
        1    1    3    3  502    0 -0.66823862598E+03  0.76824332272E+03  0.77365885365E+03  0.12787840654E+04  0.50400001928E-02 0. -1.
       -1    1    3    3    0  502  0.66823862598E+03 -0.76824332272E+03  0.34480759206E+03  0.10750036929E+04  0.50400001928E-02 0.  1.
</event>
<event>
 5   0  0.3283125E-05  0.2192954E+04  0.7818609E-02  0.8521367E-01
        3   -1    0    0  501    0  0.00000000000E+00  0.00000000000E+00  0.18406689657E+04  0.18406689685E+04  0.10100000352E+00 0. -1.
       -3   -1    0    0    0  501  0.00000000000E+00  0.00000000000E+00 -0.65316559702E+03  0.65316560483E+03  0.10100000352E+00 0.  1.
    10030    2    1    2    0    0  0.00000000000E+00  0.00000000000E+00  0.11875033687E+04  0.24938345733E+04  0.21929538592E+04 0.  0.
        5    1    3    3  502    0 -0.13421645853E+03 -0.53652719094E+03  0.16704161270E+04  0.17595987076E+04  0.46999998093E+01 0. -1.
       -5    1    3    3    0  502  0.13421645853E+03  0.53652719094E+03 -0.48291275833E+03  0.73423586572E+03  0.46999998093E+01 0.  1.
</event>
<event>
 5   0  0.9442578E-05  0.2164163E+04  0.7818609E-02  0.8533494E-01
        2   -1    0    0  501    0  0.00000000000E+00  0.00000000000E+00  0.66819170349E+03  0.66819170350E+03  0.25500000920E-02 0. -1.
       -2   -1    0    0    0  501  0.00000000000E+00  0.00000000000E+00 -0.17523415525E+04  0.17523415525E+04  0.25500000920E-02 0.  1.
    10030    2    1    2    0    0  0.00000000000E+00  0.00000000000E+00 -0.10841498490E+04  0.24205332560E+04  0.21641627361E+04 0.  0.
        4    1    3    3  502    0 -0.25450699046E+03 -0.91301299507E+03 -0.11259633151E+04  0.14717885505E+04  0.12699999809E+01 0.  1.
       -4    1    3    3    0  502  0.25450699046E+03  0.91301299507E+03  0.41813466155E+02  0.94874470550E+03  0.12699999809E+01 0. -1.
</event>
<event>
 5   0  0.4133418E-05  0.2205355E+04  0.7818609E-02  0.8516203E-01
       -1   -1    0    0    0  501  0.00000000000E+00  0.00000000000E+00  0.84537692276E+03  0.84537692277E+03  0.50400001928E-02 0. -1.
        1   -1    0    0  501    0  0.00000000000E+00  0.00000000000E+00 -0.14382900362E+04  0.14382900362E+04  0.50400001928E-02 0.  1.
    10030    2    1    2    0    0  0.00000000000E+00  0.00000000000E+00 -0.59291311347E+03  0.22836669590E+04  0.22053545791E+04 0.  0.
        4    1    3    3  502    0  0.10020634868E+04  0.25524405781E+03  0.10004353779E+03  0.10388893507E+04  0.12699999809E+01 0. -1.
       -4    1    3    3    0  502 -0.10020634868E+04 -0.25524405781E+03 -0.69295665126E+03  0.12447776083E+04  0.12699999809E+01 0.  1.
</event>
<event>
 5   0  0.4174075E-05  0.2226274E+04  0.7818609E-02  0.8507571E-01
        1   -1    0    0  501    0  0.00000000000E+00  0.00000000000E+00  0.89382672912E+03  0.89382672914E+03  0.50400001928E-02 0. -1.
       -1   -1    0    0    0  501  0.00000000000E+00  0.00000000000E+00 -0.13862577841E+04  0.13862577841E+04  0.50400001928E-02 0.  1.
    10030    2    1    2    0    0  0.00000000000E+00  0.00000000000E+00 -0.49243105498E+03  0.22800845132E+04  0.22262742517E+04 0.  0.
        5    1    3    3  502    0  0.24275656572E+03  0.95336274474E+03 -0.77959200124E+03  0.12552358550E+04  0.46999998093E+01 0.  1.
       -5    1    3    3    0  502 -0.24275656572E+03 -0.95336274474E+03  0.28716094626E+03  0.10248486583E+04  0.46999998093E+01 0. -1.
</event>
<event>
 5   0  0.9457742E-05  0.2234403E+04  0.7818609E-02  0.8504244E-01
       -2   -1    0    0    0  501  0.00000000000E+00  0.00000000000E+00  0.69941539101E+03  0.69941539102E+03  0.25500000920E-02 0.  1.
        2   -1    0    0  501    0  0.00000000000E+00  0.00000000000E+00 -0.17845471439E+04  0.17845471439E+04  0.25500000920E-02 0. -1.
    10030    2    1    2    0    0  0.00000000000E+00  0.00000000000E+00 -0.10851317529E+04  0.24839625349E+04  0.22344034895E+04 0.  0.
        1    1    3    3  502    0  0.11860507335E+03 -0.34365562438E+03  0.63181875492E+03  0.72894532764E+03  0.50400001928E-02 0.  1.
       -1    1    3    3    0  502 -0.11860507335E+03  0.34365562438E+03 -0.17169505078E+04  0.17550172073E+04  0.50400001928E-02 0. -1.
</event>
<event>
 5   0  0.4188865E-05  0.2201206E+04  0.7818609E-02  0.8517926E-01
        1   -1    0    0  501    0  0.00000000000E+00  0.00000000000E+00  0.14858709563E+04  0.14858709563E+04  0.50400001928E-02 0.  1.
       -1   -1    0    0    0  501  0.00000000000E+00  0.00000000000E+00 -0.81522998551E+03  0.81522998553E+03  0.50400001928E-02 0. -1.
    10030    2    1    2    0    0  0.00000000000E+00  0.00000000000E+00  0.67064097078E+03  0.23011009418E+04  0.22012056317E+04 0.  0.
        3    1    3    3  502    0 -0.74494178716E+03  0.38989652153E+03  0.10777397643E+04  0.13669237629E+04  0.10100000352E+00 0.  1.
       -3    1    3    3    0  502  0.74494178716E+03 -0.38989652153E+03 -0.40709879353E+03  0.93417717894E+03  0.10100000352E+00 0. -1.
</event>
<event>
 5   0  0.9254673E-05  0.2182705E+04  0.7818609E-02  0.8525661E-01
       -2   -1    0    0    0  501  0.00000000000E+00  0.00000000000E+00  0.16178991761E+04  0.16178991761E+04  0.25500000920E-02 0. -1.
        2   -1    0    0  501    0  0.00000000000E+00  0.00000000000E+00 -0.73617073810E+03  0.73617073811E+03  0.25500000920E-02 0.  1.
    10030    2    1    2    0    0  0.00000000000E+00  0.00000000000E+00  0.88172843799E+03  0.23540699142E+04  0.21827047722E+04 0.  0.
        2    1    3    3  502    0  0.92104508693E+03  0.28073605084E+02 -0.18979964600E+03  0.94081671174E+03  0.25500000920E-02 0.  1.
       -2    1    3    3    0  502 -0.92104508693E+03 -0.28073605084E+02  0.10715280840E+04  0.14132532025E+04  0.25500000920E-02 0. -1.
</event>
<event>
 5   0  0.9254673E-05  0.2223892E+04  0.7818609E-02  0.8508549E-01
        2   -1    0    0  501    0  0.00000000000E+00  0.00000000000E+00  0.79804381300E+03  0.79804381300E+03  0.25500000920E-02 0.  1.
       -2   -1    0    0    0  501  0.00000000000E+00  0.00000000000E+00 -0.15493184495E+04  0.15493184495E+04  0.25500000920E-02 0. -1.
    10030    2    1    2    0    0  0.00000000000E+00  0.00000000000E+00 -0.75127463653E+03  0.23473622625E+04  0.22238920864E+04 0.  0.
        2    1    3    3  502    0  0.11110704465E+04 -0.32430439866E+02 -0.40721011185E+03  0.11837860219E+04  0.25500000920E-02 0. -1.
       -2    1    3    3    0  502 -0.11110704465E+04  0.32430439866E+02 -0.34406452468E+03  0.11635762406E+04  0.25500000920E-02 0.  1.
</event>
<event>
 5   0  0.9442578E-05  0.2138921E+04  0.7818609E-02  0.8544289E-01
        2   -1    0    0  501    0  0.00000000000E+00  0.00000000000E+00  0.23943392308E+04  0.23943392308E+04  0.25500000920E-02 0.  1.
       -2   -1    0    0    0  501  0.00000000000E+00  0.00000000000E+00 -0.47768759315E+03  0.47768759316E+03  0.25500000920E-02 0. -1.
    10030    2    1    2    0    0  0.00000000000E+00  0.00000000000E+00  0.19166516376E+04  0.28720268240E+04  0.21389213584E+04 0.  0.
        4    1    3    3  502    0  0.79871372516E+03 -0.32940888930E+03  0.18046716791E+04  0.20008236587E+04  0.12699999809E+01 0.  1.
       -4    1    3    3    0  502 -0.79871372516E+03  0.32940888930E+03  0.11197995856E+03  0.87120316524E+03  0.12699999809E+01 0. -1.
</event>
<event>
 5   0  0.9179618E-05  0.2175266E+04  0.7818609E-02  0.8528794E-01
        2   -1    0    0  501    0  0.00000000000E+00  0.00000000000E+00  0.95062273917E+03  0.95062273918E+03  0.25500000920E-02 0.  1.
       -2   -1    0    0    0  501  0.00000000000E+00  0.00000000000E+00 -0.12443901124E+04  0.12443901124E+04  0.25500000920E-02 0. -1.
    10030    2    1    2    0    0  0.00000000000E+00  0.00000000000E+00 -0.29376737322E+03  0.21950128516E+04  0.21752659950E+04 0.  0.
        3    1    3    3  502    0 -0.72991834368E+03  0.62260931131E+03  0.37013693607E+03  0.10283114823E+04  0.10100000352E+00 0.  1.
       -3    1    3    3    0  502  0.72991834368E+03 -0.62260931131E+03 -0.66390430928E+03  0.11667013693E+04  0.10100000352E+00 0. -1.
</event>
<event>
 5   0  0.9457742E-05  0.2201797E+04  0.7818609E-02  0.8517680E-01
       -2   -1    0    0    0  501  0.00000000000E+00  0.00000000000E+00  0.93400126159E+03  0.93400126159E+03  0.25500000920E-02 0. -1.
        2   -1    0    0  501    0  0.00000000000E+00  0.00000000000E+00 -0.12976191400E+04  0.12976191400E+04  0.25500000920E-02 0.  1.
    10030    2    1    2    0    0  0.00000000000E+00  0.00000000000E+00 -0.36361787839E+03  0.22316204016E+04  0.22017973692E+04 0.  0.
        1    1    3    3  502    0 -0.10173311098E+04  0.23559205541E+03  0.17149789760E+03  0.10582427568E+04  0.50400001928E-02 0.  1.
       -1    1    3    3    0  502  0.10173311098E+04 -0.23559205541E+03 -0.53511577599E+03  0.11733776447E+04  0.50400001928E-02 0. -1.
</event>
<event>
 5   0  0.9938176E-05  0.2233248E+04  0.7818609E-02  0.8504716E-01
        2   -1    0    0  501    0  0.00000000000E+00  0.00000000000E+00  0.14094225463E+04  0.14094225463E+04  0.25500000920E-02 0. -1.
       -2   -1    0    0    0  501  0.00000000000E+00  0.00000000000E+00 -0.88465254266E+03  0.88465254267E+03  0.25500000920E-02 0.  1.
    10030    2    1    2    0    0  0.00000000000E+00  0.00000000000E+00  0.52477000367E+03  0.22940750890E+04  0.22332480734E+04 0.  0.
        5    1    3    3  502    0 -0.80856538409E+03 -0.44294363685E+03 -0.38473363860E+03  0.99900906324E+03  0.46999998093E+01 0.  1.
       -5    1    3    3    0  502  0.80856538409E+03  0.44294363685E+03  0.90950364227E+03  0.12950660258E+04  0.46999998093E+01 0. -1.
</event>
<event>
 5   0  0.4133418E-05  0.2234976E+04  0.7818609E-02  0.8504010E-01
       -1   -1    0    0    0  501  0.00000000000E+00  0.00000000000E+00  0.85992145840E+03  0.85992145842E+03  0.50400001928E-02 0.  1.
        1   -1    0    0  501    0  0.00000000000E+00  0.00000000000E+00 -0.14522020208E+04  0.14522020208E+04  0.50400001928E-02 0. -1.
    10030    2    1    2    0    0  0.00000000000E+00  0.00000000000E+00 -0.59228056242E+03  0.23121234793E+04  0.22349762233E+04 0.  0.
        4    1    3    3  502    0  0.11092307174E+03  0.53136410735E+02  0.85289725039E+03  0.86172080085E+03  0.12699999809E+01 0.  1.
       -4    1    3    3    0  502 -0.11092307174E+03 -0.53136410735E+02 -0.14451778128E+04  0.14504026784E+04  0.12699999809E+01 0. -1.
</event>
<event>
 5   0  0.4174075E-05  0.2225646E+04  0.7818609E-02  0.8507829E-01
        1   -1    0    0  501    0  0.00000000000E+00  0.00000000000E+00  0.85416895828E+03  0.85416895829E+03  0.50400001928E-02 0.  1.
       -1   -1    0    0    0  501  0.00000000000E+00  0.00000000000E+00 -0.14498015510E+04  0.14498015510E+04  0.50400001928E-02 0. -1.
    10030    2    1    2    0    0  0.00000000000E+00  0.00000000000E+00 -0.59563259275E+03  0.23039705093E+04  0.22256464055E+04 0.  0.
        5    1    3    3  502    0  0.11217242176E+03  0.21016228401E+03 -0.14230855646E+04  0.14428948167E+04  0.46999998093E+01 0. -1.
       -5    1    3    3    0  502 -0.11217242176E+03 -0.21016228401E+03  0.82745297186E+03  0.86107569264E+03  0.46999998093E+01 0.  1.
</event>
<event>
 5   0  0.9442578E-05  0.2126094E+04  0.7818609E-02  0.8549835E-01
       -2   -1    0    0    0  501  0.00000000000E+00  0.00000000000E+00  0.67195381518E+03  0.67195381519E+03  0.25500000920E-02 0. -1.
        2   -1    0    0  501    0  0.00000000000E+00  0.00000000000E+00 -0.16817661900E+04  0.16817661900E+04  0.25500000920E-02 0.  1.
    10030    2    1    2    0    0  0.00000000000E+00  0.00000000000E+00 -0.10098123748E+04  0.23537200051E+04  0.21260942666E+04 0.  0.
        4    1    3    3  502    0 -0.72055227071E+03 -0.77642888469E+03 -0.60411166442E+03  0.12194219548E+04  0.12699999809E+01 0.  1.
       -4    1    3    3    0  502  0.72055227071E+03  0.77642888469E+03 -0.40570071036E+03  0.11342980504E+04  0.12699999809E+01 0. -1.
</event>
<event>
 5   0  0.9254673E-05  0.2213425E+04  0.7818609E-02  0.8512861E-01
       -2   -1    0    0    0  501  0.00000000000E+00  0.00000000000E+00  0.69375367933E+03  0.69375367933E+03  0.25500000920E-02 0. -1.
        2   -1    0    0  501    0  0.00000000000E+00  0.00000000000E+00 -0.17654862040E+04  0.17654862040E+04  0.25500000920E-02 0.  1.
    10030    2    1    2    0    0  0.00000000000E+00  0.00000000000E+00 -0.10717325247E+04  0.24592398833E+04  0.22134249929E+04 0.  0.
        2    1    3    3  502    0  0.42488788043E+03 -0.43387155341E+03  0.49210905156E+03  0.78163006239E+03  0.25500000920E-02 0. -1.
       -2    1    3    3    0  502 -0.42488788043E+03  0.43387155341E+03 -0.15638415762E+04  0.16776098209E+04  0.25500000920E-02 0.  1.
</event>
<event>
 5   0  0.4174075E-05  0.2129547E+04  0.7818609E-02  0.8548338E-01
       -1   -1    0    0    0  501  0.00000000000E+00  0.00000000000E+00  0.58665652302E+03  0.58665652304E+03  0.50400001928E-02 0.  1.
        1   -1    0    0  501    0  0.00000000000E+00  0.00000000000E+00 -0.19325495161E+04  0.19325495161E+04  0.50400001928E-02 0. -1.
    10030    2    1    2    0    0  0.00000000000E+00  0.00000000000E+00 -0.13458929931E+04  0.25192060392E+04  0.21295471629E+04 0.  0.
        5    1    3    3  502    0 -0.23423595514E+03  0.61965940001E+03  0.31317452723E+03  0.73276505730E+03  0.46999998093E+01 0.  1.
       -5    1    3    3    0  502  0.23423595514E+03 -0.61965940001E+03 -0.16590675203E+04  0.17864409819E+04  0.46999998093E+01 0. -1.
</event>
<event>
 5   0  0.4133418E-05  0.2205228E+04  0.7818609E-02  0.8516255E-01
        1   -1    0    0  501    0  0.00000000000E+00  0.00000000000E+00  0.25423701298E+04  0.25423701298E+04  0.50400001928E-02 0.  1.
       -1   -1    0    0    0  501  0.00000000000E+00  0.00000000000E+00 -0.47819840385E+03  0.47819840387E+03  0.50400001928E-02 0. -1.
    10030    2    1    2    0    0  0.00000000000E+00  0.00000000000E+00  0.20641717260E+04  0.30205685337E+04  0.22052277326E+04 0.  0.
        4    1    3    3  502    0  0.62224568136E+03  0.74082985472E+03  0.30763266823E+03  0.10152132944E+04  0.12699999809E+01 0. -1.
       -4    1    3    3    0  502 -0.62224568136E+03 -0.74082985472E+03  0.17565390577E+04  0.20053552393E+04  0.12699999809E+01 0.  1.
</event>
<event>
 5   0  0.9938176E-05  0.2174443E+04  0.7818609E-02  0.8529141E-01
        2   -1    0    0  501    0  0.00000000000E+00  0.00000000000E+00  0.11351756259E+04  0.11351756259E+04  0.25500000920E-02 0.  1.
       -2   -1    0    0    0  501  0.00000000000E+00  0.00000000000E+00 -0.10412928964E+04  0.10412928964E+04  0.25500000920E-02 0. -1.
    10030    2    1    2    0    0  0.00000000000E+00  0.00000000000E+00  0.93882729472E+02  0.21764685222E+04  0.21744427473E+04 0.  0.
        5    1    3    3  502    0  0.33352253455E+03  0.47908232245E+03 -0.87112143737E+03  0.10486333017E+04  0.46999998093E+01 0. -1.
       -5    1    3    3    0  502 -0.33352253455E+03 -0.47908232245E+03  0.96500416684E+03  0.11278352206E+04  0.46999998093E+01 0.  1.
</event>
<event>
 5   0  0.4174030E-05  0.2159892E+04  0.7818609E-02  0.8535310E-01
       -1   -1    0    0    0  501  0.00000000000E+00  0.00000000000E+00  0.71452413551E+03  0.71452413553E+03  0.50400001928E-02 0. -1.
        1   -1    0    0  501    0  0.00000000000E+00  0.00000000000E+00 -0.16322524246E+04  0.16322524246E+04  0.50400001928E-02 0.  1.
    10030    2    1    2    0    0  0.00000000000E+00  0.00000000000E+00 -0.91772828907E+03  0.23467765601E+04  0.21598923609E+04 0.  0.
        2    1    3    3  502    0 -0.90085801971E+03  0.12702577011E+03  0.17338035015E+03  0.92614332788E+03  0.25500000920E-02 0. -1.
       -2    1    3    3    0  502  0.90085801971E+03 -0.12702577011E+03 -0.10911086392E+04  0.14206332322E+04  0.25500000920E-02 0.  1.
</event>
<event>
 5   0  0.4188865E-05  0.2152795E+04  0.7818609E-02  0.8538337E-01
       -1   -1    0    0    0  501  0.00000000000E+00  0.00000000000E+00  0.10738699169E+04  0.10738699169E+04  0.50400001928E-02 0.  1.
        1   -1    0    0  501    0  0.00000000000E+00  0.00000000000E+00 -0.10789315126E+04  0.10789315126E+04  0.50400001928E-02 0. -1.
    10030    2    1    2    0    0  0.00000000000E+00  0.00000000000E+00 -0.50615956903E+01  0.21528014295E+04  0.21527954792E+04 0.  0.
        3    1    3    3  502    0  0.44484031607E+03  0.25534565189E+03 -0.94886727364E+03  0.10786257098E+04  0.10100000352E+00 0. -1.
       -3    1    3    3    0  502 -0.44484031607E+03 -0.25534565189E+03  0.94380567795E+03  0.10741757196E+04  0.10100000352E+00 0.  1.
</event>
<event>
 5   0  0.4063293E-05  0.2181402E+04  0.7818609E-02  0.8526209E-01
        1   -1    0    0  501    0  0.00000000000E+00  0.00000000000E+00  0.14525195470E+04  0.14525195470E+04  0.50400001928E-02 0.  1.
       -1   -1    0    0    0  501  0.00000000000E+00  0.00000000000E+00 -0.81901045334E+03  0.81901045335E+03  0.50400001928E-02 0. -1.
    10030    2    1    2    0    0  0.00000000000E+00  0.00000000000E+00  0.63350909366E+03  0.22715300004E+04  0.21814020195E+04 0.  0.
        1    1    3    3  502    0  0.52413779172E+03  0.17503631429E+03 -0.66245434486E+03  0.86267253062E+03  0.50400001928E-02 0. -1.
       -1    1    3    3    0  502 -0.52413779172E+03 -0.17503631429E+03  0.12959634385E+04  0.14088574697E+04  0.50400001928E-02 0.  1.
</event>
<event>
 5   0  0.9457742E-05  0.2162934E+04  0.7818609E-02  0.8534016E-01
        2   -1    0    0  501    0  0.00000000000E+00  0.00000000000E+00  0.10086083333E+04  0.10086083333E+04  0.25500000920E-02 0.  1.
       -2   -1    0    0    0  501  0.00000000000E+00  0.00000000000E+00 -0.11595887309E+04  0.11595887309E+04  0.25500000920E-02 0. -1.
    10030    2    1    2    0    0  0.00000000000E+00  0.00000000000E+00 -0.15098039767E+03  0.21681970642E+04  0.21629339862E+04 0.  0.
        1    1    3    3  502    0 -0.86738481787E+03  0.26315258712E+03 -0.66681128062E+03  0.11252746289E+04  0.50400001928E-02 0. -1.
       -1    1    3    3    0  502  0.86738481787E+03 -0.26315258712E+03  0.51583088294E+03  0.10429224354E+04  0.50400001928E-02 0.  1.
</event>
<event>
 5   0  0.9179618E-05  0.2230380E+04  0.7818609E-02  0.8505888E-01
        2   -1    0    0  501    0  0.00000000000E+00  0.00000000000E+00  0.18410167611E+04  0.18410167611E+04  0.25500000920E-02 0.  1.
       -2   -1    0    0    0  501  0.00000000000E+00  0.00000000000E+00 -0.67552299897E+03  0.67552299898E+03  0.25500000920E-02 0. -1.
    10030    2    1    2    0    0  0.00000000000E+00  0.00000000000E+00  0.11654937622E+04  0.25165397601E+04  0.22303803834E+04 0.  0.
        3    1    3    3  502    0  0.10967070900E+04  0.12023520175E+03  0.39932874014E+03  0.11733228021E+04  0.10100000352E+00 0. -1.
       -3    1    3    3    0  502 -0.10967070900E+04 -0.12023520175E+03  0.76616502204E+03  0.13432169580E+04  0.10100000352E+00 0.  1.
</event>
<event>
 5   0  0.9938176E-05  0.2188701E+04  0.7818609E-02  0.8523146E-01
       -2   -1    0    0    0  501  0.00000000000E+00  0.00000000000E+00  0.10243747300E+04  0.10243747300E+04  0.25500000920E-02 0.  1.
        2   -1    0    0  501    0  0.00000000000E+00  0.00000000000E+00 -0.11691066254E+04  0.11691066255E+04  0.25500000920E-02 0. -1.
    10030    2    1    2    0    0  0.00000000000E+00  0.00000000000E+00 -0.14473189544E+03  0.21934813555E+04  0.21887012439E+04 0.  0.
        5    1    3    3  502    0  0.36529300576E+03  0.30819446478E+03  0.91424252657E+03  0.10316415538E+04  0.46999998093E+01 0.  1.
       -5    1    3    3    0  502 -0.36529300576E+03 -0.30819446478E+03 -0.10589744220E+04  0.11618398016E+04  0.46999998093E+01 0. -1.
</event>
<event>
 5   0  0.9442578E-05  0.2020450E+04  0.7818609E-02  0.8597119E-01
       -2   -1    0    0    0  501  0.00000000000E+00  0.00000000000E+00  0.73404604853E+03  0.73404604853E+03  0.25500000920E-02 0. -1.
        2   -1    0    0  501    0  0.00000000000E+00  0.00000000000E+00 -0.13903146692E+04  0.13903146692E+04  0.25500000920E-02 0.  1.
    10030    2    1    2    0    0  0.00000000000E+00  0.00000000000E+00 -0.65626862065E+03  0.21243607177E+04  0.20204504341E+04 0.  0.
        4    1    3    3  502    0 -0.62498762993E+03  0.43952822293E+03 -0.10230000246E+04  0.12768419086E+04  0.12699999809E+01 0.  1.
       -4    1    3    3    0  502  0.62498762993E+03 -0.43952822293E+03  0.36673140392E+03  0.84751880914E+03  0.12699999809E+01 0. -1.
</event>
<event>
 5   0  0.9457742E-05  0.2192424E+04  0.7818609E-02  0.8521588E-01
        2   -1    0    0  501    0  0.00000000000E+00  0.00000000000E+00  0.11326245772E+04  0.11326245772E+04  0.25500000920E-02 0.  1.
       -2   -1    0    0    0  501  0.00000000000E+00  0.00000000000E+00 -0.10609703566E+04  0.10609703566E+04  0.25500000920E-02 0. -1.
    10030    2    1    2    0    0  0.00000000000E+00  0.00000000000E+00  0.71654220597E+02  0.21935949338E+04  0.21924243217E+04 0.  0.
        1    1    3    3  502    0 -0.62309166152E+03  0.77992931449E+03  0.48900177566E+03  0.11116005087E+04  0.50400001928E-02 0.  1.
       -1    1    3    3    0  502  0.62309166152E+03 -0.77992931449E+03 -0.41734755506E+03  0.10819944251E+04  0.50400001928E-02 0. -1.
</event>
<event>
 5   0  0.4174030E-05  0.2173202E+04  0.7818609E-02  0.8529666E-01
       -1   -1    0    0    0  501  0.00000000000E+00  0.00000000000E+00  0.95516600630E+03  0.95516600631E+03  0.50400001928E-02 0.  1.
        1   -1    0    0  501    0  0.00000000000E+00  0.00000000000E+00 -0.12361215043E+04  0.12361215043E+04  0.50400001928E-02 0. -1.
    10030    2    1    2    0    0  0.00000000000E+00  0.00000000000E+00 -0.28095549803E+03  0.21912875106E+04  0.21732015467E+04 0.  0.
        2    1    3    3  502    0 -0.91682776377E+03 -0.30289503620E+03  0.36204996811E+03  0.10312122627E+04  0.25500000920E-02 0.  1.
       -2    1    3    3    0  502  0.91682776377E+03  0.30289503620E+03 -0.64300546614E+03  0.11600752479E+04  0.25500000920E-02 0. -1.
</event>
<event>
 5   0  0.4188865E-05  0.2242876E+04  0.7818609E-02  0.8500791E-01
       -1   -1    0    0    0  501  0.00000000000E+00  0.00000000000E+00  0.14203269438E+04  0.14203269438E+04  0.50400001928E-02 0.  1.
        1   -1    0    0  501    0  0.00000000000E+00  0.00000000000E+00 -0.88544648164E+03  0.88544648165E+03  0.50400001928E-02 0. -1.
    10030    2    1    2    0    0  0.00000000000E+00  0.00000000000E+00  0.53488046217E+03  0.23057734255E+04  0.22428762741E+04 0.  0.
        3    1    3    3  502    0  0.36503772423E+03 -0.92844048806E+03  0.79402433203E+03  0.12750407562E+04  0.10100000352E+00 0.  1.
       -3    1    3    3    0  502 -0.36503772423E+03  0.92844048806E+03 -0.25914386985E+03  0.10307326693E+04  0.10100000352E+00 0. -1.
</event>
<event>
 5   0  0.9179618E-05  0.2338432E+04  0.7818609E-02  0.8462920E-01
       -2   -1    0    0    0  501  0.00000000000E+00  0.00000000000E+00  0.20424169282E+04  0.20424169282E+04  0.25500000920E-02 0. -1.
        2   -1    0    0  501    0  0.00000000000E+00  0.00000000000E+00 -0.66933731941E+03  0.66933731942E+03  0.25500000920E-02 0.  1.
    10030    2    1    2    0    0  0.00000000000E+00  0.00000000000E+00  0.13730796088E+04  0.27117542477E+04  0.23384318437E+04 0.  0.
        3    1    3    3  502    0 -0.29047729777E+03  0.59389760268E+03  0.18048469980E+04  0.19221248969E+04  0.10100000352E+00 0. -1.
       -3    1    3    3    0  502  0.29047729777E+03 -0.59389760268E+03 -0.43176738917E+03  0.78962935074E+03  0.10100000352E+00 0.  1.
</event>
<event>
 5   0  0.9179618E-05  0.2181352E+04  0.7818609E-02  0.8526230E-01
        2   -1    0    0  501    0  0.00000000000E+00  0.00000000000E+00  0.27625959544E+04  0.27625959544E+04  0.25500000920E-02 0. -1.
       -2   -1    0    0    0  501  0.00000000000E+00  0.00000000000E+00 -0.43060006637E+03  0.43060006638E+03  0.25500000920E-02 0.  1.
    10030    2    1    2    0    0  0.00000000000E+00  0.00000000000E+00  0.23319958880E+04  0.31931960208E+04  0.21813518756E+04 0.  0.
        3    1    3    3  502    0  0.21053168733E+02  0.23337693091E+03  0.27253129759E+04  0.27353681388E+04  0.10100000352E+00 0. -1.
       -3    1    3    3    0  502 -0.21053168733E+02 -0.23337693091E+03 -0.39331708783E+03  0.45782788205E+03  0.10100000352E+00 0.  1.
</event>
<event>
 5   0  0.4133418E-05  0.2323217E+04  0.7818609E-02  0.8468823E-01
       -1   -1    0    0    0  501  0.00000000000E+00  0.00000000000E+00  0.11855751777E+04  0.11855751777E+04  0.50400001928E-02 0. -1.
        1   -1    0    0  501    0  0.00000000000E+00  0.00000000000E+00 -0.11381265712E+04  0.11381265712E+04  0.50400001928E-02 0.  1.
    10030    2    1    2    0    0  0.00000000000E+00  0.00000000000E+00  0.47448606515E+02  0.23237017490E+04  0.23232172623E+04 0.  0.
        4    1    3    3  502    0  0.47992773243E+02  0.10832730278E+04 -0.39295498813E+03  0.11533425314E+04  0.12699999809E+01 0.  1.
       -4    1    3    3    0  502 -0.47992773243E+02 -0.10832730278E+04  0.44040359465E+03  0.11703592176E+04  0.12699999809E+01 0. -1.
</event>
<event>
 5   0  0.4063293E-05  0.2260915E+04  0.7818609E-02  0.8493493E-01
       -1   -1    0    0    0  501  0.00000000000E+00  0.00000000000E+00  0.15998387399E+04  0.15998387399E+04  0.50400001928E-02 0. -1.
        1   -1    0    0  501    0  0.00000000000E+00  0.00000000000E+00 -0.79878961378E+03  0.79878961379E+03  0.50400001928E-02 0.  1.
    10030    2    1    2    0    0  0.00000000000E+00  0.00000000000E+00  0.80104912615E+03  0.23986283537E+04  0.22609153626E+04 0.  0.
        1    1    3    3  502    0 -0.80560088941E+03  0.19639772903E+02  0.12416304364E+04  0.14802110168E+04  0.50400001928E-02 0. -1.
       -1    1    3    3    0  502  0.80560088941E+03 -0.19639772903E+02 -0.44058131028E+03  0.91841733689E+03  0.50400001928E-02 0.  1.
</event>
<event>
 5   0  0.9938176E-05  0.2198905E+04  0.7818609E-02  0.8518884E-01
        2   -1    0    0  501    0  0.00000000000E+00  0.00000000000E+00  0.21518398479E+04  0.21518398479E+04  0.25500000920E-02 0. -1.
       -2   -1    0    0    0  501  0.00000000000E+00  0.00000000000E+00 -0.56174996916E+03  0.56174996917E+03  0.25500000920E-02 0.  1.
    10030    2    1    2    0    0  0.00000000000E+00  0.00000000000E+00  0.15900898788E+04  0.27135898171E+04  0.21989051532E+04 0.  0.
        5    1    3    3  502    0  0.10797147416E+04 -0.17156853259E+03  0.93871773640E+03  0.14409832626E+04  0.46999998093E+01 0. -1.
       -5    1    3    3    0  502 -0.10797147416E+04  0.17156853259E+03  0.65137214238E+03  0.12726065545E+04  0.46999998093E+01 0.  1.
</event>
<event>
 5   0  0.4133418E-05  0.2076120E+04  0.7818609E-02  0.8571836E-01
       -1   -1    0    0    0  501  0.00000000000E+00  0.00000000000E+00  0.60927616392E+03  0.60927616394E+03  0.50400001928E-02 0. -1.
        1   -1    0    0  501    0  0.00000000000E+00  0.00000000000E+00 -0.17686043474E+04  0.17686043474E+04  0.50400001928E-02 0.  1.
    10030    2    1    2    0    0  0.00000000000E+00  0.00000000000E+00 -0.11593281835E+04  0.23778805113E+04  0.20761199120E+04 0.  0.
        4    1    3    3  502    0 -0.93129543008E+03 -0.22775495916E+02 -0.11041998213E+04  0.14446760050E+04  0.12699999809E+01 0.  1.
       -4    1    3    3    0  502  0.93129543008E+03  0.22775495916E+02 -0.55128362164E+02  0.93320450627E+03  0.12699999809E+01 0. -1.
</event>
<event>
 5   0  0.4063293E-05  0.2189500E+04  0.7818609E-02  0.8522811E-01
        1   -1    0    0  501    0  0.00000000000E+00  0.00000000000E+00  0.16198221575E+04  0.16198221575E+04  0.50400001928E-02 0. -1.
       -1   -1    0    0    0  501  0.00000000000E+00  0.00000000000E+00 -0.73988251369E+03  0.73988251371E+03  0.50400001928E-02 0.  1.
    10030    2    1    2    0    0  0.00000000000E+00  0.00000000000E+00  0.87993964379E+03  0.23597046712E+04  0.21895004815E+04 0.  0.
        1    1    3    3  502    0 -0.40412557357E+03  0.62850837771E+03 -0.42231224431E+03  0.85830524395E+03  0.50400001928E-02 0.  1.
       -1    1    3    3    0  502  0.40412557357E+03 -0.62850837771E+03  0.13022518881E+04  0.15013994273E+04  0.50400001928E-02 0. -1.
</event>
<event>
 5   0  0.9442578E-05  0.2210928E+04  0.7818609E-02  0.8513894E-01
       -2   -1    0    0    0  501  0.00000000000E+00  0.00000000000E+00  0.55829915144E+03  0.55829915145E+03  0.25500000920E-02 0.  1.
        2   -1    0    0  501    0  0.00000000000E+00  0.00000000000E+00 -0.21888808538E+04  0.21888808538E+04  0.25500000920E-02 0. -1.
    10030    2    1    2    0    0  0.00000000000E+00  0.00000000000E+00 -0.16305817023E+04  0.27471800052E+04  0.22109276996E+04 0.  0.
        4    1    3    3  502    0  0.80739861776E+03 -0.54632992614E+03 -0.14629421576E+04  0.17580017877E+04  0.12699999809E+01 0. -1.
       -4    1    3    3    0  502 -0.80739861776E+03  0.54632992614E+03 -0.16763954473E+03  0.98917821752E+03  0.12699999809E+01 0.  1.
</event>
<event>
 5   0  0.4188865E-05  0.2199598E+04  0.7818609E-02  0.8518595E-01
        1   -1    0    0  501    0  0.00000000000E+00  0.00000000000E+00  0.15202580535E+04  0.15202580535E+04  0.50400001928E-02 0.  1.
       -1   -1    0    0    0  501  0.00000000000E+00  0.00000000000E+00 -0.79562677629E+03  0.79562677630E+03  0.50400001928E-02 0. -1.
    10030    2    1    2    0    0  0.00000000000E+00  0.00000000000E+00  0.72463127724E+03  0.23158848298E+04  0.21995981581E+04 0.  0.
        3    1    3    3  502    0  0.35137706868E+03 -0.84553282420E+03 -0.27912716860E+03  0.95723747714E+03  0.10100000352E+00 0. -1.
       -3    1    3    3    0  502 -0.35137706868E+03  0.84553282420E+03  0.10037584458E+04  0.13586473527E+04  0.10100000352E+00 0.  1.
</event>
<event>
 5   0  0.4063293E-05  0.2314881E+04  0.7818609E-02  0.8472077E-01
       -1   -1    0    0    0  501  0.00000000000E+00  0.00000000000E+00  0.10107289153E+04  0.10107289153E+04  0.50400001928E-02 0.  1.
        1   -1    0    0  501    0  0.00000000000E+00  0.00000000000E+00 -0.13254476205E+04  0.13254476205E+04  0.50400001928E-02 0. -1.
    10030    2    1    2    0    0  0.00000000000E+00  0.00000000000E+00 -0.31471870524E+03  0.23361765358E+04  0.23148807622E+04 0.  0.
        1    1    3    3  502    0 -0.36040176030E+03  0.60506068216E+03 -0.10843300507E+04  0.12929653966E+04  0.50400001928E-02 0. -1.
       -1    1    3    3    0  502  0.36040176030E+03 -0.60506068216E+03  0.76961134546E+03  0.10432111392E+04  0.50400001928E-02 0.  1.
</event>
<event>
 5   0  0.4063293E-05  0.1592171E+04  0.7818609E-02  0.8825372E-01
        1   -1    0    0  501    0  0.00000000000E+00  0.00000000000E+00  0.11870942031E+04  0.11870942031E+04  0.50400001928E-02 0. -1.
       -1   -1    0    0    0  501  0.00000000000E+00  0.00000000000E+00 -0.53386852702E+03  0.53386852704E+03  0.50400001928E-02 0.  1.
    10030    2    1    2    0    0  0.00000000000E+00  0.00000000000E+00  0.65322567611E+03  0.17209627302E+04  0.15921711386E+04 0.  0.
        1    1    3    3  502    0 -0.49367181759E+03  0.10422021592E+03 -0.33897224443E+03  0.60784529233E+03  0.50400001928E-02 0.  1.
       -1    1    3    3    0  502  0.49367181759E+03 -0.10422021592E+03  0.99219792054E+03  0.11131174378E+04  0.50400001928E-02 0. -1.
</event>
<event>
 5   0  0.4174075E-05  0.2200992E+04  0.7818609E-02  0.8518015E-01
       -1   -1    0    0    0  501  0.00000000000E+00  0.00000000000E+00  0.79555733328E+03  0.79555733330E+03  0.50400001928E-02 0.  1.
        1   -1    0    0  501    0  0.00000000000E+00  0.00000000000E+00 -0.15223186433E+04  0.15223186433E+04  0.50400001928E-02 0. -1.
    10030    2    1    2    0    0  0.00000000000E+00  0.00000000000E+00 -0.72676130998E+03  0.23178759766E+04  0.22009922856E+04 0.  0.
        5    1    3    3  502    0  0.48686480116E+01  0.15109561033E+03  0.78455986841E+03  0.79900554711E+03  0.46999998093E+01 0.  1.
       -5    1    3    3    0  502 -0.48686480116E+01 -0.15109561033E+03 -0.15113211784E+04  0.15188704295E+04  0.46999998093E+01 0. -1.
</event>
<event>
 5   0  0.4174075E-05  0.2215915E+04  0.7818609E-02  0.8511833E-01
        1   -1    0    0  501    0  0.00000000000E+00  0.00000000000E+00  0.13418927705E+04  0.13418927705E+04  0.50400001928E-02 0.  1.
       -1   -1    0    0    0  501  0.00000000000E+00  0.00000000000E+00 -0.91480491460E+03  0.91480491462E+03  0.50400001928E-02 0. -1.
    10030    2    1    2    0    0  0.00000000000E+00  0.00000000000E+00  0.42708785586E+03  0.22566976851E+04  0.22159152523E+04 0.  0.
        5    1    3    3  502    0 -0.19986407409E+03 -0.84257444433E+03  0.91740107346E+03  0.12615562460E+04  0.46999998093E+01 0.  1.
       -5    1    3    3    0  502  0.19986407409E+03  0.84257444433E+03 -0.49031321760E+03  0.99514143904E+03  0.46999998093E+01 0. -1.
</event>
<event>
 5   0  0.4174030E-05  0.1681865E+04  0.7818609E-02  0.8771775E-01
        1   -1    0    0  501    0  0.00000000000E+00  0.00000000000E+00  0.75860227946E+03  0.75860227948E+03  0.50400001928E-02 0. -1.
       -1   -1    0    0    0  501  0.00000000000E+00  0.00000000000E+00 -0.93219799870E+03  0.93219799871E+03  0.50400001928E-02 0.  1.
    10030    2    1    2    0    0  0.00000000000E+00  0.00000000000E+00 -0.17359571924E+03  0.16908002782E+04  0.16818650680E+04 0.  0.
        2    1    3    3  502    0 -0.57069060580E+02 -0.76445249504E+03 -0.43435559657E+03  0.88108414986E+03  0.25500000920E-02 0.  1.
       -2    1    3    3    0  502  0.57069060580E+02  0.76445249504E+03  0.26075987734E+03  0.80971612834E+03  0.25500000920E-02 0. -1.
</event>
<event>
 5   0  0.4174030E-05  0.2160067E+04  0.7818609E-02  0.8535235E-01
       -1   -1    0    0    0  501  0.00000000000E+00  0.00000000000E+00  0.96505263740E+03  0.96505263741E+03  0.50400001928E-02 0. -1.
        1   -1    0    0  501    0  0.00000000000E+00  0.00000000000E+00 -0.12087142532E+04  0.12087142532E+04  0.50400001928E-02 0.  1.
    10030    2    1    2    0    0  0.00000000000E+00  0.00000000000E+00 -0.24366161579E+03  0.21737668906E+04  0.21600674785E+04 0.  0.
        2    1    3    3  502    0 -0.22815710509E+03 -0.36540711849E+03 -0.11185134130E+04  0.11986034715E+04  0.25500000920E-02 0.  1.
       -2    1    3    3    0  502  0.22815710509E+03  0.36540711849E+03  0.87485179721E+03  0.97516341910E+03  0.25500000920E-02 0. -1.
</event>
<event>
 5   0  0.4174030E-05  0.2264946E+04  0.7818609E-02  0.8491872E-01
        1   -1    0    0  501    0  0.00000000000E+00  0.00000000000E+00  0.99090698173E+03  0.99090698175E+03  0.50400001928E-02 0. -1.
       -1   -1    0    0    0  501  0.00000000000E+00  0.00000000000E+00 -0.12942637161E+04  0.12942637161E+04  0.50400001928E-02 0.  1.
    10030    2    1    2    0    0  0.00000000000E+00  0.00000000000E+00 -0.30335673436E+03  0.22851706979E+04  0.22649458735E+04 0.  0.
        2    1    3    3  502    0 -0.27532761778E+03 -0.10322495170E+04 -0.53073331293E+03  0.11929049468E+04  0.25500000920E-02 0.  1.
       -2    1    3    3    0  502  0.27532761778E+03  0.10322495170E+04  0.22737657856E+03  0.10922657511E+04  0.25500000920E-02 0. -1.
</event>
<event>
 5   0  0.9938176E-05  0.2209465E+04  0.7818609E-02  0.8514499E-01
       -2   -1    0    0    0  501  0.00000000000E+00  0.00000000000E+00  0.11051779735E+04  0.11051779735E+04  0.25500000920E-02 0.  1.
        2   -1    0    0  501    0  0.00000000000E+00  0.00000000000E+00 -0.11042869186E+04  0.11042869186E+04  0.25500000920E-02 0. -1.
    10030    2    1    2    0    0  0.00000000000E+00  0.00000000000E+00  0.89105485724E+00  0.22094648921E+04  0.22094647124E+04 0.  0.
        5    1    3    3  502    0  0.11215913074E+02 -0.68062382544E+03  0.87052427299E+03  0.11050833400E+04  0.46999998093E+01 0.  1.
       -5    1    3    3    0  502 -0.11215913074E+02  0.68062382544E+03 -0.86963321813E+03  0.11043815521E+04  0.46999998093E+01 0. -1.
</event>
<event>
 5   0  0.4063293E-05  0.2280271E+04  0.7818609E-02  0.8485741E-01
       -1   -1    0    0    0  501  0.00000000000E+00  0.00000000000E+00  0.52979149035E+03  0.52979149038E+03  0.50400001928E-02 0. -1.
        1   -1    0    0  501    0  0.00000000000E+00  0.00000000000E+00 -0.24536233184E+04  0.24536233185E+04  0.50400001928E-02 0.  1.
    10030    2    1    2    0    0  0.00000000000E+00  0.00000000000E+00 -0.19238318281E+04  0.29834148088E+04  0.22802708214E+04 0.  0.
        1    1    3    3  502    0  0.82497049372E+03  0.75936009657E+03 -0.69154189190E+03  0.13173588198E+04  0.50400001928E-02 0. -1.
       -1    1    3    3    0  502 -0.82497049372E+03 -0.75936009657E+03 -0.12322899362E+04  0.16660559891E+04  0.50400001928E-02 0.  1.
</event>
<event>
 5   0  0.3283125E-05  0.2217443E+04  0.7818609E-02  0.8511203E-01
        3   -1    0    0  501    0  0.00000000000E+00  0.00000000000E+00  0.10914173815E+04  0.10914173862E+04  0.10100000352E+00 0. -1.
       -3   -1    0    0    0  501  0.00000000000E+00  0.00000000000E+00 -0.11262998076E+04  0.11262998121E+04  0.10100000352E+00 0.  1.
    10030    2    1    2    0    0  0.00000000000E+00  0.00000000000E+00 -0.34882426018E+02  0.22177171983E+04  0.22174428489E+04 0.  0.
        4    1    3    3  502    0  0.75364868160E+03  0.36814546121E+03  0.70773067688E+03  0.10974523861E+04  0.12699999809E+01 0. -1.
       -4    1    3    3    0  502 -0.75364868160E+03 -0.36814546121E+03 -0.74261310290E+03  0.11202648122E+04  0.12699999809E+01 0.  1.
</event>
<event>
 5   0  0.9179618E-05  0.2190852E+04  0.7818609E-02  0.8522246E-01
        2   -1    0    0  501    0  0.00000000000E+00  0.00000000000E+00  0.10306032996E+04  0.10306032996E+04  0.25500000920E-02 0.  1.
       -2   -1    0    0    0  501  0.00000000000E+00  0.00000000000E+00 -0.11643255624E+04  0.11643255625E+04  0.25500000920E-02 0. -1.
    10030    2    1    2    0    0  0.00000000000E+00  0.00000000000E+00 -0.13372226282E+03  0.21949288621E+04  0.21908516760E+04 0.  0.
        3    1    3    3  502    0 -0.20261408126E+03  0.40715128322E+03 -0.10652763828E+04  0.11582911617E+04  0.10100000352E+00 0. -1.
       -3    1    3    3    0  502  0.20261408126E+03 -0.40715128322E+03  0.93155411993E+03  0.10366377004E+04  0.10100000352E+00 0.  1.
</event>
<event>
 5   0  0.4133418E-05  0.2168828E+04  0.7818609E-02  0.8531516E-01
       -1   -1    0    0    0  501  0.00000000000E+00  0.00000000000E+00  0.56919683820E+03  0.56919683822E+03  0.50400001928E-02 0.  1.
        1   -1    0    0  501    0  0.00000000000E+00  0.00000000000E+00 -0.20659885446E+04  0.20659885446E+04  0.50400001928E-02 0. -1.
    10030    2    1    2    0    0  0.00000000000E+00  0.00000000000E+00 -0.14967917064E+04  0.26351853828E+04  0.21688283910E+04 0.  0.
        4    1    3    3  502    0  0.20055390611E+03  0.93864782735E+03 -0.13615584614E+04  0.16658705441E+04  0.12699999809E+01 0.  1.
       -4    1    3    3    0  502 -0.20055390611E+03 -0.93864782735E+03 -0.13523324497E+03  0.96931483868E+03  0.12699999809E+01 0. -1.
</event>
<event>
 5   0  0.9442578E-05  0.2270558E+04  0.7818609E-02  0.8489621E-01
        2   -1    0    0  501    0  0.00000000000E+00  0.00000000000E+00  0.68337415736E+03  0.68337415737E+03  0.25500000920E-02 0. -1.
       -2   -1    0    0    0  501  0.00000000000E+00  0.00000000000E+00 -0.18860221521E+04  0.18860221521E+04  0.25500000920E-02 0.  1.
    10030    2    1    2    0    0  0.00000000000E+00  0.00000000000E+00 -0.12026479947E+04  0.25693963095E+04  0.22705583445E+04 0.  0.
        4    1    3    3  502    0  0.85833798825E+03  0.64822278216E+03 -0.10123357679E+04  0.14770789408E+04  0.12699999809E+01 0. -1.
       -4    1    3    3    0  502 -0.85833798825E+03 -0.64822278216E+03 -0.19031222684E+03  0.10923173687E+04  0.12699999809E+01 0.  1.
</event>
<event>
 5   0  0.9457742E-05  0.2255847E+04  0.7818609E-02  0.8495537E-01
       -2   -1    0    0    0  501  0.00000000000E+00  0.00000000000E+00  0.10449098045E+04  0.10449098045E+04  0.25500000920E-02 0. -1.
        2   -1    0    0  501    0  0.00000000000E+00  0.00000000000E+00 -0.12175317799E+04  0.12175317799E+04  0.25500000920E-02 0.  1.
    10030    2    1    2    0    0  0.00000000000E+00  0.00000000000E+00 -0.17262197542E+03  0.22624415844E+04  0.22558465321E+04 0.  0.
        1    1    3    3  502    0  0.98237104168E+03  0.92208567663E+02  0.46178063339E+03  0.10894019629E+04  0.50400001928E-02 0. -1.
       -1    1    3    3    0  502 -0.98237104168E+03 -0.92208567663E+02 -0.63440260880E+03  0.11730396215E+04  0.50400001928E-02 0.  1.
</event>
<event>
 5   0  0.4188865E-05  0.2192859E+04  0.7818609E-02  0.8521406E-01
       -1   -1    0    0    0  501  0.00000000000E+00  0.00000000000E+00  0.61226116832E+03  0.61226116834E+03  0.50400001928E-02 0.  1.
        1   -1    0    0  501    0  0.00000000000E+00  0.00000000000E+00 -0.19634716399E+04  0.19634716399E+04  0.50400001928E-02 0. -1.
    10030    2    1    2    0    0  0.00000000000E+00  0.00000000000E+00 -0.13512104715E+04  0.25757328082E+04  0.21928588101E+04 0.  0.
        3    1    3    3  502    0  0.10159969300E+04 -0.53519064909E+02 -0.19553500991E+03  0.10360250974E+04  0.10100000352E+00 0.  1.
       -3    1    3    3    0  502 -0.10159969300E+04  0.53519064909E+02 -0.11556754616E+04  0.15397077109E+04  0.10100000352E+00 0. -1.
</event>
<event>
 5   0  0.9179618E-05  0.2308840E+04  0.7818609E-02  0.8474444E-01
       -2   -1    0    0    0  501  0.00000000000E+00  0.00000000000E+00  0.86919161178E+03  0.86919161178E+03  0.25500000920E-02 0.  1.
        2   -1    0    0  501    0  0.00000000000E+00  0.00000000000E+00 -0.15332467864E+04  0.15332467864E+04  0.25500000920E-02 0. -1.
    10030    2    1    2    0    0  0.00000000000E+00  0.00000000000E+00 -0.66405517460E+03  0.24024383982E+04  0.23088397480E+04 0.  0.
        3    1    3    3  502    0 -0.24702345326E+03  0.96876768698E+03 -0.93262141850E+03  0.13672286342E+04  0.10100000352E+00 0. -1.
       -3    1    3    3    0  502  0.24702345326E+03 -0.96876768698E+03  0.26856624389E+03  0.10352097639E+04  0.10100000352E+00 0.  1.
</event>
<event>
 5   0  0.4133418E-05  0.2132904E+04  0.7818609E-02  0.8546886E-01
       -1   -1    0    0    0  501  0.00000000000E+00  0.00000000000E+00  0.11896923712E+04  0.11896923712E+04  0.50400001928E-02 0. -1.
        1   -1    0    0  501    0  0.00000000000E+00  0.00000000000E+00 -0.95597793506E+03  0.95597793507E+03  0.50400001928E-02 0.  1.
    10030    2    1    2    0    0  0.00000000000E+00  0.00000000000E+00  0.23371443613E+03  0.21456703063E+04  0.21329038013E+04 0.  0.
        4    1    3    3  502    0  0.71330727637E+02  0.10212462199E+04 -0.18373914422E+03  0.10400930729E+04  0.12699999809E+01 0.  1.
       -4    1    3    3    0  502 -0.71330727637E+02 -0.10212462199E+04  0.41745358034E+03  0.11055772334E+04  0.12699999809E+01 0. -1.
</event>
<event>
 5   0  0.9254673E-05  0.2183510E+04  0.7818609E-02  0.8525323E-01
        2   -1    0    0  501    0  0.00000000000E+00  0.00000000000E+00  0.11284894399E+04  0.11284894399E+04  0.25500000920E-02 0. -1.
       -2   -1    0    0    0  501  0.00000000000E+00  0.00000000000E+00 -0.10562163475E+04  0.10562163475E+04  0.25500000920E-02 0.  1.
    10030    2    1    2    0    0  0.00000000000E+00  0.00000000000E+00  0.72273092353E+02  0.21847057874E+04  0.21835100132E+04 0.  0.
        2    1    3    3  502    0 -0.55700254964E+03  0.45719328524E+03 -0.78446591267E+03  0.10652062282E+04  0.25500000920E-02 0.  1.
       -2    1    3    3    0  502  0.55700254964E+03 -0.45719328524E+03  0.85673900503E+03  0.11194995592E+04  0.25500000920E-02 0. -1.
</event>
<event>
 5   0  0.4133418E-05  0.2176557E+04  0.7818609E-02  0.8528250E-01
       -1   -1    0    0    0  501  0.00000000000E+00  0.00000000000E+00  0.20495127714E+04  0.20495127714E+04  0.50400001928E-02 0.  1.
        1   -1    0    0  501    0  0.00000000000E+00  0.00000000000E+00 -0.57786890976E+03  0.57786890978E+03  0.50400001928E-02 0. -1.
    10030    2    1    2    0    0  0.00000000000E+00  0.00000000000E+00  0.14716438616E+04  0.26273816812E+04  0.21765566483E+04 0.  0.
        4    1    3    3  502    0  0.29868515468E+03 -0.12751728427E+03  0.19896519998E+04  0.20159836737E+04  0.12699999809E+01 0.  1.
       -4    1    3    3    0  502 -0.29868515468E+03  0.12751728427E+03 -0.51800813818E+03  0.61139800747E+03  0.12699999809E+01 0. -1.
</event>
<event>
 5   0  0.4133418E-05  0.2212918E+04  0.7818609E-02  0.8513070E-01
       -1   -1    0    0    0  501  0.00000000000E+00  0.00000000000E+00  0.12387872415E+04  0.12387872415E+04  0.50400001928E-02 0. -1.
        1   -1    0    0  501    0  0.00000000000E+00  0.00000000000E+00 -0.98826632508E+03  0.98826632509E+03  0.50400001928E-02 0.  1.
    10030    2    1    2    0    0  0.00000000000E+00  0.00000000000E+00  0.25052091643E+03  0.22270535666E+04  0.22129181772E+04 0.  0.
        4    1    3    3  502    0  0.57144359698E+03 -0.90436165529E+03 -0.15909047975E+03  0.10815401896E+04  0.12699999809E+01 0. -1.
       -4    1    3    3    0  502 -0.57144359698E+03  0.90436165529E+03  0.40961139618E+03  0.11455133770E+04  0.12699999809E+01 0.  1.
</event>
<event>
 5   0  0.4174030E-05  0.2210348E+04  0.7818609E-02  0.8514133E-01
       -1   -1    0    0    0  501  0.00000000000E+00  0.00000000000E+00  0.11589090200E+04  0.11589090200E+04  0.50400001928E-02 0. -1.
        1   -1    0    0  501    0  0.00000000000E+00  0.00000000000E+00 -0.10539309518E+04  0.10539309518E+04  0.50400001928E-02 0.  1.
    10030    2    1    2    0    0  0.00000000000E+00  0.00000000000E+00  0.10497806820E+03  0.22128399719E+04  0.22103484672E+04 0.  0.
        2    1    3    3  502    0 -0.77519447868E+03  0.77957578884E+03  0.16551091352E+03  0.11117817919E+04  0.25500000920E-02 0. -1.
       -2    1    3    3    0  502  0.77519447868E+03 -0.77957578884E+03 -0.60532845319E+02  0.11010581800E+04  0.25500000920E-02 0.  1.
</event>
<event>
 5   0  0.9254673E-05  0.2192803E+04  0.7818609E-02  0.8521430E-01
        2   -1    0    0  501    0  0.00000000000E+00  0.00000000000E+00  0.15479562142E+04  0.15479562142E+04  0.25500000920E-02 0. -1.
       -2   -1    0    0    0  501  0.00000000000E+00  0.00000000000E+00 -0.77656960909E+03  0.77656960910E+03  0.25500000920E-02 0.  1.
    10030    2    1    2    0    0  0.00000000000E+00  0.00000000000E+00  0.77138660512E+03  0.23245258233E+04  0.21928025467E+04 0.  0.
        2    1    3    3  502    0  0.40908345931E+02  0.50848668149E+03 -0.64310169590E+03  0.82086051756E+03  0.25500000920E-02 0.  1.
       -2    1    3    3    0  502 -0.40908345931E+02 -0.50848668149E+03  0.14144883010E+04  0.15036653058E+04  0.25500000920E-02 0. -1.
</event>
<event>
 5   0  0.9457742E-05  0.1918300E+04  0.7818609E-02  0.8645801E-01
        2   -1    0    0  501    0  0.00000000000E+00  0.00000000000E+00  0.75899479007E+03  0.75899479007E+03  0.25500000920E-02 0. -1.
       -2   -1    0    0    0  501  0.00000000000E+00  0.00000000000E+00 -0.12120879541E+04  0.12120879541E+04  0.25500000920E-02 0.  1.
    10030    2    1    2    0    0  0.00000000000E+00  0.00000000000E+00 -0.45309316405E+03  0.19710827442E+04  0.19182997079E+04 0.  0.
        1    1    3    3  502    0 -0.63152425866E+03  0.40585061159E+03 -0.83999214377E+03  0.11265542197E+04  0.50400001928E-02 0.  1.
       -1    1    3    3    0  502  0.63152425866E+03 -0.40585061159E+03  0.38689897972E+03  0.84452852453E+03  0.50400001928E-02 0. -1.
</event>
<event>
 5   0  0.3283125E-05  0.2204411E+04  0.7818609E-02  0.8516595E-01
        4   -1    0    0  501    0  0.00000000000E+00  0.00000000000E+00  0.11789882711E+04  0.11789889551E+04  0.12699999809E+01 0. -1.
       -4   -1    0    0    0  501  0.00000000000E+00  0.00000000000E+00 -0.10304215345E+04  0.10304223171E+04  0.12699999809E+01 0.  1.
    10030    2    1    2    0    0  0.00000000000E+00  0.00000000000E+00  0.14856673660E+03  0.22094112722E+04  0.22044106002E+04 0.  0.
        3    1    3    3  502    0 -0.66168312369E+03 -0.87296000978E+03 -0.48357516584E+02  0.10964589342E+04  0.10100000352E+00 0. -1.
       -3    1    3    3    0  502  0.66168312369E+03  0.87296000978E+03  0.19692425319E+03  0.11129523379E+04  0.10100000352E+00 0.  1.
</event>
<event>
 5   0  0.9457742E-05  0.2195627E+04  0.7818609E-02  0.8520250E-01
        2   -1    0    0  501    0  0.00000000000E+00  0.00000000000E+00  0.18736270254E+04  0.18736270254E+04  0.25500000920E-02 0. -1.
       -2   -1    0    0    0  501  0.00000000000E+00  0.00000000000E+00 -0.64324148499E+03  0.64324148500E+03  0.25500000920E-02 0.  1.
    10030    2    1    2    0    0  0.00000000000E+00  0.00000000000E+00  0.12303855404E+04  0.25168685104E+04  0.21956271360E+04 0.  0.
        1    1    3    3  502    0 -0.59826484145E+03  0.60148283207E+03  0.14139100338E+04  0.16488917494E+04  0.50400001928E-02 0. -1.
       -1    1    3    3    0  502  0.59826484145E+03 -0.60148283207E+03 -0.18352449340E+03  0.86797676092E+03  0.50400001928E-02 0.  1.
</event>
<event>
 5   0  0.4063293E-05  0.2057165E+04  0.7818609E-02  0.8580351E-01
       -1   -1    0    0    0  501  0.00000000000E+00  0.00000000000E+00  0.61283920791E+03  0.61283920793E+03  0.50400001928E-02 0.  1.
        1   -1    0    0  501    0  0.00000000000E+00  0.00000000000E+00 -0.17263611899E+04  0.17263611899E+04  0.50400001928E-02 0. -1.
    10030    2    1    2    0    0  0.00000000000E+00  0.00000000000E+00 -0.11135219820E+04  0.23392003978E+04  0.20571648687E+04 0.  0.
        1    1    3    3  502    0  0.27948653812E+03 -0.25479389956E+03 -0.16444301478E+04  0.16873598216E+04  0.50400001928E-02 0. -1.
       -1    1    3    3    0  502 -0.27948653812E+03  0.25479389956E+03  0.53090816587E+03  0.65184057626E+03  0.50400001928E-02 0.  1.
</event>
<event>
 5   0  0.9938176E-05  0.2215359E+04  0.7818609E-02  0.8512062E-01
       -2   -1    0    0    0  501  0.00000000000E+00  0.00000000000E+00  0.93201950515E+03  0.93201950515E+03  0.25500000920E-02 0.  1.
        2   -1    0    0  501    0  0.00000000000E+00  0.00000000000E+00 -0.13164465736E+04  0.13164465736E+04  0.25500000920E-02 0. -1.
    10030    2    1    2    0    0  0.00000000000E+00  0.00000000000E+00 -0.38442706840E+03  0.22484660787E+04  0.22153590084E+04 0.  0.
        5    1    3    3  502    0  0.87937046741E+03 -0.59525004352E+03 -0.51206879472E+03  0.11789196638E+04  0.46999998093E+01 0.  1.
       -5    1    3    3    0  502 -0.87937046741E+03  0.59525004352E+03  0.12764172632E+03  0.10695464149E+04  0.46999998093E+01 0. -1.
</event>
<event>
 5   0  0.3283125E-05  0.2198067E+04  0.7818609E-02  0.8519233E-01
       -3   -1    0    0    0  501  0.00000000000E+00  0.00000000000E+00  0.12274969957E+04  0.12274969998E+04  0.10100000352E+00 0. -1.
        3   -1    0    0  501    0  0.00000000000E+00  0.00000000000E+00 -0.98401403520E+03  0.98401404038E+03  0.10100000352E+00 0.  1.
    10030    2    1    2    0    0  0.00000000000E+00  0.00000000000E+00  0.24348296047E+03  0.22115110402E+04  0.21980666798E+04 0.  0.
        3    1    3    3  502    0  0.20155173907E+03 -0.96832909494E+03 -0.36034468562E+03  0.10526787935E+04  0.10100000352E+00 0.  1.
       -3    1    3    3    0  502 -0.20155173907E+03  0.96832909494E+03  0.60382764609E+03  0.11588322467E+04  0.10100000352E+00 0. -1.
</event>
<event>
 5   0  0.9442578E-05  0.2191947E+04  0.7818609E-02  0.8521787E-01
       -2   -1    0    0    0  501  0.00000000000E+00  0.00000000000E+00  0.87408072638E+03  0.87408072638E+03  0.25500000920E-02 0.  1.
        2   -1    0    0  501    0  0.00000000000E+00  0.00000000000E+00 -0.13741957428E+04  0.13741957428E+04  0.25500000920E-02 0. -1.
    10030    2    1    2    0    0  0.00000000000E+00  0.00000000000E+00 -0.50011501641E+03  0.22482764692E+04  0.21919470916E+04 0.  0.
        4    1    3    3  502    0 -0.88852115315E+03 -0.63992341319E+03 -0.20211682695E+03  0.11134741304E+04  0.12699999809E+01 0. -1.
       -4    1    3    3    0  502  0.88852115315E+03  0.63992341319E+03 -0.29799818946E+03  0.11348023388E+04  0.12699999809E+01 0.  1.
</event>
<event>
 5   0  0.9442578E-05  0.2344892E+04  0.7818609E-02  0.8460428E-01
       -2   -1    0    0    0  501  0.00000000000E+00  0.00000000000E+00  0.11161514272E+04  0.11161514272E+04  0.25500000920E-02 0. -1.
        2   -1    0    0  501    0  0.00000000000E+00  0.00000000000E+00 -0.12315802775E+04  0.12315802775E+04  0.25500000920E-02 0.  1.
    10030    2    1    2    0    0  0.00000000000E+00  0.00000000000E+00 -0.11542885034E+03  0.23477317047E+04  0.23448923936E+04 0.  0.
        4    1    3    3  502    0 -0.35388238945E+03  0.46213621008E+03  0.96127322232E+03  0.11237661870E+04  0.12699999809E+01 0. -1.
       -4    1    3    3    0  502  0.35388238945E+03 -0.46213621008E+03 -0.10767020727E+04  0.12239655177E+04  0.12699999809E+01 0.  1.
</event>
<event>
 5   0  0.4174030E-05  0.2192669E+04  0.7818609E-02  0.8521486E-01
        1   -1    0    0  501    0  0.00000000000E+00  0.00000000000E+00  0.13510457572E+04  0.13510457572E+04  0.50400001928E-02 0. -1.
       -1   -1    0    0    0  501  0.00000000000E+00  0.00000000000E+00 -0.88964363116E+03  0.88964363118E+03  0.50400001928E-02 0.  1.
    10030    2    1    2    0    0  0.00000000000E+00  0.00000000000E+00  0.46140212601E+03  0.22406893884E+04  0.21926689247E+04 0.  0.
        2    1    3    3  502    0 -0.32199575016E+03  0.69991399803E+03 -0.56637368954E+03  0.95621128626E+03  0.25500000920E-02 0.  1.
       -2    1    3    3    0  502  0.32199575016E+03 -0.69991399803E+03  0.10277758155E+04  0.12844781021E+04  0.25500000920E-02 0. -1.
</event>
<event>
 5   0  0.4188865E-05  0.2207294E+04  0.7818609E-02  0.8515398E-01
       -1   -1    0    0    0  501  0.00000000000E+00  0.00000000000E+00  0.79896182371E+03  0.79896182372E+03  0.50400001928E-02 0.  1.
        1   -1    0    0  501    0  0.00000000000E+00  0.00000000000E+00 -0.15245246998E+04  0.15245246998E+04  0.50400001928E-02 0. -1.
    10030    2    1    2    0    0  0.00000000000E+00  0.00000000000E+00 -0.72556287611E+03  0.23234865235E+04  0.22072943025E+04 0.  0.
        3    1    3    3  502    0 -0.60842244637E+03  0.40788446179E+03 -0.12317608227E+04  0.14331023487E+04  0.10100000352E+00 0. -1.
       -3    1    3    3    0  502  0.60842244637E+03 -0.40788446179E+03  0.50619794659E+03  0.89038417481E+03  0.10100000352E+00 0.  1.
</event>
<event>
 5   0  0.4174075E-05  0.2211713E+04  0.7818609E-02  0.8513569E-01
       -1   -1    0    0    0  501  0.00000000000E+00  0.00000000000E+00  0.16702014279E+04  0.16702014279E+04  0.50400001928E-02 0.  1.
        1   -1    0    0  501    0  0.00000000000E+00  0.00000000000E+00 -0.73219797394E+03  0.73219797396E+03  0.50400001928E-02 0. -1.
    10030    2    1    2    0    0  0.00000000000E+00  0.00000000000E+00  0.93800345395E+03  0.24023994019E+04  0.22117125506E+04 0.  0.
        5    1    3    3  502    0 -0.67941219542E+03  0.71898607501E+03  0.10059424554E+04  0.14108452151E+04  0.46999998093E+01 0.  1.
       -5    1    3    3    0  502  0.67941219542E+03 -0.71898607501E+03 -0.67939001481E+02  0.99155418675E+03  0.46999998093E+01 0. -1.
</event>
<event>
 5   0  0.9442578E-05  0.2159382E+04  0.7818609E-02  0.8535527E-01
       -2   -1    0    0    0  501  0.00000000000E+00  0.00000000000E+00  0.10622968544E+04  0.10622968544E+04  0.25500000920E-02 0.  1.
        2   -1    0    0  501    0  0.00000000000E+00  0.00000000000E+00 -0.10973697948E+04  0.10973697948E+04  0.25500000920E-02 0. -1.
    10030    2    1    2    0    0  0.00000000000E+00  0.00000000000E+00 -0.35072940337E+02  0.21596666492E+04  0.21593818385E+04 0.  0.
        4    1    3    3  502    0 -0.80923291137E+03  0.69696457449E+03 -0.17602927874E+03  0.10824072444E+04  0.12699999809E+01 0.  1.
       -4    1    3    3    0  502  0.80923291137E+03 -0.69696457449E+03  0.14095633841E+03  0.10772594048E+04  0.12699999809E+01 0. -1.
</event>
<event>
 5   0  0.9938176E-05  0.2525464E+04  0.7818609E-02  0.8393970E-01
        2   -1    0    0  501    0  0.00000000000E+00  0.00000000000E+00  0.15716265637E+04  0.15716265637E+04  0.25500000920E-02 0. -1.
       -2   -1    0    0    0  501  0.00000000000E+00  0.00000000000E+00 -0.10145489587E+04  0.10145489587E+04  0.25500000920E-02 0.  1.
    10030    2    1    2    0    0  0.00000000000E+00  0.00000000000E+00  0.55707760507E+03  0.25861755224E+04  0.25254639920E+04 0.  0.
        5    1    3    3  502    0  0.93569837918E+03 -0.17972712164E+03 -0.57001683874E+03  0.11103038240E+04  0.46999998093E+01 0.  1.
       -5    1    3    3    0  502 -0.93569837918E+03  0.17972712164E+03  0.11270944438E+04  0.14758716985E+04  0.46999998093E+01 0. -1.
</event>
<event>
 5   0  0.9457742E-05  0.2215315E+04  0.7818609E-02  0.8512080E-01
        2   -1    0    0  501    0  0.00000000000E+00  0.00000000000E+00  0.23188941833E+04  0.23188941833E+04  0.25500000920E-02 0.  1.
       -2   -1    0    0    0  501  0.00000000000E+00  0.00000000000E+00 -0.52909079731E+03  0.52909079732E+03  0.25500000920E-02 0. -1.
    10030    2    1    2    0    0  0.00000000000E+00  0.00000000000E+00  0.17898033860E+04  0.28479849806E+04  0.22153153928E+04 0.  0.
        1    1    3    3  502    0  0.10394093062E+04  0.30943387758E+03  0.11846146368E+04  0.16060612903E+04  0.50400001928E-02 0.  1.
       -1    1    3    3    0  502 -0.10394093062E+04 -0.30943387758E+03  0.60518874921E+03  0.12419236903E+04  0.50400001928E-02 0. -1.
</event>
<event>
 5   0  0.9457742E-05  0.2133611E+04  0.7818609E-02  0.8546580E-01
        2   -1    0    0  501    0  0.00000000000E+00  0.00000000000E+00  0.11433160986E+04  0.11433160986E+04  0.25500000920E-02 0. -1.
       -2   -1    0    0    0  501  0.00000000000E+00  0.00000000000E+00 -0.99541484681E+03  0.99541484681E+03  0.25500000920E-02 0.  1.
    10030    2    1    2    0    0  0.00000000000E+00  0.00000000000E+00  0.14790125174E+03  0.21387309454E+04  0.21336108540E+04 0.  0.
        1    1    3    3  502    0 -0.77716724635E+03 -0.98601290213E+02  0.79981724851E+03  0.11195618671E+04  0.50400001928E-02 0. -1.
       -1    1    3    3    0  502  0.77716724635E+03  0.98601290213E+02 -0.65191599677E+03  0.10191690783E+04  0.50400001928E-02 0.  1.
</event>
<event>
 5   0  0.4174075E-05  0.2140009E+04  0.7818609E-02  0.8543821E-01
       -1   -1    0    0    0  501  0.00000000000E+00  0.00000000000E+00  0.12899909039E+04  0.12899909039E+04  0.50400001928E-02 0.  1.
        1   -1    0    0  501    0  0.00000000000E+00  0.00000000000E+00 -0.88753291730E+03  0.88753291731E+03  0.50400001928E-02 0. -1.
    10030    2    1    2    0    0  0.00000000000E+00  0.00000000000E+00  0.40245798658E+03  0.21775238212E+04  0.21400087759E+04 0.  0.
        5    1    3    3  502    0 -0.49418454673E+03  0.79458108686E+03 -0.32681908151E+03  0.99116611719E+03  0.46999998093E+01 0. -1.
       -5    1    3    3    0  502  0.49418454673E+03 -0.79458108686E+03  0.72927706809E+03  0.11863577040E+04  0.46999998093E+01 0.  1.
</event>
<event>
 5   0  0.4174075E-05  0.2070536E+04  0.7818609E-02  0.8574335E-01
       -1   -1    0    0    0  501  0.00000000000E+00  0.00000000000E+00  0.69406232859E+03  0.69406232861E+03  0.50400001928E-02 0.  1.
        1   -1    0    0  501    0  0.00000000000E+00  0.00000000000E+00 -0.15442119392E+04  0.15442119392E+04  0.50400001928E-02 0. -1.
    10030    2    1    2    0    0  0.00000000000E+00  0.00000000000E+00 -0.85014961059E+03  0.22382742678E+04  0.20705355195E+04 0.  0.
        5    1    3    3  502    0 -0.90604087898E+03 -0.45655088108E+03 -0.64769106568E+03  0.12036920653E+04  0.46999998093E+01 0. -1.
       -5    1    3    3    0  502  0.90604087898E+03  0.45655088108E+03 -0.20245854491E+03  0.10345822025E+04  0.46999998093E+01 0.  1.
</event>
<event>
 5   0  0.9442578E-05  0.2196999E+04  0.7818609E-02  0.8519678E-01
        2   -1    0    0  501    0  0.00000000000E+00  0.00000000000E+00  0.21045013197E+04  0.21045013197E+04  0.25500000920E-02 0. -1.
       -2   -1    0    0    0  501  0.00000000000E+00  0.00000000000E+00 -0.57339072683E+03  0.57339072684E+03  0.25500000920E-02 0.  1.
    10030    2    1    2    0    0  0.00000000000E+00  0.00000000000E+00  0.15311105928E+04  0.26778920465E+04  0.21969993549E+04 0.  0.
        4    1    3    3  502    0  0.75967777021E+03  0.15948097164E+03 -0.18185364427E+03  0.79725582826E+03  0.12699999809E+01 0.  1.
       -4    1    3    3    0  502 -0.75967777021E+03 -0.15948097164E+03  0.17129642371E+04  0.18806362182E+04  0.12699999809E+01 0. -1.
</event>
<event>
 5   0  0.4133418E-05  0.2183496E+04  0.7818609E-02  0.8525329E-01
        1   -1    0    0  501    0  0.00000000000E+00  0.00000000000E+00  0.74107263019E+03  0.74107263021E+03  0.50400001928E-02 0.  1.
       -1   -1    0    0    0  501  0.00000000000E+00  0.00000000000E+00 -0.16083624465E+04  0.16083624465E+04  0.50400001928E-02 0. -1.
    10030    2    1    2    0    0  0.00000000000E+00  0.00000000000E+00 -0.86728981631E+03  0.23494350767E+04  0.21834957188E+04 0.  0.
        4    1    3    3  502    0 -0.97717133646E+03 -0.29701022382E+03 -0.84875237855E+03  0.13279537292E+04  0.12699999809E+01 0.  1.
       -4    1    3    3    0  502  0.97717133646E+03  0.29701022382E+03 -0.18537437761E+02  0.10214813475E+04  0.12699999809E+01 0. -1.
</event>
<event>
 5   0  0.9442578E-05  0.2163568E+04  0.7818609E-02  0.8533747E-01
        2   -1    0    0  501    0  0.00000000000E+00  0.00000000000E+00  0.18280117877E+04  0.18280117877E+04  0.25500000920E-02 0. -1.
       -2   -1    0    0    0  501  0.00000000000E+00  0.00000000000E+00 -0.64018006949E+03  0.64018006949E+03  0.25500000920E-02 0.  1.
    10030    2    1    2    0    0  0.00000000000E+00  0.00000000000E+00  0.11878317183E+04  0.24681918572E+04  0.21635680838E+04 0.  0.
        4    1    3    3  502    0 -0.65603956389E+03 -0.83042573532E+03  0.33816279817E+03  0.11110132773E+04  0.12699999809E+01 0.  1.
       -4    1    3    3    0  502  0.65603956389E+03  0.83042573532E+03  0.84966892008E+03  0.13571785800E+04  0.12699999809E+01 0. -1.
</event>
<event>
 5   0  0.4188865E-05  0.2190094E+04  0.7818609E-02  0.8522563E-01
       -1   -1    0    0    0  501  0.00000000000E+00  0.00000000000E+00  0.58146670424E+03  0.58146670426E+03  0.50400001928E-02 0.  1.
        1   -1    0    0  501    0  0.00000000000E+00  0.00000000000E+00 -0.20622469429E+04  0.20622469429E+04  0.50400001928E-02 0. -1.
    10030    2    1    2    0    0  0.00000000000E+00  0.00000000000E+00 -0.14807802387E+04  0.26437136472E+04  0.21900940010E+04 0.  0.
        3    1    3    3  502    0  0.98491577075E+02  0.46575140351E+03  0.45002140829E+03  0.65509101562E+03  0.10100000352E+00 0.  1.
       -3    1    3    3    0  502 -0.98491577075E+02 -0.46575140351E+03 -0.19308016469E+04  0.19886226315E+04  0.10100000352E+00 0. -1.
</event>
<event>
 5   0  0.4133418E-05  0.2222620E+04  0.7818609E-02  0.8509072E-01
       -1   -1    0    0    0  501  0.00000000000E+00  0.00000000000E+00  0.64509877278E+03  0.64509877280E+03  0.50400001928E-02 0. -1.
        1   -1    0    0  501    0  0.00000000000E+00  0.00000000000E+00 -0.19144511563E+04  0.19144511563E+04  0.50400001928E-02 0.  1.
    10030    2    1    2    0    0  0.00000000000E+00  0.00000000000E+00 -0.12693523835E+04  0.25595499291E+04  0.22226201578E+04 0.  0.
        4    1    3    3  502    0  0.10920819058E+04  0.17961759069E+03 -0.75042750198E+03  0.13371792761E+04  0.12699999809E+01 0.  1.
       -4    1    3    3    0  502 -0.10920819058E+04 -0.17961759069E+03 -0.51892488152E+03  0.12223706530E+04  0.12699999809E+01 0. -1.
</event>
<event>
 5   0  0.4174030E-05  0.2215774E+04  0.7818609E-02  0.8511891E-01
       -1   -1    0    0    0  501  0.00000000000E+00  0.00000000000E+00  0.12843436751E+04  0.12843436751E+04  0.50400001928E-02 0.  1.
        1   -1    0    0  501    0  0.00000000000E+00  0.00000000000E+00 -0.95567337720E+03  0.95567337721E+03  0.50400001928E-02 0. -1.
    10030    2    1    2    0    0  0.00000000000E+00  0.00000000000E+00  0.32867029787E+03  0.22400170523E+04  0.22157735060E+04 0.  0.
        2    1    3    3  502    0  0.57352798044E+03 -0.93783641120E+03  0.25200899883E+02  0.10995938177E+04  0.25500000920E-02 0. -1.
       -2    1    3    3    0  502 -0.57352798044E+03  0.93783641120E+03  0.30346939799E+03  0.11404232346E+04  0.25500000920E-02 0.  1.
</event>
<event>
 5   0  0.9457742E-05  0.2227202E+04  0.7818609E-02  0.8507191E-01
       -2   -1    0    0    0  501  0.00000000000E+00  0.00000000000E+00  0.59071636061E+03  0.59071636062E+03  0.25500000920E-02 0.  1.
        2   -1    0    0  501    0  0.00000000000E+00  0.00000000000E+00 -0.20993267957E+04  0.20993267957E+04  0.25500000920E-02 0. -1.
    10030    2    1    2    0    0  0.00000000000E+00  0.00000000000E+00 -0.15086104351E+04  0.26900431563E+04  0.22272015486E+04 0.  0.
        1    1    3    3  502    0  0.31124842221E+03  0.40501335135E+03  0.44087772218E+03  0.67474777587E+03  0.50400001928E-02 0.  1.
       -1    1    3    3    0  502 -0.31124842221E+03 -0.40501335135E+03 -0.19494881573E+04  0.20152953805E+04  0.50400001928E-02 0. -1.
</event>
<event>
 5   0  0.4063293E-05  0.2189151E+04  0.7818609E-02  0.8522957E-01
       -1   -1    0    0    0  501  0.00000000000E+00  0.00000000000E+00  0.11279081258E+04  0.11279081258E+04  0.50400001928E-02 0.  1.
        1   -1    0    0  501    0  0.00000000000E+00  0.00000000000E+00 -0.10622281184E+04  0.10622281184E+04  0.50400001928E-02 0. -1.
    10030    2    1    2    0    0  0.00000000000E+00  0.00000000000E+00  0.65680007443E+02  0.21901362442E+04  0.21891511836E+04 0.  0.
        1    1    3    3  502    0  0.62734896011E+03 -0.69930636296E+03 -0.52910627140E+03  0.10782159123E+04  0.50400001928E-02 0. -1.
       -1    1    3    3    0  502 -0.62734896011E+03  0.69930636296E+03  0.59478627884E+03  0.11119203319E+04  0.50400001928E-02 0.  1.
</event>
<event>
 5   0  0.9457742E-05  0.2208407E+04  0.7818609E-02  0.8514937E-01
       -2   -1    0    0    0  501  0.00000000000E+00  0.00000000000E+00  0.11146004834E+04  0.11146004834E+04  0.25500000920E-02 0. -1.
        2   -1    0    0  501    0  0.00000000000E+00  0.00000000000E+00 -0.10939033804E+04  0.10939033804E+04  0.25500000920E-02 0.  1.
    10030    2    1    2    0    0  0.00000000000E+00  0.00000000000E+00  0.20697103022E+02  0.22085038637E+04  0.22084068797E+04 0.  0.
        1    1    3    3  502    0 -0.19499509190E+03  0.10287216330E+04  0.36104037312E+03  0.11075384576E+04  0.50400001928E-02 0. -1.
       -1    1    3    3    0  502  0.19499509190E+03 -0.10287216330E+04 -0.34034327010E+03  0.11009654061E+04  0.50400001928E-02 0.  1.
</event>
<event>
 5   0  0.9254673E-05  0.2163505E+04  0.7818609E-02  0.8533774E-01
        2   -1    0    0  501    0  0.00000000000E+00  0.00000000000E+00  0.18905778831E+04  0.18905778831E+04  0.25500000920E-02 0. -1.
       -2   -1    0    0    0  501  0.00000000000E+00  0.00000000000E+00 -0.61895786043E+03  0.61895786043E+03  0.25500000920E-02 0.  1.
    10030    2    1    2    0    0  0.00000000000E+00  0.00000000000E+00  0.12716200227E+04  0.25095357435E+04  0.21635046027E+04 0.  0.
        2    1    3    3  502    0  0.28190908786E+03  0.10426157344E+04  0.70605813271E+03  0.12903636659E+04  0.25500000920E-02 0. -1.
       -2    1    3    3    0  502 -0.28190908786E+03 -0.10426157344E+04  0.56556188995E+03  0.12191720776E+04  0.25500000920E-02 0.  1.
</event>
<event>
 5   0  0.9442578E-05  0.2213007E+04  0.7818609E-02  0.8513034E-01
        2   -1    0    0  501    0  0.00000000000E+00  0.00000000000E+00  0.92792461810E+03  0.92792461811E+03  0.25500000920E-02 0.  1.
       -2   -1    0    0    0  501  0.00000000000E+00  0.00000000000E+00 -0.13194494421E+04  0.13194494421E+04  0.25500000920E-02 0. -1.
    10030    2    1    2    0    0  0.00000000000E+00  0.00000000000E+00 -0.39152482399E+03  0.22473740602E+04  0.22130066603E+04 0.  0.
        4    1    3    3  502    0 -0.74804870237E+03 -0.78501070775E+03 -0.41947726041E+03  0.11626613683E+04  0.12699999809E+01 0. -1.
       -4    1    3    3    0  502  0.74804870237E+03  0.78501070775E+03  0.27952436421E+02  0.10847126919E+04  0.12699999809E+01 0.  1.
</event>
<event>
 5   0  0.4133418E-05  0.1581728E+04  0.7818609E-02  0.8831853E-01
        1   -1    0    0  501    0  0.00000000000E+00  0.00000000000E+00  0.15942117451E+04  0.15942117451E+04  0.50400001928E-02 0.  1.
       -1   -1    0    0    0  501  0.00000000000E+00  0.00000000000E+00 -0.39233544668E+03  0.39233544671E+03  0.50400001928E-02 0. -1.
    10030    2    1    2    0    0  0.00000000000E+00  0.00000000000E+00  0.12018762984E+04  0.19865471918E+04  0.15817278870E+04 0.  0.
        4    1    3    3  502    0  0.82732745660E+02 -0.12690242150E+03  0.15758180809E+04  0.15830834371E+04  0.12699999809E+01 0.  1.
       -4    1    3    3    0  502 -0.82732745660E+02  0.12690242150E+03 -0.37394178249E+03  0.40346375473E+03  0.12699999809E+01 0. -1.
</event>
<event>
 5   0  0.4063293E-05  0.2191391E+04  0.7818609E-02  0.8522020E-01
        1   -1    0    0  501    0  0.00000000000E+00  0.00000000000E+00  0.11310152860E+04  0.11310152860E+04  0.50400001928E-02 0.  1.
       -1   -1    0    0    0  501  0.00000000000E+00  0.00000000000E+00 -0.10614786792E+04  0.10614786793E+04  0.50400001928E-02 0. -1.
    10030    2    1    2    0    0  0.00000000000E+00  0.00000000000E+00  0.69536606783E+02  0.21924939653E+04  0.21913909848E+04 0.  0.
        1    1    3    3  502    0 -0.70315836699E+03  0.72516584156E+02  0.87236245549E+03  0.11228119156E+04  0.50400001928E-02 0.  1.
       -1    1    3    3    0  502  0.70315836699E+03 -0.72516584156E+02 -0.80282584871E+03  0.10696820497E+04  0.50400001928E-02 0. -1.
</event>
<event>
 5   0  0.9442578E-05  0.2090617E+04  0.7818609E-02  0.8565388E-01
       -2   -1    0    0    0  501  0.00000000000E+00  0.00000000000E+00  0.93659654562E+03  0.93659654563E+03  0.25500000920E-02 0. -1.
        2   -1    0    0  501    0  0.00000000000E+00  0.00000000000E+00 -0.11666386538E+04  0.11666386538E+04  0.25500000920E-02 0.  1.
    10030    2    1    2    0    0  0.00000000000E+00  0.00000000000E+00 -0.23004210815E+03  0.21032351994E+04  0.20906168785E+04 0.  0.
        4    1    3    3  502    0 -0.91371493608E+03 -0.49830493711E+03 -0.21300152163E+03  0.10623342487E+04  0.12699999809E+01 0.  1.
       -4    1    3    3    0  502  0.91371493608E+03  0.49830493711E+03 -0.17040586520E+02  0.10409009507E+04  0.12699999809E+01 0. -1.
</event>
<event>
 5   0  0.9938176E-05  0.2193884E+04  0.7818609E-02  0.8520978E-01
        2   -1    0    0  501    0  0.00000000000E+00  0.00000000000E+00  0.13830275183E+04  0.13830275183E+04  0.25500000920E-02 0.  1.
       -2   -1    0    0    0  501  0.00000000000E+00  0.00000000000E+00 -0.87003481455E+03  0.87003481456E+03  0.25500000920E-02 0. -1.
    10030    2    1    2    0    0  0.00000000000E+00  0.00000000000E+00  0.51299270375E+03  0.22530623329E+04  0.21938843091E+04 0.  0.
        5    1    3    3  502    0  0.31062029777E+03 -0.11463188599E+03 -0.81748217532E+03  0.88200036034E+03  0.46999998093E+01 0. -1.
       -5    1    3    3    0  502 -0.31062029777E+03  0.11463188599E+03  0.13304748791E+04  0.13710619725E+04  0.46999998093E+01 0.  1.
</event>
<event>
 5   0  0.4174030E-05  0.2206046E+04  0.7818609E-02  0.8515916E-01
       -1   -1    0    0    0  501  0.00000000000E+00  0.00000000000E+00  0.13641760511E+04  0.13641760511E+04  0.50400001928E-02 0.  1.
        1   -1    0    0  501    0  0.00000000000E+00  0.00000000000E+00 -0.89186383788E+03  0.89186383789E+03  0.50400001928E-02 0. -1.
    10030    2    1    2    0    0  0.00000000000E+00  0.00000000000E+00  0.47231221322E+03  0.22560398890E+04  0.22060455920E+04 0.  0.
        2    1    3    3  502    0  0.54962259943E+03 -0.38519997418E+03  0.11313188998E+04  0.13154263473E+04  0.25500000920E-02 0.  1.
       -2    1    3    3    0  502 -0.54962259943E+03  0.38519997418E+03 -0.65900668662E+03  0.94061354175E+03  0.25500000920E-02 0. -1.
</event>
<event>
 5   0  0.4188865E-05  0.2189806E+04  0.7818609E-02  0.8522683E-01
       -1   -1    0    0    0  501  0.00000000000E+00  0.00000000000E+00  0.60203939217E+03  0.60203939219E+03  0.50400001928E-02 0.  1.
        1   -1    0    0  501    0  0.00000000000E+00  0.00000000000E+00 -0.19912522271E+04  0.19912522271E+04  0.50400001928E-02 0. -1.
    10030    2    1    2    0    0  0.00000000000E+00  0.00000000000E+00 -0.13892128349E+04  0.25932916193E+04  0.21898057270E+04 0.  0.
        3    1    3    3  502    0 -0.94050607770E+02  0.10167798471E+04 -0.11625383518E+04  0.15473145136E+04  0.10100000352E+00 0. -1.
       -3    1    3    3    0  502  0.94050607770E+02 -0.10167798471E+04 -0.22667448314E+03  0.10459771058E+04  0.10100000352E+00 0.  1.
</event>
<event>
 5   0  0.9254673E-05  0.2187579E+04  0.7818609E-02  0.8523616E-01
        2   -1    0    0  501    0  0.00000000000E+00  0.00000000000E+00  0.11957373035E+04  0.11957373035E+04  0.25500000920E-02 0.  1.
       -2   -1    0    0    0  501  0.00000000000E+00  0.00000000000E+00 -0.10005332960E+04  0.10005332960E+04  0.25500000920E-02 0. -1.
    10030    2    1    2    0    0  0.00000000000E+00  0.00000000000E+00  0.19520400743E+03  0.21962705995E+04  0.21875785567E+04 0.  0.
        2    1    3    3  502    0 -0.80996021180E+02  0.10156564884E+04 -0.30179334819E+03  0.10626371361E+04  0.25500000920E-02 0. -1.
       -2    1    3    3    0  502  0.80996021180E+02 -0.10156564884E+04  0.49699735562E+03  0.11336334634E+04  0.25500000920E-02 0.  1.
</event>
<event>
 5   0  0.9442578E-05  0.2221903E+04  0.7818609E-02  0.8509367E-01
       -2   -1    0    0    0  501  0.00000000000E+00  0.00000000000E+00  0.12837135616E+04  0.12837135616E+04  0.25500000920E-02 0. -1.
        2   -1    0    0  501    0  0.00000000000E+00  0.00000000000E+00 -0.96143961958E+03  0.96143961958E+03  0.25500000920E-02 0.  1.
    10030    2    1    2    0    0  0.00000000000E+00  0.00000000000E+00  0.32227394205E+03  0.22451531812E+04  0.22219028587E+04 0.  0.
        4    1    3    3  502    0  0.51084040261E+03 -0.46251328719E+03  0.10416537187E+04  0.12489677900E+04  0.12699999809E+01 0. -1.
       -4    1    3    3    0  502 -0.51084040261E+03  0.46251328719E+03 -0.71937977666E+03  0.99618539124E+03  0.12699999809E+01 0.  1.
</event>
<event>
 5   0  0.4063293E-05  0.2285098E+04  0.7818609E-02  0.8483820E-01
       -1   -1    0    0    0  501  0.00000000000E+00  0.00000000000E+00  0.10765763627E+04  0.10765763627E+04  0.50400001928E-02 0. -1.
        1   -1    0    0  501    0  0.00000000000E+00  0.00000000000E+00 -0.12125644420E+04  0.12125644420E+04  0.50400001928E-02 0.  1.
    10030    2    1    2    0    0  0.00000000000E+00  0.00000000000E+00 -0.13598807927E+03  0.22891408047E+04  0.22850979993E+04 0.  0.
        1    1    3    3  502    0 -0.70862114898E+02 -0.19487659697E+03 -0.11935564761E+04  0.12114352599E+04  0.50400001928E-02 0.  1.
       -1    1    3    3    0  502  0.70862114898E+02  0.19487659697E+03  0.10575683968E+04  0.10777055448E+04  0.50400001928E-02 0. -1.
</event>
<event>
 5   0  0.4063293E-05  0.1787532E+04  0.7818609E-02  0.8712958E-01
        1   -1    0    0  501    0  0.00000000000E+00  0.00000000000E+00  0.11181129089E+04  0.11181129089E+04  0.50400001928E-02 0.  1.
       -1   -1    0    0    0  501  0.00000000000E+00  0.00000000000E+00 -0.71443409537E+03  0.71443409539E+03  0.50400001928E-02 0. -1.
    10030    2    1    2    0    0  0.00000000000E+00  0.00000000000E+00  0.40367881349E+03  0.18325470043E+04  0.17875323601E+04 0.  0.
        1    1    3    3  502    0  0.20613653537E+03  0.54282359816E+03 -0.49473291940E+03  0.76283051296E+03  0.50400001928E-02 0. -1.
       -1    1    3    3    0  502 -0.20613653537E+03 -0.54282359816E+03  0.89841173289E+03  0.10697164913E+04  0.50400001928E-02 0.  1.
</event>
<event>
 5   0  0.9179618E-05  0.2212441E+04  0.7818609E-02  0.8513268E-01
        2   -1    0    0  501    0  0.00000000000E+00  0.00000000000E+00  0.22184004685E+04  0.22184004685E+04  0.25500000920E-02 0. -1.
       -2   -1    0    0    0  501  0.00000000000E+00  0.00000000000E+00 -0.55162433721E+03  0.55162433722E+03  0.25500000920E-02 0.  1.
    10030    2    1    2    0    0  0.00000000000E+00  0.00000000000E+00  0.16667761312E+04  0.27700248057E+04  0.22124409037E+04 0.  0.
        3    1    3    3  502    0 -0.10628990935E+04 -0.11515900980E+03  0.11890760450E+04  0.15990365635E+04  0.10100000352E+00 0. -1.
       -3    1    3    3    0  502  0.10628990935E+04  0.11515900980E+03  0.47770008626E+03  0.11709882421E+04  0.10100000352E+00 0.  1.
</event>
<event>
 5   0  0.4133418E-05  0.2164892E+04  0.7818609E-02  0.8533185E-01
        1   -1    0    0  501    0  0.00000000000E+00  0.00000000000E+00  0.14635666443E+04  0.14635666443E+04  0.50400001928E-02 0. -1.
       -1   -1    0    0    0  501  0.00000000000E+00  0.00000000000E+00 -0.80057120124E+03  0.80057120126E+03  0.50400001928E-02 0.  1.
    10030    2    1    2    0    0  0.00000000000E+00  0.00000000000E+00  0.66299544308E+03  0.22641378456E+04  0.21648919664E+04 0.  0.
        4    1    3    3  502    0  0.89279006338E+03  0.53604081999E+03  0.64046228218E+03  0.12225413718E+04  0.12699999809E+01 0. -1.
       -4    1    3    3    0  502 -0.89279006338E+03 -0.53604081999E+03  0.22533160904E+02  0.10415964738E+04  0.12699999809E+01 0.  1.
</event>
<event>
 5   0  0.4063293E-05  0.2185208E+04  0.7818609E-02  0.8524610E-01
       -1   -1    0    0    0  501  0.00000000000E+00  0.00000000000E+00  0.91970235483E+03  0.91970235484E+03  0.50400001928E-02 0. -1.
        1   -1    0    0  501    0  0.00000000000E+00  0.00000000000E+00 -0.12980107677E+04  0.12980107677E+04  0.50400001928E-02 0.  1.
    10030    2    1    2    0    0  0.00000000000E+00  0.00000000000E+00 -0.37830841283E+03  0.22177131225E+04  0.21852080538E+04 0.  0.
        1    1    3    3  502    0 -0.39386827731E+03 -0.60641241786E+03 -0.10204324764E+04  0.12506600974E+04  0.50400001928E-02 0.  1.
       -1    1    3    3    0  502  0.39386827731E+03  0.60641241786E+03  0.64212406352E+03  0.96705302511E+03  0.50400001928E-02 0. -1.
</event>
<event>
 5   0  0.4063293E-05  0.2208057E+04  0.7818609E-02  0.8515082E-01
        1   -1    0    0  501    0  0.00000000000E+00  0.00000000000E+00  0.14085219920E+04  0.14085219920E+04  0.50400001928E-02 0.  1.
       -1   -1    0    0    0  501  0.00000000000E+00  0.00000000000E+00 -0.86536062218E+03  0.86536062219E+03  0.50400001928E-02 0. -1.
    10030    2    1    2    0    0  0.00000000000E+00  0.00000000000E+00  0.54316136978E+03  0.22738826142E+04  0.22080574878E+04 0.  0.
        1    1    3    3  502    0 -0.70606041103E+03 -0.83595672166E+03  0.42270184922E+03  0.11730395551E+04  0.50400001928E-02 0. -1.
       -1    1    3    3    0  502  0.70606041103E+03  0.83595672166E+03  0.12045952055E+03  0.11008430590E+04  0.50400001928E-02 0.  1.
</event>
<event>
 5   0  0.4188865E-05  0.2234030E+04  0.7818609E-02  0.8504396E-01
       -1   -1    0    0    0  501  0.00000000000E+00  0.00000000000E+00  0.13322873700E+04  0.13322873700E+04  0.50400001928E-02 0. -1.
        1   -1    0    0  501    0  0.00000000000E+00  0.00000000000E+00 -0.93652632026E+03  0.93652632028E+03  0.50400001928E-02 0.  1.
    10030    2    1    2    0    0  0.00000000000E+00  0.00000000000E+00  0.39576104977E+03  0.22688136903E+04  0.22340297117E+04 0.  0.
        3    1    3    3  502    0  0.27039409273E+03  0.21551329322E+03  0.12765685569E+04  0.13225680458E+04  0.10100000352E+00 0. -1.
       -3    1    3    3    0  502 -0.27039409273E+03 -0.21551329322E+03 -0.88080750717E+03  0.94624564455E+03  0.10100000352E+00 0.  1.
</event>
<event>
 5   0  0.3283125E-05  0.2093117E+04  0.7818609E-02  0.8564281E-01
        4   -1    0    0  501    0  0.00000000000E+00  0.00000000000E+00  0.53365168570E+03  0.53365319689E+03  0.12699999809E+01 0. -1.
       -4   -1    0    0    0  501  0.00000000000E+00  0.00000000000E+00 -0.20524290367E+04  0.20524294297E+04  0.12699999809E+01 0.  1.
    10030    2    1    2    0    0  0.00000000000E+00  0.00000000000E+00 -0.15187773510E+04  0.25860826265E+04  0.20931169841E+04 0.  0.
        2    1    3    3  502    0  0.36178200919E+03  0.77720217418E+03 -0.17712526442E+02  0.85746322097E+03  0.25500000920E-02 0. -1.
       -2    1    3    3    0  502 -0.36178200919E+03 -0.77720217418E+03 -0.15010648246E+04  0.17286194056E+04  0.25500000920E-02 0.  1.
</event>
<event>
 5   0  0.4133418E-05  0.2159058E+04  0.7818609E-02  0.8535665E-01
        1   -1    0    0  501    0  0.00000000000E+00  0.00000000000E+00  0.12721400754E+04  0.12721400754E+04  0.50400001928E-02 0. -1.
       -1   -1    0    0    0  501  0.00000000000E+00  0.00000000000E+00 -0.91608075805E+03  0.91608075807E+03  0.50400001928E-02 0.  1.
    10030    2    1    2    0    0  0.00000000000E+00  0.00000000000E+00  0.35605931731E+03  0.21882208334E+04  0.21590581693E+04 0.  0.
        4    1    3    3  502    0  0.84734684379E+03  0.12059283686E+03 -0.48876416111E+03  0.98561215702E+03  0.12699999809E+01 0.  1.
       -4    1    3    3    0  502 -0.84734684379E+03 -0.12059283686E+03  0.84482347842E+03  0.12026086764E+04  0.12699999809E+01 0. -1.
</event>
<event>
 5   0  0.4063293E-05  0.2208864E+04  0.7818609E-02  0.8514748E-01
       -1   -1    0    0    0  501  0.00000000000E+00  0.00000000000E+00  0.76125869499E+03  0.76125869501E+03  0.50400001928E-02 0. -1.
        1   -1    0    0  501    0  0.00000000000E+00  0.00000000000E+00 -0.16023075991E+04  0.16023075991E+04  0.50400001928E-02 0.  1.
    10030    2    1    2    0    0  0.00000000000E+00  0.00000000000E+00 -0.84104890409E+03  0.23635662941E+04  0.22088644973E+04 0.  0.
        1    1    3    3  502    0 -0.89560552510E+03 -0.13576459121E+03 -0.10966228748E+04  0.14223652872E+04  0.50400001928E-02 0.  1.
       -1    1    3    3    0  502  0.89560552510E+03  0.13576459121E+03  0.25557397067E+03  0.94120100687E+03  0.50400001928E-02 0. -1.
</event>
<event>
 5   0  0.4063293E-05  0.2128891E+04  0.7818609E-02  0.8548622E-01
       -1   -1    0    0    0  501  0.00000000000E+00  0.00000000000E+00  0.63619118018E+03  0.63619118020E+03  0.50400001928E-02 0.  1.
        1   -1    0    0  501    0  0.00000000000E+00  0.00000000000E+00 -0.17809804610E+04  0.17809804610E+04  0.50400001928E-02 0. -1.
    10030    2    1    2    0    0  0.00000000000E+00  0.00000000000E+00 -0.11447892808E+04  0.24171716412E+04  0.21288908486E+04 0.  0.
        1    1    3    3  502    0  0.14127660001E+03  0.88890140199E+03  0.72835330878E+02  0.90300042393E+03  0.50400001928E-02 0.  1.
       -1    1    3    3    0  502 -0.14127660001E+03 -0.88890140199E+03 -0.12176246117E+04  0.15141712172E+04  0.50400001928E-02 0. -1.
</event>
<event>
 5   0  0.9938176E-05  0.2201768E+04  0.7818609E-02  0.8517693E-01
       -2   -1    0    0    0  501  0.00000000000E+00  0.00000000000E+00  0.49580335879E+03  0.49580335879E+03  0.25500000920E-02 0. -1.
        2   -1    0    0  501    0  0.00000000000E+00  0.00000000000E+00 -0.24444074536E+04  0.24444074536E+04  0.25500000920E-02 0.  1.
    10030    2    1    2    0    0  0.00000000000E+00  0.00000000000E+00 -0.19486040948E+04  0.29402108124E+04  0.22017678586E+04 0.  0.
        5    1    3    3  502    0 -0.74633640553E+03  0.69577322879E+03 -0.15261979000E+04  0.18358705118E+04  0.46999998093E+01 0.  1.
       -5    1    3    3    0  502  0.74633640553E+03 -0.69577322879E+03 -0.42240619480E+03  0.11043403006E+04  0.46999998093E+01 0. -1.
</event>
<event>
 5   0  0.9442578E-05  0.2201288E+04  0.7818609E-02  0.8517892E-01
       -2   -1    0    0    0  501  0.00000000000E+00  0.00000000000E+00  0.80464307592E+03  0.80464307592E+03  0.25500000920E-02 0.  1.
        2   -1    0    0  501    0  0.00000000000E+00  0.00000000000E+00 -0.15055341740E+04  0.15055341740E+04  0.25500000920E-02 0. -1.
    10030    2    1    2    0    0  0.00000000000E+00  0.00000000000E+00 -0.70089109804E+03  0.23101772499E+04  0.22012883942E+04 0.  0.
        4    1    3    3  502    0 -0.13389485275E+03  0.10452795834E+04 -0.17120228451E+02  0.10539601293E+04  0.12699999809E+01 0.  1.
       -4    1    3    3    0  502  0.13389485275E+03 -0.10452795834E+04 -0.68377086959E+03  0.12562171206E+04  0.12699999809E+01 0. -1.
</event>
<event>
 5   0  0.4174075E-05  0.2205711E+04  0.7818609E-02  0.8516055E-01
        1   -1    0    0  501    0  0.00000000000E+00  0.00000000000E+00  0.14148532092E+04  0.14148532092E+04  0.50400001928E-02 0.  1.
       -1   -1    0    0    0  501  0.00000000000E+00  0.00000000000E+00 -0.85965851801E+03  0.85965851803E+03  0.50400001928E-02 0. -1.
    10030    2    1    2    0    0  0.00000000000E+00  0.00000000000E+00  0.55519469120E+03  0.22745117272E+04  0.22057113257E+04 0.  0.
        5    1    3    3  502    0  0.64833156815E+03  0.12370161527E+03  0.11886906442E+04  0.13596482815E+04  0.46999998093E+01 0.  1.
       -5    1    3    3    0  502 -0.64833156815E+03 -0.12370161527E+03 -0.63349595299E+03  0.91486344573E+03  0.46999998093E+01 0. -1.
</event>
<event>
 5   0  0.9442578E-05  0.2201615E+04  0.7818609E-02  0.8517756E-01
       -2   -1    0    0    0  501  0.00000000000E+00  0.00000000000E+00  0.85983194580E+03  0.85983194580E+03  0.25500000920E-02 0.  1.
        2   -1    0    0  501    0  0.00000000000E+00  0.00000000000E+00 -0.14093185468E+04  0.14093185468E+04  0.25500000920E-02 0. -1.
    10030    2    1    2    0    0  0.00000000000E+00  0.00000000000E+00 -0.54948660104E+03  0.22691504926E+04  0.22016149603E+04 0.  0.
        4    1    3    3  502    0  0.51691508816E+03  0.97064227872E+03 -0.32552803713E+03  0.11468730346E+04  0.12699999809E+01 0. -1.
       -4    1    3    3    0  502 -0.51691508816E+03 -0.97064227872E+03 -0.22395856391E+03  0.11222774581E+04  0.12699999809E+01 0.  1.
</event>
<event>
 5   0  0.4188865E-05  0.2175126E+04  0.7818609E-02  0.8528853E-01
        1   -1    0    0  501    0  0.00000000000E+00  0.00000000000E+00  0.20349094923E+04  0.20349094923E+04  0.50400001928E-02 0.  1.
       -1   -1    0    0    0  501  0.00000000000E+00  0.00000000000E+00 -0.58125103432E+03  0.58125103434E+03  0.50400001928E-02 0. -1.
    10030    2    1    2    0    0  0.00000000000E+00  0.00000000000E+00  0.14536584580E+04  0.26161605267E+04  0.21751259708E+04 0.  0.
        3    1    3    3  502    0 -0.84266920202E+03 -0.19669099995E+03 -0.65548199944E+02  0.86779911859E+03  0.10100000352E+00 0. -1.
       -3    1    3    3    0  502  0.84266920202E+03  0.19669099995E+03  0.15192066579E+04  0.17483614081E+04  0.10100000352E+00 0.  1.
</event>
<event>
 5   0  0.9254673E-05  0.2189339E+04  0.7818609E-02  0.8522879E-01
        2   -1    0    0  501    0  0.00000000000E+00  0.00000000000E+00  0.17926614828E+04  0.17926614828E+04  0.25500000920E-02 0. -1.
       -2   -1    0    0    0  501  0.00000000000E+00  0.00000000000E+00 -0.66844800040E+03  0.66844800040E+03  0.25500000920E-02 0.  1.
    10030    2    1    2    0    0  0.00000000000E+00  0.00000000000E+00  0.11242134824E+04  0.24611094832E+04  0.21893386979E+04 0.  0.
        2    1    3    3  502    0  0.68211282255E+03 -0.53011486254E+02  0.15227070454E+04  0.16693486354E+04  0.25500000920E-02 0. -1.
       -2    1    3    3    0  502 -0.68211282255E+03  0.53011486254E+02 -0.39849356300E+03  0.79176084781E+03  0.25500000920E-02 0.  1.
</event>
<event>
 5   0  0.9457742E-05  0.2224613E+04  0.7818609E-02  0.8508253E-01
       -2   -1    0    0    0  501  0.00000000000E+00  0.00000000000E+00  0.15116055077E+04  0.15116055077E+04  0.25500000920E-02 0.  1.
        2   -1    0    0  501    0  0.00000000000E+00  0.00000000000E+00 -0.81848487162E+03  0.81848487162E+03  0.25500000920E-02 0. -1.
    10030    2    1    2    0    0  0.00000000000E+00  0.00000000000E+00  0.69312063612E+03  0.23300903794E+04  0.22246134405E+04 0.  0.
        1    1    3    3  502    0  0.45163288395E+03  0.83839905338E+03  0.94856442355E+03  0.13441204188E+04  0.50400001928E-02 0.  1.
       -1    1    3    3    0  502 -0.45163288395E+03 -0.83839905338E+03 -0.25544378743E+03  0.98596996057E+03  0.50400001928E-02 0. -1.
</event>
<event>
 5   0  0.4133418E-05  0.2192425E+04  0.7818609E-02  0.8521587E-01
        1   -1    0    0  501    0  0.00000000000E+00  0.00000000000E+00  0.11973191974E+04  0.11973191974E+04  0.50400001928E-02 0. -1.
       -1   -1    0    0    0  501  0.00000000000E+00  0.00000000000E+00 -0.10036440438E+04  0.10036440438E+04  0.50400001928E-02 0.  1.
    10030    2    1    2    0    0  0.00000000000E+00  0.00000000000E+00  0.19367515356E+03  0.22009632412E+04  0.21924253976E+04 0.  0.
        4    1    3    3  502    0  0.47597638841E+02 -0.96928329364E+03  0.60863171434E+03  0.11455172697E+04  0.12699999809E+01 0.  1.
       -4    1    3    3    0  502 -0.47597638841E+02  0.96928329364E+03 -0.41495656078E+03  0.10554459715E+04  0.12699999809E+01 0. -1.
</event>
<event>
 5   0  0.9457742E-05  0.2153134E+04  0.7818609E-02  0.8538192E-01
        2   -1    0    0  501    0  0.00000000000E+00  0.00000000000E+00  0.95201366772E+03  0.95201366773E+03  0.25500000920E-02 0. -1.
       -2   -1    0    0    0  501  0.00000000000E+00  0.00000000000E+00 -0.12174152988E+04  0.12174152988E+04  0.25500000920E-02 0.  1.
    10030    2    1    2    0    0  0.00000000000E+00  0.00000000000E+00 -0.26540163107E+03  0.21694289665E+04  0.21531335339E+04 0.  0.
        1    1    3    3  502    0  0.53878961681E+03 -0.24599659014E+03  0.77309542842E+03  0.97390200483E+03  0.50400001928E-02 0. -1.
       -1    1    3    3    0  502 -0.53878961681E+03  0.24599659014E+03 -0.10384970595E+04  0.11955269617E+04  0.50400001928E-02 0.  1.
</event>
<event>
 5   0  0.4174030E-05  0.2171317E+04  0.7818609E-02  0.8530462E-01
        1   -1    0    0  501    0  0.00000000000E+00  0.00000000000E+00  0.69686563848E+03  0.69686563850E+03  0.50400001928E-02 0. -1.
       -1   -1    0    0    0  501  0.00000000000E+00  0.00000000000E+00 -0.16913647388E+04  0.16913647388E+04  0.50400001928E-02 0.  1.
    10030    2    1    2    0    0  0.00000000000E+00  0.00000000000E+00 -0.99449910028E+03  0.23882303773E+04  0.21713166223E+04 0.  0.
        2    1    3    3  502    0  0.48882370179E+03  0.83867884407E+03  0.37445541954E+02  0.97145920323E+03  0.25500000920E-02 0. -1.
       -2    1    3    3    0  502 -0.48882370179E+03 -0.83867884407E+03 -0.10319446422E+04  0.14167711740E+04  0.25500000920E-02 0.  1.
</event>
<event>
 5   0  0.9442578E-05  0.2190012E+04  0.7818609E-02  0.8522597E-01
       -2   -1    0    0    0  501  0.00000000000E+00  0.00000000000E+00  0.57577652755E+03  0.57577652756E+03  0.25500000920E-02 0.  1.
        2   -1    0    0  501    0  0.00000000000E+00  0.00000000000E+00 -0.20824709057E+04  0.20824709057E+04  0.25500000920E-02 0. -1.
    10030    2    1    2    0    0  0.00000000000E+00  0.00000000000E+00 -0.15066943781E+04  0.26582474333E+04  0.21900117505E+04 0.  0.
        4    1    3    3  502    0 -0.48488812873E+03  0.71720729970E+03  0.60475816951E+02  0.86784891857E+03  0.12699999809E+01 0.  1.
       -4    1    3    3    0  502  0.48488812873E+03 -0.71720729970E+03 -0.15671701951E+04  0.17903985147E+04  0.12699999809E+01 0. -1.
</event>
<event>
 5   0  0.9179618E-05  0.2196637E+04  0.7818609E-02  0.8519829E-01
       -2   -1    0    0    0  501  0.00000000000E+00  0.00000000000E+00  0.12317525052E+04  0.12317525052E+04  0.25500000920E-02 0.  1.
        2   -1    0    0  501    0  0.00000000000E+00  0.00000000000E+00 -0.97933951525E+03  0.97933951526E+03  0.25500000920E-02 0. -1.
    10030    2    1    2    0    0  0.00000000000E+00  0.00000000000E+00  0.25241298993E+03  0.22110920204E+04  0.21966373404E+04 0.  0.
        3    1    3    3  502    0 -0.15702472755E+03 -0.76871458814E+02 -0.96524317853E+03  0.98094871943E+03  0.10100000352E+00 0. -1.
       -3    1    3    3    0  502  0.15702472755E+03  0.76871458814E+02  0.12176561685E+04  0.12301433010E+04  0.10100000352E+00 0.  1.
</event>
<event>
 5   0  0.4174030E-05  0.2149357E+04  0.7818609E-02  0.8539808E-01
       -1   -1    0    0    0  501  0.00000000000E+00  0.00000000000E+00  0.13437756330E+04  0.13437756330E+04  0.50400001928E-02 0.  1.
        1   -1    0    0  501    0  0.00000000000E+00  0.00000000000E+00 -0.85946908074E+03  0.85946908076E+03  0.50400001928E-02 0. -1.
    10030    2    1    2    0    0  0.00000000000E+00  0.00000000000E+00  0.48430655230E+03  0.22032447138E+04  0.21493567485E+04 0.  0.
        2    1    3    3  502    0  0.76101542954E+03 -0.70359049653E+03  0.53344238886E+03  0.11656521149E+04  0.25500000920E-02 0. -1.
       -2    1    3    3    0  502 -0.76101542954E+03  0.70359049653E+03 -0.49135836563E+02  0.10375925989E+04  0.25500000920E-02 0.  1.
</event>
<event>
 5   0  0.4133418E-05  0.2225732E+04  0.7818609E-02  0.8507794E-01
       -1   -1    0    0    0  501  0.00000000000E+00  0.00000000000E+00  0.88478172560E+03  0.88478172561E+03  0.50400001928E-02 0.  1.
        1   -1    0    0  501    0  0.00000000000E+00  0.00000000000E+00 -0.13997469328E+04  0.13997469328E+04  0.50400001928E-02 0. -1.
    10030    2    1    2    0    0  0.00000000000E+00  0.00000000000E+00 -0.51496520718E+03  0.22845286584E+04  0.22257317957E+04 0.  0.
        4    1    3    3  502    0  0.78112263540E+03 -0.69534346145E+03 -0.64807946083E+03  0.12303104085E+04  0.12699999809E+01 0. -1.
       -4    1    3    3    0  502 -0.78112263540E+03  0.69534346145E+03  0.13311425364E+03  0.10542182499E+04  0.12699999809E+01 0.  1.
</event>
<event>
 5   0  0.4188865E-05  0.2200531E+04  0.7818609E-02  0.8518207E-01
        1   -1    0    0  501    0  0.00000000000E+00  0.00000000000E+00  0.21851360033E+04  0.21851360033E+04  0.50400001928E-02 0. -1.
       -1   -1    0    0    0  501  0.00000000000E+00  0.00000000000E+00 -0.55400876302E+03  0.55400876305E+03  0.50400001928E-02 0.  1.
    10030    2    1    2    0    0  0.00000000000E+00  0.00000000000E+00  0.16311272403E+04  0.27391447664E+04  0.22005312943E+04 0.  0.
        3    1    3    3  502    0  0.14836178131E+03  0.96223487731E+03  0.14535313537E+04  0.17494743736E+04  0.10100000352E+00 0. -1.
       -3    1    3    3    0  502 -0.14836178131E+03 -0.96223487731E+03  0.17759588655E+03  0.98967039280E+03  0.10100000352E+00 0.  1.
</event>
<event>
 5   0  0.4188865E-05  0.2180455E+04  0.7818609E-02  0.8526608E-01
        1   -1    0    0  501    0  0.00000000000E+00  0.00000000000E+00  0.15299607204E+04  0.15299607204E+04  0.50400001928E-02 0.  1.
       -1   -1    0    0    0  501  0.00000000000E+00  0.00000000000E+00 -0.77687998641E+03  0.77687998643E+03  0.50400001928E-02 0. -1.
    10030    2    1    2    0    0  0.00000000000E+00  0.00000000000E+00  0.75308073400E+03  0.23068407068E+04  0.21804548734E+04 0.  0.
        3    1    3    3  502    0 -0.33694734336E+03  0.60674909716E+02  0.14716118074E+04  0.15109123994E+04  0.10100000352E+00 0.  1.
       -3    1    3    3    0  502  0.33694734336E+03 -0.60674909716E+02 -0.71853107342E+03  0.79592830741E+03  0.10100000352E+00 0. -1.
</event>
<event>
 5   0  0.9179618E-05  0.2172210E+04  0.7818609E-02  0.8530085E-01
        2   -1    0    0  501    0  0.00000000000E+00  0.00000000000E+00  0.21096048844E+04  0.21096048844E+04  0.25500000920E-02 0.  1.
       -2   -1    0    0    0  501  0.00000000000E+00  0.00000000000E+00 -0.55916813834E+03  0.55916813835E+03  0.25500000920E-02 0. -1.
    10030    2    1    2    0    0  0.00000000000E+00  0.00000000000E+00  0.15504367460E+04  0.26687730227E+04  0.21722097835E+04 0.  0.
        3    1    3    3  502    0 -0.79081792255E+03  0.58116758857E+03  0.13468468038E+04  0.16664768452E+04  0.10100000352E+00 0.  1.
       -3    1    3    3    0  502  0.79081792255E+03 -0.58116758857E+03  0.20358994225E+03  0.10022961775E+04  0.10100000352E+00 0. -1.
</event>
<event>
 5   0  0.9938176E-05  0.2147114E+04  0.7818609E-02  0.8540769E-01
        2   -1    0    0  501    0  0.00000000000E+00  0.00000000000E+00  0.16756930620E+04  0.16756930620E+04  0.25500000920E-02 0.  1.
       -2   -1    0    0    0  501  0.00000000000E+00  0.00000000000E+00 -0.68778997019E+03  0.68778997020E+03  0.25500000920E-02 0. -1.
    10030    2    1    2    0    0  0.00000000000E+00  0.00000000000E+00  0.98790309179E+03  0.23634830322E+04  0.21471142319E+04 0.  0.
        5    1    3    3  502    0  0.82857880396E+03  0.34664074811E+03 -0.15335489130E+03  0.91117641284E+03  0.46999998093E+01 0. -1.
       -5    1    3    3    0  502 -0.82857880396E+03 -0.34664074811E+03  0.11412579831E+04  0.14523066193E+04  0.46999998093E+01 0.  1.
</event>
<event>
 5   0  0.9254673E-05  0.2113804E+04  0.7818609E-02  0.8555187E-01
       -2   -1    0    0    0  501  0.00000000000E+00  0.00000000000E+00  0.66062912878E+03  0.66062912878E+03  0.25500000920E-02 0.  1.
        2   -1    0    0  501    0  0.00000000000E+00  0.00000000000E+00 -0.16908765289E+04  0.16908765289E+04  0.25500000920E-02 0. -1.
    10030    2    1    2    0    0  0.00000000000E+00  0.00000000000E+00 -0.10302474001E+04  0.23515056577E+04  0.21138044263E+04 0.  0.
        2    1    3    3  502    0  0.77781836030E+03  0.71550664264E+03 -0.52574344205E+03  0.11804055761E+04  0.25500000920E-02 0.  1.
       -2    1    3    3    0  502 -0.77781836030E+03 -0.71550664264E+03 -0.50450395807E+03  0.11711000815E+04  0.25500000920E-02 0. -1.
</event>
<event>
 5   0  0.4063293E-05  0.2232897E+04  0.7818609E-02  0.8504859E-01
        1   -1    0    0  501    0  0.00000000000E+00  0.00000000000E+00  0.10966176063E+04  0.10966176063E+04  0.50400001928E-02 0.  1.
       -1   -1    0    0    0  501  0.00000000000E+00  0.00000000000E+00 -0.11366383379E+04  0.11366383380E+04  0.50400001928E-02 0. -1.
    10030    2    1    2    0    0  0.00000000000E+00  0.00000000000E+00 -0.40020731625E+02  0.22332559443E+04  0.22328973227E+04 0.  0.
        1    1    3    3  502    0  0.87617519544E+03  0.27816991560E+03 -0.65367043534E+03  0.11279833834E+04  0.50400001928E-02 0.  1.
       -1    1    3    3    0  502 -0.87617519544E+03 -0.27816991560E+03  0.61364970371E+03  0.11052725609E+04  0.50400001928E-02 0. -1.
</event>
<event>
 5   0  0.9254673E-05  0.2214481E+04  0.7818609E-02  0.8512425E-01
       -2   -1    0    0    0  501  0.00000000000E+00  0.00000000000E+00  0.67390614867E+03  0.67390614868E+03  0.25500000920E-02 0.  1.
        2   -1    0    0  501    0  0.00000000000E+00  0.00000000000E+00 -0.18192166106E+04  0.18192166106E+04  0.25500000920E-02 0. -1.
    10030    2    1    2    0    0  0.00000000000E+00  0.00000000000E+00 -0.11453104620E+04  0.24931227593E+04  0.22144807605E+04 0.  0.
        2    1    3    3  502    0  0.10953958687E+04  0.16104599328E+03 -0.55871411352E+03  0.12401569988E+04  0.25500000920E-02 0. -1.
       -2    1    3    3    0  502 -0.10953958687E+04 -0.16104599328E+03 -0.58659634845E+03  0.12529657605E+04  0.25500000920E-02 0.  1.
</event>
<event>
 5   0  0.4063293E-05  0.2203264E+04  0.7818609E-02  0.8517071E-01
       -1   -1    0    0    0  501  0.00000000000E+00  0.00000000000E+00  0.65252635087E+03  0.65252635089E+03  0.50400001928E-02 0. -1.
        1   -1    0    0  501    0  0.00000000000E+00  0.00000000000E+00 -0.18598377575E+04  0.18598377575E+04  0.50400001928E-02 0.  1.
    10030    2    1    2    0    0  0.00000000000E+00  0.00000000000E+00 -0.12073114066E+04  0.25123641084E+04  0.22032640742E+04 0.  0.
        1    1    3    3  502    0 -0.64898364369E+03  0.31030711071E+03  0.34773516622E+03  0.79899312800E+03  0.50400001928E-02 0. -1.
       -1    1    3    3    0  502  0.64898364369E+03 -0.31030711071E+03 -0.15550465729E+04  0.17133709804E+04  0.50400001928E-02 0.  1.
</event>
<event>
 5   0  0.4174075E-05  0.2215125E+04  0.7818609E-02  0.8512159E-01
        1   -1    0    0  501    0  0.00000000000E+00  0.00000000000E+00  0.11590210160E+04  0.11590210160E+04  0.50400001928E-02 0.  1.
       -1   -1    0    0    0  501  0.00000000000E+00  0.00000000000E+00 -0.10583890515E+04  0.10583890515E+04  0.50400001928E-02 0. -1.
    10030    2    1    2    0    0  0.00000000000E+00  0.00000000000E+00  0.10063196446E+03  0.22174100675E+04  0.22151254174E+04 0.  0.
        5    1    3    3  502    0  0.16041053322E+03 -0.23614115205E+03 -0.10209180458E+04  0.10600895854E+04  0.46999998093E+01 0. -1.
       -5    1    3    3    0  502 -0.16041053322E+03  0.23614115205E+03  0.11215500102E+04  0.11573204821E+04  0.46999998093E+01 0.  1.
</event>
<event>
 5   0  0.9442578E-05  0.2188892E+04  0.7818609E-02  0.8523066E-01
        2   -1    0    0  501    0  0.00000000000E+00  0.00000000000E+00  0.12990302022E+04  0.12990302022E+04  0.25500000920E-02 0. -1.
       -2   -1    0    0    0  501  0.00000000000E+00  0.00000000000E+00 -0.92208205908E+03  0.92208205909E+03  0.25500000920E-02 0.  1.
    10030    2    1    2    0    0  0.00000000000E+00  0.00000000000E+00  0.37694814316E+03  0.22211122613E+04  0.21888923625E+04 0.  0.
        4    1    3    3  502    0 -0.59179235922E+03 -0.52324603369E+03 -0.58017610354E+03  0.98010740851E+03  0.12699999809E+01 0.  1.
       -4    1    3    3    0  502  0.59179235922E+03  0.52324603369E+03  0.95712424670E+03  0.12410048528E+04  0.12699999809E+01 0. -1.
</event>
<event>
 5   0  0.4188865E-05  0.2177847E+04  0.7818609E-02  0.8527706E-01
        1   -1    0    0  501    0  0.00000000000E+00  0.00000000000E+00  0.11173746066E+04  0.11173746066E+04  0.50400001928E-02 0. -1.
       -1   -1    0    0    0  501  0.00000000000E+00  0.00000000000E+00 -0.10611968408E+04  0.10611968408E+04  0.50400001928E-02 0.  1.
    10030    2    1    2    0    0  0.00000000000E+00  0.00000000000E+00  0.56177765779E+02  0.21785714474E+04  0.21778470125E+04 0.  0.
        3    1    3    3  502    0 -0.34026758475E+03 -0.10202495557E+04  0.19862493624E+03  0.10936832542E+04  0.10100000352E+00 0. -1.
       -3    1    3    3    0  502  0.34026758475E+03  0.10202495557E+04 -0.14244717046E+03  0.10848881932E+04  0.10100000352E+00 0.  1.
</event>
<event>
 5   0  0.3283125E-05  0.2182596E+04  0.7818609E-02  0.8525707E-01
       -3   -1    0    0    0  501  0.00000000000E+00  0.00000000000E+00  0.17094466585E+04  0.17094466615E+04  0.10100000352E+00 0. -1.
        3   -1    0    0  501    0  0.00000000000E+00  0.00000000000E+00 -0.69667666264E+03  0.69667666996E+03  0.10100000352E+00 0.  1.
    10030    2    1    2    0    0  0.00000000000E+00  0.00000000000E+00  0.10127699959E+04  0.24061233315E+04  0.21825962571E+04 0.  0.
        4    1    3    3  502    0 -0.58627555803E+03 -0.20117374654E+03  0.14965584927E+04  0.16198391406E+04  0.12699999809E+01 0. -1.
       -4    1    3    3    0  502  0.58627555803E+03  0.20117374654E+03 -0.48378849686E+03  0.78628419089E+03  0.12699999809E+01 0.  1.
</event>
<event>
 5   0  0.4063293E-05  0.2118620E+04  0.7818609E-02  0.8553085E-01
       -1   -1    0    0    0  501  0.00000000000E+00  0.00000000000E+00  0.13858882521E+04  0.13858882521E+04  0.50400001928E-02 0.  1.
        1   -1    0    0  501    0  0.00000000000E+00  0.00000000000E+00 -0.80968858358E+03  0.80968858360E+03  0.50400001928E-02 0. -1.
    10030    2    1    2    0    0  0.00000000000E+00  0.00000000000E+00  0.57619966855E+03  0.21955768357E+04  0.21186202075E+04 0.  0.
        1    1    3    3  502    0  0.81547860686E+03  0.20282889723E+03 -0.38030337851E+03  0.92237496688E+03  0.50400001928E-02 0. -1.
       -1    1    3    3    0  502 -0.81547860686E+03 -0.20282889723E+03  0.95650304706E+03  0.12732018689E+04  0.50400001928E-02 0.  1.
</event>
<event>
 5   0  0.4174030E-05  0.2296124E+04  0.7818609E-02  0.8479451E-01
        1   -1    0    0  501    0  0.00000000000E+00  0.00000000000E+00  0.16417721927E+04  0.16417721927E+04  0.50400001928E-02 0.  1.
       -1   -1    0    0    0  501  0.00000000000E+00  0.00000000000E+00 -0.80281895750E+03  0.80281895751E+03  0.50400001928E-02 0. -1.
    10030    2    1    2    0    0  0.00000000000E+00  0.00000000000E+00  0.83895323519E+03  0.24445911502E+04  0.22961235509E+04 0.  0.
        2    1    3    3  502    0  0.66175532784E+03 -0.48809332108E+03 -0.43350859504E+03  0.92956167412E+03  0.25500000920E-02 0. -1.
       -2    1    3    3    0  502 -0.66175532784E+03  0.48809332108E+03  0.12724618302E+04  0.15150294761E+04  0.25500000920E-02 0.  1.
</event>
<event>
 5   0  0.4133418E-05  0.2337163E+04  0.7818609E-02  0.8463411E-01
        1   -1    0    0  501    0  0.00000000000E+00  0.00000000000E+00  0.19006638114E+04  0.19006638114E+04  0.50400001928E-02 0. -1.
       -1   -1    0    0    0  501  0.00000000000E+00  0.00000000000E+00 -0.71847665184E+03  0.71847665186E+03  0.50400001928E-02 0.  1.
    10030    2    1    2    0    0  0.00000000000E+00  0.00000000000E+00  0.11821871595E+04  0.26191404632E+04  0.23371628711E+04 0.  0.
        4    1    3    3  502    0  0.95536862909E+03  0.64615097862E+03  0.80176571769E+03  0.14046601666E+04  0.12699999809E+01 0. -1.
       -4    1    3    3    0  502 -0.95536862909E+03 -0.64615097862E+03  0.38042144184E+03  0.12144802966E+04  0.12699999809E+01 0.  1.
</event>
<event>
 5   0  0.4174075E-05  0.2159918E+04  0.7818609E-02  0.8535299E-01
       -1   -1    0    0    0  501  0.00000000000E+00  0.00000000000E+00  0.70619774392E+03  0.70619774394E+03  0.50400001928E-02 0. -1.
        1   -1    0    0  501    0  0.00000000000E+00  0.00000000000E+00 -0.16515365152E+04  0.16515365152E+04  0.50400001928E-02 0.  1.
    10030    2    1    2    0    0  0.00000000000E+00  0.00000000000E+00 -0.94533877128E+03  0.23577342591E+04  0.21599179254E+04 0.  0.
        5    1    3    3  502    0  0.18534884046E+03  0.73741023942E+03 -0.13098242352E+04  0.15145262200E+04  0.46999998093E+01 0.  1.
       -5    1    3    3    0  502 -0.18534884046E+03 -0.73741023942E+03  0.36448546395E+03  0.84320803915E+03  0.46999998093E+01 0. -1.
</event>
<event>
 5   0  0.9457742E-05  0.2200224E+04  0.7818609E-02  0.8518335E-01
        2   -1    0    0  501    0  0.00000000000E+00  0.00000000000E+00  0.17725397766E+04  0.17725397766E+04  0.25500000920E-02 0. -1.
       -2   -1    0    0    0  501  0.00000000000E+00  0.00000000000E+00 -0.68277541022E+03  0.68277541022E+03  0.25500000920E-02 0.  1.
    10030    2    1    2    0    0  0.00000000000E+00  0.00000000000E+00  0.10897643664E+04  0.24553151869E+04  0.22002241460E+04 0.  0.
        1    1    3    3  502    0  0.47636658003E+03  0.30011147052E+03  0.15995797511E+04  0.16957733909E+04  0.50400001928E-02 0. -1.
       -1    1    3    3    0  502 -0.47636658003E+03 -0.30011147052E+03 -0.50981538466E+03  0.75954179593E+03  0.50400001928E-02 0.  1.
</event>
<event>
 5   0  0.4174030E-05  0.2141953E+04  0.7818609E-02  0.8542985E-01
        1   -1    0    0  501    0  0.00000000000E+00  0.00000000000E+00  0.76824600862E+03  0.76824600863E+03  0.50400001928E-02 0.  1.
       -1   -1    0    0    0  501  0.00000000000E+00  0.00000000000E+00 -0.14929989331E+04  0.14929989331E+04  0.50400001928E-02 0. -1.
    10030    2    1    2    0    0  0.00000000000E+00  0.00000000000E+00 -0.72475292446E+03  0.22612449417E+04  0.21419528204E+04 0.  0.
        2    1    3    3  502    0 -0.78653141669E+03 -0.59722153977E+03  0.75049121831E+02  0.99042294385E+03  0.25500000920E-02 0.  1.
       -2    1    3    3    0  502  0.78653141669E+03  0.59722153977E+03 -0.79980204629E+03  0.12708219979E+04  0.25500000920E-02 0. -1.
</event>
<event>
 5   0  0.9179618E-05  0.2158755E+04  0.7818609E-02  0.8535794E-01
       -2   -1    0    0    0  501  0.00000000000E+00  0.00000000000E+00  0.86781224598E+03  0.86781224598E+03  0.25500000920E-02 0.  1.
        2   -1    0    0  501    0  0.00000000000E+00  0.00000000000E+00 -0.13425210475E+04  0.13425210475E+04  0.25500000920E-02 0. -1.
    10030    2    1    2    0    0  0.00000000000E+00  0.00000000000E+00 -0.47470880149E+03  0.22103332934E+04  0.21587553872E+04 0.  0.
        3    1    3    3  502    0 -0.48348199391E+03  0.86620487035E+03 -0.67294870884E+03  0.11987183534E+04  0.10100000352E+00 0. -1.
       -3    1    3    3    0  502  0.48348199391E+03 -0.86620487035E+03  0.19823990735E+03  0.10116149400E+04  0.10100000352E+00 0.  1.
</event>
<event>
 5   0  0.4133418E-05  0.2239168E+04  0.7818609E-02  0.8502300E-01
       -1   -1    0    0    0  501  0.00000000000E+00  0.00000000000E+00  0.10780324117E+04  0.10780324117E+04  0.50400001928E-02 0.  1.
        1   -1    0    0  501    0  0.00000000000E+00  0.00000000000E+00 -0.11627376291E+04  0.11627376291E+04  0.50400001928E-02 0. -1.
    10030    2    1    2    0    0  0.00000000000E+00  0.00000000000E+00 -0.84705217382E+02  0.22407700408E+04  0.22391684622E+04 0.  0.
        4    1    3    3  502    0  0.75460248841E+03 -0.66533782602E+03 -0.53399607965E+03  0.11389700454E+04  0.12699999809E+01 0.  1.
       -4    1    3    3    0  502 -0.75460248841E+03  0.66533782602E+03  0.44929086227E+03  0.11017999955E+04  0.12699999809E+01 0. -1.
</event>
<event>
 5   0  0.9457742E-05  0.2201272E+04  0.7818609E-02  0.8517899E-01
       -2   -1    0    0    0  501  0.00000000000E+00  0.00000000000E+00  0.75985139931E+03  0.75985139931E+03  0.25500000920E-02 0. -1.
        2   -1    0    0  501    0  0.00000000000E+00  0.00000000000E+00 -0.15942585165E+04  0.15942585165E+04  0.25500000920E-02 0.  1.
    10030    2    1    2    0    0  0.00000000000E+00  0.00000000000E+00 -0.83440711722E+03  0.23541099158E+04  0.22012719638E+04 0.  0.
        1    1    3    3  502    0 -0.60679618991E+03  0.40173102580E+03  0.46584535293E+03  0.86406095043E+03  0.50400001928E-02 0. -1.
       -1    1    3    3    0  502  0.60679618991E+03 -0.40173102580E+03 -0.13002524702E+04  0.14900489654E+04  0.50400001928E-02 0.  1.
</event>
<event>
 5   0  0.4188865E-05  0.2203945E+04  0.7818609E-02  0.8516788E-01
       -1   -1    0    0    0  501  0.00000000000E+00  0.00000000000E+00  0.84743954203E+03  0.84743954204E+03  0.50400001928E-02 0. -1.
        1   -1    0    0  501    0  0.00000000000E+00  0.00000000000E+00 -0.14329552404E+04  0.14329552404E+04  0.50400001928E-02 0.  1.
    10030    2    1    2    0    0  0.00000000000E+00  0.00000000000E+00 -0.58551569834E+03  0.22803947824E+04  0.22039445843E+04 0.  0.
        3    1    3    3  502    0  0.10495558646E+04  0.27448836939E+03 -0.92574365575E+02  0.10887981453E+04  0.10100000352E+00 0.  1.
       -3    1    3    3    0  502 -0.10495558646E+04 -0.27448836939E+03 -0.49294133276E+03  0.11915966371E+04  0.10100000352E+00 0. -1.
</event>
<event>
 5   0  0.9442578E-05  0.2116058E+04  0.7818609E-02  0.8554203E-01
        2   -1    0    0  501    0  0.00000000000E+00  0.00000000000E+00  0.11790117216E+04  0.11790117216E+04  0.25500000920E-02 0. -1.
       -2   -1    0    0    0  501  0.00000000000E+00  0.00000000000E+00 -0.94946069941E+03  0.94946069942E+03  0.25500000920E-02 0.  1.
    10030    2    1    2    0    0  0.00000000000E+00  0.00000000000E+00  0.22955102214E+03  0.21284724210E+04  0.21160579328E+04 0.  0.
        4    1    3    3  502    0 -0.84683673369E+03 -0.86256171534E+02 -0.51728280539E+03  0.99607012519E+03  0.12699999809E+01 0.  1.
       -4    1    3    3    0  502  0.84683673369E+03  0.86256171534E+02  0.74683382753E+03  0.11324022958E+04  0.12699999809E+01 0. -1.
</event>
<event>
 5   0  0.9442578E-05  0.2216979E+04  0.7818609E-02  0.8511394E-01
        2   -1    0    0  501    0  0.00000000000E+00  0.00000000000E+00  0.27574712982E+04  0.27574712982E+04  0.25500000920E-02 0.  1.
       -2   -1    0    0    0  501  0.00000000000E+00  0.00000000000E+00 -0.44560713597E+03  0.44560713598E+03  0.25500000920E-02 0. -1.
    10030    2    1    2    0    0  0.00000000000E+00  0.00000000000E+00  0.23118641622E+04  0.32030784341E+04  0.22169789243E+04 0.  0.
        4    1    3    3  502    0  0.87659486493E+03  0.43343772298E+03  0.19100821064E+04  0.21458569577E+04  0.12699999809E+01 0.  1.
       -4    1    3    3    0  502 -0.87659486493E+03 -0.43343772298E+03  0.40178205578E+03  0.10572214764E+04  0.12699999809E+01 0. -1.
</event>
<event>
 5   0  0.9938176E-05  0.2193363E+04  0.7818609E-02  0.8521196E-01
       -2   -1    0    0    0  501  0.00000000000E+00  0.00000000000E+00  0.51536967569E+03  0.51536967569E+03  0.25500000920E-02 0.  1.
        2   -1    0    0  501    0  0.00000000000E+00  0.00000000000E+00 -0.23336848193E+04  0.23336848193E+04  0.25500000920E-02 0. -1.
    10030    2    1    2    0    0  0.00000000000E+00  0.00000000000E+00 -0.18183151436E+04  0.28490544950E+04  0.21933630693E+04 0.  0.
        5    1    3    3  502    0 -0.59320071238E+03 -0.62661930032E+03 -0.17883700065E+04  0.19856556104E+04  0.46999998093E+01 0. -1.
       -5    1    3    3    0  502  0.59320071238E+03  0.62661930032E+03 -0.29945137057E+02  0.86339888461E+03  0.46999998093E+01 0.  1.
</event>
<event>
 5   0  0.9254673E-05  0.2126729E+04  0.7818609E-02  0.8549559E-01
       -2   -1    0    0    0  501  0.00000000000E+00  0.00000000000E+00  0.10857369189E+04  0.10857369189E+04  0.25500000920E-02 0. -1.
        2   -1    0    0  501    0  0.00000000000E+00  0.00000000000E+00 -0.10414533742E+04  0.10414533742E+04  0.25500000920E-02 0.  1.
    10030    2    1    2    0    0  0.00000000000E+00  0.00000000000E+00  0.44283544780E+02  0.21271902931E+04  0.21267292989E+04 0.  0.
        2    1    3    3  502    0  0.13912408776E+03  0.91116936529E+03 -0.50821768698E+03  0.10525541988E+04  0.25500000920E-02 0.  1.
       -2    1    3    3    0  502 -0.13912408776E+03 -0.91116936529E+03  0.55250123176E+03  0.10746360943E+04  0.25500000920E-02 0. -1.
</event>
<event>
 5   0  0.9179618E-05  0.2208941E+04  0.7818609E-02  0.8514716E-01
       -2   -1    0    0    0  501  0.00000000000E+00  0.00000000000E+00  0.11352010690E+04  0.11352010690E+04  0.25500000920E-02 0.  1.
        2   -1    0    0  501    0  0.00000000000E+00  0.00000000000E+00 -0.10745722597E+04  0.10745722597E+04  0.25500000920E-02 0. -1.
    10030    2    1    2    0    0  0.00000000000E+00  0.00000000000E+00  0.60628809265E+02  0.22097733287E+04  0.22089414460E+04 0.  0.
        3    1    3    3  502    0  0.85090213008E+03  0.39079226988E+03 -0.55565573676E+03  0.10888095982E+04  0.10100000352E+00 0. -1.
       -3    1    3    3    0  502 -0.85090213008E+03 -0.39079226988E+03  0.61628454602E+03  0.11209637305E+04  0.10100000352E+00 0.  1.
</event>
<event>
 5   0  0.9179618E-05  0.2232993E+04  0.7818609E-02  0.8504820E-01
        2   -1    0    0  501    0  0.00000000000E+00  0.00000000000E+00  0.13502740205E+04  0.13502740205E+04  0.25500000920E-02 0. -1.
       -2   -1    0    0    0  501  0.00000000000E+00  0.00000000000E+00 -0.92319368335E+03  0.92319368335E+03  0.25500000920E-02 0.  1.
    10030    2    1    2    0    0  0.00000000000E+00  0.00000000000E+00  0.42708033713E+03  0.22734677038E+04  0.22329930107E+04 0.  0.
        3    1    3    3  502    0 -0.32981143095E+02  0.33919364630E+03 -0.86894555541E+03  0.93338441917E+03  0.10100000352E+00 0.  1.
       -3    1    3    3    0  502  0.32981143095E+02 -0.33919364630E+03  0.12960258925E+04  0.13400832847E+04  0.10100000352E+00 0. -1.
</event>
<event>
 5   0  0.9254673E-05  0.2191439E+04  0.7818609E-02  0.8522000E-01
        2   -1    0    0  501    0  0.00000000000E+00  0.00000000000E+00  0.18749084708E+04  0.18749084708E+04  0.25500000920E-02 0.  1.
       -2   -1    0    0    0  501  0.00000000000E+00  0.00000000000E+00 -0.64035205888E+03  0.64035205889E+03  0.25500000920E-02 0. -1.
    10030    2    1    2    0    0  0.00000000000E+00  0.00000000000E+00  0.12345564119E+04  0.25152605297E+04  0.21914392526E+04 0.  0.
        2    1    3    3  502    0  0.95989177594E+03 -0.50331264357E+03  0.43261381104E+03  0.11669920943E+04  0.25500000920E-02 0. -1.
       -2    1    3    3    0  502 -0.95989177594E+03  0.50331264357E+03  0.80194260085E+03  0.13482684353E+04  0.25500000920E-02 0.  1.
</event>
<event>
 5   0  0.3283125E-05  0.2208254E+04  0.7818609E-02  0.8515001E-01
        3   -1    0    0  501    0  0.00000000000E+00  0.00000000000E+00  0.52059801415E+03  0.52059802395E+03  0.10100000352E+00 0. -1.
       -3   -1    0    0    0  501  0.00000000000E+00  0.00000000000E+00 -0.23417225773E+04  0.23417225795E+04  0.10100000352E+00 0.  1.
    10030    2    1    2    0    0  0.00000000000E+00  0.00000000000E+00 -0.18211245632E+04  0.28623206034E+04  0.22082537359E+04 0.  0.
        3    1    3    3  502    0  0.25469994656E+03 -0.88197919117E+03 -0.17057279697E+04  0.19370769920E+04  0.10100000352E+00 0.  1.
       -3    1    3    3    0  502 -0.25469994656E+03  0.88197919117E+03 -0.11539659351E+03  0.92524361139E+03  0.10100000352E+00 0. -1.
</event>
<event>
 5   0  0.3283125E-05  0.2161886E+04  0.7818609E-02  0.8534462E-01
       -4   -1    0    0    0  501  0.00000000000E+00  0.00000000000E+00  0.50060965550E+03  0.50061126643E+03  0.12699999809E+01 0. -1.
        4   -1    0    0  501    0  0.00000000000E+00  0.00000000000E+00 -0.23340230924E+04  0.23340234379E+04  0.12699999809E+01 0.  1.
    10030    2    1    2    0    0  0.00000000000E+00  0.00000000000E+00 -0.18334134369E+04  0.28346347044E+04  0.21618855373E+04 0.  0.
        5    1    3    3  502    0 -0.99115906857E+03 -0.37608494572E+03 -0.11935471600E+04  0.15963749869E+04  0.46999998093E+01 0.  1.
       -5    1    3    3    0  502  0.99115906857E+03  0.37608494572E+03 -0.63986627696E+03  0.12382597175E+04  0.46999998093E+01 0. -1.
</event>
<event>
 5   0  0.9179618E-05  0.2204392E+04  0.7818609E-02  0.8516602E-01
        2   -1    0    0  501    0  0.00000000000E+00  0.00000000000E+00  0.15236113474E+04  0.15236113474E+04  0.25500000920E-02 0.  1.
       -2   -1    0    0    0  501  0.00000000000E+00  0.00000000000E+00 -0.79733979899E+03  0.79733979900E+03  0.25500000920E-02 0. -1.
    10030    2    1    2    0    0  0.00000000000E+00  0.00000000000E+00  0.72627154841E+03  0.23209511464E+04  0.22043919483E+04 0.  0.
        3    1    3    3  502    0  0.93399883208E+02 -0.92495006786E+03 -0.26026971317E+03  0.96539965818E+03  0.10100000352E+00 0. -1.
       -3    1    3    3    0  502 -0.93399883208E+02  0.92495006786E+03  0.98654126159E+03  0.13555514882E+04  0.10100000352E+00 0.  1.
</event>
<event>
 5   0  0.4133418E-05  0.2218302E+04  0.7818609E-02  0.8510849E-01
       -1   -1    0    0    0  501  0.00000000000E+00  0.00000000000E+00  0.89292981420E+03  0.89292981421E+03  0.50400001928E-02 0. -1.
        1   -1    0    0  501    0  0.00000000000E+00  0.00000000000E+00 -0.13777297866E+04  0.13777297866E+04  0.50400001928E-02 0.  1.
    10030    2    1    2    0    0  0.00000000000E+00  0.00000000000E+00 -0.48479997237E+03  0.22706596008E+04  0.22183020555E+04 0.  0.
        4    1    3    3  502    0  0.90247722538E+03 -0.34584283769E+03  0.31463354461E+03  0.10163996709E+04  0.12699999809E+01 0. -1.
       -4    1    3    3    0  502 -0.90247722538E+03  0.34584283769E+03 -0.79943351699E+03  0.12542599299E+04  0.12699999809E+01 0.  1.
</event>
<event>
 5   0  0.9457742E-05  0.2200783E+04  0.7818609E-02  0.8518102E-01
        2   -1    0    0  501    0  0.00000000000E+00  0.00000000000E+00  0.29094156261E+04  0.29094156261E+04  0.25500000920E-02 0. -1.
       -2   -1    0    0    0  501  0.00000000000E+00  0.00000000000E+00 -0.41618730802E+03  0.41618730803E+03  0.25500000920E-02 0.  1.
    10030    2    1    2    0    0  0.00000000000E+00  0.00000000000E+00  0.24932283181E+04  0.33256029341E+04  0.22007833672E+04 0.  0.
        1    1    3    3  502    0  0.49891843429E+03 -0.98044710247E+03  0.12076250793E+04  0.16335710750E+04  0.50400001928E-02 0. -1.
       -1    1    3    3    0  502 -0.49891843429E+03  0.98044710247E+03  0.12856032387E+04  0.16920318591E+04  0.50400001928E-02 0.  1.
</event>
<event>
 5   0  0.9254673E-05  0.2185237E+04  0.7818609E-02  0.8524598E-01
       -2   -1    0    0    0  501  0.00000000000E+00  0.00000000000E+00  0.86811149577E+03  0.86811149577E+03  0.25500000920E-02 0. -1.
        2   -1    0    0  501    0  0.00000000000E+00  0.00000000000E+00 -0.13751867740E+04  0.13751867740E+04  0.25500000920E-02 0.  1.
    10030    2    1    2    0    0  0.00000000000E+00  0.00000000000E+00 -0.50707527820E+03  0.22432982697E+04  0.21852372387E+04 0.  0.
        2    1    3    3  502    0  0.72414266263E+03  0.65985178853E+03 -0.75015600216E+03  0.12339047801E+04  0.25500000920E-02 0.  1.
       -2    1    3    3    0  502 -0.72414266263E+03 -0.65985178853E+03  0.24308072396E+03  0.10093934897E+04  0.25500000920E-02 0. -1.
</event>
<event>
 5   0  0.4174030E-05  0.1690981E+04  0.7818609E-02  0.8766525E-01
        1   -1    0    0  501    0  0.00000000000E+00  0.00000000000E+00  0.65178699088E+03  0.65178699090E+03  0.50400001928E-02 0.  1.
       -1   -1    0    0    0  501  0.00000000000E+00  0.00000000000E+00 -0.10967609473E+04  0.10967609473E+04  0.50400001928E-02 0. -1.
    10030    2    1    2    0    0  0.00000000000E+00  0.00000000000E+00 -0.44497395639E+03  0.17485479382E+04  0.16909813926E+04 0.  0.
        2    1    3    3  502    0 -0.15836128860E+03  0.81798461548E+03 -0.73795335231E+02  0.83643462411E+03  0.25500000920E-02 0. -1.
       -2    1    3    3    0  502  0.15836128860E+03 -0.81798461548E+03 -0.37117862116E+03  0.91211331407E+03  0.25500000920E-02 0.  1.
</event>
<event>
 5   0  0.9938176E-05  0.2087063E+04  0.7818609E-02  0.8566964E-01
       -2   -1    0    0    0  501  0.00000000000E+00  0.00000000000E+00  0.10498718208E+04  0.10498718208E+04  0.25500000920E-02 0.  1.
        2   -1    0    0  501    0  0.00000000000E+00  0.00000000000E+00 -0.10372290531E+04  0.10372290531E+04  0.25500000920E-02 0. -1.
    10030    2    1    2    0    0  0.00000000000E+00  0.00000000000E+00  0.12642767700E+02  0.20871008740E+04  0.20870625814E+04 0.  0.
        5    1    3    3  502    0 -0.83318250546E+03  0.33601713497E+02  0.63371898181E+03  0.10473509443E+04  0.46999998093E+01 0.  1.
       -5    1    3    3    0  502  0.83318250546E+03 -0.33601713497E+02 -0.62107621411E+03  0.10397499297E+04  0.46999998093E+01 0. -1.
</event>
<event>
 5   0  0.4188865E-05  0.2171574E+04  0.7818609E-02  0.8530354E-01
        1   -1    0    0  501    0  0.00000000000E+00  0.00000000000E+00  0.13487474188E+04  0.13487474188E+04  0.50400001928E-02 0. -1.
       -1   -1    0    0    0  501  0.00000000000E+00  0.00000000000E+00 -0.87409505668E+03  0.87409505670E+03  0.50400001928E-02 0.  1.
    10030    2    1    2    0    0  0.00000000000E+00  0.00000000000E+00  0.47465236214E+03  0.22228424755E+04  0.21715740388E+04 0.  0.
        3    1    3    3  502    0 -0.53140292001E+03 -0.82680773207E+02  0.12028385885E+04  0.13175909281E+04  0.10100000352E+00 0. -1.
       -3    1    3    3    0  502  0.53140292001E+03  0.82680773207E+02 -0.72818622636E+03  0.90525154742E+03  0.10100000352E+00 0.  1.
</event>
<event>
 5   0  0.4188865E-05  0.2165141E+04  0.7818609E-02  0.8533079E-01
        1   -1    0    0  501    0  0.00000000000E+00  0.00000000000E+00  0.12971888499E+04  0.12971888499E+04  0.50400001928E-02 0. -1.
       -1   -1    0    0    0  501  0.00000000000E+00  0.00000000000E+00 -0.90346031489E+03  0.90346031490E+03  0.50400001928E-02 0.  1.
    10030    2    1    2    0    0  0.00000000000E+00  0.00000000000E+00  0.39372853497E+03  0.22006491648E+04  0.21651407777E+04 0.  0.
        3    1    3    3  502    0  0.46247219761E+01 -0.54496665902E+03 -0.75386297696E+03  0.93022548112E+03  0.10100000352E+00 0.  1.
       -3    1    3    3    0  502 -0.46247219761E+01  0.54496665902E+03  0.11475915119E+04  0.12704236836E+04  0.10100000352E+00 0. -1.
</event>
<event>
 5   0  0.4133418E-05  0.2296753E+04  0.7818609E-02  0.8479203E-01
       -1   -1    0    0    0  501  0.00000000000E+00  0.00000000000E+00  0.62684086258E+03  0.62684086260E+03  0.50400001928E-02 0. -1.
        1   -1    0    0  501    0  0.00000000000E+00  0.00000000000E+00 -0.21038327916E+04  0.21038327916E+04  0.50400001928E-02 0.  1.
    10030    2    1    2    0    0  0.00000000000E+00  0.00000000000E+00 -0.14769919290E+04  0.27306736542E+04  0.22967528050E+04 0.  0.
        4    1    3    3  502    0  0.72149899974E+03  0.38233909081E+03 -0.16985306482E+04  0.18846092335E+04  0.12699999809E+01 0.  1.
       -4    1    3    3    0  502 -0.72149899974E+03 -0.38233909081E+03  0.22153871924E+03  0.84606442072E+03  0.12699999809E+01 0. -1.
</event>
<event>
 5   0  0.9442578E-05  0.1831806E+04  0.7818609E-02  0.8689566E-01
       -2   -1    0    0    0  501  0.00000000000E+00  0.00000000000E+00  0.50053267879E+03  0.50053267879E+03  0.25500000920E-02 0. -1.
        2   -1    0    0  501    0  0.00000000000E+00  0.00000000000E+00 -0.16759717887E+04  0.16759717887E+04  0.25500000920E-02 0.  1.
    10030    2    1    2    0    0  0.00000000000E+00  0.00000000000E+00 -0.11754391099E+04  0.21765044675E+04  0.18318063751E+04 0.  0.
        4    1    3    3  502    0 -0.84045643205E+02  0.68396236394E+03 -0.13045822300E+04  0.14753998079E+04  0.12699999809E+01 0.  1.
       -4    1    3    3    0  502  0.84045643205E+02 -0.68396236394E+03  0.12914312003E+03  0.70110465965E+03  0.12699999809E+01 0. -1.
</event>
<event>
 5   0  0.9254673E-05  0.2069435E+04  0.7818609E-02  0.8574828E-01
        2   -1    0    0  501    0  0.00000000000E+00  0.00000000000E+00  0.18480093787E+04  0.18480093787E+04  0.25500000920E-02 0. -1.
       -2   -1    0    0    0  501  0.00000000000E+00  0.00000000000E+00 -0.57934783501E+03  0.57934783502E+03  0.25500000920E-02 0.  1.
    10030    2    1    2    0    0  0.00000000000E+00  0.00000000000E+00  0.12686615437E+04  0.24273572137E+04  0.20694349303E+04 0.  0.
        2    1    3    3  502    0 -0.67683534738E+03  0.42071985191E+03  0.14084189447E+04  0.16182568415E+04  0.25500000920E-02 0. -1.
       -2    1    3    3    0  502  0.67683534738E+03 -0.42071985191E+03 -0.13975740097E+03  0.80910037226E+03  0.25500000920E-02 0.  1.
</event>
<event>
 5   0  0.9442578E-05  0.1998019E+04  0.7818609E-02  0.8607547E-01
        2   -1    0    0  501    0  0.00000000000E+00  0.00000000000E+00  0.18147097187E+04  0.18147097187E+04  0.25500000920E-02 0. -1.
       -2   -1    0    0    0  501  0.00000000000E+00  0.00000000000E+00 -0.54996144301E+03  0.54996144302E+03  0.25500000920E-02 0.  1.
    10030    2    1    2    0    0  0.00000000000E+00  0.00000000000E+00  0.12647482757E+04  0.23646711617E+04  0.19980193948E+04 0.  0.
        4    1    3    3  502    0  0.70338396524E+03 -0.16647802599E+03 -0.18377843202E+03  0.74581503113E+03  0.12699999809E+01 0.  1.
       -4    1    3    3    0  502 -0.70338396524E+03  0.16647802599E+03  0.14485267077E+04  0.16188561306E+04  0.12699999809E+01 0. -1.
</event>
<event>
 5   0  0.9457742E-05  0.2159383E+04  0.7818609E-02  0.8535526E-01
       -2   -1    0    0    0  501  0.00000000000E+00  0.00000000000E+00  0.13592046593E+04  0.13592046593E+04  0.25500000920E-02 0.  1.
        2   -1    0    0  501    0  0.00000000000E+00  0.00000000000E+00 -0.85765892741E+03  0.85765892741E+03  0.25500000920E-02 0. -1.
    10030    2    1    2    0    0  0.00000000000E+00  0.00000000000E+00  0.50154573193E+03  0.22168635868E+04  0.21593832548E+04 0.  0.
        1    1    3    3  502    0 -0.55304984005E+02  0.67409036502E+03 -0.61322163521E+03  0.91296069761E+03  0.50400001928E-02 0. -1.
       -1    1    3    3    0  502  0.55304984005E+02 -0.67409036502E+03  0.11147673671E+04  0.13039028891E+04  0.50400001928E-02 0.  1.
</event>
<event>
 5   0  0.9179618E-05  0.1863046E+04  0.7818609E-02  0.8673473E-01
       -2   -1    0    0    0  501  0.00000000000E+00  0.00000000000E+00  0.11952523794E+04  0.11952523794E+04  0.25500000920E-02 0. -1.
        2   -1    0    0  501    0  0.00000000000E+00  0.00000000000E+00 -0.72598480756E+03  0.72598480757E+03  0.25500000920E-02 0.  1.
    10030    2    1    2    0    0  0.00000000000E+00  0.00000000000E+00  0.46926757187E+03  0.19212371870E+04  0.18630459669E+04 0.  0.
        3    1    3    3  502    0  0.86399872041E+03  0.23827700864E+03  0.49646447076E+03  0.10245714727E+04  0.10100000352E+00 0. -1.
       -3    1    3    3    0  502 -0.86399872041E+03 -0.23827700864E+03 -0.27196898894E+02  0.89666571431E+03  0.10100000352E+00 0.  1.
</event>
<event>
 5   0  0.4063293E-05  0.2181434E+04  0.7818609E-02  0.8526196E-01
        1   -1    0    0  501    0  0.00000000000E+00  0.00000000000E+00  0.14850010185E+04  0.14850010185E+04  0.50400001928E-02 0.  1.
       -1   -1    0    0    0  501  0.00000000000E+00  0.00000000000E+00 -0.80111979654E+03  0.80111979655E+03  0.50400001928E-02 0. -1.
    10030    2    1    2    0    0  0.00000000000E+00  0.00000000000E+00  0.68388122200E+03  0.22861208151E+04  0.21814341281E+04 0.  0.
        1    1    3    3  502    0 -0.10564447085E+04  0.24848479965E+03  0.45599155030E+03  0.11771781564E+04  0.50400001928E-02 0.  1.
       -1    1    3    3    0  502  0.10564447085E+04 -0.24848479965E+03  0.22788967170E+03  0.11089426587E+04  0.50400001928E-02 0. -1.
</event>
<event>
 5   0  0.9254673E-05  0.2230312E+04  0.7818609E-02  0.8505916E-01
        2   -1    0    0  501    0  0.00000000000E+00  0.00000000000E+00  0.17794511921E+04  0.17794511921E+04  0.25500000920E-02 0.  1.
       -2   -1    0    0    0  501  0.00000000000E+00  0.00000000000E+00 -0.69885193775E+03  0.69885193776E+03  0.25500000920E-02 0. -1.
    10030    2    1    2    0    0  0.00000000000E+00  0.00000000000E+00  0.10805992543E+04  0.24783031298E+04  0.22303120084E+04 0.  0.
        2    1    3    3  502    0 -0.29591225949E+03 -0.70768239946E+03  0.14397431822E+04  0.16313304002E+04  0.25500000920E-02 0.  1.
       -2    1    3    3    0  502  0.29591225949E+03  0.70768239946E+03 -0.35914392789E+03  0.84697272965E+03  0.25500000920E-02 0. -1.
</event>
<event>
 5   0  0.4174030E-05  0.2226756E+04  0.7818609E-02  0.8507374E-01
       -1   -1    0    0    0  501  0.00000000000E+00  0.00000000000E+00  0.79062041258E+03  0.79062041259E+03  0.50400001928E-02 0. -1.
        1   -1    0    0  501    0  0.00000000000E+00  0.00000000000E+00 -0.15678959375E+04  0.15678959375E+04  0.50400001928E-02 0.  1.
    10030    2    1    2    0    0  0.00000000000E+00  0.00000000000E+00 -0.77727552490E+03  0.23585163501E+04  0.22267559660E+04 0.  0.
        2    1    3    3  502    0  0.29730141367E+03 -0.96961006221E+03  0.97980610875E+02  0.10188876304E+04  0.25500000920E-02 0. -1.
       -2    1    3    3    0  502 -0.29730141367E+03  0.96961006221E+03 -0.87525613578E+03  0.13396287197E+04  0.25500000920E-02 0.  1.
</event>
<event>
 5   0  0.9254673E-05  0.2231111E+04  0.7818609E-02  0.8505589E-01
       -2   -1    0    0    0  501  0.00000000000E+00  0.00000000000E+00  0.11651733808E+04  0.11651733808E+04  0.25500000920E-02 0. -1.
        2   -1    0    0  501    0  0.00000000000E+00  0.00000000000E+00 -0.10680506148E+04  0.10680506148E+04  0.25500000920E-02 0.  1.
    10030    2    1    2    0    0  0.00000000000E+00  0.00000000000E+00  0.97122765940E+02  0.22332239956E+04  0.22311110647E+04 0.  0.
        2    1    3    3  502    0  0.70578467964E+03 -0.53795029749E+03  0.72517611419E+03  0.11460379283E+04  0.25500000920E-02 0. -1.
       -2    1    3    3    0  502 -0.70578467964E+03  0.53795029749E+03 -0.62805334825E+03  0.10871860673E+04  0.25500000920E-02 0.  1.
</event>
<event>
 5   0  0.9442578E-05  0.2234243E+04  0.7818609E-02  0.8504309E-01
       -2   -1    0    0    0  501  0.00000000000E+00  0.00000000000E+00  0.59416580637E+03  0.59416580637E+03  0.25500000920E-02 0.  1.
        2   -1    0    0  501    0  0.00000000000E+00  0.00000000000E+00 -0.21003578973E+04  0.21003578973E+04  0.25500000920E-02 0. -1.
    10030    2    1    2    0    0  0.00000000000E+00  0.00000000000E+00 -0.15061920909E+04  0.26945237036E+04  0.22342433562E+04 0.  0.
        4    1    3    3  502    0 -0.51776607193E+03  0.87835281076E+03 -0.20257597437E+03  0.10395306651E+04  0.12699999809E+01 0.  1.
       -4    1    3    3    0  502  0.51776607193E+03 -0.87835281076E+03 -0.13036161165E+04  0.16549930385E+04  0.12699999809E+01 0. -1.
</event>
<event>
 5   0  0.4063293E-05  0.2195609E+04  0.7818609E-02  0.8520258E-01
        1   -1    0    0  501    0  0.00000000000E+00  0.00000000000E+00  0.12745011338E+04  0.12745011338E+04  0.50400001928E-02 0. -1.
       -1   -1    0    0    0  501  0.00000000000E+00  0.00000000000E+00 -0.94560491266E+03  0.94560491267E+03  0.50400001928E-02 0.  1.
    10030    2    1    2    0    0  0.00000000000E+00  0.00000000000E+00  0.32889622110E+03  0.22201060464E+04  0.21956088297E+04 0.  0.
        1    1    3    3  502    0 -0.14944049437E+03  0.37266161721E+03 -0.86869813467E+03  0.95699821918E+03  0.50400001928E-02 0.  1.
       -1    1    3    3    0  502  0.14944049437E+03 -0.37266161721E+03  0.11975943558E+04  0.12631078273E+04  0.50400001928E-02 0. -1.
</event>
<event>
 5   0  0.4188865E-05  0.1885499E+04  0.7818609E-02  0.8662108E-01
       -1   -1    0    0    0  501  0.00000000000E+00  0.00000000000E+00  0.58164547971E+03  0.58164547973E+03  0.50400001928E-02 0. -1.
        1   -1    0    0  501    0  0.00000000000E+00  0.00000000000E+00 -0.15280387222E+04  0.15280387222E+04  0.50400001928E-02 0.  1.
    10030    2    1    2    0    0  0.00000000000E+00  0.00000000000E+00 -0.94639324247E+03  0.21096842019E+04  0.18854992078E+04 0.  0.
        3    1    3    3  502    0 -0.22484177697E+03 -0.79120518783E+03 -0.98864065978E+03  0.12860675870E+04  0.10100000352E+00 0.  1.
       -3    1    3    3    0  502  0.22484177697E+03  0.79120518783E+03  0.42247417315E+02  0.82361661493E+03  0.10100000352E+00 0. -1.
</event>
<event>
 5   0  0.9179618E-05  0.1835170E+04  0.7818609E-02  0.8687817E-01
        2   -1    0    0  501    0  0.00000000000E+00  0.00000000000E+00  0.55026556869E+03  0.55026556870E+03  0.25500000920E-02 0.  1.
       -2   -1    0    0    0  501  0.00000000000E+00  0.00000000000E+00 -0.15301010214E+04  0.15301010214E+04  0.25500000920E-02 0. -1.
    10030    2    1    2    0    0  0.00000000000E+00  0.00000000000E+00 -0.97983545272E+03  0.20803665901E+04  0.18351696474E+04 0.  0.
        3    1    3    3  502    0 -0.86269034990E+02  0.72668138282E+03 -0.11174645008E+04  0.13357526340E+04  0.10100000352E+00 0. -1.
       -3    1    3    3    0  502  0.86269034990E+02 -0.72668138282E+03  0.13762904808E+03  0.74461395609E+03  0.10100000352E+00 0.  1.
</event>
<event>
 5   0  0.4174075E-05  0.2221543E+04  0.7818609E-02  0.8509515E-01
        1   -1    0    0  501    0  0.00000000000E+00  0.00000000000E+00  0.69049074533E+03  0.69049074534E+03  0.50400001928E-02 0.  1.
       -1   -1    0    0    0  501  0.00000000000E+00  0.00000000000E+00 -0.17868647254E+04  0.17868647254E+04  0.50400001928E-02 0. -1.
    10030    2    1    2    0    0  0.00000000000E+00  0.00000000000E+00 -0.10963739801E+04  0.24773554708E+04  0.22215432078E+04 0.  0.
        5    1    3    3  502    0  0.55414837006E+02 -0.10169642193E+04 -0.10425201510E+04  0.14574489297E+04  0.46999998093E+01 0. -1.
       -5    1    3    3    0  502 -0.55414837006E+02  0.10169642193E+04 -0.53853829141E+02  0.10199065411E+04  0.46999998093E+01 0.  1.
</event>
<event>
 5   0  0.4133418E-05  0.2202277E+04  0.7818609E-02  0.8517481E-01
        1   -1    0    0  501    0  0.00000000000E+00  0.00000000000E+00  0.22595815739E+04  0.22595815739E+04  0.50400001928E-02 0.  1.
       -1   -1    0    0    0  501  0.00000000000E+00  0.00000000000E+00 -0.53660658830E+03  0.53660658832E+03  0.50400001928E-02 0. -1.
    10030    2    1    2    0    0  0.00000000000E+00  0.00000000000E+00  0.17229749856E+04  0.27961881622E+04  0.22022773298E+04 0.  0.
        4    1    3    3  502    0  0.38352303143E+02  0.44803723636E+03  0.21376876829E+04  0.21844721346E+04  0.12699999809E+01 0.  1.
       -4    1    3    3    0  502 -0.38352303143E+02 -0.44803723636E+03 -0.41471269727E+03  0.61171602766E+03  0.12699999809E+01 0. -1.
</event>
<event>
 5   0  0.9442578E-05  0.2192723E+04  0.7818609E-02  0.8521463E-01
        2   -1    0    0  501    0  0.00000000000E+00  0.00000000000E+00  0.90093917756E+03  0.90093917756E+03  0.25500000920E-02 0.  1.
       -2   -1    0    0    0  501  0.00000000000E+00  0.00000000000E+00 -0.13341730678E+04  0.13341730678E+04  0.25500000920E-02 0. -1.
    10030    2    1    2    0    0  0.00000000000E+00  0.00000000000E+00 -0.43323389022E+03  0.22351122453E+04  0.21927232260E+04 0.  0.
        4    1    3    3  502    0  0.87506400530E+03  0.28364120161E+03 -0.82465305777E+03  0.12354123292E+04  0.12699999809E+01 0. -1.
       -4    1    3    3    0  502 -0.87506400530E+03 -0.28364120161E+03  0.39141916756E+03  0.99969991610E+03  0.12699999809E+01 0.  1.
</event>
<event>
 5   0  0.9457742E-05  0.2194450E+04  0.7818609E-02  0.8520742E-01
       -2   -1    0    0    0  501  0.00000000000E+00  0.00000000000E+00  0.72024298540E+03  0.72024298541E+03  0.25500000920E-02 0. -1.
        2   -1    0    0  501    0  0.00000000000E+00  0.00000000000E+00 -0.16715228856E+04  0.16715228856E+04  0.25500000920E-02 0.  1.
    10030    2    1    2    0    0  0.00000000000E+00  0.00000000000E+00 -0.95127990020E+03  0.23917658710E+04  0.21944499387E+04 0.  0.
        1    1    3    3  502    0 -0.32255113979E+03  0.10420615897E+04 -0.34681281855E+03  0.11446443664E+04  0.50400001928E-02 0. -1.
       -1    1    3    3    0  502  0.32255113979E+03 -0.10420615897E+04 -0.60446708166E+03  0.12471215046E+04  0.50400001928E-02 0.  1.
</event>
<event>
 5   0  0.4174030E-05  0.2176106E+04  0.7818609E-02  0.8528439E-01
        1   -1    0    0  501    0  0.00000000000E+00  0.00000000000E+00  0.79376892053E+03  0.79376892054E+03  0.50400001928E-02 0. -1.
       -1   -1    0    0    0  501  0.00000000000E+00  0.00000000000E+00 -0.14914412266E+04  0.14914412266E+04  0.50400001928E-02 0.  1.
    10030    2    1    2    0    0  0.00000000000E+00  0.00000000000E+00 -0.69767230606E+03  0.22852101471E+04  0.21761063324E+04 0.  0.
        2    1    3    3  502    0  0.96141366483E+03  0.33180724145E+03  0.57130377902E+02  0.10186639095E+04  0.25500000920E-02 0. -1.
       -2    1    3    3    0  502 -0.96141366483E+03 -0.33180724145E+03 -0.75480268396E+03  0.12665462377E+04  0.25500000920E-02 0.  1.
</event>
<event>
 5   0  0.9254673E-05  0.2122197E+04  0.7818609E-02  0.8551528E-01
        2   -1    0    0  501    0  0.00000000000E+00  0.00000000000E+00  0.16781358409E+04  0.16781358409E+04  0.25500000920E-02 0. -1.
       -2   -1    0    0    0  501  0.00000000000E+00  0.00000000000E+00 -0.67094103961E+03  0.67094103961E+03  0.25500000920E-02 0.  1.
    10030    2    1    2    0    0  0.00000000000E+00  0.00000000000E+00  0.10071948013E+04  0.23490768805E+04  0.21221971687E+04 0.  0.
        2    1    3    3  502    0  0.24102274553E+03 -0.51547981185E+03 -0.48776136037E+03  0.74948151743E+03  0.25500000920E-02 0.  1.
       -2    1    3    3    0  502 -0.24102274553E+03  0.51547981185E+03  0.14949561617E+04  0.15995953631E+04  0.25500000920E-02 0. -1.
</event>
<event>
 5   0  0.9457742E-05  0.2213111E+04  0.7818609E-02  0.8512991E-01
       -2   -1    0    0    0  501  0.00000000000E+00  0.00000000000E+00  0.13039792663E+04  0.13039792663E+04  0.25500000920E-02 0. -1.
        2   -1    0    0  501    0  0.00000000000E+00  0.00000000000E+00 -0.93902152193E+03  0.93902152193E+03  0.25500000920E-02 0.  1.
    10030    2    1    2    0    0  0.00000000000E+00  0.00000000000E+00  0.36495774442E+03  0.22430007883E+04  0.22131105668E+04 0.  0.
        1    1    3    3  502    0  0.93422164062E+03  0.53122611475E+03 -0.84697406064E+02  0.10780282508E+04  0.50400001928E-02 0.  1.
       -1    1    3    3    0  502 -0.93422164062E+03 -0.53122611475E+03  0.44965515048E+03  0.11649725375E+04  0.50400001928E-02 0. -1.
</event>
<event>
 5   0  0.9179618E-05  0.2205427E+04  0.7818609E-02  0.8516173E-01
        2   -1    0    0  501    0  0.00000000000E+00  0.00000000000E+00  0.13582135762E+04  0.13582135762E+04  0.25500000920E-02 0.  1.
       -2   -1    0    0    0  501  0.00000000000E+00  0.00000000000E+00 -0.89527653259E+03  0.89527653259E+03  0.25500000920E-02 0. -1.
    10030    2    1    2    0    0  0.00000000000E+00  0.00000000000E+00  0.46293704360E+03  0.22534901088E+04  0.22054267079E+04 0.  0.
        3    1    3    3  502    0  0.42986135924E+03  0.95380270135E+03 -0.12463243333E+03  0.10535908290E+04  0.10100000352E+00 0. -1.
       -3    1    3    3    0  502 -0.42986135924E+03 -0.95380270135E+03  0.58756947693E+03  0.11998992798E+04  0.10100000352E+00 0.  1.
</event>
<event>
 5   0  0.9254673E-05  0.2209317E+04  0.7818609E-02  0.8514560E-01
       -2   -1    0    0    0  501  0.00000000000E+00  0.00000000000E+00  0.22379835496E+04  0.22379835496E+04  0.25500000920E-02 0. -1.
        2   -1    0    0  501    0  0.00000000000E+00  0.00000000000E+00 -0.54525465656E+03  0.54525465656E+03  0.25500000920E-02 0.  1.
    10030    2    1    2    0    0  0.00000000000E+00  0.00000000000E+00  0.16927288931E+04  0.27832382062E+04  0.22093174980E+04 0.  0.
        2    1    3    3  502    0  0.10075796161E+04  0.45130767890E+03  0.79963981443E+03  0.13632017960E+04  0.25500000920E-02 0.  1.
       -2    1    3    3    0  502 -0.10075796161E+04 -0.45130767890E+03  0.89308907863E+03  0.14200364102E+04  0.25500000920E-02 0. -1.
</event>
<event>
 5   0  0.4174075E-05  0.2230141E+04  0.7818609E-02  0.8505987E-01
        1   -1    0    0  501    0  0.00000000000E+00  0.00000000000E+00  0.12621506461E+04  0.12621506461E+04  0.50400001928E-02 0.  1.
       -1   -1    0    0    0  501  0.00000000000E+00  0.00000000000E+00 -0.98512953175E+03  0.98512953176E+03  0.50400001928E-02 0. -1.
    10030    2    1    2    0    0  0.00000000000E+00  0.00000000000E+00  0.27702111433E+03  0.22472801779E+04  0.22301406906E+04 0.  0.
        5    1    3    3  502    0  0.97506208766E+03 -0.76954448005E+02  0.67806160062E+03  0.11901502788E+04  0.46999998093E+01 0.  1.
       -5    1    3    3    0  502 -0.97506208766E+03  0.76954448005E+02 -0.40104048629E+03  0.10571298991E+04  0.46999998093E+01 0. -1.
</event>
<event>
 5   0  0.9442578E-05  0.2209646E+04  0.7818609E-02  0.8514424E-01
       -2   -1    0    0    0  501  0.00000000000E+00  0.00000000000E+00  0.66156975081E+03  0.66156975082E+03  0.25500000920E-02 0. -1.
        2   -1    0    0  501    0  0.00000000000E+00  0.00000000000E+00 -0.18450575003E+04  0.18450575003E+04  0.25500000920E-02 0.  1.
    10030    2    1    2    0    0  0.00000000000E+00  0.00000000000E+00 -0.11834877495E+04  0.25066272511E+04  0.22096463344E+04 0.  0.
        4    1    3    3  502    0  0.45347150570E+03  0.66395950162E+03  0.26782599315E+03  0.84747330446E+03  0.12699999809E+01 0. -1.
       -4    1    3    3    0  502 -0.45347150570E+03 -0.66395950162E+03 -0.14513137427E+04  0.16591539467E+04  0.12699999809E+01 0.  1.
</event>
<event>
 5   0  0.4188865E-05  0.2223015E+04  0.7818609E-02  0.8508909E-01
       -1   -1    0    0    0  501  0.00000000000E+00  0.00000000000E+00  0.90801296968E+03  0.90801296969E+03  0.50400001928E-02 0. -1.
        1   -1    0    0  501    0  0.00000000000E+00  0.00000000000E+00 -0.13606069318E+04  0.13606069318E+04  0.50400001928E-02 0.  1.
    10030    2    1    2    0    0  0.00000000000E+00  0.00000000000E+00 -0.45259396211E+03  0.22686199015E+04  0.22230148364E+04 0.  0.
        3    1    3    3  502    0  0.90878555279E+03  0.12292129187E+03 -0.86723229917E+03  0.12621777592E+04  0.10100000352E+00 0.  1.
       -3    1    3    3    0  502 -0.90878555279E+03 -0.12292129187E+03  0.41463833706E+03  0.10064421423E+04  0.10100000352E+00 0. -1.
</event>
<event>
 5   0  0.4063293E-05  0.2183588E+04  0.7818609E-02  0.8525291E-01
        1   -1    0    0  501    0  0.00000000000E+00  0.00000000000E+00  0.19965774990E+04  0.19965774990E+04  0.50400001928E-02 0. -1.
       -1   -1    0    0    0  501  0.00000000000E+00  0.00000000000E+00 -0.59702847641E+03  0.59702847643E+03  0.50400001928E-02 0.  1.
    10030    2    1    2    0    0  0.00000000000E+00  0.00000000000E+00  0.13995490226E+04  0.25936059754E+04  0.21835875272E+04 0.  0.
        1    1    3    3  502    0  0.26445271842E+03 -0.60509558939E+03  0.17324797935E+04  0.18540663816E+04  0.50400001928E-02 0. -1.
       -1    1    3    3    0  502 -0.26445271842E+03  0.60509558939E+03 -0.33293077090E+03  0.73953959381E+03  0.50400001928E-02 0.  1.
</event>
<event>
 5   0  0.9179618E-05  0.2222341E+04  0.7818609E-02  0.8509186E-01
        2   -1    0    0  501    0  0.00000000000E+00  0.00000000000E+00  0.22401970551E+04  0.22401970551E+04  0.25500000920E-02 0. -1.
       -2   -1    0    0    0  501  0.00000000000E+00  0.00000000000E+00 -0.55115680220E+03  0.55115680220E+03  0.25500000920E-02 0.  1.
    10030    2    1    2    0    0  0.00000000000E+00  0.00000000000E+00  0.16890402529E+04  0.27913538573E+04  0.22223409686E+04 0.  0.
        3    1    3    3  502    0 -0.75463078318E+02  0.55304546567E+03  0.20513314278E+04  0.21259150030E+04  0.10100000352E+00 0. -1.
       -3    1    3    3    0  502  0.75463078318E+02 -0.55304546567E+03 -0.36229117483E+03  0.66543885433E+03  0.10100000352E+00 0.  1.
</event>
<event>
 5   0  0.3283125E-05  0.2205039E+04  0.7818609E-02  0.8516334E-01
       -3   -1    0    0    0  501  0.00000000000E+00  0.00000000000E+00  0.76737237019E+03  0.76737237684E+03  0.10100000352E+00 0.  1.
        3   -1    0    0  501    0  0.00000000000E+00  0.00000000000E+00 -0.15840406922E+04  0.15840406955E+04  0.10100000352E+00 0. -1.
    10030    2    1    2    0    0  0.00000000000E+00  0.00000000000E+00 -0.81666832205E+03  0.23514130723E+04  0.22050388406E+04 0.  0.
        4    1    3    3  502    0 -0.46033742178E+03 -0.34240065671E+03 -0.14123192010E+04  0.15244001739E+04  0.12699999809E+01 0. -1.
       -4    1    3    3    0  502  0.46033742178E+03  0.34240065671E+03  0.59565087899E+03  0.82701289842E+03  0.12699999809E+01 0.  1.
</event>
<event>
 5   0  0.4188865E-05  0.2201645E+04  0.7818609E-02  0.8517744E-01
        1   -1    0    0  501    0  0.00000000000E+00  0.00000000000E+00  0.69449176759E+03  0.69449176761E+03  0.50400001928E-02 0.  1.
       -1   -1    0    0    0  501  0.00000000000E+00  0.00000000000E+00 -0.17448878175E+04  0.17448878175E+04  0.50400001928E-02 0. -1.
    10030    2    1    2    0    0  0.00000000000E+00  0.00000000000E+00 -0.10503960499E+04  0.24393795851E+04  0.22016450437E+04 0.  0.
        3    1    3    3  502    0  0.66661257216E+03 -0.76334722859E+03 -0.10014220065E+04  0.14247516830E+04  0.10100000352E+00 0. -1.
       -3    1    3    3    0  502 -0.66661257216E+03  0.76334722859E+03 -0.48974043418E+02  0.10146279022E+04  0.10100000352E+00 0.  1.
</event>
<event>
 5   0  0.4133418E-05  0.2169100E+04  0.7818609E-02  0.8531401E-01
       -1   -1    0    0    0  501  0.00000000000E+00  0.00000000000E+00  0.11812047506E+04  0.11812047506E+04  0.50400001928E-02 0. -1.
        1   -1    0    0  501    0  0.00000000000E+00  0.00000000000E+00 -0.99580400077E+03  0.99580400079E+03  0.50400001928E-02 0.  1.
    10030    2    1    2    0    0  0.00000000000E+00  0.00000000000E+00  0.18540074982E+03  0.21770087514E+04  0.21690997362E+04 0.  0.
        4    1    3    3  502    0 -0.25139366326E+03  0.74675197070E+03 -0.65527502492E+03  0.10248044940E+04  0.12699999809E+01 0.  1.
       -4    1    3    3    0  502  0.25139366326E+03 -0.74675197070E+03  0.84067577474E+03  0.11522042574E+04  0.12699999809E+01 0. -1.
</event>
<event>
 5   0  0.4174075E-05  0.2228634E+04  0.7818609E-02  0.8506603E-01
        1   -1    0    0  501    0  0.00000000000E+00  0.00000000000E+00  0.19730727500E+04  0.19730727500E+04  0.50400001928E-02 0.  1.
       -1   -1    0    0    0  501  0.00000000000E+00  0.00000000000E+00 -0.62932443486E+03  0.62932443488E+03  0.50400001928E-02 0. -1.
    10030    2    1    2    0    0  0.00000000000E+00  0.00000000000E+00  0.13437483152E+04  0.26023971849E+04  0.22286344639E+04 0.  0.
        5    1    3    3  502    0  0.30238481235E+03 -0.90945013243E+03  0.80802729784E+01  0.95844848527E+03  0.46999998093E+01 0. -1.
       -5    1    3    3    0  502 -0.30238481235E+03  0.90945013243E+03  0.13356680422E+04  0.16439486996E+04  0.46999998093E+01 0.  1.
</event>
<event>
 5   0  0.4133418E-05  0.2222174E+04  0.7818609E-02  0.8509255E-01
       -1   -1    0    0    0  501  0.00000000000E+00  0.00000000000E+00  0.89937269204E+03  0.89937269205E+03  0.50400001928E-02 0. -1.
        1   -1    0    0  501    0  0.00000000000E+00  0.00000000000E+00 -0.13726395942E+04  0.13726395942E+04  0.50400001928E-02 0.  1.
    10030    2    1    2    0    0  0.00000000000E+00  0.00000000000E+00 -0.47326690212E+03  0.22720122862E+04  0.22221742209E+04 0.  0.
        4    1    3    3  502    0  0.17188747830E+03  0.10675807351E+04 -0.49778120488E+03  0.11904039953E+04  0.12699999809E+01 0.  1.
       -4    1    3    3    0  502 -0.17188747830E+03 -0.10675807351E+04  0.24514302760E+02  0.10816082910E+04  0.12699999809E+01 0. -1.
</event>
<event>
 5   0  0.9179618E-05  0.2213727E+04  0.7818609E-02  0.8512736E-01
        2   -1    0    0  501    0  0.00000000000E+00  0.00000000000E+00  0.10294014799E+04  0.10294014799E+04  0.25500000920E-02 0.  1.
       -2   -1    0    0    0  501  0.00000000000E+00  0.00000000000E+00 -0.11901544120E+04  0.11901544120E+04  0.25500000920E-02 0. -1.
    10030    2    1    2    0    0  0.00000000000E+00  0.00000000000E+00 -0.16075293215E+03  0.22195558919E+04  0.22137269145E+04 0.  0.
        3    1    3    3  502    0  0.91608376442E+02  0.10602864339E+04  0.22464042114E+03  0.10876868785E+04  0.10100000352E+00 0.  1.
       -3    1    3    3    0  502 -0.91608376442E+02 -0.10602864339E+04 -0.38539335330E+03  0.11318690134E+04  0.10100000352E+00 0. -1.
</event>
<event>
 5   0  0.4063293E-05  0.1744580E+04  0.7818609E-02  0.8736339E-01
        1   -1    0    0  501    0  0.00000000000E+00  0.00000000000E+00  0.16659127941E+04  0.16659127941E+04  0.50400001928E-02 0.  1.
       -1   -1    0    0    0  501  0.00000000000E+00  0.00000000000E+00 -0.45674043374E+03  0.45674043377E+03  0.50400001928E-02 0. -1.
    10030    2    1    2    0    0  0.00000000000E+00  0.00000000000E+00  0.12091723604E+04  0.21226532279E+04  0.17445798717E+04 0.  0.
        1    1    3    3  502    0 -0.39890170369E+03 -0.16638938113E+03  0.15264675924E+04  0.15864776412E+04  0.50400001928E-02 0.  1.
       -1    1    3    3    0  502  0.39890170369E+03  0.16638938113E+03 -0.31729523209E+03  0.53617558663E+03  0.50400001928E-02 0. -1.
</event>
<event>
 5   0  0.9179618E-05  0.1987114E+04  0.7818609E-02  0.8612669E-01
       -2   -1    0    0    0  501  0.00000000000E+00  0.00000000000E+00  0.35011357794E+03  0.35011357795E+03  0.25500000920E-02 0. -1.
        2   -1    0    0  501    0  0.00000000000E+00  0.00000000000E+00 -0.28195304446E+04  0.28195304446E+04  0.25500000920E-02 0.  1.
    10030    2    1    2    0    0  0.00000000000E+00  0.00000000000E+00 -0.24694168667E+04  0.31696440226E+04  0.19871143823E+04 0.  0.
        3    1    3    3  502    0  0.14356927730E+03 -0.67431732231E+03 -0.93527020277E+02  0.69574657906E+03  0.10100000352E+00 0. -1.
       -3    1    3    3    0  502 -0.14356927730E+03  0.67431732231E+03 -0.23758898464E+04  0.24738974435E+04  0.10100000352E+00 0.  1.
</event>
<event>
 5   0  0.9442578E-05  0.2176257E+04  0.7818609E-02  0.8528376E-01
        2   -1    0    0  501    0  0.00000000000E+00  0.00000000000E+00  0.89708309431E+03  0.89708309431E+03  0.25500000920E-02 0. -1.
       -2   -1    0    0    0  501  0.00000000000E+00  0.00000000000E+00 -0.13198592011E+04  0.13198592011E+04  0.25500000920E-02 0.  1.
    10030    2    1    2    0    0  0.00000000000E+00  0.00000000000E+00 -0.42277610679E+03  0.22169422954E+04  0.21762567644E+04 0.  0.
        4    1    3    3  502    0  0.10875974251E+04 -0.32033834909E+02 -0.19988818285E+03  0.11062780954E+04  0.12699999809E+01 0.  1.
       -4    1    3    3    0  502 -0.10875974251E+04  0.32033834909E+02 -0.22288792394E+03  0.11106642001E+04  0.12699999809E+01 0. -1.
</event>
<event>
 5   0  0.4133418E-05  0.2166130E+04  0.7818609E-02  0.8532659E-01
       -1   -1    0    0    0  501  0.00000000000E+00  0.00000000000E+00  0.62319257198E+03  0.62319257200E+03  0.50400001928E-02 0. -1.
        1   -1    0    0  501    0  0.00000000000E+00  0.00000000000E+00 -0.18822918178E+04  0.18822918178E+04  0.50400001928E-02 0.  1.
    10030    2    1    2    0    0  0.00000000000E+00  0.00000000000E+00 -0.12590992458E+04  0.25054843898E+04  0.21661304478E+04 0.  0.
        4    1    3    3  502    0 -0.36110276133E+03  0.36515037348E+03 -0.17325111692E+04  0.18070214619E+04  0.12699999809E+01 0. -1.
       -4    1    3    3    0  502  0.36110276133E+03 -0.36515037348E+03  0.47341192340E+03  0.69846292787E+03  0.12699999809E+01 0.  1.
</event>
<event>
 5   0  0.4063293E-05  0.2205660E+04  0.7818609E-02  0.8516076E-01
        1   -1    0    0  501    0  0.00000000000E+00  0.00000000000E+00  0.13381495399E+04  0.13381495399E+04  0.50400001928E-02 0.  1.
       -1   -1    0    0    0  501  0.00000000000E+00  0.00000000000E+00 -0.90889262984E+03  0.90889262985E+03  0.50400001928E-02 0. -1.
    10030    2    1    2    0    0  0.00000000000E+00  0.00000000000E+00  0.42925691002E+03  0.22470421697E+04  0.22056602226E+04 0.  0.
        1    1    3    3  502    0 -0.61846974252E+03  0.10618050327E+03 -0.70927952735E+03  0.94702511563E+03  0.50400001928E-02 0. -1.
       -1    1    3    3    0  502  0.61846974252E+03 -0.10618050327E+03  0.11385364374E+04  0.13000170541E+04  0.50400001928E-02 0.  1.
</event>
<event>
 5   0  0.9254673E-05  0.2168009E+04  0.7818609E-02  0.8531863E-01
       -2   -1    0    0    0  501  0.00000000000E+00  0.00000000000E+00  0.54798767283E+03  0.54798767283E+03  0.25500000920E-02 0. -1.
        2   -1    0    0  501    0  0.00000000000E+00  0.00000000000E+00 -0.21443287873E+04  0.21443287873E+04  0.25500000920E-02 0.  1.
    10030    2    1    2    0    0  0.00000000000E+00  0.00000000000E+00 -0.15963411145E+04  0.26923164602E+04  0.21680089870E+04 0.  0.
        2    1    3    3  502    0 -0.58644565712E+03  0.81861917198E+03 -0.12964710280E+04  0.16416129215E+04  0.25500000920E-02 0.  1.
       -2    1    3    3    0  502  0.58644565712E+03 -0.81861917198E+03 -0.29987008652E+03  0.10507035387E+04  0.25500000920E-02 0. -1.
</event>
<event>
 5   0  0.9179618E-05  0.2211920E+04  0.7818609E-02  0.8513483E-01
       -2   -1    0    0    0  501  0.00000000000E+00  0.00000000000E+00  0.75882692553E+03  0.75882692553E+03  0.25500000920E-02 0.  1.
        2   -1    0    0  501    0  0.00000000000E+00  0.00000000000E+00 -0.16118930939E+04  0.16118930939E+04  0.25500000920E-02 0. -1.
    10030    2    1    2    0    0  0.00000000000E+00  0.00000000000E+00 -0.85306616836E+03  0.23707200194E+04  0.22119203247E+04 0.  0.
        3    1    3    3  502    0 -0.67413511977E+03  0.65285436600E+03 -0.10537570116E+04  0.14110566369E+04  0.10100000352E+00 0. -1.
       -3    1    3    3    0  502  0.67413511977E+03 -0.65285436600E+03  0.20069084326E+03  0.95966338248E+03  0.10100000352E+00 0.  1.
</event>
<event>
 5   0  0.4133418E-05  0.2181272E+04  0.7818609E-02  0.8526264E-01
       -1   -1    0    0    0  501  0.00000000000E+00  0.00000000000E+00  0.51492074050E+03  0.51492074053E+03  0.50400001928E-02 0.  1.
        1   -1    0    0  501    0  0.00000000000E+00  0.00000000000E+00 -0.23100386882E+04  0.23100386882E+04  0.50400001928E-02 0. -1.
    10030    2    1    2    0    0  0.00000000000E+00  0.00000000000E+00 -0.17951179477E+04  0.28249594287E+04  0.21812719518E+04 0.  0.
        4    1    3    3  502    0 -0.58133206178E+02  0.19979442093E+03 -0.22840923144E+04  0.22935510881E+04  0.12699999809E+01 0. -1.
       -4    1    3    3    0  502  0.58133206178E+02 -0.19979442093E+03  0.48897436668E+03  0.53140834061E+03  0.12699999809E+01 0.  1.
</event>
<event>
 5   0  0.4174030E-05  0.2184158E+04  0.7818609E-02  0.8525051E-01
       -1   -1    0    0    0  501  0.00000000000E+00  0.00000000000E+00  0.16755467182E+04  0.16755467182E+04  0.50400001928E-02 0.  1.
        1   -1    0    0  501    0  0.00000000000E+00  0.00000000000E+00 -0.71178917084E+03  0.71178917086E+03  0.50400001928E-02 0. -1.
    10030    2    1    2    0    0  0.00000000000E+00  0.00000000000E+00  0.96375754738E+03  0.23873358891E+04  0.21841575120E+04 0.  0.
        2    1    3    3  502    0  0.67327783115E+03 -0.69515619258E+03  0.10350079842E+04  0.14169639013E+04  0.25500000920E-02 0.  1.
       -2    1    3    3    0  502 -0.67327783115E+03  0.69515619258E+03 -0.71250436864E+02  0.97037198783E+03  0.25500000920E-02 0. -1.
</event>
<event>
 5   0  0.4063293E-05  0.2214178E+04  0.7818609E-02  0.8512550E-01
       -1   -1    0    0    0  501  0.00000000000E+00  0.00000000000E+00  0.74973283277E+03  0.74973283278E+03  0.50400001928E-02 0. -1.
        1   -1    0    0  501    0  0.00000000000E+00  0.00000000000E+00 -0.16347771341E+04  0.16347771341E+04  0.50400001928E-02 0.  1.
    10030    2    1    2    0    0  0.00000000000E+00  0.00000000000E+00 -0.88504430130E+03  0.23845099669E+04  0.22141780341E+04 0.  0.
        1    1    3    3  502    0  0.58486801840E+03  0.21208263136E+03  0.54367357046E+03  0.82621461662E+03  0.50400001928E-02 0. -1.
       -1    1    3    3    0  502 -0.58486801840E+03 -0.21208263136E+03 -0.14287178718E+04  0.15582953502E+04  0.50400001928E-02 0.  1.
</event>
<event>
 5   0  0.9254673E-05  0.2206875E+04  0.7818609E-02  0.8515572E-01
        2   -1    0    0  501    0  0.00000000000E+00  0.00000000000E+00  0.17615665088E+04  0.17615665088E+04  0.25500000920E-02 0.  1.
       -2   -1    0    0    0  501  0.00000000000E+00  0.00000000000E+00 -0.69118841868E+03  0.69118841868E+03  0.25500000920E-02 0. -1.
    10030    2    1    2    0    0  0.00000000000E+00  0.00000000000E+00  0.10703780902E+04  0.24527549275E+04  0.22068750483E+04 0.  0.
        2    1    3    3  502    0  0.10943478487E+04  0.16743798431E+02  0.37920712581E+03  0.11583072188E+04  0.25500000920E-02 0. -1.
       -2    1    3    3    0  502 -0.10943478487E+04 -0.16743798431E+02  0.69117096436E+03  0.12944477088E+04  0.25500000920E-02 0.  1.
</event>
<event>
 5   0  0.4174075E-05  0.2173836E+04  0.7818609E-02  0.8529398E-01
       -1   -1    0    0    0  501  0.00000000000E+00  0.00000000000E+00  0.82652106779E+03  0.82652106781E+03  0.50400001928E-02 0.  1.
        1   -1    0    0  501    0  0.00000000000E+00  0.00000000000E+00 -0.14293540275E+04  0.14293540275E+04  0.50400001928E-02 0. -1.
    10030    2    1    2    0    0  0.00000000000E+00  0.00000000000E+00 -0.60283295966E+03  0.22558750953E+04  0.21738364401E+04 0.  0.
        5    1    3    3  502    0 -0.34202796995E+03  0.86566416038E+03 -0.88385679506E+03  0.12835819004E+04  0.46999998093E+01 0. -1.
       -5    1    3    3    0  502  0.34202796995E+03 -0.86566416038E+03  0.28102383540E+03  0.97229319490E+03  0.46999998093E+01 0.  1.
</event>
<event>
 5   0  0.4188865E-05  0.2224376E+04  0.7818609E-02  0.8508350E-01
        1   -1    0    0  501    0  0.00000000000E+00  0.00000000000E+00  0.92971938375E+03  0.92971938376E+03  0.50400001928E-02 0.  1.
       -1   -1    0    0    0  501  0.00000000000E+00  0.00000000000E+00 -0.13304687722E+04  0.13304687722E+04  0.50400001928E-02 0. -1.
    10030    2    1    2    0    0  0.00000000000E+00  0.00000000000E+00 -0.40074938841E+03  0.22601881559E+04  0.22243764133E+04 0.  0.
        3    1    3    3  502    0  0.51080514169E+03  0.10113921614E+03  0.79820450151E+03  0.95303802141E+03  0.10100000352E+00 0.  1.
       -3    1    3    3    0  502 -0.51080514169E+03 -0.10113921614E+03 -0.11989538899E+04  0.13071501345E+04  0.10100000352E+00 0. -1.
</event>
<event>
 5   0  0.9179618E-05  0.2188304E+04  0.7818609E-02  0.8523312E-01
       -2   -1    0    0    0  501  0.00000000000E+00  0.00000000000E+00  0.57195776915E+03  0.57195776916E+03  0.25500000920E-02 0.  1.
        2   -1    0    0  501    0  0.00000000000E+00  0.00000000000E+00 -0.20931059371E+04  0.20931059371E+04  0.25500000920E-02 0. -1.
    10030    2    1    2    0    0  0.00000000000E+00  0.00000000000E+00 -0.15211481679E+04  0.26650637062E+04  0.21883036374E+04 0.  0.
        3    1    3    3  502    0  0.47805041041E+03  0.64168766739E+03 -0.16693944864E+04  0.18512626012E+04  0.10100000352E+00 0. -1.
       -3    1    3    3    0  502 -0.47805041041E+03 -0.64168766739E+03  0.14824631845E+03  0.81380110501E+03  0.10100000352E+00 0.  1.
</event>
<event>
 5   0  0.9179618E-05  0.2111069E+04  0.7818609E-02  0.8556383E-01
        2   -1    0    0  501    0  0.00000000000E+00  0.00000000000E+00  0.14265344283E+04  0.14265344283E+04  0.25500000920E-02 0. -1.
       -2   -1    0    0    0  501  0.00000000000E+00  0.00000000000E+00 -0.78102052624E+03  0.78102052625E+03  0.25500000920E-02 0.  1.
    10030    2    1    2    0    0  0.00000000000E+00  0.00000000000E+00  0.64551390201E+03  0.22075549545E+04  0.21110686108E+04 0.  0.
        3    1    3    3  502    0  0.11265928146E+02 -0.22456868698E+03  0.14012000756E+04  0.14191263785E+04  0.10100000352E+00 0. -1.
       -3    1    3    3    0  502 -0.11265928146E+02  0.22456868698E+03 -0.75568617355E+03  0.78842857597E+03  0.10100000352E+00 0.  1.
</event>
<event>
 5   0  0.4063293E-05  0.2229202E+04  0.7818609E-02  0.8506371E-01
       -1   -1    0    0    0  501  0.00000000000E+00  0.00000000000E+00  0.51117439556E+03  0.51117439559E+03  0.50400001928E-02 0. -1.
        1   -1    0    0  501    0  0.00000000000E+00  0.00000000000E+00 -0.24303551067E+04  0.24303551067E+04  0.50400001928E-02 0.  1.
    10030    2    1    2    0    0  0.00000000000E+00  0.00000000000E+00 -0.19191807111E+04  0.29415295023E+04  0.22292019224E+04 0.  0.
        1    1    3    3  502    0  0.69035040649E+03 -0.68210372613E+03 -0.16829195794E+04  0.19426959329E+04  0.50400001928E-02 0.  1.
       -1    1    3    3    0  502 -0.69035040649E+03  0.68210372613E+03 -0.23626113172E+03  0.99883356938E+03  0.50400001928E-02 0. -1.
</event>
<event>
 5   0  0.9457742E-05  0.2219995E+04  0.7818609E-02  0.8510152E-01
        2   -1    0    0  501    0  0.00000000000E+00  0.00000000000E+00  0.21554559078E+04  0.21554559078E+04  0.25500000920E-02 0. -1.
       -2   -1    0    0    0  501  0.00000000000E+00  0.00000000000E+00 -0.57161666166E+03  0.57161666166E+03  0.25500000920E-02 0.  1.
    10030    2    1    2    0    0  0.00000000000E+00  0.00000000000E+00  0.15838392461E+04  0.27270725695E+04  0.22199950544E+04 0.  0.
        1    1    3    3  502    0  0.24992635077E+03 -0.52616591133E+02 -0.53503047168E+03  0.59286532377E+03  0.50400001928E-02 0.  1.
       -1    1    3    3    0  502 -0.24992635077E+03  0.52616591133E+02  0.21188697178E+04  0.21342072457E+04  0.50400001928E-02 0. -1.
</event>
<event>
 5   0  0.4174030E-05  0.2211027E+04  0.7818609E-02  0.8513852E-01
       -1   -1    0    0    0  501  0.00000000000E+00  0.00000000000E+00  0.90995533318E+03  0.90995533319E+03  0.50400001928E-02 0. -1.
        1   -1    0    0  501    0  0.00000000000E+00  0.00000000000E+00 -0.13430990679E+04  0.13430990679E+04  0.50400001928E-02 0.  1.
    10030    2    1    2    0    0  0.00000000000E+00  0.00000000000E+00 -0.43314373473E+03  0.22530544011E+04  0.22110270553E+04 0.  0.
        2    1    3    3  502    0  0.68015140238E+03  0.35069972786E+03  0.59644327535E+03  0.97022719504E+03  0.25500000920E-02 0. -1.
       -2    1    3    3    0  502 -0.68015140238E+03 -0.35069972786E+03 -0.10295870101E+04  0.12828272061E+04  0.25500000920E-02 0.  1.
</event>
<event>
 5   0  0.4063293E-05  0.2039668E+04  0.7818609E-02  0.8588296E-01
       -1   -1    0    0    0  501  0.00000000000E+00  0.00000000000E+00  0.99272139623E+03  0.99272139624E+03  0.50400001928E-02 0. -1.
        1   -1    0    0  501    0  0.00000000000E+00  0.00000000000E+00 -0.10476866383E+04  0.10476866383E+04  0.50400001928E-02 0.  1.
    10030    2    1    2    0    0  0.00000000000E+00  0.00000000000E+00 -0.54965242047E+02  0.20404080345E+04  0.20396675635E+04 0.  0.
        1    1    3    3  502    0  0.45733187073E+03  0.49521132866E+03  0.73808877356E+03  0.99958078098E+03  0.50400001928E-02 0. -1.
       -1    1    3    3    0  502 -0.45733187073E+03 -0.49521132866E+03 -0.79305401561E+03  0.10408272535E+04  0.50400001928E-02 0.  1.
</event>
<event>
 5   0  0.4174030E-05  0.2188133E+04  0.7818609E-02  0.8523384E-01
        1   -1    0    0  501    0  0.00000000000E+00  0.00000000000E+00  0.12856284428E+04  0.12856284428E+04  0.50400001928E-02 0.  1.
       -1   -1    0    0    0  501  0.00000000000E+00  0.00000000000E+00 -0.93104779783E+03  0.93104779784E+03  0.50400001928E-02 0. -1.
    10030    2    1    2    0    0  0.00000000000E+00  0.00000000000E+00  0.35458064499E+03  0.22166762407E+04  0.21881330220E+04 0.  0.
        2    1    3    3  502    0 -0.36602553863E+03 -0.70468769657E+03  0.93971796830E+03  0.12302964296E+04  0.25500000920E-02 0.  1.
       -2    1    3    3    0  502  0.36602553863E+03  0.70468769657E+03 -0.58513732331E+03  0.98637981111E+03  0.25500000920E-02 0. -1.
</event>
<event>
 5   0  0.9457742E-05  0.2241831E+04  0.7818609E-02  0.8501216E-01
        2   -1    0    0  501    0  0.00000000000E+00  0.00000000000E+00  0.17687544606E+04  0.17687544606E+04  0.25500000920E-02 0. -1.
       -2   -1    0    0    0  501  0.00000000000E+00  0.00000000000E+00 -0.71035929483E+03  0.71035929483E+03  0.25500000920E-02 0.  1.
    10030    2    1    2    0    0  0.00000000000E+00  0.00000000000E+00  0.10583951658E+04  0.24791137555E+04  0.22418306550E+04 0.  0.
        1    1    3    3  502    0 -0.75940922932E+02 -0.85441941009E+03  0.13271321204E+04  0.15802149275E+04  0.50400001928E-02 0. -1.
       -1    1    3    3    0  502  0.75940922932E+02  0.85441941009E+03 -0.26873695458E+03  0.89889882796E+03  0.50400001928E-02 0.  1.
</event>
<event>
 5   0  0.4133418E-05  0.2241695E+04  0.7818609E-02  0.8501271E-01
       -1   -1    0    0    0  501  0.00000000000E+00  0.00000000000E+00  0.82139336429E+03  0.82139336431E+03  0.50400001928E-02 0. -1.
        1   -1    0    0  501    0  0.00000000000E+00  0.00000000000E+00 -0.15294737433E+04  0.15294737433E+04  0.50400001928E-02 0.  1.
    10030    2    1    2    0    0  0.00000000000E+00  0.00000000000E+00 -0.70808037900E+03  0.23508671076E+04  0.22416954152E+04 0.  0.
        4    1    3    3  502    0 -0.99557197380E+03 -0.21069744187E+03  0.13867163215E+03  0.10270289195E+04  0.12699999809E+01 0. -1.
       -4    1    3    3    0  502  0.99557197380E+03  0.21069744187E+03 -0.84675201116E+03  0.13238381881E+04  0.12699999809E+01 0.  1.
</event>
<event>
 5   0  0.4174030E-05  0.2191038E+04  0.7818609E-02  0.8522168E-01
        1   -1    0    0  501    0  0.00000000000E+00  0.00000000000E+00  0.12530884829E+04  0.12530884829E+04  0.50400001928E-02 0. -1.
       -1   -1    0    0    0  501  0.00000000000E+00  0.00000000000E+00 -0.95776268802E+03  0.95776268803E+03  0.50400001928E-02 0.  1.
    10030    2    1    2    0    0  0.00000000000E+00  0.00000000000E+00  0.29532579491E+03  0.22108511710E+04  0.21910375567E+04 0.  0.
        2    1    3    3  502    0  0.22857160661E+03 -0.71926640657E+03  0.94892963323E+03  0.12124589031E+04  0.25500000920E-02 0. -1.
       -2    1    3    3    0  502 -0.22857160661E+03  0.71926640657E+03 -0.65360383833E+03  0.99839226782E+03  0.25500000920E-02 0.  1.
</event>
<event>
 5   0  0.9254673E-05  0.2172682E+04  0.7818609E-02  0.8529885E-01
        2   -1    0    0  501    0  0.00000000000E+00  0.00000000000E+00  0.11450943004E+04  0.11450943004E+04  0.25500000920E-02 0. -1.
       -2   -1    0    0    0  501  0.00000000000E+00  0.00000000000E+00 -0.10306018610E+04  0.10306018610E+04  0.25500000920E-02 0.  1.
    10030    2    1    2    0    0  0.00000000000E+00  0.00000000000E+00  0.11449243941E+03  0.21756961613E+04  0.21726815845E+04 0.  0.
        2    1    3    3  502    0  0.35329180658E+03 -0.92438962230E+03  0.50600307495E+03  0.11114631736E+04  0.25500000920E-02 0. -1.
       -2    1    3    3    0  502 -0.35329180658E+03  0.92438962230E+03 -0.39151063554E+03  0.10642329877E+04  0.25500000920E-02 0.  1.
</event>
<event>
 5   0  0.4188865E-05  0.2178117E+04  0.7818609E-02  0.8527592E-01
       -1   -1    0    0    0  501  0.00000000000E+00  0.00000000000E+00  0.12895873827E+04  0.12895873828E+04  0.50400001928E-02 0.  1.
        1   -1    0    0  501    0  0.00000000000E+00  0.00000000000E+00 -0.91971187594E+03  0.91971187595E+03  0.50400001928E-02 0. -1.
    10030    2    1    2    0    0  0.00000000000E+00  0.00000000000E+00  0.36987550680E+03  0.22092992587E+04  0.21781173807E+04 0.  0.
        3    1    3    3  502    0  0.86900380825E+02 -0.12664957541E+03 -0.90867035184E+03  0.92156042106E+03  0.10100000352E+00 0. -1.
       -3    1    3    3    0  502 -0.86900380825E+02  0.12664957541E+03  0.12785458586E+04  0.12877388377E+04  0.10100000352E+00 0.  1.
</event>
<event>
 5   0  0.9938176E-05  0.2201555E+04  0.7818609E-02  0.8517781E-01
        2   -1    0    0  501    0  0.00000000000E+00  0.00000000000E+00  0.18629755689E+04  0.18629755689E+04  0.25500000920E-02 0.  1.
       -2   -1    0    0    0  501  0.00000000000E+00  0.00000000000E+00 -0.65041693692E+03  0.65041693693E+03  0.25500000920E-02 0. -1.
    10030    2    1    2    0    0  0.00000000000E+00  0.00000000000E+00  0.12125586319E+04  0.25133925058E+04  0.22015547807E+04 0.  0.
        5    1    3    3  502    0 -0.40198953250E+03 -0.61173138247E+03 -0.33228695693E+03  0.80389525455E+03  0.46999998093E+01 0. -1.
       -5    1    3    3    0  502  0.40198953250E+03  0.61173138247E+03  0.15448455889E+04  0.17094972512E+04  0.46999998093E+01 0.  1.
</event>
<event>
 5   0  0.4188865E-05  0.2392059E+04  0.7818609E-02  0.8442482E-01
        1   -1    0    0  501    0  0.00000000000E+00  0.00000000000E+00  0.17305276099E+04  0.17305276099E+04  0.50400001928E-02 0. -1.
       -1   -1    0    0    0  501  0.00000000000E+00  0.00000000000E+00 -0.82661881272E+03  0.82661881274E+03  0.50400001928E-02 0.  1.
    10030    2    1    2    0    0  0.00000000000E+00  0.00000000000E+00  0.90390879714E+03  0.25571464226E+04  0.23920590948E+04 0.  0.
        3    1    3    3  502    0  0.47050988371E+02 -0.92574001421E+02  0.17256992185E+04  0.17288208537E+04  0.10100000352E+00 0. -1.
       -3    1    3    3    0  502 -0.47050988371E+02  0.92574001421E+02 -0.82179042137E+03  0.82832556890E+03  0.10100000352E+00 0.  1.
</event>
<event>
 5   0  0.9254673E-05  0.2106253E+04  0.7818609E-02  0.8558494E-01
        2   -1    0    0  501    0  0.00000000000E+00  0.00000000000E+00  0.93142050113E+03  0.93142050114E+03  0.25500000920E-02 0.  1.
       -2   -1    0    0    0  501  0.00000000000E+00  0.00000000000E+00 -0.11907353011E+04  0.11907353011E+04  0.25500000920E-02 0. -1.
    10030    2    1    2    0    0  0.00000000000E+00  0.00000000000E+00 -0.25931480001E+03  0.21221558023E+04  0.21062528537E+04 0.  0.
        2    1    3    3  502    0 -0.60480924466E+03  0.42213449061E+03 -0.88705352654E+03  0.11536271969E+04  0.25500000920E-02 0. -1.
       -2    1    3    3    0  502  0.60480924466E+03 -0.42213449061E+03  0.62773872653E+03  0.96852860534E+03  0.25500000920E-02 0.  1.
</event>
<event>
 5   0  0.9254673E-05  0.2193661E+04  0.7818609E-02  0.8521071E-01
        2   -1    0    0  501    0  0.00000000000E+00  0.00000000000E+00  0.23423349299E+04  0.23423349299E+04  0.25500000920E-02 0.  1.
       -2   -1    0    0    0  501  0.00000000000E+00  0.00000000000E+00 -0.51360587306E+03  0.51360587306E+03  0.25500000920E-02 0. -1.
    10030    2    1    2    0    0  0.00000000000E+00  0.00000000000E+00  0.18287290568E+04  0.28559408029E+04  0.21936608459E+04 0.  0.
        2    1    3    3  502    0  0.78531624255E+02 -0.10834742685E+04  0.11116077109E+04  0.15542700568E+04  0.25500000920E-02 0. -1.
       -2    1    3    3    0  502 -0.78531624255E+02  0.10834742685E+04  0.71712134591E+03  0.13016707461E+04  0.25500000920E-02 0.  1.
</event>
<event>
 5   0  0.4063293E-05  0.2201133E+04  0.7818609E-02  0.8517957E-01
       -1   -1    0    0    0  501  0.00000000000E+00  0.00000000000E+00  0.67964490687E+03  0.67964490689E+03  0.50400001928E-02 0.  1.
        1   -1    0    0  501    0  0.00000000000E+00  0.00000000000E+00 -0.17821760349E+04  0.17821760349E+04  0.50400001928E-02 0. -1.
    10030    2    1    2    0    0  0.00000000000E+00  0.00000000000E+00 -0.11025311280E+04  0.24618209418E+04  0.22011332220E+04 0.  0.
        1    1    3    3  502    0 -0.37992037277E+03  0.10099663561E+04 -0.30911676141E+03  0.11224636753E+04  0.50400001928E-02 0.  1.
       -1    1    3    3    0  502  0.37992037277E+03 -0.10099663561E+04 -0.79341436660E+03  0.13393572665E+04  0.50400001928E-02 0. -1.
</event>
<event>
 5   0  0.9179618E-05  0.2288743E+04  0.7818609E-02  0.8482373E-01
       -2   -1    0    0    0  501  0.00000000000E+00  0.00000000000E+00  0.55548318908E+03  0.55548318908E+03  0.25500000920E-02 0.  1.
        2   -1    0    0  501    0  0.00000000000E+00  0.00000000000E+00 -0.23575619618E+04  0.23575619618E+04  0.25500000920E-02 0. -1.
    10030    2    1    2    0    0  0.00000000000E+00  0.00000000000E+00 -0.18020787727E+04  0.29130451508E+04  0.22887429187E+04 0.  0.
        3    1    3    3  502    0  0.54120596256E+03  0.52843616874E+02 -0.21826188949E+04  0.22493380343E+04  0.10100000352E+00 0. -1.
       -3    1    3    3    0  502 -0.54120596256E+03 -0.52843616874E+02  0.38054012223E+03  0.66370711657E+03  0.10100000352E+00 0.  1.
</event>
<event>
 5   0  0.9254673E-05  0.2221883E+04  0.7818609E-02  0.8509375E-01
       -2   -1    0    0    0  501  0.00000000000E+00  0.00000000000E+00  0.15527149723E+04  0.15527149723E+04  0.25500000920E-02 0.  1.
        2   -1    0    0  501    0  0.00000000000E+00  0.00000000000E+00 -0.79486016081E+03  0.79486016082E+03  0.25500000920E-02 0. -1.
    10030    2    1    2    0    0  0.00000000000E+00  0.00000000000E+00  0.75785481147E+03  0.23475751331E+04  0.22218832306E+04 0.  0.
        2    1    3    3  502    0  0.80413147081E+03 -0.13203238193E+03  0.11767121214E+04  0.14313320331E+04  0.25500000920E-02 0.  1.
       -2    1    3    3    0  502 -0.80413147081E+03  0.13203238193E+03 -0.41885730996E+03  0.91624310002E+03  0.25500000920E-02 0. -1.
</event>
<event>
 5   0  0.4188865E-05  0.2176784E+04  0.7818609E-02  0.8528154E-01
        1   -1    0    0  501    0  0.00000000000E+00  0.00000000000E+00  0.10851999384E+04  0.10851999384E+04  0.50400001928E-02 0.  1.
       -1   -1    0    0    0  501  0.00000000000E+00  0.00000000000E+00 -0.10915930739E+04  0.10915930739E+04  0.50400001928E-02 0. -1.
    10030    2    1    2    0    0  0.00000000000E+00  0.00000000000E+00 -0.63931355396E+01  0.21767930124E+04  0.21767836242E+04 0.  0.
        3    1    3    3  502    0  0.89682444922E+03 -0.55653202872E+03  0.26246363525E+03  0.10876162750E+04  0.10100000352E+00 0.  1.
       -3    1    3    3    0  502 -0.89682444922E+03  0.55653202872E+03 -0.26885677079E+03  0.10891767373E+04  0.10100000352E+00 0. -1.
</event>
<event>
 5   0  0.4188865E-05  0.2273435E+04  0.7818609E-02  0.8488470E-01
       -1   -1    0    0    0  501  0.00000000000E+00  0.00000000000E+00  0.83043053512E+03  0.83043053513E+03  0.50400001928E-02 0.  1.
        1   -1    0    0  501    0  0.00000000000E+00  0.00000000000E+00 -0.15559716769E+04  0.15559716769E+04  0.50400001928E-02 0. -1.
    10030    2    1    2    0    0  0.00000000000E+00  0.00000000000E+00 -0.72554114182E+03  0.23864022121E+04  0.22734347515E+04 0.  0.
        3    1    3    3  502    0 -0.54124006383E+03 -0.99095672420E+03 -0.22514362891E+03  0.11513581979E+04  0.10100000352E+00 0.  1.
       -3    1    3    3    0  502  0.54124006383E+03  0.99095672420E+03 -0.50039751291E+03  0.12350440142E+04  0.10100000352E+00 0. -1.
</event>
<event>
 5   0  0.4133418E-05  0.2188348E+04  0.7818609E-02  0.8523294E-01
       -1   -1    0    0    0  501  0.00000000000E+00  0.00000000000E+00  0.53478187734E+03  0.53478187736E+03  0.50400001928E-02 0. -1.
        1   -1    0    0  501    0  0.00000000000E+00  0.00000000000E+00 -0.22387013670E+04  0.22387013670E+04  0.50400001928E-02 0.  1.
    10030    2    1    2    0    0  0.00000000000E+00  0.00000000000E+00 -0.17039194897E+04  0.27734832444E+04  0.21883481623E+04 0.  0.
        4    1    3    3  502    0  0.32801159967E+03 -0.10014337344E+04 -0.47866290344E+03  0.11574026620E+04  0.12699999809E+01 0. -1.
       -4    1    3    3    0  502 -0.32801159967E+03  0.10014337344E+04 -0.12252565863E+04  0.16160805824E+04  0.12699999809E+01 0.  1.
</event>
<event>
 5   0  0.9179618E-05  0.2235311E+04  0.7818609E-02  0.8503873E-01
        2   -1    0    0  501    0  0.00000000000E+00  0.00000000000E+00  0.16039674462E+04  0.16039674462E+04  0.25500000920E-02 0. -1.
       -2   -1    0    0    0  501  0.00000000000E+00  0.00000000000E+00 -0.77879007110E+03  0.77879007111E+03  0.25500000920E-02 0.  1.
    10030    2    1    2    0    0  0.00000000000E+00  0.00000000000E+00  0.82517737506E+03  0.23827575173E+04  0.22353110937E+04 0.  0.
        3    1    3    3  502    0 -0.11034837969E+04  0.11907929418E+03  0.27239318488E+03  0.11428273823E+04  0.10100000352E+00 0.  1.
       -3    1    3    3    0  502  0.11034837969E+04 -0.11907929418E+03  0.55278419018E+03  0.12399301349E+04  0.10100000352E+00 0. -1.
</event>
<event>
 5   0  0.9254673E-05  0.2334248E+04  0.7818609E-02  0.8464539E-01
        2   -1    0    0  501    0  0.00000000000E+00  0.00000000000E+00  0.18423235461E+04  0.18423235461E+04  0.25500000920E-02 0. -1.
       -2   -1    0    0    0  501  0.00000000000E+00  0.00000000000E+00 -0.73938051664E+03  0.73938051664E+03  0.25500000920E-02 0.  1.
    10030    2    1    2    0    0  0.00000000000E+00  0.00000000000E+00  0.11029430294E+04  0.25817040627E+04  0.23342477463E+04 0.  0.
        2    1    3    3  502    0  0.20991436589E+03 -0.21694673333E+03 -0.69545402856E+03  0.75814657683E+03  0.25500000920E-02 0.  1.
       -2    1    3    3    0  502 -0.20991436589E+03  0.21694673333E+03  0.17983970580E+04  0.18235574859E+04  0.25500000920E-02 0. -1.
</event>
<event>
 5   0  0.9442578E-05  0.2181960E+04  0.7818609E-02  0.8525975E-01
       -2   -1    0    0    0  501  0.00000000000E+00  0.00000000000E+00  0.35676976373E+03  0.35676976373E+03  0.25500000920E-02 0.  1.
        2   -1    0    0  501    0  0.00000000000E+00  0.00000000000E+00 -0.33361492806E+04  0.33361492806E+04  0.25500000920E-02 0. -1.
    10030    2    1    2    0    0  0.00000000000E+00  0.00000000000E+00 -0.29793795169E+04  0.36929190443E+04  0.21819598444E+04 0.  0.
        4    1    3    3  502    0 -0.34640690168E+03  0.64158919184E+03 -0.28632075020E+04  0.29545885069E+04  0.12699999809E+01 0. -1.
       -4    1    3    3    0  502  0.34640690168E+03 -0.64158919184E+03 -0.11617201490E+03  0.73833053748E+03  0.12699999809E+01 0.  1.
</event>
<event>
 5   0  0.4174030E-05  0.2191675E+04  0.7818609E-02  0.8521901E-01
        1   -1    0    0  501    0  0.00000000000E+00  0.00000000000E+00  0.11210271065E+04  0.11210271065E+04  0.50400001928E-02 0.  1.
       -1   -1    0    0    0  501  0.00000000000E+00  0.00000000000E+00 -0.10712135665E+04  0.10712135665E+04  0.50400001928E-02 0. -1.
    10030    2    1    2    0    0  0.00000000000E+00  0.00000000000E+00  0.49813539959E+02  0.21922406730E+04  0.21916746518E+04 0.  0.
        2    1    3    3  502    0 -0.30668541836E+03  0.70171943588E+03  0.80894166675E+03  0.11139356951E+04  0.25500000920E-02 0.  1.
       -2    1    3    3    0  502  0.30668541836E+03 -0.70171943588E+03 -0.75912812679E+03  0.10783049779E+04  0.25500000920E-02 0. -1.
</event>
<event>
 5   0  0.3283125E-05  0.2185533E+04  0.7818609E-02  0.8524474E-01
       -3   -1    0    0    0  501  0.00000000000E+00  0.00000000000E+00  0.45377090983E+03  0.45377092107E+03  0.10100000352E+00 0. -1.
        3   -1    0    0  501    0  0.00000000000E+00  0.00000000000E+00 -0.26315896207E+04  0.26315896226E+04  0.10100000352E+00 0.  1.
    10030    2    1    2    0    0  0.00000000000E+00  0.00000000000E+00 -0.21778187108E+04  0.30853605437E+04  0.21855331952E+04 0.  0.
        1    1    3    3  502    0 -0.31418517250E+03  0.62598157234E+03  0.95231259327E+02  0.70684810554E+03  0.50400001928E-02 0. -1.
       -1    1    3    3    0  502  0.31418517250E+03 -0.62598157234E+03 -0.22730499702E+04  0.23785124381E+04  0.50400001928E-02 0.  1.
</event>
<event>
 5   0  0.9179618E-05  0.2089212E+04  0.7818609E-02  0.8566011E-01
        2   -1    0    0  501    0  0.00000000000E+00  0.00000000000E+00  0.23373169772E+04  0.23373169772E+04  0.25500000920E-02 0. -1.
       -2   -1    0    0    0  501  0.00000000000E+00  0.00000000000E+00 -0.46686075331E+03  0.46686075331E+03  0.25500000920E-02 0.  1.
    10030    2    1    2    0    0  0.00000000000E+00  0.00000000000E+00  0.18704562239E+04  0.28041777305E+04  0.20892118750E+04 0.  0.
        3    1    3    3  502    0 -0.35753524837E+03 -0.96673582094E+03  0.11629782318E+04  0.15540038543E+04  0.10100000352E+00 0. -1.
       -3    1    3    3    0  502  0.35753524837E+03  0.96673582094E+03  0.70747799209E+03  0.12501738762E+04  0.10100000352E+00 0.  1.
</event>
<event>
 5   0  0.9254673E-05  0.1676042E+04  0.7818609E-02  0.8775148E-01
       -2   -1    0    0    0  501  0.00000000000E+00  0.00000000000E+00  0.80126366126E+03  0.80126366126E+03  0.25500000920E-02 0. -1.
        2   -1    0    0  501    0  0.00000000000E+00  0.00000000000E+00 -0.87646436782E+03  0.87646436782E+03  0.25500000920E-02 0.  1.
    10030    2    1    2    0    0  0.00000000000E+00  0.00000000000E+00 -0.75200706563E+02  0.16777280291E+04  0.16760418233E+04 0.  0.
        2    1    3    3  502    0  0.83302826505E+03 -0.45672102985E+02  0.41580535934E+02  0.83531489412E+03  0.25500000920E-02 0. -1.
       -2    1    3    3    0  502 -0.83302826505E+03  0.45672102985E+02 -0.11678124250E+03  0.84241313497E+03  0.25500000920E-02 0.  1.
</event>
<event>
 5   0  0.4063293E-05  0.2191497E+04  0.7818609E-02  0.8521975E-01
        1   -1    0    0  501    0  0.00000000000E+00  0.00000000000E+00  0.16349374782E+04  0.16349374782E+04  0.50400001928E-02 0. -1.
       -1   -1    0    0    0  501  0.00000000000E+00  0.00000000000E+00 -0.73437984514E+03  0.73437984516E+03  0.50400001928E-02 0.  1.
    10030    2    1    2    0    0  0.00000000000E+00  0.00000000000E+00  0.90055763302E+03  0.23693173233E+04  0.21914973256E+04 0.  0.
        1    1    3    3  502    0  0.17577538654E+03 -0.58687243158E+03 -0.53192376618E+03  0.81133170190E+03  0.50400001928E-02 0.  1.
       -1    1    3    3    0  502 -0.17577538654E+03  0.58687243158E+03  0.14324813992E+04  0.15579856214E+04  0.50400001928E-02 0. -1.
</event>
<event>
 5   0  0.4188865E-05  0.2260650E+04  0.7818609E-02  0.8493600E-01
       -1   -1    0    0    0  501  0.00000000000E+00  0.00000000000E+00  0.82100351832E+03  0.82100351834E+03  0.50400001928E-02 0.  1.
        1   -1    0    0  501    0  0.00000000000E+00  0.00000000000E+00 -0.15561865631E+04  0.15561865631E+04  0.50400001928E-02 0. -1.
    10030    2    1    2    0    0  0.00000000000E+00  0.00000000000E+00 -0.73518304473E+03  0.23771900814E+04  0.22606500335E+04 0.  0.
        3    1    3    3  502    0 -0.63915299904E+03 -0.87217600251E+03 -0.21333781834E+02  0.10815094433E+04  0.10100000352E+00 0. -1.
       -3    1    3    3    0  502  0.63915299904E+03  0.87217600251E+03 -0.71384926290E+03  0.12956806381E+04  0.10100000352E+00 0.  1.
</event>
<event>
 5   0  0.4133418E-05  0.1893710E+04  0.7818609E-02  0.8657994E-01
        1   -1    0    0  501    0  0.00000000000E+00  0.00000000000E+00  0.22083340011E+04  0.22083340011E+04  0.50400001928E-02 0.  1.
       -1   -1    0    0    0  501  0.00000000000E+00  0.00000000000E+00 -0.40597754621E+03  0.40597754624E+03  0.50400001928E-02 0. -1.
    10030    2    1    2    0    0  0.00000000000E+00  0.00000000000E+00  0.18023564549E+04  0.26143115474E+04  0.18937096071E+04 0.  0.
        4    1    3    3  502    0  0.18037262603E+03  0.27533038542E+03 -0.32445288629E+03  0.46218220831E+03  0.12699999809E+01 0. -1.
       -4    1    3    3    0  502 -0.18037262603E+03 -0.27533038542E+03  0.21268093412E+04  0.21521293391E+04  0.12699999809E+01 0.  1.
</event>
<event>
 5   0  0.4063293E-05  0.1641130E+04  0.7818609E-02  0.8795671E-01
        1   -1    0    0  501    0  0.00000000000E+00  0.00000000000E+00  0.17189996574E+04  0.17189996574E+04  0.50400001928E-02 0. -1.
       -1   -1    0    0    0  501  0.00000000000E+00  0.00000000000E+00 -0.39169717366E+03  0.39169717370E+03  0.50400001928E-02 0.  1.
    10030    2    1    2    0    0  0.00000000000E+00  0.00000000000E+00  0.13273024838E+04  0.21106968311E+04  0.16411304730E+04 0.  0.
        1    1    3    3  502    0 -0.49920486593E+03 -0.13494986885E+02  0.15010547766E+04  0.15819459710E+04  0.50400001928E-02 0. -1.
       -1    1    3    3    0  502  0.49920486593E+03  0.13494986885E+02 -0.17375229279E+03  0.52875086016E+03  0.50400001928E-02 0.  1.
</event>
<event>
 5   0  0.9179618E-05  0.2209851E+04  0.7818609E-02  0.8514339E-01
       -2   -1    0    0    0  501  0.00000000000E+00  0.00000000000E+00  0.13711274416E+04  0.13711274416E+04  0.25500000920E-02 0.  1.
        2   -1    0    0  501    0  0.00000000000E+00  0.00000000000E+00 -0.89040584770E+03  0.89040584770E+03  0.25500000920E-02 0. -1.
    10030    2    1    2    0    0  0.00000000000E+00  0.00000000000E+00  0.48072159391E+03  0.22615332893E+04  0.22098505759E+04 0.  0.
        3    1    3    3  502    0  0.14613714358E+03 -0.36101757921E+03 -0.81782878969E+03  0.90583315058E+03  0.10100000352E+00 0. -1.
       -3    1    3    3    0  502 -0.14613714358E+03  0.36101757921E+03  0.12985503836E+04  0.13557001387E+04  0.10100000352E+00 0.  1.
</event>
<event>
 5   0  0.4174030E-05  0.1797203E+04  0.7818609E-02  0.8707788E-01
       -1   -1    0    0    0  501  0.00000000000E+00  0.00000000000E+00  0.16206178883E+04  0.16206178883E+04  0.50400001928E-02 0.  1.
        1   -1    0    0  501    0  0.00000000000E+00  0.00000000000E+00 -0.49825754473E+03  0.49825754475E+03  0.50400001928E-02 0. -1.
    10030    2    1    2    0    0  0.00000000000E+00  0.00000000000E+00  0.11223603436E+04  0.21188754331E+04  0.17972034832E+04 0.  0.
        2    1    3    3  502    0 -0.86028645442E+03 -0.12742020109E+03  0.29451999929E+03  0.91818882660E+03  0.25500000920E-02 0. -1.
       -2    1    3    3    0  502  0.86028645442E+03  0.12742020109E+03  0.82784034428E+03  0.12006866065E+04  0.25500000920E-02 0.  1.
</event>
<event>
 5   0  0.9457742E-05  0.2209567E+04  0.7818609E-02  0.8514457E-01
       -2   -1    0    0    0  501  0.00000000000E+00  0.00000000000E+00  0.75713282925E+03  0.75713282926E+03  0.25500000920E-02 0. -1.
        2   -1    0    0  501    0  0.00000000000E+00  0.00000000000E+00 -0.16120635176E+04  0.16120635176E+04  0.25500000920E-02 0.  1.
    10030    2    1    2    0    0  0.00000000000E+00  0.00000000000E+00 -0.85493068835E+03  0.23691963469E+04  0.22095666652E+04 0.  0.
        1    1    3    3  502    0 -0.10178012913E+04 -0.69256772784E+02 -0.88216571707E+03  0.13486779903E+04  0.50400001928E-02 0.  1.
       -1    1    3    3    0  502  0.10178012913E+04  0.69256772784E+02  0.27235028718E+02  0.10205183565E+04  0.50400001928E-02 0. -1.
</event>
<event>
 5   0  0.4174030E-05  0.2142521E+04  0.7818609E-02  0.8542740E-01
        1   -1    0    0  501    0  0.00000000000E+00  0.00000000000E+00  0.17225383383E+04  0.17225383383E+04  0.50400001928E-02 0. -1.
       -1   -1    0    0    0  501  0.00000000000E+00  0.00000000000E+00 -0.66622553476E+03  0.66622553477E+03  0.50400001928E-02 0.  1.
    10030    2    1    2    0    0  0.00000000000E+00  0.00000000000E+00  0.10563128036E+04  0.23887638731E+04  0.21425209690E+04 0.  0.
        2    1    3    3  502    0 -0.35562612806E+03 -0.28132207146E+03  0.16102643576E+04  0.16728907174E+04  0.25500000920E-02 0. -1.
       -2    1    3    3    0  502  0.35562612806E+03  0.28132207146E+03 -0.55395155406E+03  0.71587315573E+03  0.25500000920E-02 0.  1.
</event>
<event>
 5   0  0.4188865E-05  0.2099054E+04  0.7818609E-02  0.8561660E-01
        1   -1    0    0  501    0  0.00000000000E+00  0.00000000000E+00  0.23554428638E+04  0.23554428638E+04  0.50400001928E-02 0. -1.
       -1   -1    0    0    0  501  0.00000000000E+00  0.00000000000E+00 -0.46764322231E+03  0.46764322234E+03  0.50400001928E-02 0.  1.
    10030    2    1    2    0    0  0.00000000000E+00  0.00000000000E+00  0.18877996415E+04  0.28230860861E+04  0.20990539687E+04 0.  0.
        3    1    3    3  502    0 -0.68172698090E+03 -0.76156970018E+03  0.62345909420E+03  0.11972641050E+04  0.10100000352E+00 0.  1.
       -3    1    3    3    0  502  0.68172698090E+03  0.76156970018E+03  0.12643405473E+04  0.16258219812E+04  0.10100000352E+00 0. -1.
</event>
<event>
 5   0  0.9457742E-05  0.2288938E+04  0.7818609E-02  0.8482296E-01
        2   -1    0    0  501    0  0.00000000000E+00  0.00000000000E+00  0.21637377801E+04  0.21637377801E+04  0.25500000920E-02 0. -1.
       -2   -1    0    0    0  501  0.00000000000E+00  0.00000000000E+00 -0.60534563555E+03  0.60534563555E+03  0.25500000920E-02 0.  1.
    10030    2    1    2    0    0  0.00000000000E+00  0.00000000000E+00  0.15583921445E+04  0.27690834156E+04  0.22889379386E+04 0.  0.
        1    1    3    3  502    0  0.12368250573E+03  0.16864273714E+03  0.21404248912E+04  0.21506176904E+04  0.50400001928E-02 0. -1.
       -1    1    3    3    0  502 -0.12368250573E+03 -0.16864273714E+03 -0.58203274674E+03  0.61846572525E+03  0.50400001928E-02 0.  1.
</event>
<event>
 5   0  0.4133418E-05  0.2134239E+04  0.7818609E-02  0.8546309E-01
       -1   -1    0    0    0  501  0.00000000000E+00  0.00000000000E+00  0.12342694146E+04  0.12342694146E+04  0.50400001928E-02 0. -1.
        1   -1    0    0  501    0  0.00000000000E+00  0.00000000000E+00 -0.92260574964E+03  0.92260574966E+03  0.50400001928E-02 0.  1.
    10030    2    1    2    0    0  0.00000000000E+00  0.00000000000E+00  0.31166366499E+03  0.21568751643E+04  0.21342390293E+04 0.  0.
        4    1    3    3  502    0  0.96124401904E+03  0.28642865239E+02  0.62326529034E+03  0.11459806774E+04  0.12699999809E+01 0. -1.
       -4    1    3    3    0  502 -0.96124401904E+03 -0.28642865239E+02 -0.31160162535E+03  0.10108944869E+04  0.12699999809E+01 0.  1.
</event>
<event>
 5   0  0.9254673E-05  0.2181191E+04  0.7818609E-02  0.8526298E-01
        2   -1    0    0  501    0  0.00000000000E+00  0.00000000000E+00  0.91530246182E+03  0.91530246183E+03  0.25500000920E-02 0.  1.
       -2   -1    0    0    0  501  0.00000000000E+00  0.00000000000E+00 -0.12994591488E+04  0.12994591489E+04  0.25500000920E-02 0. -1.
    10030    2    1    2    0    0  0.00000000000E+00  0.00000000000E+00 -0.38415668703E+03  0.22147616107E+04  0.21811906455E+04 0.  0.
        2    1    3    3  502    0 -0.95225338149E+02 -0.12374339804E+03  0.90389414659E+03  0.91728126648E+03  0.25500000920E-02 0.  1.
       -2    1    3    3    0  502  0.95225338149E+02  0.12374339804E+03 -0.12880508336E+04  0.12974803442E+04  0.25500000920E-02 0. -1.
</event>
<event>
 5   0  0.4174075E-05  0.2176747E+04  0.7818609E-02  0.8528169E-01
       -1   -1    0    0    0  501  0.00000000000E+00  0.00000000000E+00  0.66208693343E+03  0.66208693345E+03  0.50400001928E-02 0.  1.
        1   -1    0    0  501    0  0.00000000000E+00  0.00000000000E+00 -0.17891266836E+04  0.17891266836E+04  0.50400001928E-02 0. -1.
    10030    2    1    2    0    0  0.00000000000E+00  0.00000000000E+00 -0.11270397502E+04  0.24512136171E+04  0.21767474815E+04 0.  0.
        5    1    3    3  502    0  0.27800650722E+03  0.36031012561E+03 -0.16768262015E+04  0.17374922172E+04  0.46999998093E+01 0. -1.
       -5    1    3    3    0  502 -0.27800650722E+03 -0.36031012561E+03  0.54978645130E+03  0.71372139993E+03  0.46999998093E+01 0.  1.
</event>
<event>
 5   0  0.9179618E-05  0.2193667E+04  0.7818609E-02  0.8521069E-01
        2   -1    0    0  501    0  0.00000000000E+00  0.00000000000E+00  0.19582903820E+04  0.19582903820E+04  0.25500000920E-02 0.  1.
       -2   -1    0    0    0  501  0.00000000000E+00  0.00000000000E+00 -0.61433355082E+03  0.61433355083E+03  0.25500000920E-02 0. -1.
    10030    2    1    2    0    0  0.00000000000E+00  0.00000000000E+00  0.13439568312E+04  0.25726239329E+04  0.21936667787E+04 0.  0.
        3    1    3    3  502    0 -0.10922520789E+03  0.81841951482E+03 -0.17476277439E+03  0.84396841516E+03  0.10100000352E+00 0. -1.
       -3    1    3    3    0  502  0.10922520789E+03 -0.81841951482E+03  0.15187196056E+04  0.17286555177E+04  0.10100000352E+00 0.  1.
</event>
<event>
 5   0  0.4174030E-05  0.2237183E+04  0.7818609E-02  0.8503109E-01
       -1   -1    0    0    0  501  0.00000000000E+00  0.00000000000E+00  0.10462201557E+04  0.10462201557E+04  0.50400001928E-02 0. -1.
        1   -1    0    0  501    0  0.00000000000E+00  0.00000000000E+00 -0.11959691088E+04  0.11959691088E+04  0.50400001928E-02 0.  1.
    10030    2    1    2    0    0  0.00000000000E+00  0.00000000000E+00 -0.14974895313E+03  0.22421892645E+04  0.22371830387E+04 0.  0.
        2    1    3    3  502    0 -0.11072414523E+04  0.15691275884E+03 -0.49485207564E+02  0.11193989607E+04  0.25500000920E-02 0.  1.
       -2    1    3    3    0  502  0.11072414523E+04 -0.15691275884E+03 -0.10026374556E+03  0.11227903037E+04  0.25500000920E-02 0. -1.
</event>
<event>
 5   0  0.9254673E-05  0.2269748E+04  0.7818609E-02  0.8489945E-01
       -2   -1    0    0    0  501  0.00000000000E+00  0.00000000000E+00  0.43014952916E+03  0.43014952917E+03  0.25500000920E-02 0. -1.
        2   -1    0    0  501    0  0.00000000000E+00  0.00000000000E+00 -0.29941661227E+04  0.29941661227E+04  0.25500000920E-02 0.  1.
    10030    2    1    2    0    0  0.00000000000E+00  0.00000000000E+00 -0.25640165935E+04  0.34243156518E+04  0.22697481340E+04 0.  0.
        2    1    3    3  502    0 -0.10627171622E+04 -0.32370139309E+03 -0.93210985556E+03  0.14501652118E+04  0.25500000920E-02 0. -1.
       -2    1    3    3    0  502  0.10627171622E+04  0.32370139309E+03 -0.16319067379E+04  0.19741504400E+04  0.25500000920E-02 0.  1.
</event>
<event>
 5   0  0.9457742E-05  0.2188068E+04  0.7818609E-02  0.8523411E-01
        2   -1    0    0  501    0  0.00000000000E+00  0.00000000000E+00  0.18310495675E+04  0.18310495675E+04  0.25500000920E-02 0. -1.
       -2   -1    0    0    0  501  0.00000000000E+00  0.00000000000E+00 -0.65367456494E+03  0.65367456494E+03  0.25500000920E-02 0.  1.
    10030    2    1    2    0    0  0.00000000000E+00  0.00000000000E+00  0.11773750026E+04  0.24847241324E+04  0.21880681245E+04 0.  0.
        1    1    3    3  502    0 -0.55838987017E+03  0.59237704186E+03 -0.24129621927E+03  0.84907813085E+03  0.50400001928E-02 0.  1.
       -1    1    3    3    0  502  0.55838987017E+03 -0.59237704186E+03  0.14186712218E+04  0.16356460016E+04  0.50400001928E-02 0. -1.
</event>
<event>
 5   0  0.4188865E-05  0.2201830E+04  0.7818609E-02  0.8517667E-01
        1   -1    0    0  501    0  0.00000000000E+00  0.00000000000E+00  0.13070942931E+04  0.13070942931E+04  0.50400001928E-02 0. -1.
       -1   -1    0    0    0  501  0.00000000000E+00  0.00000000000E+00 -0.92725778093E+03  0.92725778094E+03  0.50400001928E-02 0.  1.
    10030    2    1    2    0    0  0.00000000000E+00  0.00000000000E+00  0.37983651213E+03  0.22343520740E+04  0.22018295608E+04 0.  0.
        3    1    3    3  502    0  0.88019148033E+03 -0.30847268311E+03 -0.40363229906E+03  0.10162733300E+04  0.10100000352E+00 0.  1.
       -3    1    3    3    0  502 -0.88019148033E+03  0.30847268311E+03  0.78346881118E+03  0.12180787440E+04  0.10100000352E+00 0. -1.
</event>
<event>
 5   0  0.4133418E-05  0.2232883E+04  0.7818609E-02  0.8504865E-01
        1   -1    0    0  501    0  0.00000000000E+00  0.00000000000E+00  0.19094345664E+04  0.19094345664E+04  0.50400001928E-02 0.  1.
       -1   -1    0    0    0  501  0.00000000000E+00  0.00000000000E+00 -0.65278072156E+03  0.65278072158E+03  0.50400001928E-02 0. -1.
    10030    2    1    2    0    0  0.00000000000E+00  0.00000000000E+00  0.12566538448E+04  0.25622152880E+04  0.22328834041E+04 0.  0.
        4    1    3    3  502    0  0.96813882632E+03  0.15669902052E+03  0.12404824124E+04  0.15813429731E+04  0.12699999809E+01 0.  1.
       -4    1    3    3    0  502 -0.96813882632E+03 -0.15669902052E+03  0.16171432423E+02  0.98087231492E+03  0.12699999809E+01 0. -1.
</event>
<event>
 5   0  0.9254673E-05  0.2224995E+04  0.7818609E-02  0.8508096E-01
       -2   -1    0    0    0  501  0.00000000000E+00  0.00000000000E+00  0.10429049629E+04  0.10429049629E+04  0.25500000920E-02 0. -1.
        2   -1    0    0  501    0  0.00000000000E+00  0.00000000000E+00 -0.11867336042E+04  0.11867336042E+04  0.25500000920E-02 0.  1.
    10030    2    1    2    0    0  0.00000000000E+00  0.00000000000E+00 -0.14382864130E+03  0.22296385671E+04  0.22249947105E+04 0.  0.
        2    1    3    3  502    0 -0.89034946647E+03 -0.22176867871E+03 -0.70231143479E+03  0.11554846908E+04  0.25500000920E-02 0.  1.
       -2    1    3    3    0  502  0.89034946647E+03  0.22176867871E+03  0.55848279349E+03  0.10741538763E+04  0.25500000920E-02 0. -1.
</event>
<event>
 5   0  0.9442578E-05  0.2162000E+04  0.7818609E-02  0.8534413E-01
        2   -1    0    0  501    0  0.00000000000E+00  0.00000000000E+00  0.81241734249E+03  0.81241734249E+03  0.25500000920E-02 0.  1.
       -2   -1    0    0    0  501  0.00000000000E+00  0.00000000000E+00 -0.14383756551E+04  0.14383756551E+04  0.25500000920E-02 0. -1.
    10030    2    1    2    0    0  0.00000000000E+00  0.00000000000E+00 -0.62595831257E+03  0.22507929975E+04  0.21620003027E+04 0.  0.
        4    1    3    3  502    0  0.61414070737E+03 -0.88116717610E+03 -0.18574990312E+03  0.10900133211E+04  0.12699999809E+01 0.  1.
       -4    1    3    3    0  502 -0.61414070737E+03  0.88116717610E+03 -0.44020840945E+03  0.11607796765E+04  0.12699999809E+01 0. -1.
</event>
<event>
 5   0  0.9179618E-05  0.2208187E+04  0.7818609E-02  0.8515028E-01
       -2   -1    0    0    0  501  0.00000000000E+00  0.00000000000E+00  0.55193685667E+03  0.55193685668E+03  0.25500000920E-02 0.  1.
        2   -1    0    0  501    0  0.00000000000E+00  0.00000000000E+00 -0.22086275641E+04  0.22086275641E+04  0.25500000920E-02 0. -1.
    10030    2    1    2    0    0  0.00000000000E+00  0.00000000000E+00 -0.16566907074E+04  0.27605644207E+04  0.22081874515E+04 0.  0.
        3    1    3    3  502    0 -0.23492189827E+03 -0.89363758427E+03 -0.72809655633E+02  0.92686443802E+03  0.10100000352E+00 0.  1.
       -3    1    3    3    0  502  0.23492189827E+03  0.89363758427E+03 -0.15838810518E+04  0.18336999827E+04  0.10100000352E+00 0. -1.
</event>
<event>
 5   0  0.9938176E-05  0.2136915E+04  0.7818609E-02  0.8545154E-01
        2   -1    0    0  501    0  0.00000000000E+00  0.00000000000E+00  0.13549522567E+04  0.13549522567E+04  0.25500000920E-02 0.  1.
       -2   -1    0    0    0  501  0.00000000000E+00  0.00000000000E+00 -0.84253987804E+03  0.84253987804E+03  0.25500000920E-02 0. -1.
    10030    2    1    2    0    0  0.00000000000E+00  0.00000000000E+00  0.51241237868E+03  0.21974921348E+04  0.21369148875E+04 0.  0.
        5    1    3    3  502    0 -0.83842782093E+03  0.64006420014E+03  0.81278700793E+02  0.10579563830E+04  0.46999998093E+01 0.  1.
       -5    1    3    3    0  502  0.83842782093E+03 -0.64006420014E+03  0.43113367788E+03  0.11395357517E+04  0.46999998093E+01 0. -1.
</event>
<event>
 5   0  0.4133418E-05  0.2199096E+04  0.7818609E-02  0.8518805E-01
        1   -1    0    0  501    0  0.00000000000E+00  0.00000000000E+00  0.63162769340E+03  0.63162769342E+03  0.50400001928E-02 0. -1.
       -1   -1    0    0    0  501  0.00000000000E+00  0.00000000000E+00 -0.19141108020E+04  0.19141108020E+04  0.50400001928E-02 0.  1.
    10030    2    1    2    0    0  0.00000000000E+00  0.00000000000E+00 -0.12824831086E+04  0.25457384954E+04  0.21990956239E+04 0.  0.
        4    1    3    3  502    0 -0.48501367569E+03  0.97767348252E+03 -0.79620867836E+03  0.13509380357E+04  0.12699999809E+01 0. -1.
       -4    1    3    3    0  502  0.48501367569E+03 -0.97767348252E+03 -0.48627443022E+03  0.11948004597E+04  0.12699999809E+01 0.  1.
</event>
<event>
 5   0  0.4174075E-05  0.2549006E+04  0.7818609E-02  0.8385732E-01
       -1   -1    0    0    0  501  0.00000000000E+00  0.00000000000E+00  0.12409929532E+04  0.12409929532E+04  0.50400001928E-02 0.  1.
        1   -1    0    0  501    0  0.00000000000E+00  0.00000000000E+00 -0.13089182819E+04  0.13089182819E+04  0.50400001928E-02 0. -1.
    10030    2    1    2    0    0  0.00000000000E+00  0.00000000000E+00 -0.67925328715E+02  0.25499112351E+04  0.25490063665E+04 0.  0.
        5    1    3    3  502    0  0.12311333569E+03  0.56532409628E+03 -0.11699660921E+04  0.13052168302E+04  0.46999998093E+01 0. -1.
       -5    1    3    3    0  502 -0.12311333569E+03 -0.56532409628E+03  0.11020407634E+04  0.12446944048E+04  0.46999998093E+01 0.  1.
</event>
<event>
 5   0  0.4063293E-05  0.2217073E+04  0.7818609E-02  0.8511355E-01
        1   -1    0    0  501    0  0.00000000000E+00  0.00000000000E+00  0.17579937735E+04  0.17579937735E+04  0.50400001928E-02 0.  1.
       -1   -1    0    0    0  501  0.00000000000E+00  0.00000000000E+00 -0.69900879983E+03  0.69900879985E+03  0.50400001928E-02 0. -1.
    10030    2    1    2    0    0  0.00000000000E+00  0.00000000000E+00  0.10589849736E+04  0.24570025733E+04  0.22170729512E+04 0.  0.
        1    1    3    3  502    0  0.73813877910E+03 -0.75125711138E+03  0.14620723853E+03  0.10633027138E+04  0.50400001928E-02 0. -1.
       -1    1    3    3    0  502 -0.73813877910E+03  0.75125711138E+03  0.91277773512E+03  0.13936998595E+04  0.50400001928E-02 0.  1.
</event>
<event>
 5   0  0.9442578E-05  0.2275875E+04  0.7818609E-02  0.8487494E-01
       -2   -1    0    0    0  501  0.00000000000E+00  0.00000000000E+00  0.69795583546E+03  0.69795583546E+03  0.25500000920E-02 0.  1.
        2   -1    0    0  501    0  0.00000000000E+00  0.00000000000E+00 -0.18552776399E+04  0.18552776399E+04  0.25500000920E-02 0. -1.
    10030    2    1    2    0    0  0.00000000000E+00  0.00000000000E+00 -0.11573218045E+04  0.25532334754E+04  0.22758750890E+04 0.  0.
        4    1    3    3  502    0 -0.93667237158E+03 -0.40889804181E+03 -0.11399850669E+04  0.15310520259E+04  0.12699999809E+01 0. -1.
       -4    1    3    3    0  502  0.93667237158E+03  0.40889804181E+03 -0.17336737507E+02  0.10221814495E+04  0.12699999809E+01 0.  1.
</event>
<event>
 5   0  0.9442578E-05  0.2192246E+04  0.7818609E-02  0.8521662E-01
       -2   -1    0    0    0  501  0.00000000000E+00  0.00000000000E+00  0.70918223454E+03  0.70918223455E+03  0.25500000920E-02 0. -1.
        2   -1    0    0  501    0  0.00000000000E+00  0.00000000000E+00 -0.16941844582E+04  0.16941844582E+04  0.25500000920E-02 0.  1.
    10030    2    1    2    0    0  0.00000000000E+00  0.00000000000E+00 -0.98500222364E+03  0.24033666927E+04  0.21922458984E+04 0.  0.
        4    1    3    3  502    0  0.84877063714E+03 -0.68825169475E+03 -0.58669340147E+03  0.12402873659E+04  0.12699999809E+01 0.  1.
       -4    1    3    3    0  502 -0.84877063714E+03  0.68825169475E+03 -0.39830882217E+03  0.11630793268E+04  0.12699999809E+01 0. -1.
</event>
<event>
 5   0  0.4174075E-05  0.2198214E+04  0.7818609E-02  0.8519172E-01
       -1   -1    0    0    0  501  0.00000000000E+00  0.00000000000E+00  0.11035298229E+04  0.11035298229E+04  0.50400001928E-02 0.  1.
        1   -1    0    0  501    0  0.00000000000E+00  0.00000000000E+00 -0.10947015165E+04  0.10947015165E+04  0.50400001928E-02 0. -1.
    10030    2    1    2    0    0  0.00000000000E+00  0.00000000000E+00  0.88283063625E+01  0.21982313394E+04  0.21982136117E+04 0.  0.
        5    1    3    3  502    0 -0.13377212935E+03 -0.37328138008E+03 -0.10206695788E+04  0.10949988358E+04  0.46999998093E+01 0. -1.
       -5    1    3    3    0  502  0.13377212935E+03  0.37328138008E+03  0.10294978852E+04  0.11032325036E+04  0.46999998093E+01 0.  1.
</event>
<event>
 5   0  0.9254673E-05  0.2107236E+04  0.7818609E-02  0.8558063E-01
       -2   -1    0    0    0  501  0.00000000000E+00  0.00000000000E+00  0.90730641707E+03  0.90730641708E+03  0.25500000920E-02 0.  1.
        2   -1    0    0  501    0  0.00000000000E+00  0.00000000000E+00 -0.12235236201E+04  0.12235236202E+04  0.25500000920E-02 0. -1.
    10030    2    1    2    0    0  0.00000000000E+00  0.00000000000E+00 -0.31621720308E+03  0.21308300372E+04  0.21072359450E+04 0.  0.
        2    1    3    3  502    0  0.55112266624E+03 -0.44128558313E+02  0.74883242312E+03  0.93082410842E+03  0.25500000920E-02 0.  1.
       -2    1    3    3    0  502 -0.55112266624E+03  0.44128558313E+02 -0.10650496262E+04  0.12000059288E+04  0.25500000920E-02 0. -1.
</event>
<event>
 5   0  0.4174030E-05  0.2202090E+04  0.7818609E-02  0.8517559E-01
       -1   -1    0    0    0  501  0.00000000000E+00  0.00000000000E+00  0.79840961206E+03  0.79840961207E+03  0.50400001928E-02 0.  1.
        1   -1    0    0  501    0  0.00000000000E+00  0.00000000000E+00 -0.15183940699E+04  0.15183940699E+04  0.50400001928E-02 0. -1.
    10030    2    1    2    0    0  0.00000000000E+00  0.00000000000E+00 -0.71998445781E+03  0.23168036819E+04  0.22020902981E+04 0.  0.
        2    1    3    3  502    0 -0.45745430957E+03 -0.48541918751E+03 -0.12816425813E+04  0.14448196909E+04  0.25500000920E-02 0. -1.
       -2    1    3    3    0  502  0.45745430957E+03  0.48541918751E+03  0.56165812351E+03  0.87198399105E+03  0.25500000920E-02 0.  1.
</event>
<event>
 5   0  0.4188865E-05  0.2182194E+04  0.7818609E-02  0.8525876E-01
       -1   -1    0    0    0  501  0.00000000000E+00  0.00000000000E+00  0.76780929947E+03  0.76780929949E+03  0.50400001928E-02 0.  1.
        1   -1    0    0  501    0  0.00000000000E+00  0.00000000000E+00 -0.15505057341E+04  0.15505057341E+04  0.50400001928E-02 0. -1.
    10030    2    1    2    0    0  0.00000000000E+00  0.00000000000E+00 -0.78269643463E+03  0.23183150336E+04  0.21821940533E+04 0.  0.
        3    1    3    3  502    0 -0.43397355915E+03 -0.78565479912E+03  0.26775971100E+03  0.93663321874E+03  0.10100000352E+00 0.  1.
       -3    1    3    3    0  502  0.43397355915E+03  0.78565479912E+03 -0.10504561456E+04  0.13816818149E+04  0.10100000352E+00 0. -1.
</event>
<event>
 5   0  0.9938176E-05  0.2139191E+04  0.7818609E-02  0.8544173E-01
        2   -1    0    0  501    0  0.00000000000E+00  0.00000000000E+00  0.86651296319E+03  0.86651296319E+03  0.25500000920E-02 0.  1.
       -2   -1    0    0    0  501  0.00000000000E+00  0.00000000000E+00 -0.13202738516E+04  0.13202738516E+04  0.25500000920E-02 0. -1.
    10030    2    1    2    0    0  0.00000000000E+00  0.00000000000E+00 -0.45376088841E+03  0.21867868148E+04  0.21391908820E+04 0.  0.
        5    1    3    3  502    0  0.89907708295E+03 -0.37902471901E+03  0.22106198439E+03  0.10004448159E+04  0.46999998093E+01 0. -1.
       -5    1    3    3    0  502 -0.89907708295E+03  0.37902471901E+03 -0.67482287280E+03  0.11863419989E+04  0.46999998093E+01 0.  1.
</event>
<event>
 5   0  0.9457742E-05  0.1892378E+04  0.7818609E-02  0.8658660E-01
       -2   -1    0    0    0  501  0.00000000000E+00  0.00000000000E+00  0.49537579728E+03  0.49537579729E+03  0.25500000920E-02 0.  1.
        2   -1    0    0  501    0  0.00000000000E+00  0.00000000000E+00 -0.18072608989E+04  0.18072608989E+04  0.25500000920E-02 0. -1.
    10030    2    1    2    0    0  0.00000000000E+00  0.00000000000E+00 -0.13118851016E+04  0.23026366962E+04  0.18923776671E+04 0.  0.
        1    1    3    3  502    0  0.51433230684E+03  0.72189130751E+03 -0.25309588072E+03  0.92180383302E+03  0.50400001928E-02 0. -1.
       -1    1    3    3    0  502 -0.51433230684E+03 -0.72189130751E+03 -0.10587892209E+04  0.13808328632E+04  0.50400001928E-02 0.  1.
</event>
<event>
 5   0  0.4133418E-05  0.2200394E+04  0.7818609E-02  0.8518264E-01
        1   -1    0    0  501    0  0.00000000000E+00  0.00000000000E+00  0.23286026754E+04  0.23286026754E+04  0.50400001928E-02 0. -1.
       -1   -1    0    0    0  501  0.00000000000E+00  0.00000000000E+00 -0.51981125951E+03  0.51981125954E+03  0.50400001928E-02 0.  1.
    10030    2    1    2    0    0  0.00000000000E+00  0.00000000000E+00  0.18087914159E+04  0.28484139349E+04  0.22003944098E+04 0.  0.
        4    1    3    3  502    0  0.46997152590E+03 -0.99107051674E+03  0.10152875210E+04  0.14946251595E+04  0.12699999809E+01 0. -1.
       -4    1    3    3    0  502 -0.46997152590E+03  0.99107051674E+03  0.79350389489E+03  0.13537887754E+04  0.12699999809E+01 0.  1.
</event>
<event>
 5   0  0.4133418E-05  0.2217432E+04  0.7818609E-02  0.8511208E-01
       -1   -1    0    0    0  501  0.00000000000E+00  0.00000000000E+00  0.10182484309E+04  0.10182484309E+04  0.50400001928E-02 0. -1.
        1   -1    0    0  501    0  0.00000000000E+00  0.00000000000E+00 -0.12072209304E+04  0.12072209304E+04  0.50400001928E-02 0.  1.
    10030    2    1    2    0    0  0.00000000000E+00  0.00000000000E+00 -0.18897249951E+03  0.22254693613E+04  0.22174316839E+04 0.  0.
        4    1    3    3  502    0  0.26633136815E+03 -0.10554409188E+04 -0.30587086610E+03  0.11306840984E+04  0.12699999809E+01 0.  1.
       -4    1    3    3    0  502 -0.26633136815E+03  0.10554409188E+04  0.11689836660E+03  0.10947852629E+04  0.12699999809E+01 0. -1.
</event>
<event>
 5   0  0.4174075E-05  0.2186174E+04  0.7818609E-02  0.8524205E-01
        1   -1    0    0  501    0  0.00000000000E+00  0.00000000000E+00  0.13377060040E+04  0.13377060040E+04  0.50400001928E-02 0.  1.
       -1   -1    0    0    0  501  0.00000000000E+00  0.00000000000E+00 -0.89320014990E+03  0.89320014991E+03  0.50400001928E-02 0. -1.
    10030    2    1    2    0    0  0.00000000000E+00  0.00000000000E+00  0.44450585413E+03  0.22309061539E+04  0.21861740126E+04 0.  0.
        5    1    3    3  502    0 -0.10760186316E+04  0.17962668042E+03  0.15203158784E+03  0.11014615443E+04  0.46999998093E+01 0. -1.
       -5    1    3    3    0  502  0.10760186316E+04 -0.17962668042E+03  0.29247426628E+03  0.11294446097E+04  0.46999998093E+01 0.  1.
</event>
<event>
 5   0  0.9442578E-05  0.2220031E+04  0.7818609E-02  0.8510137E-01
        2   -1    0    0  501    0  0.00000000000E+00  0.00000000000E+00  0.98434538756E+03  0.98434538757E+03  0.25500000920E-02 0. -1.
       -2   -1    0    0    0  501  0.00000000000E+00  0.00000000000E+00 -0.12517293993E+04  0.12517293993E+04  0.25500000920E-02 0.  1.
    10030    2    1    2    0    0  0.00000000000E+00  0.00000000000E+00 -0.26738401178E+03  0.22360747869E+04  0.22200306851E+04 0.  0.
        4    1    3    3  502    0  0.48425670185E+03 -0.26883664609E+03  0.83521361920E+03  0.10021781769E+04  0.12699999809E+01 0. -1.
       -4    1    3    3    0  502 -0.48425670185E+03  0.26883664609E+03 -0.11025976310E+04  0.12338966101E+04  0.12699999809E+01 0.  1.
</event>
<event>
 5   0  0.4174075E-05  0.2103046E+04  0.7818609E-02  0.8559903E-01
        1   -1    0    0  501    0  0.00000000000E+00  0.00000000000E+00  0.14749882395E+04  0.14749882395E+04  0.50400001928E-02 0. -1.
       -1   -1    0    0    0  501  0.00000000000E+00  0.00000000000E+00 -0.74963322093E+03  0.74963322094E+03  0.50400001928E-02 0.  1.
    10030    2    1    2    0    0  0.00000000000E+00  0.00000000000E+00  0.72535501857E+03  0.22246214605E+04  0.21030455866E+04 0.  0.
        5    1    3    3  502    0 -0.65873845893E+03  0.35632831810E+03 -0.41807748625E+03  0.85773953043E+03  0.46999998093E+01 0.  1.
       -5    1    3    3    0  502  0.65873845893E+03 -0.35632831810E+03  0.11434325048E+04  0.13668819300E+04  0.46999998093E+01 0. -1.
</event>
<event>
 5   0  0.9179618E-05  0.2195749E+04  0.7818609E-02  0.8520200E-01
        2   -1    0    0  501    0  0.00000000000E+00  0.00000000000E+00  0.58648568057E+03  0.58648568058E+03  0.25500000920E-02 0. -1.
       -2   -1    0    0    0  501  0.00000000000E+00  0.00000000000E+00 -0.20551710071E+04  0.20551710071E+04  0.25500000920E-02 0.  1.
    10030    2    1    2    0    0  0.00000000000E+00  0.00000000000E+00 -0.14686853265E+04  0.26416566877E+04  0.21957489536E+04 0.  0.
        3    1    3    3  502    0 -0.29870647549E+03  0.10062936844E+04 -0.11213445899E+04  0.15359903116E+04  0.10100000352E+00 0.  1.
       -3    1    3    3    0  502  0.29870647549E+03 -0.10062936844E+04 -0.34734073662E+03  0.11056663761E+04  0.10100000352E+00 0. -1.
</event>
<event>
 5   0  0.9179618E-05  0.2279581E+04  0.7818609E-02  0.8486016E-01
       -2   -1    0    0    0  501  0.00000000000E+00  0.00000000000E+00  0.96138531642E+03  0.96138531642E+03  0.25500000920E-02 0.  1.
        2   -1    0    0  501    0  0.00000000000E+00  0.00000000000E+00 -0.13513022390E+04  0.13513022390E+04  0.25500000920E-02 0. -1.
    10030    2    1    2    0    0  0.00000000000E+00  0.00000000000E+00 -0.38991692255E+03  0.23126875554E+04  0.22795807778E+04 0.  0.
        3    1    3    3  502    0  0.39360074502E+03 -0.19160457882E+03 -0.12626149472E+04  0.13363496459E+04  0.10100000352E+00 0. -1.
       -3    1    3    3    0  502 -0.39360074502E+03  0.19160457882E+03  0.87269802463E+03  0.97633790948E+03  0.10100000352E+00 0.  1.
</event>
<event>
 5   0  0.3283125E-05  0.2200982E+04  0.7818609E-02  0.8518019E-01
       -3   -1    0    0    0  501  0.00000000000E+00  0.00000000000E+00  0.14046126438E+04  0.14046126474E+04  0.10100000352E+00 0.  1.
        3   -1    0    0  501    0  0.00000000000E+00  0.00000000000E+00 -0.86221683548E+03  0.86221684140E+03  0.10100000352E+00 0. -1.
    10030    2    1    2    0    0  0.00000000000E+00  0.00000000000E+00  0.54239580833E+03  0.22668294888E+04  0.22009822168E+04 0.  0.
        4    1    3    3  502    0  0.10183917274E+04  0.39959083449E+03  0.14810439125E+03  0.11039615342E+04  0.12699999809E+01 0. -1.
       -4    1    3    3    0  502 -0.10183917274E+04 -0.39959083449E+03  0.39429141708E+03  0.11628679546E+04  0.12699999809E+01 0.  1.
</event>
<event>
 5   0  0.4174075E-05  0.2199900E+04  0.7818609E-02  0.8518470E-01
       -1   -1    0    0    0  501  0.00000000000E+00  0.00000000000E+00  0.84871674141E+03  0.84871674142E+03  0.50400001928E-02 0.  1.
        1   -1    0    0  501    0  0.00000000000E+00  0.00000000000E+00 -0.14255517875E+04  0.14255517875E+04  0.50400001928E-02 0. -1.
    10030    2    1    2    0    0  0.00000000000E+00  0.00000000000E+00 -0.57683504608E+03  0.22742685289E+04  0.21998996957E+04 0.  0.
        5    1    3    3  502    0  0.14142421060E+03 -0.92362287362E+03 -0.88837004235E+03  0.12893034717E+04  0.46999998093E+01 0. -1.
       -5    1    3    3    0  502 -0.14142421060E+03  0.92362287362E+03  0.31153499627E+03  0.98496505721E+03  0.46999998093E+01 0.  1.
</event>
<event>
 5   0  0.9179618E-05  0.2166033E+04  0.7818609E-02  0.8532700E-01
       -2   -1    0    0    0  501  0.00000000000E+00  0.00000000000E+00  0.91704018957E+03  0.91704018957E+03  0.25500000920E-02 0. -1.
        2   -1    0    0  501    0  0.00000000000E+00  0.00000000000E+00 -0.12790336663E+04  0.12790336663E+04  0.25500000920E-02 0.  1.
    10030    2    1    2    0    0  0.00000000000E+00  0.00000000000E+00 -0.36199347671E+03  0.21960738558E+04  0.21660334954E+04 0.  0.
        3    1    3    3  502    0  0.40160596969E+03 -0.10056438076E+04 -0.19908919487E+03  0.11010192280E+04  0.10100000352E+00 0. -1.
       -3    1    3    3    0  502 -0.40160596969E+03  0.10056438076E+04 -0.16290428184E+03  0.10950546278E+04  0.10100000352E+00 0.  1.
</event>
<event>
 5   0  0.3283125E-05  0.2204322E+04  0.7818609E-02  0.8516631E-01
       -3   -1    0    0    0  501  0.00000000000E+00  0.00000000000E+00  0.51454432881E+03  0.51454433873E+03  0.10100000352E+00 0. -1.
        3   -1    0    0  501    0  0.00000000000E+00  0.00000000000E+00 -0.23608446448E+04  0.23608446470E+04  0.10100000352E+00 0.  1.
    10030    2    1    2    0    0  0.00000000000E+00  0.00000000000E+00 -0.18463003160E+04  0.28753889857E+04  0.22043223363E+04 0.  0.
        3    1    3    3  502    0 -0.23668924590E+02 -0.80612999625E+03  0.56784442322E+02  0.80847403912E+03  0.10100000352E+00 0. -1.
       -3    1    3    3    0  502  0.23668924590E+02  0.80612999625E+03 -0.19030847583E+04  0.20669149466E+04  0.10100000352E+00 0.  1.
</event>
<event>
 5   0  0.9254673E-05  0.1737354E+04  0.7818609E-02  0.8740342E-01
        2   -1    0    0  501    0  0.00000000000E+00  0.00000000000E+00  0.15511998216E+04  0.15511998216E+04  0.25500000920E-02 0.  1.
       -2   -1    0    0    0  501  0.00000000000E+00  0.00000000000E+00 -0.48646210801E+03  0.48646210801E+03  0.25500000920E-02 0. -1.
    10030    2    1    2    0    0  0.00000000000E+00  0.00000000000E+00  0.10647377136E+04  0.20376619296E+04  0.17373542358E+04 0.  0.
        2    1    3    3  502    0 -0.72562102195E+03 -0.36157995088E+03  0.89828035341E+03  0.12100303805E+04  0.25500000920E-02 0.  1.
       -2    1    3    3    0  502  0.72562102195E+03  0.36157995088E+03  0.16645736020E+03  0.82763154914E+03  0.25500000920E-02 0. -1.
</event>
<event>
 5   0  0.9457742E-05  0.2221576E+04  0.7818609E-02  0.8509501E-01
        2   -1    0    0  501    0  0.00000000000E+00  0.00000000000E+00  0.16601821784E+04  0.16601821785E+04  0.25500000920E-02 0. -1.
       -2   -1    0    0    0  501  0.00000000000E+00  0.00000000000E+00 -0.74320161335E+03  0.74320161336E+03  0.25500000920E-02 0.  1.
    10030    2    1    2    0    0  0.00000000000E+00  0.00000000000E+00  0.91698056510E+03  0.24033837918E+04  0.22215760833E+04 0.  0.
        1    1    3    3  502    0 -0.36045078872E+03  0.21814144657E+03  0.15703851347E+04  0.16259212568E+04  0.50400001928E-02 0. -1.
       -1    1    3    3    0  502  0.36045078872E+03 -0.21814144657E+03 -0.65340456962E+03  0.77746253506E+03  0.50400001928E-02 0.  1.
</event>
<event>
 5   0  0.4063293E-05  0.2214000E+04  0.7818609E-02  0.8512623E-01
       -1   -1    0    0    0  501  0.00000000000E+00  0.00000000000E+00  0.10123910322E+04  0.10123910322E+04  0.50400001928E-02 0.  1.
        1   -1    0    0  501    0  0.00000000000E+00  0.00000000000E+00 -0.12104506222E+04  0.12104506222E+04  0.50400001928E-02 0. -1.
    10030    2    1    2    0    0  0.00000000000E+00  0.00000000000E+00 -0.19805959001E+03  0.22228416544E+04  0.22140003205E+04 0.  0.
        1    1    3    3  502    0 -0.53313606561E+03 -0.96775144994E+03 -0.30401714597E+02  0.11053059294E+04  0.50400001928E-02 0. -1.
       -1    1    3    3    0  502  0.53313606561E+03  0.96775144994E+03 -0.16765787541E+03  0.11175357249E+04  0.50400001928E-02 0.  1.
</event>
<event>
 5   0  0.9442578E-05  0.2180502E+04  0.7818609E-02  0.8526588E-01
        2   -1    0    0  501    0  0.00000000000E+00  0.00000000000E+00  0.22963968021E+04  0.22963968021E+04  0.25500000920E-02 0. -1.
       -2   -1    0    0    0  501  0.00000000000E+00  0.00000000000E+00 -0.51761419606E+03  0.51761419607E+03  0.25500000920E-02 0.  1.
    10030    2    1    2    0    0  0.00000000000E+00  0.00000000000E+00  0.17787826060E+04  0.28140109981E+04  0.21805023133E+04 0.  0.
        4    1    3    3  502    0  0.10504428596E+04 -0.11937583140E+02  0.12658053204E+04  0.16449429866E+04  0.12699999809E+01 0.  1.
       -4    1    3    3    0  502 -0.10504428596E+04  0.11937583140E+02  0.51297728562E+03  0.11690680115E+04  0.12699999809E+01 0. -1.
</event>
<event>
 5   0  0.9442578E-05  0.2210760E+04  0.7818609E-02  0.8513963E-01
        2   -1    0    0  501    0  0.00000000000E+00  0.00000000000E+00  0.16233583628E+04  0.16233583628E+04  0.25500000920E-02 0. -1.
       -2   -1    0    0    0  501  0.00000000000E+00  0.00000000000E+00 -0.75267756597E+03  0.75267756598E+03  0.25500000920E-02 0.  1.
    10030    2    1    2    0    0  0.00000000000E+00  0.00000000000E+00  0.87068079681E+03  0.23760359288E+04  0.22107604314E+04 0.  0.
        4    1    3    3  502    0 -0.10786167342E+03 -0.17409709167E+03 -0.73210768903E+03  0.76021524528E+03  0.12699999809E+01 0.  1.
       -4    1    3    3    0  502  0.10786167342E+03  0.17409709167E+03  0.16027884858E+04  0.16158206835E+04  0.12699999809E+01 0. -1.
</event>
<event>
 5   0  0.9938176E-05  0.1638853E+04  0.7818609E-02  0.8797028E-01
        2   -1    0    0  501    0  0.00000000000E+00  0.00000000000E+00  0.75645831351E+03  0.75645831351E+03  0.25500000920E-02 0.  1.
       -2   -1    0    0    0  501  0.00000000000E+00  0.00000000000E+00 -0.88763665496E+03  0.88763665496E+03  0.25500000920E-02 0. -1.
    10030    2    1    2    0    0  0.00000000000E+00  0.00000000000E+00 -0.13117834145E+03  0.16440949685E+04  0.16388534126E+04 0.  0.
        5    1    3    3  502    0 -0.30422702577E+03  0.55747232327E+03 -0.58503723546E+03  0.86349298277E+03  0.46999998093E+01 0. -1.
       -5    1    3    3    0  502  0.30422702577E+03 -0.55747232327E+03  0.45385889401E+03  0.78060198571E+03  0.46999998093E+01 0.  1.
</event>
<event>
 5   0  0.4133418E-05  0.2252965E+04  0.7818609E-02  0.8496701E-01
        1   -1    0    0  501    0  0.00000000000E+00  0.00000000000E+00  0.20828641800E+04  0.20828641800E+04  0.50400001928E-02 0.  1.
       -1   -1    0    0    0  501  0.00000000000E+00  0.00000000000E+00 -0.60923950248E+03  0.60923950250E+03  0.50400001928E-02 0. -1.
    10030    2    1    2    0    0  0.00000000000E+00  0.00000000000E+00  0.14736246775E+04  0.26921036825E+04  0.22529652787E+04 0.  0.
        4    1    3    3  502    0 -0.10253093611E+04 -0.45443945589E+03  0.86319702885E+03  0.14152332771E+04  0.12699999809E+01 0.  1.
       -4    1    3    3    0  502  0.10253093611E+04  0.45443945589E+03  0.61042764866E+03  0.12768704054E+04  0.12699999809E+01 0. -1.
</event>
<event>
 5   0  0.4174030E-05  0.2210544E+04  0.7818609E-02  0.8514052E-01
        1   -1    0    0  501    0  0.00000000000E+00  0.00000000000E+00  0.90795937524E+03  0.90795937525E+03  0.50400001928E-02 0. -1.
       -1   -1    0    0    0  501  0.00000000000E+00  0.00000000000E+00 -0.13454629998E+04  0.13454629998E+04  0.50400001928E-02 0.  1.
    10030    2    1    2    0    0  0.00000000000E+00  0.00000000000E+00 -0.43750362457E+03  0.22534223751E+04  0.22105435935E+04 0.  0.
        2    1    3    3  502    0  0.37980992499E+03 -0.79190228152E+03 -0.90278261068E+03  0.12595162741E+04  0.25500000920E-02 0.  1.
       -2    1    3    3    0  502 -0.37980992499E+03  0.79190228152E+03  0.46527898612E+03  0.99390610096E+03  0.25500000920E-02 0. -1.
</event>
<event>
 5   0  0.9179618E-05  0.2202444E+04  0.7818609E-02  0.8517412E-01
       -2   -1    0    0    0  501  0.00000000000E+00  0.00000000000E+00  0.55545502562E+03  0.55545502563E+03  0.25500000920E-02 0.  1.
        2   -1    0    0  501    0  0.00000000000E+00  0.00000000000E+00 -0.21832363320E+04  0.21832363320E+04  0.25500000920E-02 0. -1.
    10030    2    1    2    0    0  0.00000000000E+00  0.00000000000E+00 -0.16277813064E+04  0.27386913576E+04  0.22024437271E+04 0.  0.
        3    1    3    3  502    0  0.94844571646E+03  0.52476811747E+03 -0.10555184812E+04  0.15129607161E+04  0.10100000352E+00 0. -1.
       -3    1    3    3    0  502 -0.94844571646E+03 -0.52476811747E+03 -0.57226282514E+03  0.12257306415E+04  0.10100000352E+00 0.  1.
</event>
<event>
 5   0  0.9442578E-05  0.2232594E+04  0.7818609E-02  0.8504983E-01
       -2   -1    0    0    0  501  0.00000000000E+00  0.00000000000E+00  0.78618250780E+03  0.78618250781E+03  0.25500000920E-02 0.  1.
        2   -1    0    0  501    0  0.00000000000E+00  0.00000000000E+00 -0.15850251483E+04  0.15850251483E+04  0.25500000920E-02 0. -1.
    10030    2    1    2    0    0  0.00000000000E+00  0.00000000000E+00 -0.79884264052E+03  0.23712076561E+04  0.22325940482E+04 0.  0.
        4    1    3    3  502    0  0.18202204341E+03 -0.76036997272E+03 -0.12456468489E+04  0.14706910637E+04  0.12699999809E+01 0. -1.
       -4    1    3    3    0  502 -0.18202204341E+03  0.76036997272E+03  0.44680420840E+03  0.90051659243E+03  0.12699999809E+01 0.  1.
</event>
<event>
 5   0  0.9442578E-05  0.2186170E+04  0.7818609E-02  0.8524207E-01
       -2   -1    0    0    0  501  0.00000000000E+00  0.00000000000E+00  0.13231187496E+04  0.13231187496E+04  0.25500000920E-02 0. -1.
        2   -1    0    0  501    0  0.00000000000E+00  0.00000000000E+00 -0.90304404540E+03  0.90304404540E+03  0.25500000920E-02 0.  1.
    10030    2    1    2    0    0  0.00000000000E+00  0.00000000000E+00  0.42007470417E+03  0.22261627950E+04  0.21861697172E+04 0.  0.
        4    1    3    3  502    0  0.19028177214E+03  0.66145547615E+03  0.10747494105E+04  0.12762517024E+04  0.12699999809E+01 0. -1.
       -4    1    3    3    0  502 -0.19028177214E+03 -0.66145547615E+03 -0.65467470631E+03  0.94991109253E+03  0.12699999809E+01 0.  1.
</event>
<event>
 5   0  0.4188865E-05  0.2423056E+04  0.7818609E-02  0.8430922E-01
        1   -1    0    0  501    0  0.00000000000E+00  0.00000000000E+00  0.16525672324E+04  0.16525672324E+04  0.50400001928E-02 0.  1.
       -1   -1    0    0    0  501  0.00000000000E+00  0.00000000000E+00 -0.88819383531E+03  0.88819383532E+03  0.50400001928E-02 0. -1.
    10030    2    1    2    0    0  0.00000000000E+00  0.00000000000E+00  0.76437339712E+03  0.25407610677E+04  0.24230559451E+04 0.  0.
        3    1    3    3  502    0  0.43606007786E+03 -0.13372186155E+03  0.15591042270E+04  0.16244494232E+04  0.10100000352E+00 0.  1.
       -3    1    3    3    0  502 -0.43606007786E+03  0.13372186155E+03 -0.79473082987E+03  0.91631164454E+03  0.10100000352E+00 0. -1.
</event>
<event>
 5   0  0.4063293E-05  0.2283925E+04  0.7818609E-02  0.8484286E-01
       -1   -1    0    0    0  501  0.00000000000E+00  0.00000000000E+00  0.88778977629E+03  0.88778977630E+03  0.50400001928E-02 0.  1.
        1   -1    0    0  501    0  0.00000000000E+00  0.00000000000E+00 -0.14689045603E+04  0.14689045603E+04  0.50400001928E-02 0. -1.
    10030    2    1    2    0    0  0.00000000000E+00  0.00000000000E+00 -0.58111478402E+03  0.23566943366E+04  0.22839250872E+04 0.  0.
        1    1    3    3  502    0  0.96640838304E+03  0.73878572382E+02  0.33256670277E+03  0.10246969396E+04  0.50400001928E-02 0.  1.
       -1    1    3    3    0  502 -0.96640838304E+03 -0.73878572382E+02 -0.91368148680E+03  0.13319973970E+04  0.50400001928E-02 0. -1.
</event>
<event>
 5   0  0.4133418E-05  0.2219889E+04  0.7818609E-02  0.8510195E-01
       -1   -1    0    0    0  501  0.00000000000E+00  0.00000000000E+00  0.54305217985E+03  0.54305217987E+03  0.50400001928E-02 0.  1.
        1   -1    0    0  501    0  0.00000000000E+00  0.00000000000E+00 -0.22686157708E+04  0.22686157708E+04  0.50400001928E-02 0. -1.
    10030    2    1    2    0    0  0.00000000000E+00  0.00000000000E+00 -0.17255635909E+04  0.28116679507E+04  0.22198889518E+04 0.  0.
        4    1    3    3  502    0  0.92000304763E+03  0.61705440351E+03 -0.95065530121E+03  0.14597632887E+04  0.12699999809E+01 0.  1.
       -4    1    3    3    0  502 -0.92000304763E+03 -0.61705440351E+03 -0.77490828973E+03  0.13519046619E+04  0.12699999809E+01 0. -1.
</event>
<event>
 5   0  0.9457742E-05  0.2178877E+04  0.7818609E-02  0.8527272E-01
       -2   -1    0    0    0  501  0.00000000000E+00  0.00000000000E+00  0.10152606786E+04  0.10152606786E+04  0.25500000920E-02 0.  1.
        2   -1    0    0  501    0  0.00000000000E+00  0.00000000000E+00 -0.11690364164E+04  0.11690364164E+04  0.25500000920E-02 0. -1.
    10030    2    1    2    0    0  0.00000000000E+00  0.00000000000E+00 -0.15377573771E+03  0.21842970950E+04  0.21788774224E+04 0.  0.
        1    1    3    3  502    0 -0.20898329287E+03  0.10652216251E+04 -0.16934295918E+03  0.10986574376E+04  0.50400001928E-02 0. -1.
       -1    1    3    3    0  502  0.20898329287E+03 -0.10652216251E+04  0.15567221467E+02  0.10856396574E+04  0.50400001928E-02 0.  1.
</event>
<event>
 5   0  0.9442578E-05  0.1987780E+04  0.7818609E-02  0.8612355E-01
        2   -1    0    0  501    0  0.00000000000E+00  0.00000000000E+00  0.20712809263E+04  0.20712809263E+04  0.25500000920E-02 0.  1.
       -2   -1    0    0    0  501  0.00000000000E+00  0.00000000000E+00 -0.47691148725E+03  0.47691148726E+03  0.25500000920E-02 0. -1.
    10030    2    1    2    0    0  0.00000000000E+00  0.00000000000E+00  0.15943694390E+04  0.25481924136E+04  0.19877803370E+04 0.  0.
        4    1    3    3  502    0 -0.80951084192E+03  0.42766157029E+03  0.30133542257E+03  0.96385002551E+03  0.12699999809E+01 0.  1.
       -4    1    3    3    0  502  0.80951084192E+03 -0.42766157029E+03  0.12930340165E+04  0.15843423880E+04  0.12699999809E+01 0. -1.
</event>
<event>
 5   0  0.4174075E-05  0.2209363E+04  0.7818609E-02  0.8514541E-01
        1   -1    0    0  501    0  0.00000000000E+00  0.00000000000E+00  0.12712439122E+04  0.12712439122E+04  0.50400001928E-02 0.  1.
       -1   -1    0    0    0  501  0.00000000000E+00  0.00000000000E+00 -0.95994295772E+03  0.95994295773E+03  0.50400001928E-02 0. -1.
    10030    2    1    2    0    0  0.00000000000E+00  0.00000000000E+00  0.31130095444E+03  0.22311868699E+04  0.22093633844E+04 0.  0.
        5    1    3    3  502    0 -0.20217963803E+03 -0.13600408636E+03  0.12437560412E+04  0.12674087334E+04  0.46999998093E+01 0.  1.
       -5    1    3    3    0  502  0.20217963803E+03  0.13600408636E+03 -0.93245508675E+03  0.96377813648E+03  0.46999998093E+01 0. -1.
</event>
<event>
 5   0  0.9457742E-05  0.2135376E+04  0.7818609E-02  0.8545818E-01
       -2   -1    0    0    0  501  0.00000000000E+00  0.00000000000E+00  0.53305948884E+03  0.53305948885E+03  0.25500000920E-02 0. -1.
        2   -1    0    0  501    0  0.00000000000E+00  0.00000000000E+00 -0.21385186061E+04  0.21385186061E+04  0.25500000920E-02 0.  1.
    10030    2    1    2    0    0  0.00000000000E+00  0.00000000000E+00 -0.16054591173E+04  0.26715780950E+04  0.21353759716E+04 0.  0.
        1    1    3    3  502    0  0.16233284645E+03 -0.97645973372E+03 -0.13033777849E+04  0.16366487757E+04  0.50400001928E-02 0. -1.
       -1    1    3    3    0  502 -0.16233284645E+03  0.97645973372E+03 -0.30208133237E+03  0.10349293193E+04  0.50400001928E-02 0.  1.
</event>
<event>
 5   0  0.4188865E-05  0.2160459E+04  0.7818609E-02  0.8535069E-01
        1   -1    0    0  501    0  0.00000000000E+00  0.00000000000E+00  0.29886484948E+04  0.29886484948E+04  0.50400001928E-02 0.  1.
       -1   -1    0    0    0  501  0.00000000000E+00  0.00000000000E+00 -0.39044249917E+03  0.39044249920E+03  0.50400001928E-02 0. -1.
    10030    2    1    2    0    0  0.00000000000E+00  0.00000000000E+00  0.25982059956E+04  0.33790909940E+04  0.21604586434E+04 0.  0.
        3    1    3    3  502    0 -0.79916281044E+03 -0.55753652610E+03  0.56986227015E+03  0.11288273529E+04  0.10100000352E+00 0. -1.
       -3    1    3    3    0  502  0.79916281044E+03  0.55753652610E+03  0.20283437255E+04  0.22502636411E+04  0.10100000352E+00 0.  1.
</event>
<event>
 5   0  0.4174075E-05  0.2191378E+04  0.7818609E-02  0.8522025E-01
        1   -1    0    0  501    0  0.00000000000E+00  0.00000000000E+00  0.96801049751E+03  0.96801049752E+03  0.50400001928E-02 0. -1.
       -1   -1    0    0    0  501  0.00000000000E+00  0.00000000000E+00 -0.12402077595E+04  0.12402077595E+04  0.50400001928E-02 0.  1.
    10030    2    1    2    0    0  0.00000000000E+00  0.00000000000E+00 -0.27219726198E+03  0.22082182570E+04  0.21913777678E+04 0.  0.
        5    1    3    3  502    0 -0.93502492425E+03 -0.52621326568E+03  0.87734541976E+02  0.10765182069E+04  0.46999998093E+01 0. -1.
       -5    1    3    3    0  502  0.93502492425E+03  0.52621326568E+03 -0.35993180396E+03  0.11317000501E+04  0.46999998093E+01 0.  1.
</event>
<event>
 5   0  0.4174075E-05  0.2214938E+04  0.7818609E-02  0.8512236E-01
        1   -1    0    0  501    0  0.00000000000E+00  0.00000000000E+00  0.61148599173E+03  0.61148599175E+03  0.50400001928E-02 0.  1.
       -1   -1    0    0    0  501  0.00000000000E+00  0.00000000000E+00 -0.20057499414E+04  0.20057499415E+04  0.50400001928E-02 0. -1.
    10030    2    1    2    0    0  0.00000000000E+00  0.00000000000E+00 -0.13942639497E+04  0.26172359332E+04  0.22149383668E+04 0.  0.
        5    1    3    3  502    0  0.21419383343E+03  0.22906276851E+03 -0.19521741764E+04  0.19772088547E+04  0.46999998093E+01 0. -1.
       -5    1    3    3    0  502 -0.21419383343E+03 -0.22906276851E+03  0.55791022666E+03  0.64002707849E+03  0.46999998093E+01 0.  1.
</event>
<event>
 5   0  0.3283125E-05  0.2207263E+04  0.7818609E-02  0.8515411E-01
        4   -1    0    0  501    0  0.00000000000E+00  0.00000000000E+00  0.13279854818E+04  0.13279860891E+04  0.12699999809E+01 0. -1.
       -4   -1    0    0    0  501  0.00000000000E+00  0.00000000000E+00 -0.91717951005E+03  0.91718038932E+03  0.12699999809E+01 0.  1.
    10030    2    1    2    0    0  0.00000000000E+00  0.00000000000E+00  0.41080597177E+03  0.22451664784E+04  0.22072632306E+04 0.  0.
        3    1    3    3  502    0 -0.34740490468E+03 -0.69391240436E+03  0.10036064474E+04  0.12686333214E+04  0.10100000352E+00 0. -1.
       -3    1    3    3    0  502  0.34740490468E+03  0.69391240436E+03 -0.59280047559E+03  0.97653315703E+03  0.10100000352E+00 0.  1.
</event>
<event>
 5   0  0.9938176E-05  0.2235311E+04  0.7818609E-02  0.8503873E-01
       -2   -1    0    0    0  501  0.00000000000E+00  0.00000000000E+00  0.10826356355E+04  0.10826356356E+04  0.25500000920E-02 0. -1.
        2   -1    0    0  501    0  0.00000000000E+00  0.00000000000E+00 -0.11538078232E+04  0.11538078232E+04  0.25500000920E-02 0.  1.
    10030    2    1    2    0    0  0.00000000000E+00  0.00000000000E+00 -0.71172187616E+02  0.22364434587E+04  0.22353106862E+04 0.  0.
        5    1    3    3  502    0 -0.13333696429E+03  0.86580773704E+03  0.65883306021E+03  0.10961226550E+04  0.46999998093E+01 0. -1.
       -5    1    3    3    0  502  0.13333696429E+03 -0.86580773704E+03 -0.73000524782E+03  0.11403208037E+04  0.46999998093E+01 0.  1.
</event>
<event>
 5   0  0.9442578E-05  0.2203260E+04  0.7818609E-02  0.8517073E-01
        2   -1    0    0  501    0  0.00000000000E+00  0.00000000000E+00  0.20902097595E+04  0.20902097595E+04  0.25500000920E-02 0.  1.
       -2   -1    0    0    0  501  0.00000000000E+00  0.00000000000E+00 -0.58060604438E+03  0.58060604439E+03  0.25500000920E-02 0. -1.
    10030    2    1    2    0    0  0.00000000000E+00  0.00000000000E+00  0.15096037152E+04  0.26708158039E+04  0.22032597853E+04 0.  0.
        4    1    3    3  502    0  0.22837967685E+03  0.99673368838E+03  0.25801493598E+03  0.10546130297E+04  0.12699999809E+01 0. -1.
       -4    1    3    3    0  502 -0.22837967685E+03 -0.99673368838E+03  0.12515887792E+04  0.16162027742E+04  0.12699999809E+01 0.  1.
</event>
<event>
 5   0  0.4063293E-05  0.2201088E+04  0.7818609E-02  0.8517975E-01
        1   -1    0    0  501    0  0.00000000000E+00  0.00000000000E+00  0.18554923652E+04  0.18554923652E+04  0.50400001928E-02 0.  1.
       -1   -1    0    0    0  501  0.00000000000E+00  0.00000000000E+00 -0.65276304503E+03  0.65276304505E+03  0.50400001928E-02 0. -1.
    10030    2    1    2    0    0  0.00000000000E+00  0.00000000000E+00  0.12027293202E+04  0.25082554103E+04  0.22010877732E+04 0.  0.
        1    1    3    3  502    0 -0.29340264533E+03  0.40747774473E+03 -0.51462551062E+03  0.71900114112E+03  0.50400001928E-02 0. -1.
       -1    1    3    3    0  502  0.29340264533E+03 -0.40747774473E+03  0.17173548308E+04  0.17892542692E+04  0.50400001928E-02 0.  1.
</event>
<event>
 5   0  0.9938176E-05  0.2225140E+04  0.7818609E-02  0.8508037E-01
        2   -1    0    0  501    0  0.00000000000E+00  0.00000000000E+00  0.11910782610E+04  0.11910782610E+04  0.25500000920E-02 0.  1.
       -2   -1    0    0    0  501  0.00000000000E+00  0.00000000000E+00 -0.10392364023E+04  0.10392364023E+04  0.25500000920E-02 0. -1.
    10030    2    1    2    0    0  0.00000000000E+00  0.00000000000E+00  0.15184185874E+03  0.22303146633E+04  0.22251398938E+04 0.  0.
        5    1    3    3  502    0 -0.44825178284E+03 -0.90026193801E+03  0.55283054205E+03  0.11476257735E+04  0.46999998093E+01 0.  1.
       -5    1    3    3    0  502  0.44825178284E+03  0.90026193801E+03 -0.40098868331E+03  0.10826888898E+04  0.46999998093E+01 0. -1.
</event>
<event>
 5   0  0.4174075E-05  0.2096650E+04  0.7818609E-02  0.8562720E-01
        1   -1    0    0  501    0  0.00000000000E+00  0.00000000000E+00  0.20644960221E+04  0.20644960221E+04  0.50400001928E-02 0. -1.
       -1   -1    0    0    0  501  0.00000000000E+00  0.00000000000E+00 -0.53232644184E+03  0.53232644187E+03  0.50400001928E-02 0.  1.
    10030    2    1    2    0    0  0.00000000000E+00  0.00000000000E+00  0.15321695802E+04  0.25968224639E+04  0.20966504923E+04 0.  0.
        5    1    3    3  502    0  0.18963622325E+03 -0.31873022180E+03 -0.44834157468E+03  0.58187894707E+03  0.46999998093E+01 0.  1.
       -5    1    3    3    0  502 -0.18963622325E+03  0.31873022180E+03  0.19805111549E+04  0.20149435169E+04  0.46999998093E+01 0. -1.
</event>
<event>
 5   0  0.9179618E-05  0.2175668E+04  0.7818609E-02  0.8528625E-01
        2   -1    0    0  501    0  0.00000000000E+00  0.00000000000E+00  0.13182818019E+04  0.13182818019E+04  0.25500000920E-02 0. -1.
       -2   -1    0    0    0  501  0.00000000000E+00  0.00000000000E+00 -0.89767029993E+03  0.89767029993E+03  0.25500000920E-02 0.  1.
    10030    2    1    2    0    0  0.00000000000E+00  0.00000000000E+00  0.42061150200E+03  0.22159521019E+04  0.21756676405E+04 0.  0.
        3    1    3    3  502    0  0.59131427402E+02 -0.38715284207E+03  0.12439857797E+04  0.13041796192E+04  0.10100000352E+00 0. -1.
       -3    1    3    3    0  502 -0.59131427402E+02  0.38715284207E+03 -0.82337427768E+03  0.91177248268E+03  0.10100000352E+00 0.  1.
</event>
<event>
 5   0  0.9938176E-05  0.2218071E+04  0.7818609E-02  0.8510944E-01
        2   -1    0    0  501    0  0.00000000000E+00  0.00000000000E+00  0.14565526819E+04  0.14565526819E+04  0.25500000920E-02 0.  1.
       -2   -1    0    0    0  501  0.00000000000E+00  0.00000000000E+00 -0.84443218813E+03  0.84443218813E+03  0.25500000920E-02 0. -1.
    10030    2    1    2    0    0  0.00000000000E+00  0.00000000000E+00  0.61212049374E+03  0.23009848700E+04  0.22180712056E+04 0.  0.
        5    1    3    3  502    0 -0.26834957329E+02  0.29228306756E+03  0.14155188892E+04  0.14456366495E+04  0.46999998093E+01 0.  1.
       -5    1    3    3    0  502  0.26834957329E+02 -0.29228306756E+03 -0.80339839548E+03  0.85534822054E+03  0.46999998093E+01 0. -1.
</event>
<event>
 5   0  0.4133418E-05  0.2173980E+04  0.7818609E-02  0.8529337E-01
        1   -1    0    0  501    0  0.00000000000E+00  0.00000000000E+00  0.22622191441E+04  0.22622191441E+04  0.50400001928E-02 0. -1.
       -1   -1    0    0    0  501  0.00000000000E+00  0.00000000000E+00 -0.52229575821E+03  0.52229575824E+03  0.50400001928E-02 0.  1.
    10030    2    1    2    0    0  0.00000000000E+00  0.00000000000E+00  0.17399233859E+04  0.27845149023E+04  0.21739801868E+04 0.  0.
        4    1    3    3  502    0 -0.83626695263E+03  0.53818872094E+02 -0.16787565526E+02  0.83816604698E+03  0.12699999809E+01 0.  1.
       -4    1    3    3    0  502  0.83626695263E+03 -0.53818872094E+02  0.17567109514E+04  0.19463488553E+04  0.12699999809E+01 0. -1.
</event>
<event>
 5   0  0.9179618E-05  0.2200914E+04  0.7818609E-02  0.8518048E-01
       -2   -1    0    0    0  501  0.00000000000E+00  0.00000000000E+00  0.63455273915E+03  0.63455273916E+03  0.25500000920E-02 0. -1.
        2   -1    0    0  501    0  0.00000000000E+00  0.00000000000E+00 -0.19084396164E+04  0.19084396164E+04  0.25500000920E-02 0.  1.
    10030    2    1    2    0    0  0.00000000000E+00  0.00000000000E+00 -0.12738868772E+04  0.25429923555E+04  0.22009139793E+04 0.  0.
        3    1    3    3  502    0  0.39263095307E+03 -0.75909152204E+03  0.16408119954E+03  0.87023080524E+03  0.10100000352E+00 0. -1.
       -3    1    3    3    0  502 -0.39263095307E+03  0.75909152204E+03 -0.14379680767E+04  0.16727615503E+04  0.10100000352E+00 0.  1.
</event>
<event>
 5   0  0.9254673E-05  0.2188234E+04  0.7818609E-02  0.8523341E-01
        2   -1    0    0  501    0  0.00000000000E+00  0.00000000000E+00  0.15909505762E+04  0.15909505762E+04  0.25500000920E-02 0.  1.
       -2   -1    0    0    0  501  0.00000000000E+00  0.00000000000E+00 -0.75243818892E+03  0.75243818892E+03  0.25500000920E-02 0. -1.
    10030    2    1    2    0    0  0.00000000000E+00  0.00000000000E+00  0.83851238730E+03  0.23433887652E+04  0.21882339639E+04 0.  0.
        2    1    3    3  502    0  0.92372974301E+03  0.16004166365E+03 -0.18483435376E+03  0.95553844012E+03  0.25500000920E-02 0. -1.
       -2    1    3    3    0  502 -0.92372974301E+03 -0.16004166365E+03  0.10233467411E+04  0.13878503250E+04  0.25500000920E-02 0.  1.
</event>
<event>
 5   0  0.9442578E-05  0.2160507E+04  0.7818609E-02  0.8535048E-01
       -2   -1    0    0    0  501  0.00000000000E+00  0.00000000000E+00  0.77744672567E+03  0.77744672568E+03  0.25500000920E-02 0.  1.
        2   -1    0    0  501    0  0.00000000000E+00  0.00000000000E+00 -0.15010001419E+04  0.15010001419E+04  0.25500000920E-02 0. -1.
    10030    2    1    2    0    0  0.00000000000E+00  0.00000000000E+00 -0.72355341622E+03  0.22784468676E+04  0.21605070197E+04 0.  0.
        4    1    3    3  502    0  0.20993008987E+03 -0.29436531414E+03 -0.14352967129E+04  0.14801350776E+04  0.12699999809E+01 0. -1.
       -4    1    3    3    0  502 -0.20993008987E+03  0.29436531414E+03  0.71174329669E+03  0.79831179002E+03  0.12699999809E+01 0.  1.
</event>
<event>
 5   0  0.9938176E-05  0.2202646E+04  0.7818609E-02  0.8517328E-01
        2   -1    0    0  501    0  0.00000000000E+00  0.00000000000E+00  0.22123609818E+04  0.22123609818E+04  0.25500000920E-02 0.  1.
       -2   -1    0    0    0  501  0.00000000000E+00  0.00000000000E+00 -0.54824341288E+03  0.54824341288E+03  0.25500000920E-02 0. -1.
    10030    2    1    2    0    0  0.00000000000E+00  0.00000000000E+00  0.16641175689E+04  0.27606043946E+04  0.22026459862E+04 0.  0.
        5    1    3    3  502    0  0.47953371952E+03  0.78641972166E+03  0.75404798724E+02  0.92418425676E+03  0.46999998093E+01 0. -1.
       -5    1    3    3    0  502 -0.47953371952E+03 -0.78641972166E+03  0.15887127702E+04  0.18364201379E+04  0.46999998093E+01 0.  1.
</event>
<event>
 5   0  0.9457742E-05  0.2228066E+04  0.7818609E-02  0.8506836E-01
        2   -1    0    0  501    0  0.00000000000E+00  0.00000000000E+00  0.96537244466E+03  0.96537244466E+03  0.25500000920E-02 0.  1.
       -2   -1    0    0    0  501  0.00000000000E+00  0.00000000000E+00 -0.12855865288E+04  0.12855865288E+04  0.25500000920E-02 0. -1.
    10030    2    1    2    0    0  0.00000000000E+00  0.00000000000E+00 -0.32021408417E+03  0.22509589735E+04  0.22280662559E+04 0.  0.
        1    1    3    3  502    0 -0.43100754303E+03 -0.65392998846E+03 -0.96050853420E+03  0.12393419933E+04  0.50400001928E-02 0. -1.
       -1    1    3    3    0  502  0.43100754303E+03  0.65392998846E+03  0.64029445003E+03  0.10116169802E+04  0.50400001928E-02 0.  1.
</event>
<event>
 5   0  0.9457742E-05  0.2252889E+04  0.7818609E-02  0.8496731E-01
       -2   -1    0    0    0  501  0.00000000000E+00  0.00000000000E+00  0.12697253729E+04  0.12697253729E+04  0.25500000920E-02 0. -1.
        2   -1    0    0  501    0  0.00000000000E+00  0.00000000000E+00 -0.99933231898E+03  0.99933231898E+03  0.25500000920E-02 0.  1.
    10030    2    1    2    0    0  0.00000000000E+00  0.00000000000E+00  0.27039305388E+03  0.22690576918E+04  0.22528893460E+04 0.  0.
        1    1    3    3  502    0  0.11150881465E+04 -0.45410648473E+02 -0.18851801222E+02  0.11161716230E+04  0.50400001928E-02 0.  1.
       -1    1    3    3    0  502 -0.11150881465E+04  0.45410648473E+02  0.28924485510E+03  0.11528860689E+04  0.50400001928E-02 0. -1.
</event>
<event>
 5   0  0.4063293E-05  0.2191063E+04  0.7818609E-02  0.8522157E-01
        1   -1    0    0  501    0  0.00000000000E+00  0.00000000000E+00  0.78955707697E+03  0.78955707699E+03  0.50400001928E-02 0. -1.
       -1   -1    0    0    0  501  0.00000000000E+00  0.00000000000E+00 -0.15200793942E+04  0.15200793942E+04  0.50400001928E-02 0.  1.
    10030    2    1    2    0    0  0.00000000000E+00  0.00000000000E+00 -0.73052231723E+03  0.23096364712E+04  0.21910631605E+04 0.  0.
        1    1    3    3  502    0  0.63773941579E+03 -0.76018204678E+03 -0.85471783283E+03  0.13096300548E+04  0.50400001928E-02 0.  1.
       -1    1    3    3    0  502 -0.63773941579E+03  0.76018204678E+03  0.12419551560E+03  0.10000064164E+04  0.50400001928E-02 0. -1.
</event>
<event>
 5   0  0.4174030E-05  0.2184358E+04  0.7818609E-02  0.8524967E-01
       -1   -1    0    0    0  501  0.00000000000E+00  0.00000000000E+00  0.74753832219E+03  0.74753832221E+03  0.50400001928E-02 0. -1.
        1   -1    0    0  501    0  0.00000000000E+00  0.00000000000E+00 -0.15957103152E+04  0.15957103152E+04  0.50400001928E-02 0.  1.
    10030    2    1    2    0    0  0.00000000000E+00  0.00000000000E+00 -0.84817199300E+03  0.23432486374E+04  0.21843576738E+04 0.  0.
        2    1    3    3  502    0  0.22722679392E+03  0.94361331807E+03  0.11315936399E+03  0.97716076035E+03  0.25500000920E-02 0. -1.
       -2    1    3    3    0  502 -0.22722679392E+03 -0.94361331807E+03 -0.96133135699E+03  0.13660878771E+04  0.25500000920E-02 0.  1.
</event>
<event>
 5   0  0.9457742E-05  0.2193843E+04  0.7818609E-02  0.8520995E-01
        2   -1    0    0  501    0  0.00000000000E+00  0.00000000000E+00  0.13919863185E+04  0.13919863185E+04  0.25500000920E-02 0.  1.
       -2   -1    0    0    0  501  0.00000000000E+00  0.00000000000E+00 -0.86440268809E+03  0.86440268810E+03  0.25500000920E-02 0. -1.
    10030    2    1    2    0    0  0.00000000000E+00  0.00000000000E+00  0.52758363041E+03  0.22563890066E+04  0.21938429438E+04 0.  0.
        1    1    3    3  502    0 -0.59775607523E+03  0.78915295648E+03 -0.22207648543E+03  0.10145899071E+04  0.50400001928E-02 0. -1.
       -1    1    3    3    0  502  0.59775607523E+03 -0.78915295648E+03  0.74966011584E+03  0.12417990995E+04  0.50400001928E-02 0.  1.
</event>
<event>
 5   0  0.4174075E-05  0.2208711E+04  0.7818609E-02  0.8514811E-01
       -1   -1    0    0    0  501  0.00000000000E+00  0.00000000000E+00  0.57244686950E+03  0.57244686952E+03  0.50400001928E-02 0.  1.
        1   -1    0    0  501    0  0.00000000000E+00  0.00000000000E+00 -0.21305061140E+04  0.21305061140E+04  0.50400001928E-02 0. -1.
    10030    2    1    2    0    0  0.00000000000E+00  0.00000000000E+00 -0.15580592445E+04  0.27029529835E+04  0.22087114392E+04 0.  0.
        5    1    3    3  502    0  0.74293411657E+03 -0.49292296752E+03  0.18446689221E+02  0.89178838511E+03  0.46999998093E+01 0.  1.
       -5    1    3    3    0  502 -0.74293411657E+03  0.49292296752E+03 -0.15765059337E+04  0.18111645984E+04  0.46999998093E+01 0. -1.
</event>
<event>
 5   0  0.9938176E-05  0.2085920E+04  0.7818609E-02  0.8567471E-01
        2   -1    0    0  501    0  0.00000000000E+00  0.00000000000E+00  0.22655832016E+04  0.22655832016E+04  0.25500000920E-02 0. -1.
       -2   -1    0    0    0  501  0.00000000000E+00  0.00000000000E+00 -0.48012586821E+03  0.48012586822E+03  0.25500000920E-02 0.  1.
    10030    2    1    2    0    0  0.00000000000E+00  0.00000000000E+00  0.17854573334E+04  0.27457090699E+04  0.20859195590E+04 0.  0.
        5    1    3    3  502    0 -0.16248801870E+03  0.28801336833E+03  0.21947339084E+04  0.22195119002E+04  0.46999998093E+01 0. -1.
       -5    1    3    3    0  502  0.16248801870E+03 -0.28801336833E+03 -0.40927657495E+03  0.52619716966E+03  0.46999998093E+01 0.  1.
</event>
<event>
 5   0  0.4188865E-05  0.2194500E+04  0.7818609E-02  0.8520721E-01
       -1   -1    0    0    0  501  0.00000000000E+00  0.00000000000E+00  0.84799587922E+03  0.84799587924E+03  0.50400001928E-02 0. -1.
        1   -1    0    0  501    0  0.00000000000E+00  0.00000000000E+00 -0.14197681598E+04  0.14197681598E+04  0.50400001928E-02 0.  1.
    10030    2    1    2    0    0  0.00000000000E+00  0.00000000000E+00 -0.57177228053E+03  0.22677640390E+04  0.21944999877E+04 0.  0.
        3    1    3    3  502    0 -0.19209477529E+03 -0.15334884665E+03  0.81917982239E+03  0.85526128351E+03  0.10100000352E+00 0. -1.
       -3    1    3    3    0  502  0.19209477529E+03  0.15334884665E+03 -0.13909521029E+04  0.14125027555E+04  0.10100000352E+00 0.  1.
</event>
<event>
 5   0  0.9254673E-05  0.2275367E+04  0.7818609E-02  0.8487697E-01
       -2   -1    0    0    0  501  0.00000000000E+00  0.00000000000E+00  0.78018174880E+03  0.78018174881E+03  0.25500000920E-02 0.  1.
        2   -1    0    0  501    0  0.00000000000E+00  0.00000000000E+00 -0.16590034134E+04  0.16590034134E+04  0.25500000920E-02 0. -1.
    10030    2    1    2    0    0  0.00000000000E+00  0.00000000000E+00 -0.87882166457E+03  0.24391851622E+04  0.22753673851E+04 0.  0.
        2    1    3    3  502    0  0.17086136059E+03  0.55766136576E+03  0.60771841343E+03  0.84231910428E+03  0.25500000920E-02 0.  1.
       -2    1    3    3    0  502 -0.17086136059E+03 -0.55766136576E+03 -0.14865400780E+04  0.15968660579E+04  0.25500000920E-02 0. -1.
</event>
<event>
 5   0  0.4133418E-05  0.2198680E+04  0.7818609E-02  0.8518978E-01
       -1   -1    0    0    0  501  0.00000000000E+00  0.00000000000E+00  0.60196454662E+03  0.60196454664E+03  0.50400001928E-02 0. -1.
        1   -1    0    0  501    0  0.00000000000E+00  0.00000000000E+00 -0.20076740241E+04  0.20076740241E+04  0.50400001928E-02 0.  1.
    10030    2    1    2    0    0  0.00000000000E+00  0.00000000000E+00 -0.14057094775E+04  0.26096385708E+04  0.21986801347E+04 0.  0.
        4    1    3    3  502    0  0.43243095839E+03 -0.85813160004E+03 -0.69038932514E+02  0.96340768310E+03  0.12699999809E+01 0. -1.
       -4    1    3    3    0  502 -0.43243095839E+03  0.85813160004E+03 -0.13366705450E+04  0.16462308877E+04  0.12699999809E+01 0.  1.
</event>
<event>
 5   0  0.4174075E-05  0.2199830E+04  0.7818609E-02  0.8518499E-01
       -1   -1    0    0    0  501  0.00000000000E+00  0.00000000000E+00  0.85721222468E+03  0.85721222469E+03  0.50400001928E-02 0.  1.
        1   -1    0    0  501    0  0.00000000000E+00  0.00000000000E+00 -0.14113347033E+04  0.14113347033E+04  0.50400001928E-02 0. -1.
    10030    2    1    2    0    0  0.00000000000E+00  0.00000000000E+00 -0.55412247862E+03  0.22685469280E+04  0.21998303215E+04 0.  0.
        5    1    3    3  502    0 -0.32642731239E+03 -0.10081461443E+04  0.26896406388E+02  0.10600278039E+04  0.46999998093E+01 0.  1.
       -5    1    3    3    0  502  0.32642731239E+03  0.10081461443E+04 -0.58101888501E+03  0.12085191241E+04  0.46999998093E+01 0. -1.
</event>
<event>
 5   0  0.4063293E-05  0.2230264E+04  0.7818609E-02  0.8505936E-01
       -1   -1    0    0    0  501  0.00000000000E+00  0.00000000000E+00  0.12433822018E+04  0.12433822018E+04  0.50400001928E-02 0.  1.
        1   -1    0    0  501    0  0.00000000000E+00  0.00000000000E+00 -0.10001100433E+04  0.10001100433E+04  0.50400001928E-02 0. -1.
    10030    2    1    2    0    0  0.00000000000E+00  0.00000000000E+00  0.24327215845E+03  0.22434922451E+04  0.22302636864E+04 0.  0.
        1    1    3    3  502    0 -0.53220339734E+03 -0.10781898724E+02  0.11073268483E+04  0.12286290955E+04  0.50400001928E-02 0.  1.
       -1    1    3    3    0  502  0.53220339734E+03  0.10781898724E+02 -0.86405468980E+03  0.10148631496E+04  0.50400001928E-02 0. -1.
</event>
<event>
 5   0  0.4174030E-05  0.1990487E+04  0.7818609E-02  0.8611081E-01
        1   -1    0    0  501    0  0.00000000000E+00  0.00000000000E+00  0.93182851125E+03  0.93182851126E+03  0.50400001928E-02 0.  1.
       -1   -1    0    0    0  501  0.00000000000E+00  0.00000000000E+00 -0.10629736976E+04  0.10629736976E+04  0.50400001928E-02 0. -1.
    10030    2    1    2    0    0  0.00000000000E+00  0.00000000000E+00 -0.13114518630E+03  0.19948022088E+04  0.19904865718E+04 0.  0.
        2    1    3    3  502    0 -0.12046857806E+03 -0.27449666119E+03  0.88550983439E+03  0.93487366104E+03  0.25500000920E-02 0.  1.
       -2    1    3    3    0  502  0.12046857806E+03  0.27449666119E+03 -0.10166550207E+04  0.10599285478E+04  0.25500000920E-02 0. -1.
</event>
<event>
 5   0  0.9179618E-05  0.2166461E+04  0.7818609E-02  0.8532519E-01
       -2   -1    0    0    0  501  0.00000000000E+00  0.00000000000E+00  0.16141412295E+04  0.16141412295E+04  0.25500000920E-02 0. -1.
        2   -1    0    0  501    0  0.00000000000E+00  0.00000000000E+00 -0.72694250556E+03  0.72694250556E+03  0.25500000920E-02 0.  1.
    10030    2    1    2    0    0  0.00000000000E+00  0.00000000000E+00  0.88719872396E+03  0.23410837351E+04  0.21664605879E+04 0.  0.
        3    1    3    3  502    0 -0.55390628330E+03  0.65655376872E+03 -0.26952723693E+03  0.90028882230E+03  0.10100000352E+00 0.  1.
       -3    1    3    3    0  502  0.55390628330E+03 -0.65655376872E+03  0.11567259609E+04  0.14407949128E+04  0.10100000352E+00 0. -1.
</event>
<event>
 5   0  0.9457742E-05  0.2192713E+04  0.7818609E-02  0.8521467E-01
        2   -1    0    0  501    0  0.00000000000E+00  0.00000000000E+00  0.11026603458E+04  0.11026603458E+04  0.25500000920E-02 0. -1.
       -2   -1    0    0    0  501  0.00000000000E+00  0.00000000000E+00 -0.10900885711E+04  0.10900885711E+04  0.25500000920E-02 0.  1.
    10030    2    1    2    0    0  0.00000000000E+00  0.00000000000E+00  0.12571774732E+02  0.21927489169E+04  0.21927128775E+04 0.  0.
        1    1    3    3  502    0  0.76345342245E+02  0.88024690982E+03  0.65539917287E+03  0.11000960455E+04  0.50400001928E-02 0. -1.
       -1    1    3    3    0  502 -0.76345342245E+02 -0.88024690982E+03 -0.64282739814E+03  0.10926528714E+04  0.50400001928E-02 0.  1.
</event>
<event>
 5   0  0.4174030E-05  0.2201466E+04  0.7818609E-02  0.8517818E-01
        1   -1    0    0  501    0  0.00000000000E+00  0.00000000000E+00  0.17044121647E+04  0.17044121648E+04  0.50400001928E-02 0. -1.
       -1   -1    0    0    0  501  0.00000000000E+00  0.00000000000E+00 -0.71086884609E+03  0.71086884610E+03  0.50400001928E-02 0.  1.
    10030    2    1    2    0    0  0.00000000000E+00  0.00000000000E+00  0.99354331866E+03  0.24152810109E+04  0.22014663375E+04 0.  0.
        2    1    3    3  502    0  0.10088056730E+04  0.38262381745E+03  0.73594372475E+03  0.13060256650E+04  0.25500000920E-02 0. -1.
       -2    1    3    3    0  502 -0.10088056730E+04 -0.38262381745E+03  0.25759959390E+03  0.11092553459E+04  0.25500000920E-02 0.  1.
</event>
<event>
 5   0  0.4133418E-05  0.2203608E+04  0.7818609E-02  0.8516928E-01
        1   -1    0    0  501    0  0.00000000000E+00  0.00000000000E+00  0.54204995166E+03  0.54204995168E+03  0.50400001928E-02 0.  1.
       -1   -1    0    0    0  501  0.00000000000E+00  0.00000000000E+00 -0.22395938291E+04  0.22395938291E+04  0.50400001928E-02 0. -1.
    10030    2    1    2    0    0  0.00000000000E+00  0.00000000000E+00 -0.16975438774E+04  0.27816437807E+04  0.22036077027E+04 0.  0.
        4    1    3    3  502    0 -0.42477413970E+03  0.58535875627E+03  0.20046208954E+03  0.75050956392E+03  0.12699999809E+01 0.  1.
       -4    1    3    3    0  502  0.42477413970E+03 -0.58535875627E+03 -0.18980059669E+04  0.20311342168E+04  0.12699999809E+01 0. -1.
</event>
<event>
 5   0  0.4188865E-05  0.2166968E+04  0.7818609E-02  0.8532304E-01
        1   -1    0    0  501    0  0.00000000000E+00  0.00000000000E+00  0.14525357779E+04  0.14525357779E+04  0.50400001928E-02 0.  1.
       -1   -1    0    0    0  501  0.00000000000E+00  0.00000000000E+00 -0.80819884026E+03  0.80819884028E+03  0.50400001928E-02 0. -1.
    10030    2    1    2    0    0  0.00000000000E+00  0.00000000000E+00  0.64433693764E+03  0.22607346182E+04  0.21669681411E+04 0.  0.
        3    1    3    3  502    0  0.66239886655E+03 -0.86344258253E+02  0.12121403167E+04  0.13840201397E+04  0.10100000352E+00 0.  1.
       -3    1    3    3    0  502 -0.66239886655E+03  0.86344258253E+02 -0.56780337909E+03  0.87671447852E+03  0.10100000352E+00 0. -1.
</event>
<event>
 5   0  0.4133418E-05  0.2204682E+04  0.7818609E-02  0.8516482E-01
       -1   -1    0    0    0  501  0.00000000000E+00  0.00000000000E+00  0.89986051747E+03  0.89986051749E+03  0.50400001928E-02 0. -1.
        1   -1    0    0  501    0  0.00000000000E+00  0.00000000000E+00 -0.13503823396E+04  0.13503823396E+04  0.50400001928E-02 0.  1.
    10030    2    1    2    0    0  0.00000000000E+00  0.00000000000E+00 -0.45052182210E+03  0.22502428571E+04  0.22046820641E+04 0.  0.
        4    1    3    3  502    0  0.50373945539E+03 -0.87266869090E+03 -0.68154524598E+03  0.12164742571E+04  0.12699999809E+01 0. -1.
       -4    1    3    3    0  502 -0.50373945539E+03  0.87266869090E+03  0.23102342387E+03  0.10337686000E+04  0.12699999809E+01 0.  1.
</event>
<event>
 5   0  0.9254673E-05  0.2181331E+04  0.7818609E-02  0.8526239E-01
       -2   -1    0    0    0  501  0.00000000000E+00  0.00000000000E+00  0.99915714616E+03  0.99915714617E+03  0.25500000920E-02 0.  1.
        2   -1    0    0  501    0  0.00000000000E+00  0.00000000000E+00 -0.11905543790E+04  0.11905543790E+04  0.25500000920E-02 0. -1.
    10030    2    1    2    0    0  0.00000000000E+00  0.00000000000E+00 -0.19139723285E+03  0.21897115252E+04  0.21813307092E+04 0.  0.
        2    1    3    3  502    0 -0.10361933557E+04  0.21352482913E+03  0.17038845112E+03  0.10715977545E+04  0.25500000920E-02 0. -1.
       -2    1    3    3    0  502  0.10361933557E+04 -0.21352482913E+03 -0.36178568397E+03  0.11181137707E+04  0.25500000920E-02 0.  1.
</event>
<event>
 5   0  0.9457742E-05  0.2136209E+04  0.7818609E-02  0.8545459E-01
       -2   -1    0    0    0  501  0.00000000000E+00  0.00000000000E+00  0.58407658183E+03  0.58407658184E+03  0.25500000920E-02 0. -1.
        2   -1    0    0  501    0  0.00000000000E+00  0.00000000000E+00 -0.19532487714E+04  0.19532487714E+04  0.25500000920E-02 0.  1.
    10030    2    1    2    0    0  0.00000000000E+00  0.00000000000E+00 -0.13691721895E+04  0.25373253532E+04  0.21362086657E+04 0.  0.
        1    1    3    3  502    0  0.28295918686E+02 -0.10556793830E+04 -0.49459017786E+03  0.11661385264E+04  0.50400001928E-02 0.  1.
       -1    1    3    3    0  502 -0.28295918686E+02  0.10556793830E+04 -0.87458201167E+03  0.13711868268E+04  0.50400001928E-02 0. -1.
</event>
<event>
 5   0  0.4063293E-05  0.2277923E+04  0.7818609E-02  0.8486677E-01
       -1   -1    0    0    0  501  0.00000000000E+00  0.00000000000E+00  0.17337183725E+04  0.17337183725E+04  0.50400001928E-02 0. -1.
        1   -1    0    0  501    0  0.00000000000E+00  0.00000000000E+00 -0.74823787124E+03  0.74823787125E+03  0.50400001928E-02 0.  1.
    10030    2    1    2    0    0  0.00000000000E+00  0.00000000000E+00  0.98548050128E+03  0.24819562438E+04  0.22779233915E+04 0.  0.
        1    1    3    3  502    0 -0.47303432567E+03 -0.10355238671E+04  0.45558941008E+03  0.12262270847E+04  0.50400001928E-02 0.  1.
       -1    1    3    3    0  502  0.47303432567E+03  0.10355238671E+04  0.52989109120E+03  0.12557291591E+04  0.50400001928E-02 0. -1.
</event>
<event>
 5   0  0.9254673E-05  0.2207911E+04  0.7818609E-02  0.8515142E-01
       -2   -1    0    0    0  501  0.00000000000E+00  0.00000000000E+00  0.11861187376E+04  0.11861187376E+04  0.25500000920E-02 0.  1.
        2   -1    0    0  501    0  0.00000000000E+00  0.00000000000E+00 -0.10274840480E+04  0.10274840480E+04  0.25500000920E-02 0. -1.
    10030    2    1    2    0    0  0.00000000000E+00  0.00000000000E+00  0.15863468962E+03  0.22136027856E+04  0.22079113043E+04 0.  0.
        2    1    3    3  502    0  0.20225852928E+03  0.85136944154E+03  0.75408990309E+03  0.11551580068E+04  0.25500000920E-02 0.  1.
       -2    1    3    3    0  502 -0.20225852928E+03 -0.85136944154E+03 -0.59545521347E+03  0.10584447789E+04  0.25500000920E-02 0. -1.
</event>
<event>
 5   0  0.4188865E-05  0.2055251E+04  0.7818609E-02  0.8581216E-01
        1   -1    0    0  501    0  0.00000000000E+00  0.00000000000E+00  0.60931032624E+03  0.60931032626E+03  0.50400001928E-02 0.  1.
       -1   -1    0    0    0  501  0.00000000000E+00  0.00000000000E+00 -0.17331295179E+04  0.17331295179E+04  0.50400001928E-02 0. -1.
    10030    2    1    2    0    0  0.00000000000E+00  0.00000000000E+00 -0.11238191917E+04  0.23424398442E+04  0.20552505560E+04 0.  0.
        3    1    3    3  502    0 -0.13004990527E+03 -0.99923793210E+03 -0.79162837814E+03  0.12814308105E+04  0.10100000352E+00 0.  1.
       -3    1    3    3    0  502  0.13004990527E+03  0.99923793210E+03 -0.33219081356E+03  0.10610090337E+04  0.10100000352E+00 0. -1.
</event>
<event>
 5   0  0.9457742E-05  0.2137327E+04  0.7818609E-02  0.8544976E-01
       -2   -1    0    0    0  501  0.00000000000E+00  0.00000000000E+00  0.75259341498E+03  0.75259341498E+03  0.25500000920E-02 0. -1.
        2   -1    0    0  501    0  0.00000000000E+00  0.00000000000E+00 -0.15174750219E+04  0.15174750219E+04  0.25500000920E-02 0.  1.
    10030    2    1    2    0    0  0.00000000000E+00  0.00000000000E+00 -0.76488160695E+03  0.22700684369E+04  0.21373270306E+04 0.  0.
        1    1    3    3  502    0 -0.71824962924E+03  0.18898959807E+03  0.43368410721E+03  0.86004738413E+03  0.50400001928E-02 0. -1.
       -1    1    3    3    0  502  0.71824962924E+03 -0.18898959807E+03 -0.11985657142E+04  0.14100210528E+04  0.50400001928E-02 0.  1.
</event>
<event>
 5   0  0.4188865E-05  0.2053895E+04  0.7818609E-02  0.8581830E-01
        1   -1    0    0  501    0  0.00000000000E+00  0.00000000000E+00  0.67552454993E+03  0.67552454995E+03  0.50400001928E-02 0.  1.
       -1   -1    0    0    0  501  0.00000000000E+00  0.00000000000E+00 -0.15611880800E+04  0.15611880800E+04  0.50400001928E-02 0. -1.
    10030    2    1    2    0    0  0.00000000000E+00  0.00000000000E+00 -0.88566353006E+03  0.22367126299E+04  0.20538947150E+04 0.  0.
        3    1    3    3  502    0  0.89087916677E+03  0.29946836363E+03  0.78578734248E+01  0.93989826417E+03  0.10100000352E+00 0.  1.
       -3    1    3    3    0  502 -0.89087916677E+03 -0.29946836363E+03 -0.89352140348E+03  0.12968143658E+04  0.10100000352E+00 0. -1.
</event>
<event>
 5   0  0.9938176E-05  0.2199254E+04  0.7818609E-02  0.8518739E-01
       -2   -1    0    0    0  501  0.00000000000E+00  0.00000000000E+00  0.14544414780E+04  0.14544414780E+04  0.25500000920E-02 0.  1.
        2   -1    0    0  501    0  0.00000000000E+00  0.00000000000E+00 -0.83137001982E+03  0.83137001982E+03  0.25500000920E-02 0. -1.
    10030    2    1    2    0    0  0.00000000000E+00  0.00000000000E+00  0.62307145815E+03  0.22858114978E+04  0.21992535464E+04 0.  0.
        5    1    3    3  502    0 -0.16861602578E+03  0.10769129418E+04  0.46209597214E+03  0.11839457867E+04  0.46999998093E+01 0.  1.
       -5    1    3    3    0  502  0.16861602578E+03 -0.10769129418E+04  0.16097548602E+03  0.11018657111E+04  0.46999998093E+01 0. -1.
</event>
<event>
 5   0  0.9457742E-05  0.2221253E+04  0.7818609E-02  0.8509634E-01
        2   -1    0    0  501    0  0.00000000000E+00  0.00000000000E+00  0.11466251912E+04  0.11466251912E+04  0.25500000920E-02 0. -1.
       -2   -1    0    0    0  501  0.00000000000E+00  0.00000000000E+00 -0.10757579355E+04  0.10757579355E+04  0.25500000920E-02 0.  1.
    10030    2    1    2    0    0  0.00000000000E+00  0.00000000000E+00  0.70867255691E+02  0.22223831266E+04  0.22212529333E+04 0.  0.
        1    1    3    3  502    0  0.10117890111E+04 -0.45451701919E+03 -0.21061239245E+02  0.11093900575E+04  0.50400001928E-02 0.  1.
       -1    1    3    3    0  502 -0.10117890111E+04  0.45451701919E+03  0.91928494936E+02  0.11129930692E+04  0.50400001928E-02 0. -1.
</event>
<event>
 5   0  0.4174030E-05  0.2169022E+04  0.7818609E-02  0.8531434E-01
       -1   -1    0    0    0  501  0.00000000000E+00  0.00000000000E+00  0.11784741054E+04  0.11784741054E+04  0.50400001928E-02 0.  1.
        1   -1    0    0  501    0  0.00000000000E+00  0.00000000000E+00 -0.99803979066E+03  0.99803979067E+03  0.50400001928E-02 0. -1.
    10030    2    1    2    0    0  0.00000000000E+00  0.00000000000E+00  0.18043431471E+03  0.21765138961E+04  0.21690219450E+04 0.  0.
        2    1    3    3  502    0 -0.25770070063E+03  0.28696674738E+03  0.11073278659E+04  0.11725760392E+04  0.25500000920E-02 0.  1.
       -2    1    3    3    0  502  0.25770070063E+03 -0.28696674738E+03 -0.92689355116E+03  0.10039378568E+04  0.25500000920E-02 0. -1.
</event>
<event>
 5   0  0.9254673E-05  0.2094282E+04  0.7818609E-02  0.8563767E-01
        2   -1    0    0  501    0  0.00000000000E+00  0.00000000000E+00  0.17321955929E+04  0.17321955929E+04  0.25500000920E-02 0. -1.
       -2   -1    0    0    0  501  0.00000000000E+00  0.00000000000E+00 -0.63301383724E+03  0.63301383725E+03  0.25500000920E-02 0.  1.
    10030    2    1    2    0    0  0.00000000000E+00  0.00000000000E+00  0.10991817556E+04  0.23652094301E+04  0.20942815275E+04 0.  0.
        2    1    3    3  502    0 -0.48832625523E+03  0.21087354972E+03 -0.46907782168E+03  0.70919968155E+03  0.25500000920E-02 0.  1.
       -2    1    3    3    0  502  0.48832625523E+03 -0.21087354972E+03  0.15682595773E+04  0.16560097486E+04  0.25500000920E-02 0. -1.
</event>
<event>
 5   0  0.9457742E-05  0.2214617E+04  0.7818609E-02  0.8512369E-01
       -2   -1    0    0    0  501  0.00000000000E+00  0.00000000000E+00  0.82550201117E+03  0.82550201117E+03  0.25500000920E-02 0. -1.
        2   -1    0    0  501    0  0.00000000000E+00  0.00000000000E+00 -0.14853170052E+04  0.14853170052E+04  0.25500000920E-02 0.  1.
    10030    2    1    2    0    0  0.00000000000E+00  0.00000000000E+00 -0.65981499398E+03  0.23108190163E+04  0.22146170549E+04 0.  0.
        1    1    3    3  502    0 -0.46452775278E+01 -0.64277937848E+03 -0.12707088778E+04  0.14240393113E+04  0.50400001928E-02 0.  1.
       -1    1    3    3    0  502  0.46452775278E+01  0.64277937848E+03  0.61089388379E+03  0.88677970505E+03  0.50400001928E-02 0. -1.
</event>
<event>
 5   0  0.4174030E-05  0.2185851E+04  0.7818609E-02  0.8524340E-01
        1   -1    0    0  501    0  0.00000000000E+00  0.00000000000E+00  0.65595085685E+03  0.65595085687E+03  0.50400001928E-02 0. -1.
       -1   -1    0    0    0  501  0.00000000000E+00  0.00000000000E+00 -0.18209997669E+04  0.18209997669E+04  0.50400001928E-02 0.  1.
    10030    2    1    2    0    0  0.00000000000E+00  0.00000000000E+00 -0.11650489100E+04  0.24769506237E+04  0.21858511911E+04 0.  0.
        2    1    3    3  502    0  0.14615254742E+03  0.10179331115E+04 -0.10018571264E+04  0.14357110045E+04  0.25500000920E-02 0. -1.
       -2    1    3    3    0  502 -0.14615254742E+03 -0.10179331115E+04 -0.16319178358E+03  0.10412396193E+04  0.25500000920E-02 0.  1.
</event>
<event>
 5   0  0.4133418E-05  0.2251478E+04  0.7818609E-02  0.8497302E-01
       -1   -1    0    0    0  501  0.00000000000E+00  0.00000000000E+00  0.95681504523E+03  0.95681504525E+03  0.50400001928E-02 0. -1.
        1   -1    0    0  501    0  0.00000000000E+00  0.00000000000E+00 -0.13244866498E+04  0.13244866498E+04  0.50400001928E-02 0.  1.
    10030    2    1    2    0    0  0.00000000000E+00  0.00000000000E+00 -0.36767160458E+03  0.22813016951E+04  0.22514784065E+04 0.  0.
        4    1    3    3  502    0 -0.25936392336E+03 -0.64319069193E+03 -0.10823304411E+04  0.12854589482E+04  0.12699999809E+01 0.  1.
       -4    1    3    3    0  502  0.25936392336E+03  0.64319069193E+03  0.71465883652E+03  0.99584274685E+03  0.12699999809E+01 0. -1.
</event>
<event>
 5   0  0.9938176E-05  0.2186908E+04  0.7818609E-02  0.8523897E-01
       -2   -1    0    0    0  501  0.00000000000E+00  0.00000000000E+00  0.73590101549E+03  0.73590101549E+03  0.25500000920E-02 0.  1.
        2   -1    0    0  501    0  0.00000000000E+00  0.00000000000E+00 -0.16247320794E+04  0.16247320794E+04  0.25500000920E-02 0. -1.
    10030    2    1    2    0    0  0.00000000000E+00  0.00000000000E+00 -0.88883106387E+03  0.23606330949E+04  0.21869083082E+04 0.  0.
        5    1    3    3  502    0  0.10583790079E+04 -0.16481841269E+01 -0.14791151683E+03  0.10686761660E+04  0.46999998093E+01 0.  1.
       -5    1    3    3    0  502 -0.10583790079E+04  0.16481841269E+01 -0.74091954704E+03  0.12919569289E+04  0.46999998093E+01 0. -1.
</event>
<event>
 5   0  0.4188865E-05  0.2218366E+04  0.7818609E-02  0.8510823E-01
        1   -1    0    0  501    0  0.00000000000E+00  0.00000000000E+00  0.81248547429E+03  0.81248547430E+03  0.50400001928E-02 0. -1.
       -1   -1    0    0    0  501  0.00000000000E+00  0.00000000000E+00 -0.15142260810E+04  0.15142260810E+04  0.50400001928E-02 0.  1.
    10030    2    1    2    0    0  0.00000000000E+00  0.00000000000E+00 -0.70174060670E+03  0.23267115553E+04  0.22183657909E+04 0.  0.
        3    1    3    3  502    0  0.65878895758E+03  0.86743335506E+03 -0.13125613372E+03  0.10971197286E+04  0.10100000352E+00 0. -1.
       -3    1    3    3    0  502 -0.65878895758E+03 -0.86743335506E+03 -0.57048447298E+03  0.12295918267E+04  0.10100000352E+00 0.  1.
</event>
<event>
 5   0  0.4188865E-05  0.2219302E+04  0.7818609E-02  0.8510437E-01
       -1   -1    0    0    0  501  0.00000000000E+00  0.00000000000E+00  0.82510859977E+03  0.82510859978E+03  0.50400001928E-02 0. -1.
        1   -1    0    0  501    0  0.00000000000E+00  0.00000000000E+00 -0.14923189322E+04  0.14923189322E+04  0.50400001928E-02 0.  1.
    10030    2    1    2    0    0  0.00000000000E+00  0.00000000000E+00 -0.66721033245E+03  0.23174275320E+04  0.22193018583E+04 0.  0.
        3    1    3    3  502    0 -0.23467183265E+03  0.82302317819E+03 -0.10711542806E+04  0.13710614589E+04  0.10100000352E+00 0.  1.
       -3    1    3    3    0  502  0.23467183265E+03 -0.82302317819E+03  0.40394394820E+03  0.94636607313E+03  0.10100000352E+00 0. -1.
</event>
<event>
 5   0  0.9179618E-05  0.2180193E+04  0.7818609E-02  0.8526718E-01
        2   -1    0    0  501    0  0.00000000000E+00  0.00000000000E+00  0.10070418929E+04  0.10070418929E+04  0.25500000920E-02 0. -1.
       -2   -1    0    0    0  501  0.00000000000E+00  0.00000000000E+00 -0.11800006609E+04  0.11800006609E+04  0.25500000920E-02 0.  1.
    10030    2    1    2    0    0  0.00000000000E+00  0.00000000000E+00 -0.17295876794E+03  0.21870425538E+04  0.21801927431E+04 0.  0.
        3    1    3    3  502    0  0.50561597633E+03 -0.88952238015E+03 -0.46370941297E+03  0.11233539114E+04  0.10100000352E+00 0. -1.
       -3    1    3    3    0  502 -0.50561597633E+03  0.88952238015E+03  0.29075064503E+03  0.10636886425E+04  0.10100000352E+00 0.  1.
</event>
<event>
 5   0  0.9938176E-05  0.2154847E+04  0.7818609E-02  0.8537460E-01
        2   -1    0    0  501    0  0.00000000000E+00  0.00000000000E+00  0.10952734793E+04  0.10952734793E+04  0.25500000920E-02 0.  1.
       -2   -1    0    0    0  501  0.00000000000E+00  0.00000000000E+00 -0.10598643908E+04  0.10598643908E+04  0.25500000920E-02 0. -1.
    10030    2    1    2    0    0  0.00000000000E+00  0.00000000000E+00  0.35409088486E+02  0.21551378701E+04  0.21548469634E+04 0.  0.
        5    1    3    3  502    0 -0.25233954052E+03  0.56442761474E+03  0.90018724749E+03  0.10920681968E+04  0.46999998093E+01 0.  1.
       -5    1    3    3    0  502  0.25233954052E+03 -0.56442761474E+03 -0.86477815901E+03  0.10630696733E+04  0.46999998093E+01 0. -1.
</event>
<event>
 5   0  0.4174075E-05  0.2193778E+04  0.7818609E-02  0.8521022E-01
        1   -1    0    0  501    0  0.00000000000E+00  0.00000000000E+00  0.12818511844E+04  0.12818511844E+04  0.50400001928E-02 0.  1.
       -1   -1    0    0    0  501  0.00000000000E+00  0.00000000000E+00 -0.93861571139E+03  0.93861571141E+03  0.50400001928E-02 0. -1.
    10030    2    1    2    0    0  0.00000000000E+00  0.00000000000E+00  0.34323547299E+03  0.22204668958E+04  0.21937781669E+04 0.  0.
        5    1    3    3  502    0 -0.10666843987E+04  0.19800765881E+03  0.80318139315E+01  0.10849466528E+04  0.46999998093E+01 0. -1.
       -5    1    3    3    0  502  0.10666843987E+04 -0.19800765881E+03  0.33520365906E+03  0.11355202430E+04  0.46999998093E+01 0.  1.
</event>
<event>
 5   0  0.4174030E-05  0.2225366E+04  0.7818609E-02  0.8507944E-01
        1   -1    0    0  501    0  0.00000000000E+00  0.00000000000E+00  0.17777079672E+04  0.17777079672E+04  0.50400001928E-02 0.  1.
       -1   -1    0    0    0  501  0.00000000000E+00  0.00000000000E+00 -0.69643833962E+03  0.69643833963E+03  0.50400001928E-02 0. -1.
    10030    2    1    2    0    0  0.00000000000E+00  0.00000000000E+00  0.10812696276E+04  0.24741463069E+04  0.22253664732E+04 0.  0.
        2    1    3    3  502    0 -0.66688547943E+03 -0.66579699474E+02  0.15281264076E+04  0.16686339973E+04  0.25500000920E-02 0.  1.
       -2    1    3    3    0  502  0.66688547943E+03  0.66579699474E+02 -0.44685678004E+03  0.80551230961E+03  0.25500000920E-02 0. -1.
</event>
<event>
 5   0  0.9442578E-05  0.2243495E+04  0.7818609E-02  0.8500540E-01
        2   -1    0    0  501    0  0.00000000000E+00  0.00000000000E+00  0.18152012033E+04  0.18152012033E+04  0.25500000920E-02 0.  1.
       -2   -1    0    0    0  501  0.00000000000E+00  0.00000000000E+00 -0.69321072896E+03  0.69321072896E+03  0.25500000920E-02 0. -1.
    10030    2    1    2    0    0  0.00000000000E+00  0.00000000000E+00  0.11219904743E+04  0.25084119323E+04  0.22434945503E+04 0.  0.
        4    1    3    3  502    0 -0.73190763219E+03  0.79111875829E+03  0.21320568772E+03  0.10986427763E+04  0.12699999809E+01 0. -1.
       -4    1    3    3    0  502  0.73190763219E+03 -0.79111875829E+03  0.90878478661E+03  0.14097691559E+04  0.12699999809E+01 0.  1.
</event>
<event>
 5   0  0.9938176E-05  0.2184520E+04  0.7818609E-02  0.8524899E-01
        2   -1    0    0  501    0  0.00000000000E+00  0.00000000000E+00  0.19165178773E+04  0.19165178773E+04  0.25500000920E-02 0.  1.
       -2   -1    0    0    0  501  0.00000000000E+00  0.00000000000E+00 -0.62249949199E+03  0.62249949199E+03  0.25500000920E-02 0. -1.
    10030    2    1    2    0    0  0.00000000000E+00  0.00000000000E+00  0.12940183853E+04  0.25390173693E+04  0.21845195399E+04 0.  0.
        5    1    3    3  502    0 -0.65406034636E+03 -0.72920705099E+03  0.85409795145E+02  0.98328774171E+03  0.46999998093E+01 0. -1.
       -5    1    3    3    0  502  0.65406034636E+03  0.72920705099E+03  0.12086085902E+04  0.15557296276E+04  0.46999998093E+01 0.  1.
</event>
<event>
 5   0  0.4063293E-05  0.2228511E+04  0.7818609E-02  0.8506654E-01
        1   -1    0    0  501    0  0.00000000000E+00  0.00000000000E+00  0.15548647420E+04  0.15548647420E+04  0.50400001928E-02 0. -1.
       -1   -1    0    0    0  501  0.00000000000E+00  0.00000000000E+00 -0.79850373394E+03  0.79850373396E+03  0.50400001928E-02 0.  1.
    10030    2    1    2    0    0  0.00000000000E+00  0.00000000000E+00  0.75636100801E+03  0.23533684759E+04  0.22285109847E+04 0.  0.
        1    1    3    3  502    0 -0.13833007771E+03 -0.10068903491E+04  0.86049942558E+03  0.13316991578E+04  0.50400001928E-02 0. -1.
       -1    1    3    3    0  502  0.13833007771E+03  0.10068903491E+04 -0.10413841757E+03  0.10216693181E+04  0.50400001928E-02 0.  1.
</event>
<event>
 5   0  0.9254673E-05  0.2219371E+04  0.7818609E-02  0.8510409E-01
       -2   -1    0    0    0  501  0.00000000000E+00  0.00000000000E+00  0.98793643934E+03  0.98793643934E+03  0.25500000920E-02 0. -1.
        2   -1    0    0  501    0  0.00000000000E+00  0.00000000000E+00 -0.12464378648E+04  0.12464378648E+04  0.25500000920E-02 0.  1.
    10030    2    1    2    0    0  0.00000000000E+00  0.00000000000E+00 -0.25850142544E+03  0.22343743041E+04  0.22193705288E+04 0.  0.
        2    1    3    3  502    0  0.43750312991E+03 -0.19936838369E+03  0.87763280338E+03  0.10006977959E+04  0.25500000920E-02 0. -1.
       -2    1    3    3    0  502 -0.43750312991E+03  0.19936838369E+03 -0.11361342288E+04  0.12336765083E+04  0.25500000920E-02 0.  1.
</event>
<event>
 5   0  0.4174030E-05  0.2204473E+04  0.7818609E-02  0.8516569E-01
        1   -1    0    0  501    0  0.00000000000E+00  0.00000000000E+00  0.12162221782E+04  0.12162221783E+04  0.50400001928E-02 0. -1.
       -1   -1    0    0    0  501  0.00000000000E+00  0.00000000000E+00 -0.99893392473E+03  0.99893392474E+03  0.50400001928E-02 0.  1.
    10030    2    1    2    0    0  0.00000000000E+00  0.00000000000E+00  0.21728825351E+03  0.22151561030E+04  0.22044732649E+04 0.  0.
        2    1    3    3  502    0 -0.25452259289E+03 -0.41936333770E+03  0.11004827144E+04  0.12048691066E+04  0.25500000920E-02 0. -1.
       -2    1    3    3    0  502  0.25452259289E+03  0.41936333770E+03 -0.88319446091E+03  0.10102869964E+04  0.25500000920E-02 0.  1.
</event>
<event>
 5   0  0.9457742E-05  0.2197221E+04  0.7818609E-02  0.8519586E-01
        2   -1    0    0  501    0  0.00000000000E+00  0.00000000000E+00  0.14694234056E+04  0.14694234056E+04  0.25500000920E-02 0. -1.
       -2   -1    0    0    0  501  0.00000000000E+00  0.00000000000E+00 -0.82137349434E+03  0.82137349435E+03  0.25500000920E-02 0.  1.
    10030    2    1    2    0    0  0.00000000000E+00  0.00000000000E+00  0.64804991125E+03  0.22907968999E+04  0.21972213701E+04 0.  0.
        1    1    3    3  502    0 -0.84708038389E+03  0.52003089146E+03 -0.16384405157E+03  0.10073838286E+04  0.50400001928E-02 0.  1.
       -1    1    3    3    0  502  0.84708038389E+03 -0.52003089146E+03  0.81189396281E+03  0.12834130714E+04  0.50400001928E-02 0. -1.
</event>
<event>
 5   0  0.4188865E-05  0.2233220E+04  0.7818609E-02  0.8504727E-01
       -1   -1    0    0    0  501  0.00000000000E+00  0.00000000000E+00  0.16163460951E+04  0.16163460951E+04  0.50400001928E-02 0.  1.
        1   -1    0    0  501    0  0.00000000000E+00  0.00000000000E+00 -0.77138023154E+03  0.77138023155E+03  0.50400001928E-02 0. -1.
    10030    2    1    2    0    0  0.00000000000E+00  0.00000000000E+00  0.84496586358E+03  0.23877263267E+04  0.22332195818E+04 0.  0.
        3    1    3    3  502    0 -0.43882759470E+02  0.15805070746E+03  0.16033943384E+04  0.16117627423E+04  0.10100000352E+00 0.  1.
       -3    1    3    3    0  502  0.43882759470E+02 -0.15805070746E+03 -0.75842847483E+03  0.77596358441E+03  0.10100000352E+00 0. -1.
</event>
<event>
 5   0  0.4188865E-05  0.1978865E+04  0.7818609E-02  0.8616566E-01
        1   -1    0    0  501    0  0.00000000000E+00  0.00000000000E+00  0.10661081838E+04  0.10661081838E+04  0.50400001928E-02 0.  1.
       -1   -1    0    0    0  501  0.00000000000E+00  0.00000000000E+00 -0.91827132299E+03  0.91827132300E+03  0.50400001928E-02 0. -1.
    10030    2    1    2    0    0  0.00000000000E+00  0.00000000000E+00  0.14783686083E+03  0.19843795068E+04  0.19788648993E+04 0.  0.
        3    1    3    3  502    0  0.12933204273E+03  0.78257984011E+02 -0.90662318984E+03  0.91913911237E+03  0.10100000352E+00 0. -1.
       -3    1    3    3    0  502 -0.12933204273E+03 -0.78257984011E+02  0.10544600507E+04  0.10652403945E+04  0.10100000352E+00 0.  1.
</event>
<event>
 5   0  0.9442578E-05  0.2515593E+04  0.7818609E-02  0.8397451E-01
       -2   -1    0    0    0  501  0.00000000000E+00  0.00000000000E+00  0.11540020100E+04  0.11540020100E+04  0.25500000920E-02 0. -1.
        2   -1    0    0  501    0  0.00000000000E+00  0.00000000000E+00 -0.13709268150E+04  0.13709268150E+04  0.25500000920E-02 0.  1.
    10030    2    1    2    0    0  0.00000000000E+00  0.00000000000E+00 -0.21692480502E+03  0.25249288250E+04  0.25155932104E+04 0.  0.
        4    1    3    3  502    0  0.10081291279E+04  0.64165659659E+03 -0.50235112231E+03  0.12963046669E+04  0.12699999809E+01 0.  1.
       -4    1    3    3    0  502 -0.10081291279E+04 -0.64165659659E+03  0.28542631728E+03  0.12286241581E+04  0.12699999809E+01 0. -1.
</event>
<event>
 5   0  0.9457742E-05  0.2211282E+04  0.7818609E-02  0.8513747E-01
        2   -1    0    0  501    0  0.00000000000E+00  0.00000000000E+00  0.13273425549E+04  0.13273425549E+04  0.25500000920E-02 0. -1.
       -2   -1    0    0    0  501  0.00000000000E+00  0.00000000000E+00 -0.92096926901E+03  0.92096926902E+03  0.25500000920E-02 0.  1.
    10030    2    1    2    0    0  0.00000000000E+00  0.00000000000E+00  0.40637328585E+03  0.22483118239E+04  0.22112817120E+04 0.  0.
        1    1    3    3  502    0  0.68921612167E+03 -0.62561221571E+03  0.80986305066E+03  0.12338102235E+04  0.50400001928E-02 0. -1.
       -1    1    3    3    0  502 -0.68921612167E+03  0.62561221571E+03 -0.40348976481E+03  0.10145016004E+04  0.50400001928E-02 0.  1.
</event>
<event>
 5   0  0.4174030E-05  0.2051413E+04  0.7818609E-02  0.8582954E-01
       -1   -1    0    0    0  501  0.00000000000E+00  0.00000000000E+00  0.68669596216E+03  0.68669596218E+03  0.50400001928E-02 0. -1.
        1   -1    0    0  501    0  0.00000000000E+00  0.00000000000E+00 -0.15320810296E+04  0.15320810296E+04  0.50400001928E-02 0.  1.
    10030    2    1    2    0    0  0.00000000000E+00  0.00000000000E+00 -0.84538506740E+03  0.22187769918E+04  0.20514130318E+04 0.  0.
        2    1    3    3  502    0 -0.35488823933E+03  0.87817051303E+03 -0.84843695752E+03  0.12716030761E+04  0.25500000920E-02 0.  1.
       -2    1    3    3    0  502  0.35488823933E+03 -0.87817051303E+03  0.30518901253E+01  0.94717391561E+03  0.25500000920E-02 0. -1.
</event>
<event>
 5   0  0.4133418E-05  0.2184563E+04  0.7818609E-02  0.8524881E-01
        1   -1    0    0  501    0  0.00000000000E+00  0.00000000000E+00  0.11556408457E+04  0.11556408457E+04  0.50400001928E-02 0. -1.
       -1   -1    0    0    0  501  0.00000000000E+00  0.00000000000E+00 -0.10323956851E+04  0.10323956852E+04  0.50400001928E-02 0.  1.
    10030    2    1    2    0    0  0.00000000000E+00  0.00000000000E+00  0.12324516057E+03  0.21880365309E+04  0.21845627688E+04 0.  0.
        4    1    3    3  502    0 -0.85403925848E+03  0.25530371911E+03  0.69390602937E+03  0.11296327875E+04  0.12699999809E+01 0. -1.
       -4    1    3    3    0  502  0.85403925848E+03 -0.25530371911E+03 -0.57066086880E+03  0.10584037434E+04  0.12699999809E+01 0.  1.
</event>
<event>
 5   0  0.4174075E-05  0.2206272E+04  0.7818609E-02  0.8515822E-01
        1   -1    0    0  501    0  0.00000000000E+00  0.00000000000E+00  0.21518897638E+04  0.21518897638E+04  0.50400001928E-02 0. -1.
       -1   -1    0    0    0  501  0.00000000000E+00  0.00000000000E+00 -0.56550736945E+03  0.56550736948E+03  0.50400001928E-02 0.  1.
    10030    2    1    2    0    0  0.00000000000E+00  0.00000000000E+00  0.15863823943E+04  0.27173971333E+04  0.22062724398E+04 0.  0.
        5    1    3    3  502    0  0.22313236315E+03  0.47273411044E+03 -0.40325442451E+03  0.66022860552E+03  0.46999998093E+01 0.  1.
       -5    1    3    3    0  502 -0.22313236315E+03 -0.47273411044E+03  0.19896368188E+04  0.20571685277E+04  0.46999998093E+01 0. -1.
</event>
<event>
 5   0  0.9254673E-05  0.2250213E+04  0.7818609E-02  0.8497814E-01
       -2   -1    0    0    0  501  0.00000000000E+00  0.00000000000E+00  0.89750935686E+03  0.89750935686E+03  0.25500000920E-02 0. -1.
        2   -1    0    0  501    0  0.00000000000E+00  0.00000000000E+00 -0.14104190758E+04  0.14104190758E+04  0.25500000920E-02 0.  1.
    10030    2    1    2    0    0  0.00000000000E+00  0.00000000000E+00 -0.51290971898E+03  0.23079284327E+04  0.22502127167E+04 0.  0.
        2    1    3    3  502    0  0.83562964045E+03  0.36787175125E+02  0.51533093841E+03  0.98244397720E+03  0.25500000920E-02 0. -1.
       -2    1    3    3    0  502 -0.83562964045E+03 -0.36787175125E+02 -0.10282406574E+04  0.13254844555E+04  0.25500000920E-02 0.  1.
</event>
<event>
 5   0  0.4133418E-05  0.2142458E+04  0.7818609E-02  0.8542768E-01
       -1   -1    0    0    0  501  0.00000000000E+00  0.00000000000E+00  0.82521412418E+03  0.82521412420E+03  0.50400001928E-02 0. -1.
        1   -1    0    0  501    0  0.00000000000E+00  0.00000000000E+00 -0.13905863859E+04  0.13905863859E+04  0.50400001928E-02 0.  1.
    10030    2    1    2    0    0  0.00000000000E+00  0.00000000000E+00 -0.56537226170E+03  0.22158005101E+04  0.21424579590E+04 0.  0.
        4    1    3    3  502    0 -0.27105401468E+03  0.69735788215E+03 -0.10755803773E+04  0.13102110729E+04  0.12699999809E+01 0.  1.
       -4    1    3    3    0  502  0.27105401468E+03 -0.69735788215E+03  0.51020811557E+03  0.90558943720E+03  0.12699999809E+01 0. -1.
</event>
<event>
 5   0  0.9938176E-05  0.2145053E+04  0.7818609E-02  0.8541653E-01
       -2   -1    0    0    0  501  0.00000000000E+00  0.00000000000E+00  0.88683414383E+03  0.88683414383E+03  0.25500000920E-02 0. -1.
        2   -1    0    0  501    0  0.00000000000E+00  0.00000000000E+00 -0.12971010199E+04  0.12971010199E+04  0.25500000920E-02 0.  1.
    10030    2    1    2    0    0  0.00000000000E+00  0.00000000000E+00 -0.41026687606E+03  0.21839351637E+04  0.21450533536E+04 0.  0.
        5    1    3    3  502    0 -0.10261205326E+04 -0.31171261265E+03 -0.19061729555E+03  0.10892406271E+04  0.46999998093E+01 0.  1.
       -5    1    3    3    0  502  0.10261205326E+04  0.31171261265E+03 -0.21964958051E+03  0.10946945366E+04  0.46999998093E+01 0. -1.
</event>
<event>
 5   0  0.4174075E-05  0.2278904E+04  0.7818609E-02  0.8486286E-01
       -1   -1    0    0    0  501  0.00000000000E+00  0.00000000000E+00  0.39531503823E+03  0.39531503826E+03  0.50400001928E-02 0.  1.
        1   -1    0    0  501    0  0.00000000000E+00  0.00000000000E+00 -0.32843433064E+04  0.32843433064E+04  0.50400001928E-02 0. -1.
    10030    2    1    2    0    0  0.00000000000E+00  0.00000000000E+00 -0.28890282681E+04  0.36796583446E+04  0.22789035081E+04 0.  0.
        5    1    3    3  502    0  0.67922198888E+03 -0.84759687936E+03 -0.20004954959E+04  0.22763495556E+04  0.46999998093E+01 0. -1.
       -5    1    3    3    0  502 -0.67922198888E+03  0.84759687936E+03 -0.88853277220E+03  0.14033087890E+04  0.46999998093E+01 0.  1.
</event>
<event>
 5   0  0.4063293E-05  0.2177329E+04  0.7818609E-02  0.8527924E-01
        1   -1    0    0  501    0  0.00000000000E+00  0.00000000000E+00  0.12966625701E+04  0.12966625701E+04  0.50400001928E-02 0. -1.
       -1   -1    0    0    0  501  0.00000000000E+00  0.00000000000E+00 -0.91403187414E+03  0.91403187415E+03  0.50400001928E-02 0.  1.
    10030    2    1    2    0    0  0.00000000000E+00  0.00000000000E+00  0.38263069597E+03  0.22106944443E+04  0.21773294827E+04 0.  0.
        1    1    3    3  502    0  0.36950843425E+03 -0.50815505896E+03  0.10940020883E+04  0.12615857546E+04  0.50400001928E-02 0. -1.
       -1    1    3    3    0  502 -0.36950843425E+03  0.50815505896E+03 -0.71137139235E+03  0.94910868967E+03  0.50400001928E-02 0.  1.
</event>
<event>
 5   0  0.9254673E-05  0.2227403E+04  0.7818609E-02  0.8507108E-01
       -2   -1    0    0    0  501  0.00000000000E+00  0.00000000000E+00  0.48569328411E+03  0.48569328411E+03  0.25500000920E-02 0. -1.
        2   -1    0    0  501    0  0.00000000000E+00  0.00000000000E+00 -0.25537336415E+04  0.25537336415E+04  0.25500000920E-02 0.  1.
    10030    2    1    2    0    0  0.00000000000E+00  0.00000000000E+00 -0.20680403574E+04  0.30394269256E+04  0.22274032227E+04 0.  0.
        2    1    3    3  502    0 -0.18261095388E+03  0.38310244450E+03  0.37102487985E+03  0.56371420501E+03  0.25500000920E-02 0. -1.
       -2    1    3    3    0  502  0.18261095388E+03 -0.38310244450E+03 -0.24390652373E+04  0.24757127206E+04  0.25500000920E-02 0.  1.
</event>
<event>
 5   0  0.4174075E-05  0.2205126E+04  0.7818609E-02  0.8516298E-01
        1   -1    0    0  501    0  0.00000000000E+00  0.00000000000E+00  0.11052051855E+04  0.11052051855E+04  0.50400001928E-02 0.  1.
       -1   -1    0    0    0  501  0.00000000000E+00  0.00000000000E+00 -0.10999268587E+04  0.10999268588E+04  0.50400001928E-02 0. -1.
    10030    2    1    2    0    0  0.00000000000E+00  0.00000000000E+00  0.52783267179E+01  0.22051320442E+04  0.22051257270E+04 0.  0.
        5    1    3    3  502    0 -0.56875767746E+03  0.86097740841E+03  0.39104133743E+03  0.11034957232E+04  0.46999998093E+01 0. -1.
       -5    1    3    3    0  502  0.56875767746E+03 -0.86097740841E+03 -0.38576301071E+03  0.11016363211E+04  0.46999998093E+01 0.  1.
</event>
<event>
 5   0  0.9457742E-05  0.2206633E+04  0.7818609E-02  0.8515672E-01
        2   -1    0    0  501    0  0.00000000000E+00  0.00000000000E+00  0.16345332030E+04  0.16345332030E+04  0.25500000920E-02 0.  1.
       -2   -1    0    0    0  501  0.00000000000E+00  0.00000000000E+00 -0.74474294724E+03  0.74474294724E+03  0.25500000920E-02 0. -1.
    10030    2    1    2    0    0  0.00000000000E+00  0.00000000000E+00  0.88979025572E+03  0.23792761502E+04  0.22066327968E+04 0.  0.
        1    1    3    3  502    0 -0.42566754784E+03  0.86400580084E+03  0.10251518789E+04  0.14066397051E+04  0.50400001928E-02 0.  1.
       -1    1    3    3    0  502  0.42566754784E+03 -0.86400580084E+03 -0.13536162322E+03  0.97263644505E+03  0.50400001928E-02 0. -1.
</event>
<event>
 5   0  0.4063293E-05  0.2171103E+04  0.7818609E-02  0.8530553E-01
       -1   -1    0    0    0  501  0.00000000000E+00  0.00000000000E+00  0.77370193907E+03  0.77370193908E+03  0.50400001928E-02 0. -1.
        1   -1    0    0  501    0  0.00000000000E+00  0.00000000000E+00 -0.15230958775E+04  0.15230958775E+04  0.50400001928E-02 0.  1.
    10030    2    1    2    0    0  0.00000000000E+00  0.00000000000E+00 -0.74939393843E+03  0.22967978166E+04  0.21711031609E+04 0.  0.
        1    1    3    3  502    0 -0.14461320094E+02  0.10001666181E+04 -0.82087242117E+03  0.12939760143E+04  0.50400001928E-02 0. -1.
       -1    1    3    3    0  502  0.14461320094E+02 -0.10001666181E+04  0.71478482747E+02  0.10028218023E+04  0.50400001928E-02 0.  1.
</event>
<event>
 5   0  0.4174030E-05  0.2172285E+04  0.7818609E-02  0.8530053E-01
       -1   -1    0    0    0  501  0.00000000000E+00  0.00000000000E+00  0.95128512300E+03  0.95128512302E+03  0.50400001928E-02 0.  1.
        1   -1    0    0  501    0  0.00000000000E+00  0.00000000000E+00 -0.12401181264E+04  0.12401181264E+04  0.50400001928E-02 0. -1.
    10030    2    1    2    0    0  0.00000000000E+00  0.00000000000E+00 -0.28883300335E+03  0.21914032494E+04  0.21722853628E+04 0.  0.
        2    1    3    3  502    0 -0.31523621679E+03 -0.53347028937E+03 -0.10443106550E+04  0.12143101606E+04  0.25500000920E-02 0. -1.
       -2    1    3    3    0  502  0.31523621679E+03  0.53347028937E+03  0.75547765164E+03  0.97709308878E+03  0.25500000920E-02 0.  1.
</event>
<event>
 5   0  0.9442578E-05  0.2208378E+04  0.7818609E-02  0.8514949E-01
        2   -1    0    0  501    0  0.00000000000E+00  0.00000000000E+00  0.16822590512E+04  0.16822590512E+04  0.25500000920E-02 0.  1.
       -2   -1    0    0    0  501  0.00000000000E+00  0.00000000000E+00 -0.72475986903E+03  0.72475986903E+03  0.25500000920E-02 0. -1.
    10030    2    1    2    0    0  0.00000000000E+00  0.00000000000E+00  0.95749918215E+03  0.24070189202E+04  0.22083784545E+04 0.  0.
        4    1    3    3  502    0 -0.79193802094E+03 -0.27938933088E+02  0.13168667575E+04  0.15369079617E+04  0.12699999809E+01 0.  1.
       -4    1    3    3    0  502  0.79193802094E+03  0.27938933088E+02 -0.35936757531E+03  0.87011095849E+03  0.12699999809E+01 0. -1.
</event>
<event>
 5   0  0.9254673E-05  0.2220531E+04  0.7818609E-02  0.8509931E-01
        2   -1    0    0  501    0  0.00000000000E+00  0.00000000000E+00  0.12869245974E+04  0.12869245974E+04  0.25500000920E-02 0.  1.
       -2   -1    0    0    0  501  0.00000000000E+00  0.00000000000E+00 -0.95785686669E+03  0.95785686669E+03  0.25500000920E-02 0. -1.
    10030    2    1    2    0    0  0.00000000000E+00  0.00000000000E+00  0.32906773070E+03  0.22447814641E+04  0.22205310739E+04 0.  0.
        2    1    3    3  502    0 -0.46675942770E+02  0.11076919529E+04  0.10447582976E+03  0.11135866851E+04  0.25500000920E-02 0.  1.
       -2    1    3    3    0  502  0.46675942770E+02 -0.11076919529E+04  0.22459190093E+03  0.11311947790E+04  0.25500000920E-02 0. -1.
</event>
<event>
 5   0  0.9442578E-05  0.2169248E+04  0.7818609E-02  0.8531338E-01
       -2   -1    0    0    0  501  0.00000000000E+00  0.00000000000E+00  0.73153641548E+03  0.73153641548E+03  0.25500000920E-02 0.  1.
        2   -1    0    0  501    0  0.00000000000E+00  0.00000000000E+00 -0.16081354596E+04  0.16081354596E+04  0.25500000920E-02 0. -1.
    10030    2    1    2    0    0  0.00000000000E+00  0.00000000000E+00 -0.87659904413E+03  0.23396718751E+04  0.21692483949E+04 0.  0.
        4    1    3    3  502    0  0.72351353008E+03  0.36982721700E+03  0.33658955919E+03  0.87951017214E+03  0.12699999809E+01 0.  1.
       -4    1    3    3    0  502 -0.72351353008E+03 -0.36982721700E+03 -0.12131886033E+04  0.14601617029E+04  0.12699999809E+01 0. -1.
</event>
<event>
 5   0  0.4174030E-05  0.2227101E+04  0.7818609E-02  0.8507232E-01
       -1   -1    0    0    0  501  0.00000000000E+00  0.00000000000E+00  0.96918267032E+03  0.96918267033E+03  0.50400001928E-02 0. -1.
        1   -1    0    0  501    0  0.00000000000E+00  0.00000000000E+00 -0.12794232452E+04  0.12794232452E+04  0.50400001928E-02 0.  1.
    10030    2    1    2    0    0  0.00000000000E+00  0.00000000000E+00 -0.31024057484E+03  0.22486059155E+04  0.22271011088E+04 0.  0.
        2    1    3    3  502    0  0.54963928766E+03  0.53817272978E+03  0.65780112732E+03  0.10121440395E+04  0.25500000920E-02 0. -1.
       -2    1    3    3    0  502 -0.54963928766E+03 -0.53817272978E+03 -0.96804170216E+03  0.12364618760E+04  0.25500000920E-02 0.  1.
</event>
<event>
 5   0  0.9457742E-05  0.1941849E+04  0.7818609E-02  0.8634301E-01
        2   -1    0    0  501    0  0.00000000000E+00  0.00000000000E+00  0.96627035572E+03  0.96627035573E+03  0.25500000920E-02 0. -1.
       -2   -1    0    0    0  501  0.00000000000E+00  0.00000000000E+00 -0.97560120442E+03  0.97560120442E+03  0.25500000920E-02 0.  1.
    10030    2    1    2    0    0  0.00000000000E+00  0.00000000000E+00 -0.93308486914E+01  0.19418715601E+04  0.19418491423E+04 0.  0.
        1    1    3    3  502    0 -0.60116473904E+02  0.92041273148E+03  0.29852273260E+03  0.96947893665E+03  0.50400001928E-02 0.  1.
       -1    1    3    3    0  502  0.60116473904E+02 -0.92041273148E+03 -0.30785358129E+03  0.97239262350E+03  0.50400001928E-02 0. -1.
</event>
<event>
 5   0  0.4133418E-05  0.2154035E+04  0.7818609E-02  0.8537807E-01
       -1   -1    0    0    0  501  0.00000000000E+00  0.00000000000E+00  0.53673329426E+03  0.53673329428E+03  0.50400001928E-02 0. -1.
        1   -1    0    0  501    0  0.00000000000E+00  0.00000000000E+00 -0.21611603815E+04  0.21611603815E+04  0.50400001928E-02 0.  1.
    10030    2    1    2    0    0  0.00000000000E+00  0.00000000000E+00 -0.16244270873E+04  0.26978936758E+04  0.21540350332E+04 0.  0.
        4    1    3    3  502    0 -0.83179351236E+03 -0.67897954556E+03 -0.91753727404E+03  0.14123632439E+04  0.12699999809E+01 0.  1.
       -4    1    3    3    0  502  0.83179351236E+03  0.67897954556E+03 -0.70688981323E+03  0.12855304319E+04  0.12699999809E+01 0. -1.
</event>
<event>
 5   0  0.4174030E-05  0.2193035E+04  0.7818609E-02  0.8521333E-01
       -1   -1    0    0    0  501  0.00000000000E+00  0.00000000000E+00  0.51848495842E+03  0.51848495845E+03  0.50400001928E-02 0. -1.
        1   -1    0    0  501    0  0.00000000000E+00  0.00000000000E+00 -0.23189681045E+04  0.23189681046E+04  0.50400001928E-02 0.  1.
    10030    2    1    2    0    0  0.00000000000E+00  0.00000000000E+00 -0.18004831461E+04  0.28374530630E+04  0.21930345016E+04 0.  0.
        2    1    3    3  502    0  0.56759953034E+03 -0.90029130350E+03 -0.12417204208E+04  0.16354092031E+04  0.25500000920E-02 0.  1.
       -2    1    3    3    0  502 -0.56759953034E+03  0.90029130350E+03 -0.55876272532E+03  0.12020438599E+04  0.25500000920E-02 0. -1.
</event>
<event>
 5   0  0.4063293E-05  0.2198301E+04  0.7818609E-02  0.8519136E-01
        1   -1    0    0  501    0  0.00000000000E+00  0.00000000000E+00  0.15688269948E+04  0.15688269948E+04  0.50400001928E-02 0. -1.
       -1   -1    0    0    0  501  0.00000000000E+00  0.00000000000E+00 -0.77008605107E+03  0.77008605108E+03  0.50400001928E-02 0.  1.
    10030    2    1    2    0    0  0.00000000000E+00  0.00000000000E+00  0.79874094373E+03  0.23389130459E+04  0.21983009669E+04 0.  0.
        1    1    3    3  502    0  0.15708328285E+03 -0.18334530247E+03  0.15402659125E+04  0.15590733591E+04  0.50400001928E-02 0. -1.
       -1    1    3    3    0  502 -0.15708328285E+03  0.18334530247E+03 -0.74152496881E+03  0.77983968679E+03  0.50400001928E-02 0.  1.
</event>
<event>
 5   0  0.9457742E-05  0.2210811E+04  0.7818609E-02  0.8513942E-01
       -2   -1    0    0    0  501  0.00000000000E+00  0.00000000000E+00  0.97234975759E+03  0.97234975759E+03  0.25500000920E-02 0.  1.
        2   -1    0    0  501    0  0.00000000000E+00  0.00000000000E+00 -0.12566679715E+04  0.12566679715E+04  0.25500000920E-02 0. -1.
    10030    2    1    2    0    0  0.00000000000E+00  0.00000000000E+00 -0.28431821386E+03  0.22290177290E+04  0.22108105278E+04 0.  0.
        1    1    3    3  502    0  0.33451276781E+03  0.10036767149E+04  0.18087782294E+03  0.10733044893E+04  0.50400001928E-02 0.  1.
       -1    1    3    3    0  502 -0.33451276781E+03 -0.10036767149E+04 -0.46519603680E+03  0.11557132398E+04  0.50400001928E-02 0. -1.
</event>
<event>
 5   0  0.4188865E-05  0.2187995E+04  0.7818609E-02  0.8523442E-01
       -1   -1    0    0    0  501  0.00000000000E+00  0.00000000000E+00  0.10236210938E+04  0.10236210938E+04  0.50400001928E-02 0. -1.
        1   -1    0    0  501    0  0.00000000000E+00  0.00000000000E+00 -0.11692120124E+04  0.11692120124E+04  0.50400001928E-02 0.  1.
    10030    2    1    2    0    0  0.00000000000E+00  0.00000000000E+00 -0.14559091858E+03  0.21928331062E+04  0.21879945878E+04 0.  0.
        3    1    3    3  502    0 -0.77945429189E+03 -0.63770042637E+03 -0.50108020244E+03  0.11248520820E+04  0.10100000352E+00 0.  1.
       -3    1    3    3    0  502  0.77945429189E+03  0.63770042637E+03  0.35548928385E+03  0.10679810242E+04  0.10100000352E+00 0. -1.
</event>
<event>
 5   0  0.4174075E-05  0.2183302E+04  0.7818609E-02  0.8525410E-01
        1   -1    0    0  501    0  0.00000000000E+00  0.00000000000E+00  0.15617075139E+04  0.15617075140E+04  0.50400001928E-02 0. -1.
       -1   -1    0    0    0  501  0.00000000000E+00  0.00000000000E+00 -0.76307651457E+03  0.76307651459E+03  0.50400001928E-02 0.  1.
    10030    2    1    2    0    0  0.00000000000E+00  0.00000000000E+00  0.79863099938E+03  0.23247840285E+04  0.21833023854E+04 0.  0.
        5    1    3    3  502    0  0.64855601649E+03  0.83934523631E+03  0.12461543878E+03  0.10680245455E+04  0.46999998093E+01 0.  1.
       -5    1    3    3    0  502 -0.64855601649E+03 -0.83934523631E+03  0.67401556060E+03  0.12567594830E+04  0.46999998093E+01 0. -1.
</event>
<event>
 5   0  0.4188865E-05  0.2166119E+04  0.7818609E-02  0.8532664E-01
        1   -1    0    0  501    0  0.00000000000E+00  0.00000000000E+00  0.29023255012E+04  0.29023255012E+04  0.50400001928E-02 0. -1.
       -1   -1    0    0    0  501  0.00000000000E+00  0.00000000000E+00 -0.40416493700E+03  0.40416493703E+03  0.50400001928E-02 0.  1.
    10030    2    1    2    0    0  0.00000000000E+00  0.00000000000E+00  0.24981605642E+04  0.33064904382E+04  0.21661192981E+04 0.  0.
        3    1    3    3  502    0 -0.19292984553E+03 -0.10641154964E+04  0.11593629963E+04  0.15854609053E+04  0.10100000352E+00 0.  1.
       -3    1    3    3    0  502  0.19292984553E+03  0.10641154964E+04  0.13387975679E+04  0.17210295329E+04  0.10100000352E+00 0. -1.
</event>
<event>
 5   0  0.9254673E-05  0.2186982E+04  0.7818609E-02  0.8523866E-01
       -2   -1    0    0    0  501  0.00000000000E+00  0.00000000000E+00  0.51844232789E+03  0.51844232789E+03  0.25500000920E-02 0. -1.
        2   -1    0    0  501    0  0.00000000000E+00  0.00000000000E+00 -0.23063742344E+04  0.23063742344E+04  0.25500000920E-02 0.  1.
    10030    2    1    2    0    0  0.00000000000E+00  0.00000000000E+00 -0.17879319065E+04  0.28248165623E+04  0.21869815061E+04 0.  0.
        2    1    3    3  502    0 -0.48011291802E+03  0.85958585547E+03 -0.15084521670E+04  0.18013395563E+04  0.25500000920E-02 0.  1.
       -2    1    3    3    0  502  0.48011291802E+03 -0.85958585547E+03 -0.27947973952E+03  0.10234770060E+04  0.25500000920E-02 0. -1.
</event>
<event>
 5   0  0.9254673E-05  0.2218954E+04  0.7818609E-02  0.8510580E-01
       -2   -1    0    0    0  501  0.00000000000E+00  0.00000000000E+00  0.99030461142E+03  0.99030461142E+03  0.25500000920E-02 0. -1.
        2   -1    0    0  501    0  0.00000000000E+00  0.00000000000E+00 -0.12429904987E+04  0.12429904988E+04  0.25500000920E-02 0.  1.
    10030    2    1    2    0    0  0.00000000000E+00  0.00000000000E+00 -0.25268588733E+03  0.22332951102E+04  0.22189540084E+04 0.  0.
        2    1    3    3  502    0 -0.10107549144E+04  0.34036649887E+02  0.33284606107E+03  0.10646926743E+04  0.25500000920E-02 0. -1.
       -2    1    3    3    0  502  0.10107549144E+04 -0.34036649887E+02 -0.58553194840E+03  0.11686024358E+04  0.25500000920E-02 0.  1.
</event>
<event>
 5   0  0.9442578E-05  0.2166442E+04  0.7818609E-02  0.8532527E-01
       -2   -1    0    0    0  501  0.00000000000E+00  0.00000000000E+00  0.89389370657E+03  0.89389370657E+03  0.25500000920E-02 0. -1.
        2   -1    0    0  501    0  0.00000000000E+00  0.00000000000E+00 -0.13126481997E+04  0.13126481997E+04  0.25500000920E-02 0.  1.
    10030    2    1    2    0    0  0.00000000000E+00  0.00000000000E+00 -0.41875449311E+03  0.22065419062E+04  0.21664422121E+04 0.  0.
        4    1    3    3  502    0  0.65241197576E+03  0.55243363825E+03 -0.88692878855E+03  0.12318557544E+04  0.12699999809E+01 0.  1.
       -4    1    3    3    0  502 -0.65241197576E+03 -0.55243363825E+03  0.46817429544E+03  0.97468615185E+03  0.12699999809E+01 0. -1.
</event>
<event>
 5   0  0.3283125E-05  0.2185510E+04  0.7818609E-02  0.8524483E-01
       -3   -1    0    0    0  501  0.00000000000E+00  0.00000000000E+00  0.12597527967E+04  0.12597528007E+04  0.10100000352E+00 0.  1.
        3   -1    0    0  501    0  0.00000000000E+00  0.00000000000E+00 -0.94789514765E+03  0.94789515303E+03  0.10100000352E+00 0. -1.
    10030    2    1    2    0    0  0.00000000000E+00  0.00000000000E+00  0.31185764901E+03  0.22076479537E+04  0.21855100765E+04 0.  0.
        4    1    3    3  502    0 -0.90678425626E+03 -0.36846328087E+03  0.64674058388E+03  0.11731572241E+04  0.12699999809E+01 0.  1.
       -4    1    3    3    0  502  0.90678425626E+03  0.36846328087E+03 -0.33488293486E+03  0.10344907296E+04  0.12699999809E+01 0. -1.
</event>
<event>
 5   0  0.4188865E-05  0.2194419E+04  0.7818609E-02  0.8520755E-01
        1   -1    0    0  501    0  0.00000000000E+00  0.00000000000E+00  0.14848514923E+04  0.14848514923E+04  0.50400001928E-02 0. -1.
       -1   -1    0    0    0  501  0.00000000000E+00  0.00000000000E+00 -0.81076710844E+03  0.81076710846E+03  0.50400001928E-02 0.  1.
    10030    2    1    2    0    0  0.00000000000E+00  0.00000000000E+00  0.67408438388E+03  0.22956186008E+04  0.21944190584E+04 0.  0.
        3    1    3    3  502    0  0.73552956947E+03  0.34285222083E+03 -0.43546908087E+03  0.92096944764E+03  0.10100000352E+00 0.  1.
       -3    1    3    3    0  502 -0.73552956947E+03 -0.34285222083E+03  0.11095534648E+04  0.13746491531E+04  0.10100000352E+00 0. -1.
</event>
<event>
 5   0  0.4133418E-05  0.2161773E+04  0.7818609E-02  0.8534510E-01
       -1   -1    0    0    0  501  0.00000000000E+00  0.00000000000E+00  0.95666372618E+03  0.95666372619E+03  0.50400001928E-02 0.  1.
        1   -1    0    0  501    0  0.00000000000E+00  0.00000000000E+00 -0.12212392545E+04  0.12212392545E+04  0.50400001928E-02 0. -1.
    10030    2    1    2    0    0  0.00000000000E+00  0.00000000000E+00 -0.26457552831E+03  0.21779029807E+04  0.21617726946E+04 0.  0.
        4    1    3    3  502    0 -0.40114537612E+02 -0.39660143421E+03 -0.11444792805E+04  0.12119143163E+04  0.12699999809E+01 0. -1.
       -4    1    3    3    0  502  0.40114537612E+02  0.39660143421E+03  0.87990375216E+03  0.96598866438E+03  0.12699999809E+01 0.  1.
</event>
<event>
 5   0  0.9938176E-05  0.2183234E+04  0.7818609E-02  0.8525439E-01
       -2   -1    0    0    0  501  0.00000000000E+00  0.00000000000E+00  0.61282884995E+03  0.61282884996E+03  0.25500000920E-02 0.  1.
        2   -1    0    0  501    0  0.00000000000E+00  0.00000000000E+00 -0.19444698690E+04  0.19444698690E+04  0.25500000920E-02 0. -1.
    10030    2    1    2    0    0  0.00000000000E+00  0.00000000000E+00 -0.13316410191E+04  0.25572987190E+04  0.21832335959E+04 0.  0.
        5    1    3    3  502    0  0.30229229968E+03  0.50368461964E+03  0.41188843275E+03  0.71746289210E+03  0.46999998093E+01 0.  1.
       -5    1    3    3    0  502 -0.30229229968E+03 -0.50368461964E+03 -0.17435294518E+04  0.18398358269E+04  0.46999998093E+01 0. -1.
</event>
<event>
 5   0  0.4188865E-05  0.2221924E+04  0.7818609E-02  0.8509358E-01
       -1   -1    0    0    0  501  0.00000000000E+00  0.00000000000E+00  0.79114718281E+03  0.79114718283E+03  0.50400001928E-02 0.  1.
        1   -1    0    0  501    0  0.00000000000E+00  0.00000000000E+00 -0.15600600280E+04  0.15600600280E+04  0.50400001928E-02 0. -1.
    10030    2    1    2    0    0  0.00000000000E+00  0.00000000000E+00 -0.76891284517E+03  0.23512072108E+04  0.22219244777E+04 0.  0.
        3    1    3    3  502    0 -0.45703355327E+03 -0.88508037960E+03 -0.90500401953E+03  0.13458377438E+04  0.10100000352E+00 0. -1.
       -3    1    3    3    0  502  0.45703355327E+03  0.88508037960E+03  0.13609117436E+03  0.10053694670E+04  0.10100000352E+00 0.  1.
</event>
<event>
 5   0  0.4174030E-05  0.2198582E+04  0.7818609E-02  0.8519018E-01
        1   -1    0    0  501    0  0.00000000000E+00  0.00000000000E+00  0.18433310929E+04  0.18433310929E+04  0.50400001928E-02 0.  1.
       -1   -1    0    0    0  501  0.00000000000E+00  0.00000000000E+00 -0.65557452964E+03  0.65557452966E+03  0.50400001928E-02 0. -1.
    10030    2    1    2    0    0  0.00000000000E+00  0.00000000000E+00  0.11877565632E+04  0.24989056225E+04  0.21985821924E+04 0.  0.
        2    1    3    3  502    0  0.24247837678E+03 -0.10561133430E+04  0.38347007979E+03  0.11494435430E+04  0.25500000920E-02 0. -1.
       -2    1    3    3    0  502 -0.24247837678E+03  0.10561133430E+04  0.80428648343E+03  0.13494620795E+04  0.25500000920E-02 0.  1.
</event>
<event>
 5   0  0.9179618E-05  0.2234542E+04  0.7818609E-02  0.8504187E-01
       -2   -1    0    0    0  501  0.00000000000E+00  0.00000000000E+00  0.69037144412E+03  0.69037144413E+03  0.25500000920E-02 0. -1.
        2   -1    0    0  501    0  0.00000000000E+00  0.00000000000E+00 -0.18081492998E+04  0.18081492998E+04  0.25500000920E-02 0.  1.
    10030    2    1    2    0    0  0.00000000000E+00  0.00000000000E+00 -0.11177778557E+04  0.24985207439E+04  0.22345421395E+04 0.  0.
        3    1    3    3  502    0  0.11109956448E+04  0.11216296937E+03 -0.51701063283E+03  0.12305250339E+04  0.10100000352E+00 0.  1.
       -3    1    3    3    0  502 -0.11109956448E+04 -0.11216296937E+03 -0.60076722283E+03  0.12679957100E+04  0.10100000352E+00 0. -1.
</event>
<event>
 5   0  0.4188865E-05  0.2178419E+04  0.7818609E-02  0.8527465E-01
        1   -1    0    0  501    0  0.00000000000E+00  0.00000000000E+00  0.12049263623E+04  0.12049263623E+04  0.50400001928E-02 0.  1.
       -1   -1    0    0    0  501  0.00000000000E+00  0.00000000000E+00 -0.98460564341E+03  0.98460564342E+03  0.50400001928E-02 0. -1.
    10030    2    1    2    0    0  0.00000000000E+00  0.00000000000E+00  0.22032071888E+03  0.21895320057E+04  0.21784189645E+04 0.  0.
        3    1    3    3  502    0 -0.28397603310E+02 -0.20276770558E+03  0.11854103853E+04  0.12029625755E+04  0.10100000352E+00 0.  1.
       -3    1    3    3    0  502  0.28397603310E+02  0.20276770558E+03 -0.96508966639E+03  0.98656943024E+03  0.10100000352E+00 0. -1.
</event>
<event>
 5   0  0.4188865E-05  0.1590909E+04  0.7818609E-02  0.8826153E-01
       -1   -1    0    0    0  501  0.00000000000E+00  0.00000000000E+00  0.70187876759E+03  0.70187876761E+03  0.50400001928E-02 0.  1.
        1   -1    0    0  501    0  0.00000000000E+00  0.00000000000E+00 -0.90150578087E+03  0.90150578088E+03  0.50400001928E-02 0. -1.
    10030    2    1    2    0    0  0.00000000000E+00  0.00000000000E+00 -0.19962701328E+03  0.16033845485E+04  0.15909088805E+04 0.  0.
        3    1    3    3  502    0  0.73278573957E+03  0.27783214710E+03 -0.23719870667E+03  0.81879721465E+03  0.10100000352E+00 0. -1.
       -3    1    3    3    0  502 -0.73278573957E+03 -0.27783214710E+03  0.37571693392E+02  0.78458733384E+03  0.10100000352E+00 0.  1.
</event>
<event>
 5   0  0.4188865E-05  0.2217606E+04  0.7818609E-02  0.8511136E-01
       -1   -1    0    0    0  501  0.00000000000E+00  0.00000000000E+00  0.83258823210E+03  0.83258823211E+03  0.50400001928E-02 0.  1.
        1   -1    0    0  501    0  0.00000000000E+00  0.00000000000E+00 -0.14766534956E+04  0.14766534956E+04  0.50400001928E-02 0. -1.
    10030    2    1    2    0    0  0.00000000000E+00  0.00000000000E+00 -0.64406526349E+03  0.23092417277E+04  0.22176062079E+04 0.  0.
        3    1    3    3  502    0  0.27724183817E+03  0.30771887492E+03  0.74900640430E+03  0.85589984618E+03  0.10100000352E+00 0.  1.
       -3    1    3    3    0  502 -0.27724183817E+03 -0.30771887492E+03 -0.13930716678E+04  0.14533418815E+04  0.10100000352E+00 0. -1.
</event>
<event>
 5   0  0.4174030E-05  0.2187670E+04  0.7818609E-02  0.8523578E-01
       -1   -1    0    0    0  501  0.00000000000E+00  0.00000000000E+00  0.14124842120E+04  0.14124842120E+04  0.50400001928E-02 0. -1.
        1   -1    0    0  501    0  0.00000000000E+00  0.00000000000E+00 -0.84707158311E+03  0.84707158312E+03  0.50400001928E-02 0.  1.
    10030    2    1    2    0    0  0.00000000000E+00  0.00000000000E+00  0.56541262887E+03  0.22595557951E+04  0.21876702106E+04 0.  0.
        2    1    3    3  502    0  0.51679862543E+02  0.29133676281E+03  0.13703653155E+04  0.14019447263E+04  0.25500000920E-02 0. -1.
       -2    1    3    3    0  502 -0.51679862543E+02 -0.29133676281E+03 -0.80495268667E+03  0.85761106881E+03  0.25500000920E-02 0.  1.
</event>
<event>
 5   0  0.4133418E-05  0.2193714E+04  0.7818609E-02  0.8521049E-01
        1   -1    0    0  501    0  0.00000000000E+00  0.00000000000E+00  0.13650294854E+04  0.13650294854E+04  0.50400001928E-02 0.  1.
       -1   -1    0    0    0  501  0.00000000000E+00  0.00000000000E+00 -0.88136904979E+03  0.88136904981E+03  0.50400001928E-02 0. -1.
    10030    2    1    2    0    0  0.00000000000E+00  0.00000000000E+00  0.48366043562E+03  0.22463985352E+04  0.21937135096E+04 0.  0.
        4    1    3    3  502    0  0.97806457790E+03 -0.14937934509E+03  0.72666560091E+03  0.12275866632E+04  0.12699999809E+01 0.  1.
       -4    1    3    3    0  502 -0.97806457790E+03  0.14937934509E+03 -0.24300516528E+03  0.10188118720E+04  0.12699999809E+01 0. -1.
</event>
<event>
 5   0  0.4133418E-05  0.1973270E+04  0.7818609E-02  0.8619221E-01
        1   -1    0    0  501    0  0.00000000000E+00  0.00000000000E+00  0.19567758042E+04  0.19567758042E+04  0.50400001928E-02 0. -1.
       -1   -1    0    0    0  501  0.00000000000E+00  0.00000000000E+00 -0.49747596963E+03  0.49747596966E+03  0.50400001928E-02 0.  1.
    10030    2    1    2    0    0  0.00000000000E+00  0.00000000000E+00  0.14592998345E+04  0.24542517738E+04  0.19732703216E+04 0.  0.
        4    1    3    3  502    0 -0.73485257769E+03  0.37068544090E+02 -0.87886378245E+02  0.74101822938E+03  0.12699999809E+01 0.  1.
       -4    1    3    3    0  502  0.73485257769E+03 -0.37068544090E+02  0.15471862128E+04  0.17132335444E+04  0.12699999809E+01 0. -1.
</event>
<event>
 5   0  0.9179618E-05  0.2179561E+04  0.7818609E-02  0.8526984E-01
       -2   -1    0    0    0  501  0.00000000000E+00  0.00000000000E+00  0.61806116811E+03  0.61806116812E+03  0.25500000920E-02 0. -1.
        2   -1    0    0  501    0  0.00000000000E+00  0.00000000000E+00 -0.19215271222E+04  0.19215271222E+04  0.25500000920E-02 0.  1.
    10030    2    1    2    0    0  0.00000000000E+00  0.00000000000E+00 -0.13034659541E+04  0.25395882904E+04  0.21795607794E+04 0.  0.
        3    1    3    3  502    0 -0.54919907938E+03 -0.16829726335E+02 -0.17483176458E+04  0.18326258400E+04  0.10100000352E+00 0.  1.
       -3    1    3    3    0  502  0.54919907938E+03  0.16829726335E+02  0.44485169168E+03  0.70696245039E+03  0.10100000352E+00 0. -1.
</event>
<event>
 5   0  0.9442578E-05  0.2138681E+04  0.7818609E-02  0.8544393E-01
        2   -1    0    0  501    0  0.00000000000E+00  0.00000000000E+00  0.75472633252E+03  0.75472633252E+03  0.25500000920E-02 0.  1.
       -2   -1    0    0    0  501  0.00000000000E+00  0.00000000000E+00 -0.15151042298E+04  0.15151042298E+04  0.25500000920E-02 0. -1.
    10030    2    1    2    0    0  0.00000000000E+00  0.00000000000E+00 -0.76037789725E+03  0.22698305623E+04  0.21386809568E+04 0.  0.
        4    1    3    3  502    0  0.63104652223E+03  0.78713359966E+03 -0.39228540891E+01  0.10088686825E+04  0.12699999809E+01 0.  1.
       -4    1    3    3    0  502 -0.63104652223E+03 -0.78713359966E+03 -0.75645504316E+03  0.12609618797E+04  0.12699999809E+01 0. -1.
</event>
<event>
 5   0  0.9442578E-05  0.2220402E+04  0.7818609E-02  0.8509984E-01
        2   -1    0    0  501    0  0.00000000000E+00  0.00000000000E+00  0.24628170398E+04  0.24628170398E+04  0.25500000920E-02 0.  1.
       -2   -1    0    0    0  501  0.00000000000E+00  0.00000000000E+00 -0.50046208433E+03  0.50046208434E+03  0.25500000920E-02 0. -1.
    10030    2    1    2    0    0  0.00000000000E+00  0.00000000000E+00  0.19623549554E+04  0.29632791241E+04  0.22204022600E+04 0.  0.
        4    1    3    3  502    0 -0.77541410123E+03 -0.23848291971E+03  0.19926394393E+04  0.21514540849E+04  0.12699999809E+01 0.  1.
       -4    1    3    3    0  502  0.77541410123E+03  0.23848291971E+03 -0.30284483904E+02  0.81182503919E+03  0.12699999809E+01 0. -1.
</event>
<event>
 5   0  0.4174075E-05  0.2219803E+04  0.7818609E-02  0.8510230E-01
        1   -1    0    0  501    0  0.00000000000E+00  0.00000000000E+00  0.21266137658E+04  0.21266137658E+04  0.50400001928E-02 0. -1.
       -1   -1    0    0    0  501  0.00000000000E+00  0.00000000000E+00 -0.57926921198E+03  0.57926921201E+03  0.50400001928E-02 0.  1.
    10030    2    1    2    0    0  0.00000000000E+00  0.00000000000E+00  0.15473445538E+04  0.27058829778E+04  0.22198034871E+04 0.  0.
        5    1    3    3  502    0 -0.65452484739E+03 -0.69440085039E+03  0.82755350266E+02  0.95784437925E+03  0.46999998093E+01 0.  1.
       -5    1    3    3    0  502  0.65452484739E+03  0.69440085039E+03  0.14645892035E+04  0.17480385985E+04  0.46999998093E+01 0. -1.
</event>
<event>
 5   0  0.4188865E-05  0.2179215E+04  0.7818609E-02  0.8527129E-01
        1   -1    0    0  501    0  0.00000000000E+00  0.00000000000E+00  0.10221436123E+04  0.10221436123E+04  0.50400001928E-02 0.  1.
       -1   -1    0    0    0  501  0.00000000000E+00  0.00000000000E+00 -0.11615239863E+04  0.11615239864E+04  0.50400001928E-02 0. -1.
    10030    2    1    2    0    0  0.00000000000E+00  0.00000000000E+00 -0.13938037402E+03  0.21836675987E+04  0.21792148341E+04 0.  0.
        3    1    3    3  502    0 -0.33871642638E+03  0.98907268628E+03 -0.37732027836E+03  0.11114693873E+04  0.10100000352E+00 0. -1.
       -3    1    3    3    0  502  0.33871642638E+03 -0.98907268628E+03  0.23793990434E+03  0.10721982114E+04  0.10100000352E+00 0.  1.
</event>
<event>
 5   0  0.9442578E-05  0.2212974E+04  0.7818609E-02  0.8513047E-01
        2   -1    0    0  501    0  0.00000000000E+00  0.00000000000E+00  0.81963108373E+03  0.81963108374E+03  0.25500000920E-02 0.  1.
       -2   -1    0    0    0  501  0.00000000000E+00  0.00000000000E+00 -0.14937371657E+04  0.14937371657E+04  0.25500000920E-02 0. -1.
    10030    2    1    2    0    0  0.00000000000E+00  0.00000000000E+00 -0.67410608199E+03  0.23133682495E+04  0.22129739374E+04 0.  0.
        4    1    3    3  502    0 -0.14033323148E+03  0.36656136471E+03  0.74440910569E+03  0.84155046164E+03  0.12699999809E+01 0.  1.
       -4    1    3    3    0  502  0.14033323148E+03 -0.36656136471E+03 -0.14185151877E+04  0.14718177878E+04  0.12699999809E+01 0. -1.
</event>
<event>
 5   0  0.9938176E-05  0.2177215E+04  0.7818609E-02  0.8527972E-01
       -2   -1    0    0    0  501  0.00000000000E+00  0.00000000000E+00  0.91472218615E+03  0.91472218616E+03  0.25500000920E-02 0. -1.
        2   -1    0    0  501    0  0.00000000000E+00  0.00000000000E+00 -0.12955477219E+04  0.12955477219E+04  0.25500000920E-02 0.  1.
    10030    2    1    2    0    0  0.00000000000E+00  0.00000000000E+00 -0.38082553575E+03  0.22102699081E+04  0.21772149590E+04 0.  0.
        5    1    3    3  502    0  0.84962479723E+03 -0.31940423438E+03 -0.80050501078E+03  0.12102527518E+04  0.46999998093E+01 0.  1.
       -5    1    3    3    0  502 -0.84962479723E+03  0.31940423438E+03  0.41967947504E+03  0.10000171562E+04  0.46999998093E+01 0. -1.
</event>
<event>
 5   0  0.4174075E-05  0.2229840E+04  0.7818609E-02  0.8506110E-01
       -1   -1    0    0    0  501  0.00000000000E+00  0.00000000000E+00  0.82799419627E+03  0.82799419628E+03  0.50400001928E-02 0.  1.
        1   -1    0    0  501    0  0.00000000000E+00  0.00000000000E+00 -0.15012745606E+04  0.15012745606E+04  0.50400001928E-02 0. -1.
    10030    2    1    2    0    0  0.00000000000E+00  0.00000000000E+00 -0.67328036433E+03  0.23292687569E+04  0.22298400151E+04 0.  0.
        5    1    3    3  502    0 -0.31090075936E+03  0.37093456354E+03 -0.13858022457E+04  0.14678970287E+04  0.46999998093E+01 0. -1.
       -5    1    3    3    0  502  0.31090075936E+03 -0.37093456354E+03  0.71252188142E+03  0.86137172817E+03  0.46999998093E+01 0.  1.
</event>
<event>
 5   0  0.4188865E-05  0.2204051E+04  0.7818609E-02  0.8516744E-01
        1   -1    0    0  501    0  0.00000000000E+00  0.00000000000E+00  0.89285486448E+03  0.89285486450E+03  0.50400001928E-02 0. -1.
       -1   -1    0    0    0  501  0.00000000000E+00  0.00000000000E+00 -0.13601994431E+04  0.13601994431E+04  0.50400001928E-02 0.  1.
    10030    2    1    2    0    0  0.00000000000E+00  0.00000000000E+00 -0.46734457859E+03  0.22530543076E+04  0.22040514417E+04 0.  0.
        3    1    3    3  502    0  0.35368173844E+03  0.90901834378E+03  0.29062024608E+03  0.10177746603E+04  0.10100000352E+00 0. -1.
       -3    1    3    3    0  502 -0.35368173844E+03 -0.90901834378E+03 -0.75796482467E+03  0.12352796473E+04  0.10100000352E+00 0.  1.
</event>
<event>
 5   0  0.9254673E-05  0.2192289E+04  0.7818609E-02  0.8521644E-01
        2   -1    0    0  501    0  0.00000000000E+00  0.00000000000E+00  0.15573074680E+04  0.15573074680E+04  0.25500000920E-02 0.  1.
       -2   -1    0    0    0  501  0.00000000000E+00  0.00000000000E+00 -0.77154518282E+03  0.77154518282E+03  0.25500000920E-02 0. -1.
    10030    2    1    2    0    0  0.00000000000E+00  0.00000000000E+00  0.78576228516E+03  0.23288526508E+04  0.21922892830E+04 0.  0.
        2    1    3    3  502    0 -0.27103287746E+03  0.88851636024E+03 -0.22527177079E+03  0.95585956803E+03  0.25500000920E-02 0. -1.
       -2    1    3    3    0  502  0.27103287746E+03 -0.88851636024E+03  0.10110340559E+04  0.13729930828E+04  0.25500000920E-02 0.  1.
</event>
<event>
 5   0  0.9938176E-05  0.2129718E+04  0.7818609E-02  0.8548264E-01
        2   -1    0    0  501    0  0.00000000000E+00  0.00000000000E+00  0.11286782419E+04  0.11286782419E+04  0.25500000920E-02 0.  1.
       -2   -1    0    0    0  501  0.00000000000E+00  0.00000000000E+00 -0.10046484622E+04  0.10046484622E+04  0.25500000920E-02 0. -1.
    10030    2    1    2    0    0  0.00000000000E+00  0.00000000000E+00  0.12402977974E+03  0.21333267042E+04  0.21297181599E+04 0.  0.
        5    1    3    3  502    0 -0.61393248030E+03  0.15474672300E+02 -0.80937298376E+03  0.10160016106E+04  0.46999998093E+01 0. -1.
       -5    1    3    3    0  502  0.61393248030E+03 -0.15474672300E+02  0.93340276350E+03  0.11173250936E+04  0.46999998093E+01 0.  1.
</event>
<event>
 5   0  0.9457742E-05  0.2194949E+04  0.7818609E-02  0.8520533E-01
        2   -1    0    0  501    0  0.00000000000E+00  0.00000000000E+00  0.16624056132E+04  0.16624056132E+04  0.25500000920E-02 0.  1.
       -2   -1    0    0    0  501  0.00000000000E+00  0.00000000000E+00 -0.72452274571E+03  0.72452274571E+03  0.25500000920E-02 0. -1.
    10030    2    1    2    0    0  0.00000000000E+00  0.00000000000E+00  0.93788286753E+03  0.23869283589E+04  0.21949493656E+04 0.  0.
        1    1    3    3  502    0 -0.38662540677E+03 -0.10270517529E+04  0.45625155739E+03  0.11884780149E+04  0.50400001928E-02 0. -1.
       -1    1    3    3    0  502  0.38662540677E+03  0.10270517529E+04  0.48163131013E+03  0.11984503441E+04  0.50400001928E-02 0.  1.
</event>
<event>
 5   0  0.9442578E-05  0.2193392E+04  0.7818609E-02  0.8521184E-01
        2   -1    0    0  501    0  0.00000000000E+00  0.00000000000E+00  0.72618263882E+03  0.72618263882E+03  0.25500000920E-02 0. -1.
       -2   -1    0    0    0  501  0.00000000000E+00  0.00000000000E+00 -0.16562528100E+04  0.16562528100E+04  0.25500000920E-02 0.  1.
    10030    2    1    2    0    0  0.00000000000E+00  0.00000000000E+00 -0.93007017120E+03  0.23824354488E+04  0.21933919268E+04 0.  0.
        4    1    3    3  502    0  0.52820426163E+03 -0.80206898168E+03 -0.10402287100E+04  0.14157654380E+04  0.12699999809E+01 0.  1.
       -4    1    3    3    0  502 -0.52820426163E+03  0.80206898168E+03  0.11015853876E+03  0.96667001088E+03  0.12699999809E+01 0. -1.
</event>
<event>
 5   0  0.9938176E-05  0.2197946E+04  0.7818609E-02  0.8519283E-01
       -2   -1    0    0    0  501  0.00000000000E+00  0.00000000000E+00  0.62638066707E+03  0.62638066707E+03  0.25500000920E-02 0. -1.
        2   -1    0    0  501    0  0.00000000000E+00  0.00000000000E+00 -0.19281273855E+04  0.19281273855E+04  0.25500000920E-02 0.  1.
    10030    2    1    2    0    0  0.00000000000E+00  0.00000000000E+00 -0.13017467184E+04  0.25545080525E+04  0.21979460575E+04 0.  0.
        5    1    3    3  502    0 -0.65796821913E+03 -0.40519558456E+02  0.37106265338E+03  0.75648766992E+03  0.46999998093E+01 0. -1.
       -5    1    3    3    0  502  0.65796821913E+03  0.40519558456E+02 -0.16728093718E+04  0.17980203826E+04  0.46999998093E+01 0.  1.
</event>
<event>
 5   0  0.9179618E-05  0.2120111E+04  0.7818609E-02  0.8552436E-01
        2   -1    0    0  501    0  0.00000000000E+00  0.00000000000E+00  0.37694200862E+03  0.37694200863E+03  0.25500000920E-02 0.  1.
       -2   -1    0    0    0  501  0.00000000000E+00  0.00000000000E+00 -0.29811409825E+04  0.29811409825E+04  0.25500000920E-02 0. -1.
    10030    2    1    2    0    0  0.00000000000E+00  0.00000000000E+00 -0.26041989739E+04  0.33580829912E+04  0.21201106292E+04 0.  0.
        3    1    3    3  502    0 -0.51474706874E+03  0.74122925358E+01 -0.27698528019E+04  0.28172866452E+04  0.10100000352E+00 0. -1.
       -3    1    3    3    0  502  0.51474706874E+03 -0.74122925358E+01  0.16565382800E+03  0.54079634595E+03  0.10100000352E+00 0.  1.
</event>
<event>
 5   0  0.4133418E-05  0.2212863E+04  0.7818609E-02  0.8513093E-01
       -1   -1    0    0    0  501  0.00000000000E+00  0.00000000000E+00  0.70210662924E+03  0.70210662926E+03  0.50400001928E-02 0.  1.
        1   -1    0    0  501    0  0.00000000000E+00  0.00000000000E+00 -0.17435964540E+04  0.17435964540E+04  0.50400001928E-02 0. -1.
    10030    2    1    2    0    0  0.00000000000E+00  0.00000000000E+00 -0.10414898248E+04  0.24457030833E+04  0.22128629683E+04 0.  0.
        4    1    3    3  502    0  0.10669705890E+04  0.19313571902E+03 -0.76404768895E+03  0.13264607524E+04  0.12699999809E+01 0. -1.
       -4    1    3    3    0  502 -0.10669705890E+04 -0.19313571902E+03 -0.27744213581E+03  0.11192423309E+04  0.12699999809E+01 0.  1.
</event>
<event>
 5   0  0.9938176E-05  0.2168078E+04  0.7818609E-02  0.8531833E-01
        2   -1    0    0  501    0  0.00000000000E+00  0.00000000000E+00  0.87929289053E+03  0.87929289054E+03  0.25500000920E-02 0. -1.
       -2   -1    0    0    0  501  0.00000000000E+00  0.00000000000E+00 -0.13364611583E+04  0.13364611583E+04  0.25500000920E-02 0.  1.
    10030    2    1    2    0    0  0.00000000000E+00  0.00000000000E+00 -0.45716826776E+03  0.22157540488E+04  0.21680782227E+04 0.  0.
        5    1    3    3  502    0 -0.24125948984E+02 -0.97136783532E+03  0.26258932905E+03  0.10065350360E+04  0.46999998093E+01 0. -1.
       -5    1    3    3    0  502  0.24125948984E+02  0.97136783532E+03 -0.71975759681E+03  0.12092190129E+04  0.46999998093E+01 0.  1.
</event>
<event>
 5   0  0.4174075E-05  0.2191051E+04  0.7818609E-02  0.8522162E-01
        1   -1    0    0  501    0  0.00000000000E+00  0.00000000000E+00  0.14480834863E+04  0.14480834863E+04  0.50400001928E-02 0.  1.
       -1   -1    0    0    0  501  0.00000000000E+00  0.00000000000E+00 -0.82880319007E+03  0.82880319009E+03  0.50400001928E-02 0. -1.
    10030    2    1    2    0    0  0.00000000000E+00  0.00000000000E+00  0.61928029619E+03  0.22768866764E+04  0.21910510838E+04 0.  0.
        5    1    3    3  502    0 -0.10607042086E+04  0.10424921934E+03  0.46351527417E+02  0.10668326354E+04  0.46999998093E+01 0.  1.
       -5    1    3    3    0  502  0.10607042086E+04 -0.10424921934E+03  0.57292876877E+03  0.12100540409E+04  0.46999998093E+01 0. -1.
</event>
<event>
 5   0  0.4174075E-05  0.2197369E+04  0.7818609E-02  0.8519524E-01
        1   -1    0    0  501    0  0.00000000000E+00  0.00000000000E+00  0.18388646137E+04  0.18388646137E+04  0.50400001928E-02 0. -1.
       -1   -1    0    0    0  501  0.00000000000E+00  0.00000000000E+00 -0.65644165412E+03  0.65644165414E+03  0.50400001928E-02 0.  1.
    10030    2    1    2    0    0  0.00000000000E+00  0.00000000000E+00  0.11824229596E+04  0.24953062678E+04  0.21973687253E+04 0.  0.
        5    1    3    3  502    0 -0.10210253904E+03  0.10544836780E+04  0.26067044502E+03  0.10910233392E+04  0.46999998093E+01 0. -1.
       -5    1    3    3    0  502  0.10210253904E+03 -0.10544836780E+04  0.92175251457E+03  0.14042829287E+04  0.46999998093E+01 0.  1.
</event>
<event>
 5   0  0.4174075E-05  0.2186209E+04  0.7818609E-02  0.8524190E-01
        1   -1    0    0  501    0  0.00000000000E+00  0.00000000000E+00  0.85169814500E+03  0.85169814502E+03  0.50400001928E-02 0.  1.
       -1   -1    0    0    0  501  0.00000000000E+00  0.00000000000E+00 -0.14029358299E+04  0.14029358299E+04  0.50400001928E-02 0. -1.
    10030    2    1    2    0    0  0.00000000000E+00  0.00000000000E+00 -0.55123768486E+03  0.22546339749E+04  0.21862093622E+04 0.  0.
        5    1    3    3  502    0 -0.24370990837E+03  0.98345028615E+03 -0.69868597168E+03  0.12307530873E+04  0.46999998093E+01 0. -1.
       -5    1    3    3    0  502  0.24370990837E+03 -0.98345028615E+03  0.14744828682E+03  0.10238808876E+04  0.46999998093E+01 0.  1.
</event>
<event>
 5   0  0.4063293E-05  0.2193830E+04  0.7818609E-02  0.8521001E-01
        1   -1    0    0  501    0  0.00000000000E+00  0.00000000000E+00  0.17065423875E+04  0.17065423875E+04  0.50400001928E-02 0. -1.
       -1   -1    0    0    0  501  0.00000000000E+00  0.00000000000E+00 -0.70506454368E+03  0.70506454370E+03  0.50400001928E-02 0.  1.
    10030    2    1    2    0    0  0.00000000000E+00  0.00000000000E+00  0.10014778438E+04  0.24116069312E+04  0.21938300114E+04 0.  0.
        1    1    3    3  502    0 -0.97463923277E+03 -0.40644585694E+03  0.17445320498E+03  0.10703054655E+04  0.50400001928E-02 0. -1.
       -1    1    3    3    0  502  0.97463923277E+03  0.40644585694E+03  0.82702463884E+03  0.13413014657E+04  0.50400001928E-02 0.  1.
</event>
<event>
 5   0  0.9179618E-05  0.2187177E+04  0.7818609E-02  0.8523784E-01
        2   -1    0    0  501    0  0.00000000000E+00  0.00000000000E+00  0.23153174130E+04  0.23153174130E+04  0.25500000920E-02 0. -1.
       -2   -1    0    0    0  501  0.00000000000E+00  0.00000000000E+00 -0.51653193529E+03  0.51653193530E+03  0.25500000920E-02 0.  1.
    10030    2    1    2    0    0  0.00000000000E+00  0.00000000000E+00  0.17987854777E+04  0.28318493483E+04  0.21871766130E+04 0.  0.
        3    1    3    3  502    0  0.57111466547E+03  0.91512637032E+03  0.11321137224E+04  0.15637486132E+04  0.10100000352E+00 0. -1.
       -3    1    3    3    0  502 -0.57111466547E+03 -0.91512637032E+03  0.66667175536E+03  0.12681007351E+04  0.10100000352E+00 0.  1.
</event>
<event>
 5   0  0.3283125E-05  0.2204000E+04  0.7818609E-02  0.8516765E-01
       -4   -1    0    0    0  501  0.00000000000E+00  0.00000000000E+00  0.15726774633E+04  0.15726779760E+04  0.12699999809E+01 0. -1.
        4   -1    0    0  501    0  0.00000000000E+00  0.00000000000E+00 -0.77218780826E+03  0.77218885263E+03  0.12699999809E+01 0.  1.
    10030    2    1    2    0    0  0.00000000000E+00  0.00000000000E+00  0.80048965500E+03  0.23448668287E+04  0.22040001716E+04 0.  0.
        5    1    3    3  502    0  0.39101536718E+03 -0.12269925352E+03 -0.68808986885E+03  0.80089817193E+03  0.46999998093E+01 0.  1.
       -5    1    3    3    0  502 -0.39101536718E+03  0.12269925352E+03  0.14885795239E+04  0.15439686567E+04  0.46999998093E+01 0. -1.
</event>
<event>
 5   0  0.4133418E-05  0.2231223E+04  0.7818609E-02  0.8505544E-01
       -1   -1    0    0    0  501  0.00000000000E+00  0.00000000000E+00  0.78236767507E+03  0.78236767509E+03  0.50400001928E-02 0.  1.
        1   -1    0    0  501    0  0.00000000000E+00  0.00000000000E+00 -0.15907984458E+04  0.15907984458E+04  0.50400001928E-02 0. -1.
    10030    2    1    2    0    0  0.00000000000E+00  0.00000000000E+00 -0.80843077071E+03  0.23731661209E+04  0.22312232354E+04 0.  0.
        4    1    3    3  502    0  0.96415611392E+03 -0.37880453255E+03  0.36252622989E+02  0.10365354560E+04  0.12699999809E+01 0. -1.
       -4    1    3    3    0  502 -0.96415611392E+03  0.37880453255E+03 -0.84468339370E+03  0.13366306649E+04  0.12699999809E+01 0.  1.
</event>
<event>
 5   0  0.9254673E-05  0.2188212E+04  0.7818609E-02  0.8523350E-01
        2   -1    0    0  501    0  0.00000000000E+00  0.00000000000E+00  0.11562568054E+04  0.11562568054E+04  0.25500000920E-02 0. -1.
       -2   -1    0    0    0  501  0.00000000000E+00  0.00000000000E+00 -0.10352962241E+04  0.10352962241E+04  0.25500000920E-02 0.  1.
    10030    2    1    2    0    0  0.00000000000E+00  0.00000000000E+00  0.12096058126E+03  0.21915530295E+04  0.21882123341E+04 0.  0.
        2    1    3    3  502    0 -0.20149748052E+03  0.21882816773E+03  0.11149795937E+04  0.11539785509E+04  0.25500000920E-02 0. -1.
       -2    1    3    3    0  502  0.20149748052E+03 -0.21882816773E+03 -0.99401901241E+03  0.10375744786E+04  0.25500000920E-02 0.  1.
</event>
<event>
 5   0  0.9254673E-05  0.2169519E+04  0.7818609E-02  0.8531223E-01
       -2   -1    0    0    0  501  0.00000000000E+00  0.00000000000E+00  0.66503228711E+03  0.66503228711E+03  0.25500000920E-02 0. -1.
        2   -1    0    0  501    0  0.00000000000E+00  0.00000000000E+00 -0.17693918503E+04  0.17693918503E+04  0.25500000920E-02 0.  1.
    10030    2    1    2    0    0  0.00000000000E+00  0.00000000000E+00 -0.11043595632E+04  0.24344241374E+04  0.21695185724E+04 0.  0.
        2    1    3    3  502    0  0.87114603555E+03  0.57533013893E+03 -0.88277689128E+03  0.13671851461E+04  0.25500000920E-02 0.  1.
       -2    1    3    3    0  502 -0.87114603555E+03 -0.57533013893E+03 -0.22158267192E+03  0.10672389913E+04  0.25500000920E-02 0. -1.
</event>
<event>
 5   0  0.4063293E-05  0.2166968E+04  0.7818609E-02  0.8532304E-01
       -1   -1    0    0    0  501  0.00000000000E+00  0.00000000000E+00  0.68121579521E+03  0.68121579522E+03  0.50400001928E-02 0.  1.
        1   -1    0    0  501    0  0.00000000000E+00  0.00000000000E+00 -0.17232975897E+04  0.17232975898E+04  0.50400001928E-02 0. -1.
    10030    2    1    2    0    0  0.00000000000E+00  0.00000000000E+00 -0.10420817945E+04  0.24045133850E+04  0.21669679629E+04 0.  0.
        1    1    3    3  502    0 -0.48593446080E+03  0.39729504877E+03  0.45892598172E+03  0.77755302886E+03  0.50400001928E-02 0.  1.
       -1    1    3    3    0  502  0.48593446080E+03 -0.39729504877E+03 -0.15010077763E+04  0.16269603561E+04  0.50400001928E-02 0. -1.
</event>
<event>
 5   0  0.9938176E-05  0.2083244E+04  0.7818609E-02  0.8568661E-01
       -2   -1    0    0    0  501  0.00000000000E+00  0.00000000000E+00  0.89314103237E+03  0.89314103237E+03  0.25500000920E-02 0. -1.
        2   -1    0    0  501    0  0.00000000000E+00  0.00000000000E+00 -0.12147867639E+04  0.12147867639E+04  0.25500000920E-02 0.  1.
    10030    2    1    2    0    0  0.00000000000E+00  0.00000000000E+00 -0.32164573148E+03  0.21079277962E+04  0.20832435329E+04 0.  0.
        5    1    3    3  502    0 -0.97952957233E+03 -0.11317093606E+03  0.17881486007E+03  0.10021390562E+04  0.46999998093E+01 0. -1.
       -5    1    3    3    0  502  0.97952957233E+03  0.11317093606E+03 -0.50046059155E+03  0.11057887400E+04  0.46999998093E+01 0.  1.
</event>
<event>
 5   0  0.4188865E-05  0.2242149E+04  0.7818609E-02  0.8501087E-01
        1   -1    0    0  501    0  0.00000000000E+00  0.00000000000E+00  0.10586760601E+04  0.10586760601E+04  0.50400001928E-02 0.  1.
       -1   -1    0    0    0  501  0.00000000000E+00  0.00000000000E+00 -0.11871510685E+04  0.11871510685E+04  0.50400001928E-02 0. -1.
    10030    2    1    2    0    0  0.00000000000E+00  0.00000000000E+00 -0.12847500837E+03  0.22458271286E+04  0.22421493402E+04 0.  0.
        3    1    3    3  502    0 -0.10457865988E+04 -0.14698762975E+03 -0.44106389195E+03  0.11444703318E+04  0.10100000352E+00 0.  1.
       -3    1    3    3    0  502  0.10457865988E+04  0.14698762975E+03  0.31258888357E+03  0.11013567968E+04  0.10100000352E+00 0. -1.
</event>
<event>
 5   0  0.9442578E-05  0.2219796E+04  0.7818609E-02  0.8510234E-01
        2   -1    0    0  501    0  0.00000000000E+00  0.00000000000E+00  0.14925206873E+04  0.14925206873E+04  0.25500000920E-02 0. -1.
       -2   -1    0    0    0  501  0.00000000000E+00  0.00000000000E+00 -0.82536425359E+03  0.82536425359E+03  0.25500000920E-02 0.  1.
    10030    2    1    2    0    0  0.00000000000E+00  0.00000000000E+00  0.66715643370E+03  0.23178849409E+04  0.22197956870E+04 0.  0.
        4    1    3    3  502    0 -0.10515743016E+04  0.21061693694E+03  0.63204738713E+03  0.12448508017E+04  0.12699999809E+01 0.  1.
       -4    1    3    3    0  502  0.10515743016E+04 -0.21061693694E+03  0.35109046565E+02  0.10730341392E+04  0.12699999809E+01 0. -1.
</event>
<event>
 5   0  0.3283125E-05  0.2214144E+04  0.7818609E-02  0.8512564E-01
       -3   -1    0    0    0  501  0.00000000000E+00  0.00000000000E+00  0.10219922485E+04  0.10219922535E+04  0.10100000352E+00 0. -1.
        3   -1    0    0  501    0  0.00000000000E+00  0.00000000000E+00 -0.11992345621E+04  0.11992345664E+04  0.10100000352E+00 0.  1.
    10030    2    1    2    0    0  0.00000000000E+00  0.00000000000E+00 -0.17724231366E+03  0.22212268198E+04  0.22141440214E+04 0.  0.
        5    1    3    3  502    0 -0.64508226412E+03  0.59156275616E+03  0.59141800437E+03  0.10563498321E+04  0.46999998093E+01 0. -1.
       -5    1    3    3    0  502  0.64508226412E+03 -0.59156275616E+03 -0.76866031803E+03  0.11648769877E+04  0.46999998093E+01 0.  1.
</event>
<event>
 5   0  0.4174030E-05  0.2229030E+04  0.7818609E-02  0.8506442E-01
       -1   -1    0    0    0  501  0.00000000000E+00  0.00000000000E+00  0.74899426088E+03  0.74899426090E+03  0.50400001928E-02 0.  1.
        1   -1    0    0  501    0  0.00000000000E+00  0.00000000000E+00 -0.16584151729E+04  0.16584151729E+04  0.50400001928E-02 0. -1.
    10030    2    1    2    0    0  0.00000000000E+00  0.00000000000E+00 -0.90942091205E+03  0.24074094338E+04  0.22290297860E+04 0.  0.
        2    1    3    3  502    0  0.17224575488E+03 -0.63506437858E+03 -0.14262342864E+04  0.15707067214E+04  0.25500000920E-02 0. -1.
       -2    1    3    3    0  502 -0.17224575488E+03  0.63506437858E+03  0.51681337437E+03  0.83670271240E+03  0.25500000920E-02 0.  1.
</event>
<event>
 5   0  0.4063293E-05  0.2272409E+04  0.7818609E-02  0.8488880E-01
        1   -1    0    0  501    0  0.00000000000E+00  0.00000000000E+00  0.20032090689E+04  0.20032090689E+04  0.50400001928E-02 0. -1.
       -1   -1    0    0    0  501  0.00000000000E+00  0.00000000000E+00 -0.64444619064E+03  0.64444619066E+03  0.50400001928E-02 0.  1.
    10030    2    1    2    0    0  0.00000000000E+00  0.00000000000E+00  0.13587628782E+04  0.26476552596E+04  0.22724088132E+04 0.  0.
        1    1    3    3  502    0  0.20249413882E+03  0.65491985976E+03  0.17351195965E+04  0.18656269491E+04  0.50400001928E-02 0. -1.
       -1    1    3    3    0  502 -0.20249413882E+03 -0.65491985976E+03 -0.37635671826E+03  0.78202831046E+03  0.50400001928E-02 0.  1.
</event>
<event>
 5   0  0.4063293E-05  0.2213273E+04  0.7818609E-02  0.8512924E-01
        1   -1    0    0  501    0  0.00000000000E+00  0.00000000000E+00  0.10788197739E+04  0.10788197739E+04  0.50400001928E-02 0.  1.
       -1   -1    0    0    0  501  0.00000000000E+00  0.00000000000E+00 -0.11351699647E+04  0.11351699647E+04  0.50400001928E-02 0. -1.
    10030    2    1    2    0    0  0.00000000000E+00  0.00000000000E+00 -0.56350190828E+02  0.22139897386E+04  0.22132725134E+04 0.  0.
        1    1    3    3  502    0 -0.72839933096E+03  0.15658999238E+03  0.79035518067E+03  0.10861617387E+04  0.50400001928E-02 0.  1.
       -1    1    3    3    0  502  0.72839933096E+03 -0.15658999238E+03 -0.84670537150E+03  0.11278279998E+04  0.50400001928E-02 0. -1.
</event>
<event>
 5   0  0.4188865E-05  0.1585080E+04  0.7818609E-02  0.8829766E-01
        1   -1    0    0  501    0  0.00000000000E+00  0.00000000000E+00  0.17280298322E+04  0.17280298322E+04  0.50400001928E-02 0.  1.
       -1   -1    0    0    0  501  0.00000000000E+00  0.00000000000E+00 -0.36348906168E+03  0.36348906171E+03  0.50400001928E-02 0. -1.
    10030    2    1    2    0    0  0.00000000000E+00  0.00000000000E+00  0.13645407705E+04  0.20915188940E+04  0.15850803668E+04 0.  0.
        3    1    3    3  502    0 -0.39009025545E+03 -0.87467150256E+02 -0.22069713911E+03  0.45664882260E+03  0.10100000352E+00 0. -1.
       -3    1    3    3    0  502  0.39009025545E+03  0.87467150256E+02  0.15852379097E+04  0.16348700714E+04  0.10100000352E+00 0.  1.
</event>
<event>
 5   0  0.9442578E-05  0.2063643E+04  0.7818609E-02  0.8577430E-01
       -2   -1    0    0    0  501  0.00000000000E+00  0.00000000000E+00  0.45618296374E+03  0.45618296375E+03  0.25500000920E-02 0. -1.
        2   -1    0    0  501    0  0.00000000000E+00  0.00000000000E+00 -0.23338340436E+04  0.23338340436E+04  0.25500000920E-02 0.  1.
    10030    2    1    2    0    0  0.00000000000E+00  0.00000000000E+00 -0.18776510798E+04  0.27900170073E+04  0.20636427316E+04 0.  0.
        4    1    3    3  502    0 -0.74619894752E+03  0.46709898898E+03 -0.16664648263E+04  0.18847018239E+04  0.12699999809E+01 0.  1.
       -4    1    3    3    0  502  0.74619894752E+03 -0.46709898898E+03 -0.21118625354E+03  0.90531518344E+03  0.12699999809E+01 0. -1.
</event>
<event>
 5   0  0.9457742E-05  0.2189380E+04  0.7818609E-02  0.8522861E-01
       -2   -1    0    0    0  501  0.00000000000E+00  0.00000000000E+00  0.55575245841E+03  0.55575245842E+03  0.25500000920E-02 0.  1.
        2   -1    0    0  501    0  0.00000000000E+00  0.00000000000E+00 -0.21562597591E+04  0.21562597591E+04  0.25500000920E-02 0. -1.
    10030    2    1    2    0    0  0.00000000000E+00  0.00000000000E+00 -0.16005073007E+04  0.27120122175E+04  0.21893804257E+04 0.  0.
        1    1    3    3  502    0  0.18697759727E+03  0.26905902485E+03  0.49358895720E+03  0.59243855329E+03  0.50400001928E-02 0.  1.
       -1    1    3    3    0  502 -0.18697759727E+03 -0.26905902485E+03 -0.20940962579E+04  0.21195736642E+04  0.50400001928E-02 0. -1.
</event>
<event>
 5   0  0.4174030E-05  0.2195724E+04  0.7818609E-02  0.8520210E-01
       -1   -1    0    0    0  501  0.00000000000E+00  0.00000000000E+00  0.98471738989E+03  0.98471738990E+03  0.50400001928E-02 0. -1.
        1   -1    0    0  501    0  0.00000000000E+00  0.00000000000E+00 -0.12240073533E+04  0.12240073533E+04  0.50400001928E-02 0.  1.
    10030    2    1    2    0    0  0.00000000000E+00  0.00000000000E+00 -0.23928996345E+03  0.22087247432E+04  0.21957243235E+04 0.  0.
        2    1    3    3  502    0  0.56371979035E+03 -0.88997670907E+03 -0.43044484967E+03  0.11380339684E+04  0.25500000920E-02 0.  1.
       -2    1    3    3    0  502 -0.56371979035E+03  0.88997670907E+03  0.19115488622E+03  0.10706907748E+04  0.25500000920E-02 0. -1.
</event>
<event>
 5   0  0.4174030E-05  0.2181515E+04  0.7818609E-02  0.8526162E-01
        1   -1    0    0  501    0  0.00000000000E+00  0.00000000000E+00  0.12548808723E+04  0.12548808723E+04  0.50400001928E-02 0.  1.
       -1   -1    0    0    0  501  0.00000000000E+00  0.00000000000E+00 -0.94809909168E+03  0.94809909170E+03  0.50400001928E-02 0. -1.
    10030    2    1    2    0    0  0.00000000000E+00  0.00000000000E+00  0.30678178062E+03  0.22029799640E+04  0.21815145337E+04 0.  0.
        2    1    3    3  502    0 -0.57275996715E+03  0.48877642253E+03  0.95032976194E+03  0.12124698048E+04  0.25500000920E-02 0.  1.
       -2    1    3    3    0  502  0.57275996715E+03 -0.48877642253E+03 -0.64354798131E+03  0.99051015919E+03  0.25500000920E-02 0. -1.
</event>
<event>
 5   0  0.4174075E-05  0.1640018E+04  0.7818609E-02  0.8796334E-01
       -1   -1    0    0    0  501  0.00000000000E+00  0.00000000000E+00  0.76995891556E+03  0.76995891558E+03  0.50400001928E-02 0. -1.
        1   -1    0    0  501    0  0.00000000000E+00  0.00000000000E+00 -0.87331268953E+03  0.87331268955E+03  0.50400001928E-02 0.  1.
    10030    2    1    2    0    0  0.00000000000E+00  0.00000000000E+00 -0.10335377397E+03  0.16432716051E+04  0.16400181602E+04 0.  0.
        5    1    3    3  502    0  0.20060053630E+03 -0.82584803393E+02  0.74067119751E+03  0.77180097028E+03  0.46999998093E+01 0. -1.
       -5    1    3    3    0  502 -0.20060053630E+03  0.82584803393E+02 -0.84402497148E+03  0.87147063484E+03  0.46999998093E+01 0.  1.
</event>
<event>
 5   0  0.9442578E-05  0.2242600E+04  0.7818609E-02  0.8500904E-01
       -2   -1    0    0    0  501  0.00000000000E+00  0.00000000000E+00  0.56659338495E+03  0.56659338496E+03  0.25500000920E-02 0.  1.
        2   -1    0    0  501    0  0.00000000000E+00  0.00000000000E+00 -0.22190750886E+04  0.22190750886E+04  0.25500000920E-02 0. -1.
    10030    2    1    2    0    0  0.00000000000E+00  0.00000000000E+00 -0.16524817036E+04  0.27856684735E+04  0.22425996218E+04 0.  0.
        4    1    3    3  502    0  0.48411966514E+02  0.13086422507E+03  0.55576657682E+03  0.57301593758E+03  0.12699999809E+01 0.  1.
       -4    1    3    3    0  502 -0.48411966514E+02 -0.13086422507E+03 -0.22082482804E+04  0.22126525360E+04  0.12699999809E+01 0. -1.
</event>
<event>
 5   0  0.4188865E-05  0.2209082E+04  0.7818609E-02  0.8514658E-01
       -1   -1    0    0    0  501  0.00000000000E+00  0.00000000000E+00  0.11783797598E+04  0.11783797598E+04  0.50400001928E-02 0.  1.
        1   -1    0    0  501    0  0.00000000000E+00  0.00000000000E+00 -0.10353287937E+04  0.10353287937E+04  0.50400001928E-02 0. -1.
    10030    2    1    2    0    0  0.00000000000E+00  0.00000000000E+00  0.14305096603E+03  0.22137085535E+04  0.22090817054E+04 0.  0.
        3    1    3    3  502    0  0.24318997983E+02 -0.90283575909E+02 -0.10313558260E+04  0.10355855289E+04  0.10100000352E+00 0. -1.
       -3    1    3    3    0  502 -0.24318997983E+02  0.90283575909E+02  0.11744067920E+04  0.11781230246E+04  0.10100000352E+00 0.  1.
</event>
<event>
 5   0  0.9442578E-05  0.2169337E+04  0.7818609E-02  0.8531300E-01
       -2   -1    0    0    0  501  0.00000000000E+00  0.00000000000E+00  0.73426517760E+03  0.73426517761E+03  0.25500000920E-02 0. -1.
        2   -1    0    0  501    0  0.00000000000E+00  0.00000000000E+00 -0.16022895685E+04  0.16022895685E+04  0.25500000920E-02 0.  1.
    10030    2    1    2    0    0  0.00000000000E+00  0.00000000000E+00 -0.86802439087E+03  0.23365547461E+04  0.21693367047E+04 0.  0.
        4    1    3    3  502    0  0.22662211938E+03 -0.73818249526E+03 -0.12544584740E+04  0.14730711650E+04  0.12699999809E+01 0.  1.
       -4    1    3    3    0  502 -0.22662211938E+03  0.73818249526E+03  0.38643408311E+03  0.86348358108E+03  0.12699999809E+01 0. -1.
</event>
<event>
 5   0  0.4188865E-05  0.2213673E+04  0.7818609E-02  0.8512758E-01
       -1   -1    0    0    0  501  0.00000000000E+00  0.00000000000E+00  0.59079427938E+03  0.59079427940E+03  0.50400001928E-02 0.  1.
        1   -1    0    0  501    0  0.00000000000E+00  0.00000000000E+00 -0.20736277401E+04  0.20736277401E+04  0.50400001928E-02 0. -1.
    10030    2    1    2    0    0  0.00000000000E+00  0.00000000000E+00 -0.14828334607E+04  0.26644220195E+04  0.22136733331E+04 0.  0.
        3    1    3    3  502    0 -0.58801623776E+03  0.65664727062E+03 -0.15471581464E+04  0.17806310887E+04  0.10100000352E+00 0.  1.
       -3    1    3    3    0  502  0.58801623776E+03 -0.65664727062E+03  0.64324685739E+02  0.88379093075E+03  0.10100000352E+00 0. -1.
</event>
<event>
 5   0  0.4063293E-05  0.2292701E+04  0.7818609E-02  0.8480805E-01
        1   -1    0    0  501    0  0.00000000000E+00  0.00000000000E+00  0.14449829581E+04  0.14449829581E+04  0.50400001928E-02 0.  1.
       -1   -1    0    0    0  501  0.00000000000E+00  0.00000000000E+00 -0.90943593596E+03  0.90943593597E+03  0.50400001928E-02 0. -1.
    10030    2    1    2    0    0  0.00000000000E+00  0.00000000000E+00  0.53554702215E+03  0.23544188941E+04  0.22927009652E+04 0.  0.
        1    1    3    3  502    0  0.80179962263E+03 -0.14136927728E+03 -0.56095197674E+03  0.98870371075E+03  0.50400001928E-02 0. -1.
       -1    1    3    3    0  502 -0.80179962263E+03  0.14136927728E+03  0.10964989989E+04  0.13657151833E+04  0.50400001928E-02 0.  1.
</event>
<event>
 5   0  0.9442578E-05  0.2198672E+04  0.7818609E-02  0.8518981E-01
       -2   -1    0    0    0  501  0.00000000000E+00  0.00000000000E+00  0.74393755086E+03  0.74393755086E+03  0.25500000920E-02 0.  1.
        2   -1    0    0  501    0  0.00000000000E+00  0.00000000000E+00 -0.16245181597E+04  0.16245181597E+04  0.25500000920E-02 0. -1.
    10030    2    1    2    0    0  0.00000000000E+00  0.00000000000E+00 -0.88058060888E+03  0.23684557106E+04  0.21986723822E+04 0.  0.
        4    1    3    3  502    0 -0.61754693672E+03  0.90487258972E+03 -0.34168001484E+03  0.11475650169E+04  0.12699999809E+01 0.  1.
       -4    1    3    3    0  502  0.61754693672E+03 -0.90487258972E+03 -0.53890059403E+03  0.12208906936E+04  0.12699999809E+01 0. -1.
</event>
<event>
 5   0  0.9457742E-05  0.2204406E+04  0.7818609E-02  0.8516597E-01
       -2   -1    0    0    0  501  0.00000000000E+00  0.00000000000E+00  0.53904971755E+03  0.53904971756E+03  0.25500000920E-02 0.  1.
        2   -1    0    0  501    0  0.00000000000E+00  0.00000000000E+00 -0.22536900688E+04  0.22536900688E+04  0.25500000920E-02 0. -1.
    10030    2    1    2    0    0  0.00000000000E+00  0.00000000000E+00 -0.17146403513E+04  0.27927397864E+04  0.22044055843E+04 0.  0.
        1    1    3    3  502    0 -0.30936143835E+03  0.38490559580E+03 -0.21057015561E+04  0.21628305206E+04  0.50400001928E-02 0. -1.
       -1    1    3    3    0  502  0.30936143835E+03 -0.38490559580E+03  0.39106120484E+03  0.62990926582E+03  0.50400001928E-02 0.  1.
</event>
<event>
 5   0  0.9254673E-05  0.2211182E+04  0.7818609E-02  0.8513788E-01
       -2   -1    0    0    0  501  0.00000000000E+00  0.00000000000E+00  0.62375710674E+03  0.62375710675E+03  0.25500000920E-02 0. -1.
        2   -1    0    0  501    0  0.00000000000E+00  0.00000000000E+00 -0.19596272895E+04  0.19596272895E+04  0.25500000920E-02 0.  1.
    10030    2    1    2    0    0  0.00000000000E+00  0.00000000000E+00 -0.13358701827E+04  0.25833843962E+04  0.22111819901E+04 0.  0.
        2    1    3    3  502    0 -0.49743555297E+03  0.23616554192E+03  0.45214610744E+03  0.71249729475E+03  0.25500000920E-02 0. -1.
       -2    1    3    3    0  502  0.49743555297E+03 -0.23616554192E+03 -0.17880162902E+04  0.18708871015E+04  0.25500000920E-02 0.  1.
</event>
<event>
 5   0  0.9442578E-05  0.2120697E+04  0.7818609E-02  0.8552181E-01
       -2   -1    0    0    0  501  0.00000000000E+00  0.00000000000E+00  0.51610185961E+03  0.51610185962E+03  0.25500000920E-02 0. -1.
        2   -1    0    0  501    0  0.00000000000E+00  0.00000000000E+00 -0.21785208547E+04  0.21785208547E+04  0.25500000920E-02 0.  1.
    10030    2    1    2    0    0  0.00000000000E+00  0.00000000000E+00 -0.16624189951E+04  0.26946227143E+04  0.21206967386E+04 0.  0.
        4    1    3    3  502    0 -0.58362098977E+03 -0.30958095282E+03  0.22263554607E+03  0.69715279912E+03  0.12699999809E+01 0. -1.
       -4    1    3    3    0  502  0.58362098977E+03  0.30958095282E+03 -0.18850545412E+04  0.19974699152E+04  0.12699999809E+01 0.  1.
</event>
<event>
 5   0  0.4063293E-05  0.2226731E+04  0.7818609E-02  0.8507384E-01
        1   -1    0    0  501    0  0.00000000000E+00  0.00000000000E+00  0.11159053029E+04  0.11159053029E+04  0.50400001928E-02 0.  1.
       -1   -1    0    0    0  501  0.00000000000E+00  0.00000000000E+00 -0.11108314056E+04  0.11108314056E+04  0.50400001928E-02 0. -1.
    10030    2    1    2    0    0  0.00000000000E+00  0.00000000000E+00  0.50738973383E+01  0.22267367085E+04  0.22267309278E+04 0.  0.
        1    1    3    3  502    0  0.35291528659E+03  0.10550209887E+04 -0.41782123742E+02  0.11132673677E+04  0.50400001928E-02 0. -1.
       -1    1    3    3    0  502 -0.35291528659E+03 -0.10550209887E+04  0.46856021081E+02  0.11134693408E+04  0.50400001928E-02 0.  1.
</event>
<event>
 5   0  0.4188865E-05  0.2187618E+04  0.7818609E-02  0.8523599E-01
        1   -1    0    0  501    0  0.00000000000E+00  0.00000000000E+00  0.93256594918E+03  0.93256594920E+03  0.50400001928E-02 0.  1.
       -1   -1    0    0    0  501  0.00000000000E+00  0.00000000000E+00 -0.12829318303E+04  0.12829318303E+04  0.50400001928E-02 0. -1.
    10030    2    1    2    0    0  0.00000000000E+00  0.00000000000E+00 -0.35036588108E+03  0.22154977795E+04  0.21876183763E+04 0.  0.
        3    1    3    3  502    0  0.69405777622E+03  0.44642234541E+03  0.55188657038E+03  0.99276779963E+03  0.10100000352E+00 0.  1.
       -3    1    3    3    0  502 -0.69405777622E+03 -0.44642234541E+03 -0.90225245146E+03  0.12227299798E+04  0.10100000352E+00 0. -1.
</event>
<event>
 5   0  0.9254673E-05  0.2023280E+04  0.7818609E-02  0.8595813E-01
        2   -1    0    0  501    0  0.00000000000E+00  0.00000000000E+00  0.15179154986E+04  0.15179154986E+04  0.25500000920E-02 0. -1.
       -2   -1    0    0    0  501  0.00000000000E+00  0.00000000000E+00 -0.67422445530E+03  0.67422445530E+03  0.25500000920E-02 0.  1.
    10030    2    1    2    0    0  0.00000000000E+00  0.00000000000E+00  0.84369104326E+03  0.21921399539E+04  0.20232802576E+04 0.  0.
        2    1    3    3  502    0  0.11561926050E+03 -0.55509189222E+03 -0.48588372683E+03  0.74671133526E+03  0.25500000920E-02 0.  1.
       -2    1    3    3    0  502 -0.11561926050E+03  0.55509189222E+03  0.13295747701E+04  0.14454286186E+04  0.25500000920E-02 0. -1.
</event>
<event>
 5   0  0.4174030E-05  0.2202309E+04  0.7818609E-02  0.8517468E-01
       -1   -1    0    0    0  501  0.00000000000E+00  0.00000000000E+00  0.59312226837E+03  0.59312226839E+03  0.50400001928E-02 0.  1.
        1   -1    0    0  501    0  0.00000000000E+00  0.00000000000E+00 -0.20443363543E+04  0.20443363543E+04  0.50400001928E-02 0. -1.
    10030    2    1    2    0    0  0.00000000000E+00  0.00000000000E+00 -0.14512140859E+04  0.26374586227E+04  0.22023091661E+04 0.  0.
        2    1    3    3  502    0  0.10332439470E+04  0.35756288022E+03 -0.56901517259E+03  0.12325674561E+04  0.25500000920E-02 0.  1.
       -2    1    3    3    0  502 -0.10332439470E+04 -0.35756288022E+03 -0.88219891333E+03  0.14048911666E+04  0.25500000920E-02 0. -1.
</event>
<event>
 5   0  0.4133418E-05  0.2199588E+04  0.7818609E-02  0.8518600E-01
        1   -1    0    0  501    0  0.00000000000E+00  0.00000000000E+00  0.94468484527E+03  0.94468484528E+03  0.50400001928E-02 0. -1.
       -1   -1    0    0    0  501  0.00000000000E+00  0.00000000000E+00 -0.12803705474E+04  0.12803705474E+04  0.50400001928E-02 0.  1.
    10030    2    1    2    0    0  0.00000000000E+00  0.00000000000E+00 -0.33568570208E+03  0.22250553926E+04  0.21995878272E+04 0.  0.
        4    1    3    3  502    0  0.97930121205E+03 -0.25523344316E+03 -0.60337410017E+03  0.11782346507E+04  0.12699999809E+01 0.  1.
       -4    1    3    3    0  502 -0.97930121205E+03  0.25523344316E+03  0.26768839808E+03  0.10468207420E+04  0.12699999809E+01 0. -1.
</event>
<event>
 5   0  0.4133418E-05  0.2189292E+04  0.7818609E-02  0.8522898E-01
       -1   -1    0    0    0  501  0.00000000000E+00  0.00000000000E+00  0.11056136770E+04  0.11056136771E+04  0.50400001928E-02 0.  1.
        1   -1    0    0  501    0  0.00000000000E+00  0.00000000000E+00 -0.10837872973E+04  0.10837872973E+04  0.50400001928E-02 0. -1.
    10030    2    1    2    0    0  0.00000000000E+00  0.00000000000E+00  0.21826379764E+02  0.21894009743E+04  0.21892921768E+04 0.  0.
        4    1    3    3  502    0  0.99892485697E+02  0.10833925298E+04 -0.10963558843E+03  0.10934987231E+04  0.12699999809E+01 0. -1.
       -4    1    3    3    0  502 -0.99892485697E+02 -0.10833925298E+04  0.13146196819E+03  0.10959022512E+04  0.12699999809E+01 0.  1.
</event>
<event>
 5   0  0.9254673E-05  0.2186162E+04  0.7818609E-02  0.8524210E-01
        2   -1    0    0  501    0  0.00000000000E+00  0.00000000000E+00  0.24521197076E+04  0.24521197076E+04  0.25500000920E-02 0.  1.
       -2   -1    0    0    0  501  0.00000000000E+00  0.00000000000E+00 -0.48726250400E+03  0.48726250401E+03  0.25500000920E-02 0. -1.
    10030    2    1    2    0    0  0.00000000000E+00  0.00000000000E+00  0.19648572036E+04  0.29393822116E+04  0.21861619234E+04 0.  0.
        2    1    3    3  502    0 -0.12083259724E+03 -0.94608980095E+03  0.26446492348E+03  0.98976164999E+03  0.25500000920E-02 0. -1.
       -2    1    3    3    0  502  0.12083259724E+03  0.94608980095E+03  0.17003922801E+04  0.19496205616E+04  0.25500000920E-02 0.  1.
</event>
<event>
 5   0  0.4063293E-05  0.2190588E+04  0.7818609E-02  0.8522356E-01
        1   -1    0    0  501    0  0.00000000000E+00  0.00000000000E+00  0.18342732914E+04  0.18342732914E+04  0.50400001928E-02 0.  1.
       -1   -1    0    0    0  501  0.00000000000E+00  0.00000000000E+00 -0.65402948896E+03  0.65402948898E+03  0.50400001928E-02 0. -1.
    10030    2    1    2    0    0  0.00000000000E+00  0.00000000000E+00  0.11802438024E+04  0.24883027803E+04  0.21905878877E+04 0.  0.
        1    1    3    3  502    0  0.37517791612E+03  0.70234692312E+03 -0.26416667097E+03  0.83894797171E+03  0.50400001928E-02 0. -1.
       -1    1    3    3    0  502 -0.37517791612E+03 -0.70234692312E+03  0.14444104734E+04  0.16493548086E+04  0.50400001928E-02 0.  1.
</event>
<event>
 5   0  0.9254673E-05  0.2215182E+04  0.7818609E-02  0.8512136E-01
        2   -1    0    0  501    0  0.00000000000E+00  0.00000000000E+00  0.11140829331E+04  0.11140829331E+04  0.25500000920E-02 0. -1.
       -2   -1    0    0    0  501  0.00000000000E+00  0.00000000000E+00 -0.11011365446E+04  0.11011365446E+04  0.25500000920E-02 0.  1.
    10030    2    1    2    0    0  0.00000000000E+00  0.00000000000E+00  0.12946388494E+02  0.22152194777E+04  0.22151816462E+04 0.  0.
        2    1    3    3  502    0 -0.89284272355E+03  0.32821067049E+03 -0.56086978151E+03  0.11042940211E+04  0.25500000920E-02 0.  1.
       -2    1    3    3    0  502  0.89284272355E+03 -0.32821067049E+03  0.57381617000E+03  0.11109254566E+04  0.25500000920E-02 0. -1.
</event>
<event>
 5   0  0.9254673E-05  0.2191400E+04  0.7818609E-02  0.8522016E-01
       -2   -1    0    0    0  501  0.00000000000E+00  0.00000000000E+00  0.15568355047E+04  0.15568355047E+04  0.25500000920E-02 0.  1.
        2   -1    0    0  501    0  0.00000000000E+00  0.00000000000E+00 -0.77115308425E+03  0.77115308425E+03  0.25500000920E-02 0. -1.
    10030    2    1    2    0    0  0.00000000000E+00  0.00000000000E+00  0.78568242045E+03  0.23279885890E+04  0.21914000102E+04 0.  0.
        2    1    3    3  502    0 -0.37986797543E+03 -0.19276866155E+03 -0.67958492569E+03  0.80205679778E+03  0.25500000920E-02 0. -1.
       -2    1    3    3    0  502  0.37986797543E+03  0.19276866155E+03  0.14652673461E+04  0.15259317912E+04  0.25500000920E-02 0.  1.
</event>
<event>
 5   0  0.9254673E-05  0.1779624E+04  0.7818609E-02  0.8717211E-01
        2   -1    0    0  501    0  0.00000000000E+00  0.00000000000E+00  0.49277835113E+03  0.49277835113E+03  0.25500000920E-02 0.  1.
       -2   -1    0    0    0  501  0.00000000000E+00  0.00000000000E+00 -0.16067380403E+04  0.16067380403E+04  0.25500000920E-02 0. -1.
    10030    2    1    2    0    0  0.00000000000E+00  0.00000000000E+00 -0.11139596892E+04  0.20995163915E+04  0.17796243673E+04 0.  0.
        2    1    3    3  502    0  0.68065521597E+03 -0.19507206731E+03  0.78797429277E+02  0.71242800994E+03  0.25500000920E-02 0.  1.
       -2    1    3    3    0  502 -0.68065521597E+03  0.19507206731E+03 -0.11927571185E+04  0.13870883815E+04  0.25500000920E-02 0. -1.
</event>
<event>
 5   0  0.9457742E-05  0.2190832E+04  0.7818609E-02  0.8522254E-01
        2   -1    0    0  501    0  0.00000000000E+00  0.00000000000E+00  0.18098733931E+04  0.18098733931E+04  0.25500000920E-02 0.  1.
       -2   -1    0    0    0  501  0.00000000000E+00  0.00000000000E+00 -0.66299437762E+03  0.66299437762E+03  0.25500000920E-02 0. -1.
    10030    2    1    2    0    0  0.00000000000E+00  0.00000000000E+00  0.11468790155E+04  0.24728677708E+04  0.21908316995E+04 0.  0.
        1    1    3    3  502    0 -0.32813124636E+03  0.61087599263E+03 -0.38372239078E+03  0.79251654015E+03  0.50400001928E-02 0. -1.
       -1    1    3    3    0  502  0.32813124636E+03 -0.61087599263E+03  0.15306014063E+04  0.16803512306E+04  0.50400001928E-02 0.  1.
</event>
<event>
 5   0  0.4174030E-05  0.2197229E+04  0.7818609E-02  0.8519583E-01
        1   -1    0    0  501    0  0.00000000000E+00  0.00000000000E+00  0.48109555955E+03  0.48109555957E+03  0.50400001928E-02 0.  1.
       -1   -1    0    0    0  501  0.00000000000E+00  0.00000000000E+00 -0.25087601972E+04  0.25087601972E+04  0.50400001928E-02 0. -1.
    10030    2    1    2    0    0  0.00000000000E+00  0.00000000000E+00 -0.20276646377E+04  0.29898557568E+04  0.21972286098E+04 0.  0.
        2    1    3    3  502    0  0.82728978402E+03 -0.49062922452E+02 -0.19952055638E+04  0.21604769841E+04  0.25500000920E-02 0. -1.
       -2    1    3    3    0  502 -0.82728978402E+03  0.49062922452E+02 -0.32459073889E+02  0.82937877269E+03  0.25500000920E-02 0.  1.
</event>
<event>
 5   0  0.9442578E-05  0.2364275E+04  0.7818609E-02  0.8453001E-01
        2   -1    0    0  501    0  0.00000000000E+00  0.00000000000E+00  0.16493735682E+04  0.16493735682E+04  0.25500000920E-02 0.  1.
       -2   -1    0    0    0  501  0.00000000000E+00  0.00000000000E+00 -0.84726070395E+03  0.84726070396E+03  0.25500000920E-02 0. -1.
    10030    2    1    2    0    0  0.00000000000E+00  0.00000000000E+00  0.80211286426E+03  0.24966342722E+04  0.23642752890E+04 0.  0.
        4    1    3    3  502    0 -0.35758686260E+02  0.93483145412E+03 -0.36207608984E+03  0.10031396907E+04  0.12699999809E+01 0. -1.
       -4    1    3    3    0  502  0.35758686260E+02 -0.93483145412E+03  0.11641889541E+04  0.14934945815E+04  0.12699999809E+01 0.  1.
</event>
<event>
 5   0  0.9938176E-05  0.2204197E+04  0.7818609E-02  0.8516683E-01
       -2   -1    0    0    0  501  0.00000000000E+00  0.00000000000E+00  0.12114292847E+04  0.12114292847E+04  0.25500000920E-02 0. -1.
        2   -1    0    0  501    0  0.00000000000E+00  0.00000000000E+00 -0.10026344791E+04  0.10026344791E+04  0.25500000920E-02 0.  1.
    10030    2    1    2    0    0  0.00000000000E+00  0.00000000000E+00  0.20879480564E+03  0.22140637638E+04  0.22041966971E+04 0.  0.
        5    1    3    3  502    0  0.28059971646E+03 -0.10346593445E+04  0.36116352152E+03  0.11312459234E+04  0.46999998093E+01 0. -1.
       -5    1    3    3    0  502 -0.28059971646E+03  0.10346593445E+04 -0.15236871588E+03  0.10828178404E+04  0.46999998093E+01 0.  1.
</event>
<event>
 5   0  0.4188865E-05  0.2173414E+04  0.7818609E-02  0.8529576E-01
        1   -1    0    0  501    0  0.00000000000E+00  0.00000000000E+00  0.95931961502E+03  0.95931961503E+03  0.50400001928E-02 0. -1.
       -1   -1    0    0    0  501  0.00000000000E+00  0.00000000000E+00 -0.12310097919E+04  0.12310097919E+04  0.50400001928E-02 0.  1.
    10030    2    1    2    0    0  0.00000000000E+00  0.00000000000E+00 -0.27169017686E+03  0.21903294069E+04  0.21734137569E+04 0.  0.
        3    1    3    3  502    0  0.10743610917E+04  0.15965859250E+03 -0.10109180015E+03  0.10908538783E+04  0.10100000352E+00 0.  1.
       -3    1    3    3    0  502 -0.10743610917E+04 -0.15965859250E+03 -0.17059837671E+03  0.10994755286E+04  0.10100000352E+00 0. -1.
</event>
<event>
 5   0  0.9938176E-05  0.2196369E+04  0.7818609E-02  0.8519941E-01
       -2   -1    0    0    0  501  0.00000000000E+00  0.00000000000E+00  0.11125830089E+04  0.11125830089E+04  0.25500000920E-02 0. -1.
        2   -1    0    0  501    0  0.00000000000E+00  0.00000000000E+00 -0.10839719236E+04  0.10839719237E+04  0.25500000920E-02 0.  1.
    10030    2    1    2    0    0  0.00000000000E+00  0.00000000000E+00  0.28611085246E+02  0.21965549325E+04  0.21963685887E+04 0.  0.
        5    1    3    3  502    0 -0.50736870150E+03 -0.97383583296E+03  0.28709041133E+02  0.10984650781E+04  0.46999998093E+01 0. -1.
       -5    1    3    3    0  502  0.50736870150E+03  0.97383583296E+03 -0.97955886355E-01  0.10980898544E+04  0.46999998093E+01 0.  1.
</event>
<event>
 5   0  0.4174075E-05  0.2190066E+04  0.7818609E-02  0.8522574E-01
        1   -1    0    0  501    0  0.00000000000E+00  0.00000000000E+00  0.94999535954E+03  0.94999535955E+03  0.50400001928E-02 0. -1.
       -1   -1    0    0    0  501  0.00000000000E+00  0.00000000000E+00 -0.12622137638E+04  0.12622137638E+04  0.50400001928E-02 0.  1.
    10030    2    1    2    0    0  0.00000000000E+00  0.00000000000E+00 -0.31221840427E+03  0.22122091234E+04  0.21900659519E+04 0.  0.
        5    1    3    3  502    0 -0.77645747232E+03  0.45992645978E+03  0.47036842359E+03  0.10176871320E+04  0.46999998093E+01 0. -1.
       -5    1    3    3    0  502  0.77645747232E+03 -0.45992645978E+03 -0.78258682786E+03  0.11945219914E+04  0.46999998093E+01 0.  1.
</event>
<event>
 5   0  0.9938176E-05  0.2241058E+04  0.7818609E-02  0.8501531E-01
       -2   -1    0    0    0  501  0.00000000000E+00  0.00000000000E+00  0.86307435248E+03  0.86307435248E+03  0.25500000920E-02 0.  1.
        2   -1    0    0  501    0  0.00000000000E+00  0.00000000000E+00 -0.14547825049E+04  0.14547825049E+04  0.25500000920E-02 0. -1.
    10030    2    1    2    0    0  0.00000000000E+00  0.00000000000E+00 -0.59170815243E+03  0.23178568574E+04  0.22410582040E+04 0.  0.
        5    1    3    3  502    0 -0.40845013532E+03  0.87347462562E+03 -0.88617971896E+03  0.13096281987E+04  0.46999998093E+01 0. -1.
       -5    1    3    3    0  502  0.40845013532E+03 -0.87347462562E+03  0.29447156653E+03  0.10082286587E+04  0.46999998093E+01 0.  1.
</event>
<event>
 5   0  0.9254673E-05  0.2196916E+04  0.7818609E-02  0.8519713E-01
       -2   -1    0    0    0  501  0.00000000000E+00  0.00000000000E+00  0.75846929951E+03  0.75846929952E+03  0.25500000920E-02 0.  1.
        2   -1    0    0  501    0  0.00000000000E+00  0.00000000000E+00 -0.15908488885E+04  0.15908488885E+04  0.25500000920E-02 0. -1.
    10030    2    1    2    0    0  0.00000000000E+00  0.00000000000E+00 -0.83237958902E+03  0.23493181880E+04  0.21969160586E+04 0.  0.
        2    1    3    3  502    0  0.28764635305E+03 -0.10506527113E+04 -0.56741600352E+03  0.12282395798E+04  0.25500000920E-02 0.  1.
       -2    1    3    3    0  502 -0.28764635305E+03  0.10506527113E+04 -0.26496358550E+03  0.11210786083E+04  0.25500000920E-02 0. -1.
</event>
<event>
 5   0  0.4063293E-05  0.1825585E+04  0.7818609E-02  0.8692811E-01
       -1   -1    0    0    0  501  0.00000000000E+00  0.00000000000E+00  0.11453661600E+04  0.11453661600E+04  0.50400001928E-02 0.  1.
        1   -1    0    0  501    0  0.00000000000E+00  0.00000000000E+00 -0.72744455705E+03  0.72744455707E+03  0.50400001928E-02 0. -1.
    10030    2    1    2    0    0  0.00000000000E+00  0.00000000000E+00  0.41792160299E+03  0.18728107171E+04  0.18255852530E+04 0.  0.
        1    1    3    3  502    0 -0.17893474438E+03 -0.10990162655E+03 -0.70232843161E+03  0.73304927265E+03  0.50400001928E-02 0. -1.
       -1    1    3    3    0  502  0.17893474438E+03  0.10990162655E+03  0.11202500346E+04  0.11397614445E+04  0.50400001928E-02 0.  1.
</event>
<event>
 5   0  0.4188865E-05  0.2318532E+04  0.7818609E-02  0.8470650E-01
        1   -1    0    0  501    0  0.00000000000E+00  0.00000000000E+00  0.14134508846E+04  0.14134508846E+04  0.50400001928E-02 0. -1.
       -1   -1    0    0    0  501  0.00000000000E+00  0.00000000000E+00 -0.95079171550E+03  0.95079171552E+03  0.50400001928E-02 0.  1.
    10030    2    1    2    0    0  0.00000000000E+00  0.00000000000E+00  0.46265916905E+03  0.23642426001E+04  0.23185317693E+04 0.  0.
        3    1    3    3  502    0 -0.62497803169E+03  0.76645946624E+03 -0.38544208921E+03  0.10614251117E+04  0.10100000352E+00 0. -1.
       -3    1    3    3    0  502  0.62497803169E+03 -0.76645946624E+03  0.84810125826E+03  0.13028174883E+04  0.10100000352E+00 0.  1.
</event>
<event>
 5   0  0.9442578E-05  0.2517498E+04  0.7818609E-02  0.8396778E-01
       -2   -1    0    0    0  501  0.00000000000E+00  0.00000000000E+00  0.11863892991E+04  0.11863892991E+04  0.25500000920E-02 0.  1.
        2   -1    0    0  501    0  0.00000000000E+00  0.00000000000E+00 -0.13355220243E+04  0.13355220243E+04  0.25500000920E-02 0. -1.
    10030    2    1    2    0    0  0.00000000000E+00  0.00000000000E+00 -0.14913272520E+03  0.25219113233E+04  0.25174979946E+04 0.  0.
        4    1    3    3  502    0 -0.91150767707E+03 -0.13498958406E+03  0.78447937618E+03  0.12101561625E+04  0.12699999809E+01 0.  1.
       -4    1    3    3    0  502  0.91150767707E+03  0.13498958406E+03 -0.93361210138E+03  0.13117551608E+04  0.12699999809E+01 0. -1.
</event>
<event>
 5   0  0.9442578E-05  0.2262745E+04  0.7818609E-02  0.8492757E-01
       -2   -1    0    0    0  501  0.00000000000E+00  0.00000000000E+00  0.41717830985E+03  0.41717830986E+03  0.25500000920E-02 0.  1.
        2   -1    0    0  501    0  0.00000000000E+00  0.00000000000E+00 -0.30682404344E+04  0.30682404344E+04  0.25500000920E-02 0. -1.
    10030    2    1    2    0    0  0.00000000000E+00  0.00000000000E+00 -0.26510621246E+04  0.34854187443E+04  0.22627446685E+04 0.  0.
        4    1    3    3  502    0  0.10681306120E+04 -0.21334785562E+03 -0.17967408034E+04  0.21011186162E+04  0.12699999809E+01 0. -1.
       -4    1    3    3    0  502 -0.10681306120E+04  0.21334785562E+03 -0.85432132115E+03  0.13843001281E+04  0.12699999809E+01 0.  1.
</event>
<event>
 5   0  0.9457742E-05  0.2153730E+04  0.7818609E-02  0.8537937E-01
       -2   -1    0    0    0  501  0.00000000000E+00  0.00000000000E+00  0.67764387352E+03  0.67764387352E+03  0.25500000920E-02 0. -1.
        2   -1    0    0  501    0  0.00000000000E+00  0.00000000000E+00 -0.17112798402E+04  0.17112798402E+04  0.25500000920E-02 0.  1.
    10030    2    1    2    0    0  0.00000000000E+00  0.00000000000E+00 -0.10336359667E+04  0.23889237137E+04  0.21537300663E+04 0.  0.
        1    1    3    3  502    0 -0.24030103479E+03 -0.93242452245E+03 -0.10516312212E+04  0.14258640548E+04  0.50400001928E-02 0.  1.
       -1    1    3    3    0  502  0.24030103479E+03  0.93242452245E+03  0.17995254517E+02  0.96305965890E+03  0.50400001928E-02 0. -1.
</event>
<event>
 5   0  0.3283125E-05  0.2195265E+04  0.7818609E-02  0.8520401E-01
        4   -1    0    0  501    0  0.00000000000E+00  0.00000000000E+00  0.12663956812E+04  0.12663963180E+04  0.12699999809E+01 0. -1.
       -4   -1    0    0    0  501  0.00000000000E+00  0.00000000000E+00 -0.95135790766E+03  0.95135875534E+03  0.12699999809E+01 0.  1.
    10030    2    1    2    0    0  0.00000000000E+00  0.00000000000E+00  0.31503777353E+03  0.22177550733E+04  0.21952650789E+04 0.  0.
        4    1    3    3  502    0 -0.91004796719E+03 -0.58755527681E+03 -0.21460089718E+02  0.10834531158E+04  0.12699999809E+01 0.  1.
       -4    1    3    3    0  502  0.91004796719E+03  0.58755527681E+03  0.33649786324E+03  0.11343019575E+04  0.12699999809E+01 0. -1.
</event>
<event>
 5   0  0.4188865E-05  0.1604323E+04  0.7818609E-02  0.8817897E-01
       -1   -1    0    0    0  501  0.00000000000E+00  0.00000000000E+00  0.47865140330E+03  0.47865140332E+03  0.50400001928E-02 0. -1.
        1   -1    0    0  501    0  0.00000000000E+00  0.00000000000E+00 -0.13443247518E+04  0.13443247518E+04  0.50400001928E-02 0.  1.
    10030    2    1    2    0    0  0.00000000000E+00  0.00000000000E+00 -0.86567334847E+03  0.18229761551E+04  0.16043228216E+04 0.  0.
        3    1    3    3  502    0 -0.70882973421E+03 -0.96991374909E+01 -0.85940617651E+03  0.11140523559E+04  0.10100000352E+00 0.  1.
       -3    1    3    3    0  502  0.70882973421E+03  0.96991374909E+01 -0.62671719617E+01  0.70892379915E+03  0.10100000352E+00 0. -1.
</event>
<event>
 5   0  0.4063293E-05  0.2211042E+04  0.7818609E-02  0.8513846E-01
       -1   -1    0    0    0  501  0.00000000000E+00  0.00000000000E+00  0.89563652271E+03  0.89563652272E+03  0.50400001928E-02 0. -1.
        1   -1    0    0  501    0  0.00000000000E+00  0.00000000000E+00 -0.13645894376E+04  0.13645894376E+04  0.50400001928E-02 0.  1.
    10030    2    1    2    0    0  0.00000000000E+00  0.00000000000E+00 -0.46895291486E+03  0.22602259603E+04  0.22110415092E+04 0.  0.
        1    1    3    3  502    0  0.52268451242E+03  0.81562174041E+03  0.31004359749E+03  0.10171356622E+04  0.50400001928E-02 0. -1.
       -1    1    3    3    0  502 -0.52268451242E+03 -0.81562174041E+03 -0.77899651235E+03  0.12430902981E+04  0.50400001928E-02 0.  1.
</event>
<event>
 5   0  0.9254673E-05  0.2432658E+04  0.7818609E-02  0.8427377E-01
        2   -1    0    0  501    0  0.00000000000E+00  0.00000000000E+00  0.20014636802E+04  0.20014636802E+04  0.25500000920E-02 0. -1.
       -2   -1    0    0    0  501  0.00000000000E+00  0.00000000000E+00 -0.73918736479E+03  0.73918736479E+03  0.25500000920E-02 0.  1.
    10030    2    1    2    0    0  0.00000000000E+00  0.00000000000E+00  0.12622763154E+04  0.27406510450E+04  0.24326583512E+04 0.  0.
        2    1    3    3  502    0  0.52556366826E+03 -0.64392447680E+03  0.16316015883E+04  0.18311143176E+04  0.25500000920E-02 0. -1.
       -2    1    3    3    0  502 -0.52556366826E+03  0.64392447680E+03 -0.36932527289E+03  0.90953672737E+03  0.25500000920E-02 0.  1.
</event>
<event>
 5   0  0.4174075E-05  0.2393855E+04  0.7818609E-02  0.8441808E-01
       -1   -1    0    0    0  501  0.00000000000E+00  0.00000000000E+00  0.10538970342E+04  0.10538970342E+04  0.50400001928E-02 0.  1.
        1   -1    0    0  501    0  0.00000000000E+00  0.00000000000E+00 -0.13593696392E+04  0.13593696392E+04  0.50400001928E-02 0. -1.
    10030    2    1    2    0    0  0.00000000000E+00  0.00000000000E+00 -0.30547260502E+03  0.24132666735E+04  0.23938551595E+04 0.  0.
        5    1    3    3  502    0 -0.10867621233E+04 -0.34144066929E+03 -0.52311158288E+03  0.12535156407E+04  0.46999998093E+01 0. -1.
       -5    1    3    3    0  502  0.10867621233E+04  0.34144066929E+03  0.21763897786E+03  0.11597510328E+04  0.46999998093E+01 0.  1.
</event>
<event>
 5   0  0.4188865E-05  0.2179023E+04  0.7818609E-02  0.8527210E-01
        1   -1    0    0  501    0  0.00000000000E+00  0.00000000000E+00  0.14548364061E+04  0.14548364061E+04  0.50400001928E-02 0.  1.
       -1   -1    0    0    0  501  0.00000000000E+00  0.00000000000E+00 -0.81592383423E+03  0.81592383425E+03  0.50400001928E-02 0. -1.
    10030    2    1    2    0    0  0.00000000000E+00  0.00000000000E+00  0.63891257189E+03  0.22707602404E+04  0.21790233580E+04 0.  0.
        3    1    3    3  502    0  0.10658668673E+04 -0.11475936047E+03  0.11686550907E+03  0.10783781558E+04  0.10100000352E+00 0.  1.
       -3    1    3    3    0  502 -0.10658668673E+04  0.11475936047E+03  0.52204706282E+03  0.11923820845E+04  0.10100000352E+00 0. -1.
</event>
<event>
 5   0  0.4174030E-05  0.2170622E+04  0.7818609E-02  0.8530757E-01
        1   -1    0    0  501    0  0.00000000000E+00  0.00000000000E+00  0.15735299921E+04  0.15735299921E+04  0.50400001928E-02 0. -1.
       -1   -1    0    0    0  501  0.00000000000E+00  0.00000000000E+00 -0.74857132991E+03  0.74857132993E+03  0.50400001928E-02 0.  1.
    10030    2    1    2    0    0  0.00000000000E+00  0.00000000000E+00  0.82495866216E+03  0.23221013220E+04  0.21706215136E+04 0.  0.
        2    1    3    3  502    0  0.19013338356E+03 -0.35380696397E+02 -0.72998888091E+03  0.75517300235E+03  0.25500000920E-02 0.  1.
       -2    1    3    3    0  502 -0.19013338356E+03  0.35380696397E+02  0.15549475431E+04  0.15669283196E+04  0.25500000920E-02 0. -1.
</event>
<event>
 5   0  0.9254673E-05  0.2265340E+04  0.7818609E-02  0.8491714E-01
       -2   -1    0    0    0  501  0.00000000000E+00  0.00000000000E+00  0.82588974509E+03  0.82588974509E+03  0.25500000920E-02 0. -1.
        2   -1    0    0  501    0  0.00000000000E+00  0.00000000000E+00 -0.15534045078E+04  0.15534045078E+04  0.25500000920E-02 0.  1.
    10030    2    1    2    0    0  0.00000000000E+00  0.00000000000E+00 -0.72751476268E+03  0.23792942529E+04  0.22653395798E+04 0.  0.
        2    1    3    3  502    0 -0.45211442089E+03 -0.68451874969E+03  0.45653406888E+03  0.93882731336E+03  0.25500000920E-02 0. -1.
       -2    1    3    3    0  502  0.45211442089E+03  0.68451874969E+03 -0.11840488316E+04  0.14404669395E+04  0.25500000920E-02 0.  1.
</event>
<event>
 5   0  0.9179618E-05  0.2204239E+04  0.7818609E-02  0.8516666E-01
        2   -1    0    0  501    0  0.00000000000E+00  0.00000000000E+00  0.17273516664E+04  0.17273516664E+04  0.25500000920E-02 0. -1.
       -2   -1    0    0    0  501  0.00000000000E+00  0.00000000000E+00 -0.70319646773E+03  0.70319646773E+03  0.25500000920E-02 0.  1.
    10030    2    1    2    0    0  0.00000000000E+00  0.00000000000E+00  0.10241551987E+04  0.24305481341E+04  0.22042391797E+04 0.  0.
        3    1    3    3  502    0 -0.10616603343E+04  0.29184967122E+03  0.56574358071E+03  0.12378871941E+04  0.10100000352E+00 0.  1.
       -3    1    3    3    0  502  0.10616603343E+04 -0.29184967122E+03  0.45841161795E+03  0.11926609400E+04  0.10100000352E+00 0. -1.
</event>
<event>
 5   0  0.4174075E-05  0.2276791E+04  0.7818609E-02  0.8487129E-01
       -1   -1    0    0    0  501  0.00000000000E+00  0.00000000000E+00  0.14738146737E+04  0.14738146737E+04  0.50400001928E-02 0. -1.
        1   -1    0    0  501    0  0.00000000000E+00  0.00000000000E+00 -0.87931322958E+03  0.87931322959E+03  0.50400001928E-02 0.  1.
    10030    2    1    2    0    0  0.00000000000E+00  0.00000000000E+00  0.59450144415E+03  0.23531279033E+04  0.22767913743E+04 0.  0.
        5    1    3    3  502    0  0.76645119977E+02  0.77216115426E+02  0.14684190685E+04  0.14724515115E+04  0.46999998093E+01 0. -1.
       -5    1    3    3    0  502 -0.76645119977E+02 -0.77216115426E+02 -0.87391762438E+03  0.88067639182E+03  0.46999998093E+01 0.  1.
</event>
<event>
 5   0  0.4063293E-05  0.2165117E+04  0.7818609E-02  0.8533089E-01
       -1   -1    0    0    0  501  0.00000000000E+00  0.00000000000E+00  0.51754216834E+03  0.51754216837E+03  0.50400001928E-02 0. -1.
        1   -1    0    0  501    0  0.00000000000E+00  0.00000000000E+00 -0.22644199157E+04  0.22644199157E+04  0.50400001928E-02 0.  1.
    10030    2    1    2    0    0  0.00000000000E+00  0.00000000000E+00 -0.17468777473E+04  0.27819620841E+04  0.21651168959E+04 0.  0.
        1    1    3    3  502    0  0.49725065015E+03 -0.47259876776E+03  0.20260384783E+03  0.71530142146E+03  0.50400001928E-02 0. -1.
       -1    1    3    3    0  502 -0.49725065015E+03  0.47259876776E+03 -0.19494815952E+04  0.20666606626E+04  0.50400001928E-02 0.  1.
</event>
<event>
 5   0  0.4188865E-05  0.1856626E+04  0.7818609E-02  0.8676753E-01
       -1   -1    0    0    0  501  0.00000000000E+00  0.00000000000E+00  0.12357627207E+04  0.12357627207E+04  0.50400001928E-02 0.  1.
        1   -1    0    0  501    0  0.00000000000E+00  0.00000000000E+00 -0.69735457439E+03  0.69735457441E+03  0.50400001928E-02 0. -1.
    10030    2    1    2    0    0  0.00000000000E+00  0.00000000000E+00  0.53840814629E+03  0.19331172951E+04  0.18566257417E+04 0.  0.
        3    1    3    3  502    0  0.96947172668E+02  0.55313308541E+03  0.10388537358E+04  0.11809200053E+04  0.10100000352E+00 0.  1.
       -3    1    3    3    0  502 -0.96947172668E+02 -0.55313308541E+03 -0.50044558950E+03  0.75219728975E+03  0.10100000352E+00 0. -1.
</event>
<event>
 5   0  0.9938176E-05  0.1933872E+04  0.7818609E-02  0.8638177E-01
        2   -1    0    0  501    0  0.00000000000E+00  0.00000000000E+00  0.13575907300E+04  0.13575907300E+04  0.25500000920E-02 0. -1.
       -2   -1    0    0    0  501  0.00000000000E+00  0.00000000000E+00 -0.68869472869E+03  0.68869472869E+03  0.25500000920E-02 0.  1.
    10030    2    1    2    0    0  0.00000000000E+00  0.00000000000E+00  0.66889600135E+03  0.20462854587E+04  0.19338723634E+04 0.  0.
        5    1    3    3  502    0 -0.10015298737E+03  0.84813925010E+03 -0.14530876835E+03  0.86631838062E+03  0.46999998093E+01 0.  1.
       -5    1    3    3    0  502  0.10015298737E+03 -0.84813925010E+03  0.81420476970E+03  0.11799670781E+04  0.46999998093E+01 0. -1.
</event>
<event>
 5   0  0.3283125E-05  0.2213025E+04  0.7818609E-02  0.8513026E-01
        3   -1    0    0  501    0  0.00000000000E+00  0.00000000000E+00  0.58466710251E+03  0.58466711124E+03  0.10100000352E+00 0.  1.
       -3   -1    0    0    0  501  0.00000000000E+00  0.00000000000E+00 -0.20941324696E+04  0.20941324720E+04  0.10100000352E+00 0. -1.
    10030    2    1    2    0    0  0.00000000000E+00  0.00000000000E+00 -0.15094653670E+04  0.26787995832E+04  0.22130254207E+04 0.  0.
        4    1    3    3  502    0  0.89905310210E+03  0.27441327312E+03 -0.14613499869E+04  0.17375685661E+04  0.12699999809E+01 0. -1.
       -4    1    3    3    0  502 -0.89905310210E+03 -0.27441327312E+03 -0.48115380148E+02  0.94123101711E+03  0.12699999809E+01 0.  1.
</event>
<event>
 5   0  0.9254673E-05  0.2160427E+04  0.7818609E-02  0.8535082E-01
       -2   -1    0    0    0  501  0.00000000000E+00  0.00000000000E+00  0.13996319997E+04  0.13996319997E+04  0.25500000920E-02 0. -1.
        2   -1    0    0  501    0  0.00000000000E+00  0.00000000000E+00 -0.83369130700E+03  0.83369130700E+03  0.25500000920E-02 0.  1.
    10030    2    1    2    0    0  0.00000000000E+00  0.00000000000E+00  0.56594069270E+03  0.22333233067E+04  0.21604268385E+04 0.  0.
        2    1    3    3  502    0 -0.52870452473E+03  0.74683198253E+03 -0.31048611960E+03  0.96627538263E+03  0.25500000920E-02 0.  1.
       -2    1    3    3    0  502  0.52870452473E+03 -0.74683198253E+03  0.87642681230E+03  0.12670479241E+04  0.25500000920E-02 0. -1.
</event>
<event>
 5   0  0.9254673E-05  0.2228312E+04  0.7818609E-02  0.8506736E-01
        2   -1    0    0  501    0  0.00000000000E+00  0.00000000000E+00  0.86270266688E+03  0.86270266688E+03  0.25500000920E-02 0. -1.
       -2   -1    0    0    0  501  0.00000000000E+00  0.00000000000E+00 -0.14389002997E+04  0.14389002997E+04  0.25500000920E-02 0.  1.
    10030    2    1    2    0    0  0.00000000000E+00  0.00000000000E+00 -0.57619763285E+03  0.23016029666E+04  0.22283115814E+04 0.  0.
        2    1    3    3  502    0 -0.10910979226E+04 -0.13656266516E+03 -0.10275577977E+03  0.11044015522E+04  0.25500000920E-02 0. -1.
       -2    1    3    3    0  502  0.10910979226E+04  0.13656266516E+03 -0.47344185307E+03  0.11972014144E+04  0.25500000920E-02 0.  1.
</event>
<event>
 5   0  0.9938176E-05  0.2224383E+04  0.7818609E-02  0.8508347E-01
       -2   -1    0    0    0  501  0.00000000000E+00  0.00000000000E+00  0.11010082079E+04  0.11010082079E+04  0.25500000920E-02 0.  1.
        2   -1    0    0  501    0  0.00000000000E+00  0.00000000000E+00 -0.11234883384E+04  0.11234883384E+04  0.25500000920E-02 0. -1.
    10030    2    1    2    0    0  0.00000000000E+00  0.00000000000E+00 -0.22480130488E+02  0.22244965463E+04  0.22243829545E+04 0.  0.
        5    1    3    3  502    0  0.10117900336E+03  0.10921408925E+04  0.17299440115E+03  0.11103864520E+04  0.46999998093E+01 0.  1.
       -5    1    3    3    0  502 -0.10117900336E+03 -0.10921408925E+04 -0.19547453164E+03  0.11141100944E+04  0.46999998093E+01 0. -1.
</event>
<event>
 5   0  0.9457742E-05  0.2207376E+04  0.7818609E-02  0.8515365E-01
        2   -1    0    0  501    0  0.00000000000E+00  0.00000000000E+00  0.14749527945E+04  0.14749527945E+04  0.25500000920E-02 0. -1.
       -2   -1    0    0    0  501  0.00000000000E+00  0.00000000000E+00 -0.82587502084E+03  0.82587502084E+03  0.25500000920E-02 0.  1.
    10030    2    1    2    0    0  0.00000000000E+00  0.00000000000E+00  0.64907777365E+03  0.23008278153E+04  0.22073755185E+04 0.  0.
        1    1    3    3  502    0  0.21308943457E+03  0.48246047965E+03 -0.68601763253E+03  0.86532965610E+03  0.50400001928E-02 0.  1.
       -1    1    3    3    0  502 -0.21308943457E+03 -0.48246047965E+03  0.13350954062E+04  0.14354981592E+04  0.50400001928E-02 0. -1.
</event>
<event>
 5   0  0.9254673E-05  0.2213166E+04  0.7818609E-02  0.8512968E-01
       -2   -1    0    0    0  501  0.00000000000E+00  0.00000000000E+00  0.81530864528E+03  0.81530864529E+03  0.25500000920E-02 0. -1.
        2   -1    0    0  501    0  0.00000000000E+00  0.00000000000E+00 -0.15019172736E+04  0.15019172736E+04  0.25500000920E-02 0.  1.
    10030    2    1    2    0    0  0.00000000000E+00  0.00000000000E+00 -0.68660862831E+03  0.23172259189E+04  0.22131661823E+04 0.  0.
        2    1    3    3  502    0 -0.21523582764E+03  0.98417274088E+03  0.13604688310E+03  0.10165781818E+04  0.25500000920E-02 0.  1.
       -2    1    3    3    0  502  0.21523582764E+03 -0.98417274088E+03 -0.82265551142E+03  0.13006477370E+04  0.25500000920E-02 0. -1.
</event>
<event>
 5   0  0.9457742E-05  0.2193427E+04  0.7818609E-02  0.8521169E-01
       -2   -1    0    0    0  501  0.00000000000E+00  0.00000000000E+00  0.11857395666E+04  0.11857395666E+04  0.25500000920E-02 0.  1.
        2   -1    0    0  501    0  0.00000000000E+00  0.00000000000E+00 -0.10143716330E+04  0.10143716330E+04  0.25500000920E-02 0. -1.
    10030    2    1    2    0    0  0.00000000000E+00  0.00000000000E+00  0.17136793351E+03  0.22001111996E+04  0.21934270724E+04 0.  0.
        1    1    3    3  502    0  0.27202596913E+03 -0.69537996115E+03 -0.72002542544E+03  0.10372984294E+04  0.50400001928E-02 0. -1.
       -1    1    3    3    0  502 -0.27202596913E+03  0.69537996115E+03  0.89139335895E+03  0.11628127702E+04  0.50400001928E-02 0.  1.
</event>
<event>
 5   0  0.4133418E-05  0.2164985E+04  0.7818609E-02  0.8533145E-01
        1   -1    0    0  501    0  0.00000000000E+00  0.00000000000E+00  0.84014384548E+03  0.84014384549E+03  0.50400001928E-02 0.  1.
       -1   -1    0    0    0  501  0.00000000000E+00  0.00000000000E+00 -0.13947498814E+04  0.13947498814E+04  0.50400001928E-02 0. -1.
    10030    2    1    2    0    0  0.00000000000E+00  0.00000000000E+00 -0.55460603595E+03  0.22348937269E+04  0.21649854770E+04 0.  0.
        4    1    3    3  502    0  0.10355338636E+04 -0.28536923906E+03 -0.41588749753E+03  0.11518376660E+04  0.12699999809E+01 0.  1.
       -4    1    3    3    0  502 -0.10355338636E+04  0.28536923906E+03 -0.13871853842E+03  0.10830560609E+04  0.12699999809E+01 0. -1.
</event>
<event>
 5   0  0.4133418E-05  0.2237998E+04  0.7818609E-02  0.8502777E-01
       -1   -1    0    0    0  501  0.00000000000E+00  0.00000000000E+00  0.87242648725E+03  0.87242648726E+03  0.50400001928E-02 0.  1.
        1   -1    0    0  501    0  0.00000000000E+00  0.00000000000E+00 -0.14352604040E+04  0.14352604040E+04  0.50400001928E-02 0. -1.
    10030    2    1    2    0    0  0.00000000000E+00  0.00000000000E+00 -0.56283391670E+03  0.23076868912E+04  0.22379983848E+04 0.  0.
        4    1    3    3  502    0 -0.15521445304E+03  0.92184886963E+03  0.35276332216E+03  0.99916987506E+03  0.12699999809E+01 0.  1.
       -4    1    3    3    0  502  0.15521445304E+03 -0.92184886963E+03 -0.91559723886E+03  0.13085170162E+04  0.12699999809E+01 0. -1.
</event>
<event>
 5   0  0.4133418E-05  0.2174377E+04  0.7818609E-02  0.8529169E-01
        1   -1    0    0  501    0  0.00000000000E+00  0.00000000000E+00  0.15803215445E+04  0.15803215445E+04  0.50400001928E-02 0. -1.
       -1   -1    0    0    0  501  0.00000000000E+00  0.00000000000E+00 -0.74793581685E+03  0.74793581686E+03  0.50400001928E-02 0.  1.
    10030    2    1    2    0    0  0.00000000000E+00  0.00000000000E+00  0.83238572765E+03  0.23282573614E+04  0.21743772306E+04 0.  0.
        4    1    3    3  502    0 -0.64735070263E+03  0.53602170828E+03 -0.32224652774E+03  0.90012590313E+03  0.12699999809E+01 0.  1.
       -4    1    3    3    0  502  0.64735070263E+03 -0.53602170828E+03  0.11546322554E+04  0.14281314582E+04  0.12699999809E+01 0. -1.
</event>
<event>
 5   0  0.9442578E-05  0.2589115E+04  0.7818609E-02  0.8371908E-01
       -2   -1    0    0    0  501  0.00000000000E+00  0.00000000000E+00  0.96267379704E+03  0.96267379705E+03  0.25500000920E-02 0. -1.
        2   -1    0    0  501    0  0.00000000000E+00  0.00000000000E+00 -0.17408585283E+04  0.17408585283E+04  0.25500000920E-02 0.  1.
    10030    2    1    2    0    0  0.00000000000E+00  0.00000000000E+00 -0.77818473126E+03  0.27035323254E+04  0.25891148214E+04 0.  0.
        4    1    3    3  502    0 -0.43207550574E+03 -0.70403672414E+03  0.65171087058E+03  0.10521813643E+04  0.12699999809E+01 0. -1.
       -4    1    3    3    0  502  0.43207550574E+03  0.70403672414E+03 -0.14298956018E+04  0.16513509611E+04  0.12699999809E+01 0.  1.
</event>
<event>
 5   0  0.4174075E-05  0.2188686E+04  0.7818609E-02  0.8523152E-01
       -1   -1    0    0    0  501  0.00000000000E+00  0.00000000000E+00  0.83994993485E+03  0.83994993486E+03  0.50400001928E-02 0.  1.
        1   -1    0    0  501    0  0.00000000000E+00  0.00000000000E+00 -0.14257831887E+04  0.14257831887E+04  0.50400001928E-02 0. -1.
    10030    2    1    2    0    0  0.00000000000E+00  0.00000000000E+00 -0.58583325381E+03  0.22657331235E+04  0.21886859039E+04 0.  0.
        5    1    3    3  502    0  0.44268769918E+03 -0.79410060192E+03 -0.92345288897E+03  0.12958994919E+04  0.46999998093E+01 0. -1.
       -5    1    3    3    0  502 -0.44268769918E+03  0.79410060192E+03  0.33761963517E+03  0.96983363162E+03  0.46999998093E+01 0.  1.
</event>
<event>
 5   0  0.4174030E-05  0.2234404E+04  0.7818609E-02  0.8504244E-01
        1   -1    0    0  501    0  0.00000000000E+00  0.00000000000E+00  0.10145880542E+04  0.10145880542E+04  0.50400001928E-02 0.  1.
       -1   -1    0    0    0  501  0.00000000000E+00  0.00000000000E+00 -0.12301936319E+04  0.12301936320E+04  0.50400001928E-02 0. -1.
    10030    2    1    2    0    0  0.00000000000E+00  0.00000000000E+00 -0.21560557776E+03  0.22447816862E+04  0.22344035118E+04 0.  0.
        2    1    3    3  502    0  0.32222245152E+03 -0.54603140228E+02  0.96549022590E+03  0.10193037759E+04  0.25500000920E-02 0.  1.
       -2    1    3    3    0  502 -0.32222245152E+03  0.54603140228E+02 -0.11810958037E+04  0.12254779103E+04  0.25500000920E-02 0. -1.
</event>
<event>
 5   0  0.4133418E-05  0.2190849E+04  0.7818609E-02  0.8522246E-01
        1   -1    0    0  501    0  0.00000000000E+00  0.00000000000E+00  0.79454052990E+03  0.79454052992E+03  0.50400001928E-02 0.  1.
       -1   -1    0    0    0  501  0.00000000000E+00  0.00000000000E+00 -0.15102506799E+04  0.15102506799E+04  0.50400001928E-02 0. -1.
    10030    2    1    2    0    0  0.00000000000E+00  0.00000000000E+00 -0.71571014997E+03  0.23047912098E+04  0.21908494932E+04 0.  0.
        4    1    3    3  502    0 -0.84124905382E+03 -0.35741998773E+03 -0.99299679119E+03  0.13496270812E+04  0.12699999809E+01 0. -1.
       -4    1    3    3    0  502  0.84124905382E+03  0.35741998773E+03  0.27728664122E+03  0.95516412856E+03  0.12699999809E+01 0.  1.
</event>
<event>
 5   0  0.4133418E-05  0.2225384E+04  0.7818609E-02  0.8507937E-01
        1   -1    0    0  501    0  0.00000000000E+00  0.00000000000E+00  0.15172203576E+04  0.15172203576E+04  0.50400001928E-02 0. -1.
       -1   -1    0    0    0  501  0.00000000000E+00  0.00000000000E+00 -0.81602068239E+03  0.81602068241E+03  0.50400001928E-02 0.  1.
    10030    2    1    2    0    0  0.00000000000E+00  0.00000000000E+00  0.70119967521E+03  0.23332410400E+04  0.22253837346E+04 0.  0.
        4    1    3    3  502    0  0.35877367494E+03  0.71391179808E+03  0.11625309387E+04  0.14106269534E+04  0.12699999809E+01 0. -1.
       -4    1    3    3    0  502 -0.35877367494E+03 -0.71391179808E+03 -0.46133126350E+03  0.92261408663E+03  0.12699999809E+01 0.  1.
</event>
<event>
 5   0  0.9179618E-05  0.2198012E+04  0.7818609E-02  0.8519256E-01
       -2   -1    0    0    0  501  0.00000000000E+00  0.00000000000E+00  0.97124210799E+03  0.97124210800E+03  0.25500000920E-02 0. -1.
        2   -1    0    0  501    0  0.00000000000E+00  0.00000000000E+00 -0.12435771869E+04  0.12435771869E+04  0.25500000920E-02 0.  1.
    10030    2    1    2    0    0  0.00000000000E+00  0.00000000000E+00 -0.27233507892E+03  0.22148192949E+04  0.21980123098E+04 0.  0.
        3    1    3    3  502    0 -0.55250608659E+03 -0.85991770885E+03 -0.54310337903E+03  0.11574466434E+04  0.10100000352E+00 0.  1.
       -3    1    3    3    0  502  0.55250608659E+03  0.85991770885E+03  0.27076830011E+03  0.10573726516E+04  0.10100000352E+00 0. -1.
</event>
<event>
 5   0  0.4174030E-05  0.2224122E+04  0.7818609E-02  0.8508455E-01
       -1   -1    0    0    0  501  0.00000000000E+00  0.00000000000E+00  0.12869848312E+04  0.12869848312E+04  0.50400001928E-02 0. -1.
        1   -1    0    0  501    0  0.00000000000E+00  0.00000000000E+00 -0.96091217595E+03  0.96091217597E+03  0.50400001928E-02 0.  1.
    10030    2    1    2    0    0  0.00000000000E+00  0.00000000000E+00  0.32607265528E+03  0.22478970072E+04  0.22241217544E+04 0.  0.
        2    1    3    3  502    0  0.78722323826E+03 -0.25020866735E+02 -0.63042458068E+03  0.10088516356E+04  0.25500000920E-02 0.  1.
       -2    1    3    3    0  502 -0.78722323826E+03  0.25020866735E+02  0.95649723596E+03  0.12390453717E+04  0.25500000920E-02 0. -1.
</event>
<event>
 5   0  0.9179618E-05  0.2116465E+04  0.7818609E-02  0.8554025E-01
        2   -1    0    0  501    0  0.00000000000E+00  0.00000000000E+00  0.16628063992E+04  0.16628063992E+04  0.25500000920E-02 0. -1.
       -2   -1    0    0    0  501  0.00000000000E+00  0.00000000000E+00 -0.67347376762E+03  0.67347376763E+03  0.25500000920E-02 0.  1.
    10030    2    1    2    0    0  0.00000000000E+00  0.00000000000E+00  0.98933263156E+03  0.23362801668E+04  0.21164654408E+04 0.  0.
        3    1    3    3  502    0 -0.12877943948E+03  0.95046804763E+03  0.11500375943E+01  0.95915326532E+03  0.10100000352E+00 0.  1.
       -3    1    3    3    0  502  0.12877943948E+03 -0.95046804763E+03  0.98818259397E+03  0.13771269015E+04  0.10100000352E+00 0. -1.
</event>
<event>
 5   0  0.4174075E-05  0.2171543E+04  0.7818609E-02  0.8530367E-01
        1   -1    0    0  501    0  0.00000000000E+00  0.00000000000E+00  0.21354716539E+04  0.21354716539E+04  0.50400001928E-02 0.  1.
       -1   -1    0    0    0  501  0.00000000000E+00  0.00000000000E+00 -0.55205612679E+03  0.55205612681E+03  0.50400001928E-02 0. -1.
    10030    2    1    2    0    0  0.00000000000E+00  0.00000000000E+00  0.15834155271E+04  0.26875277807E+04  0.21715434236E+04 0.  0.
        5    1    3    3  502    0 -0.61806594179E+03  0.61356555484E+03  0.15941631976E+04  0.18165479870E+04  0.46999998093E+01 0.  1.
       -5    1    3    3    0  502  0.61806594179E+03 -0.61356555484E+03 -0.10747670582E+02  0.87097979363E+03  0.46999998093E+01 0. -1.
</event>
<event>
 5   0  0.9179618E-05  0.2202707E+04  0.7818609E-02  0.8517302E-01
       -2   -1    0    0    0  501  0.00000000000E+00  0.00000000000E+00  0.10118314349E+04  0.10118314349E+04  0.25500000920E-02 0.  1.
        2   -1    0    0  501    0  0.00000000000E+00  0.00000000000E+00 -0.11987960999E+04  0.11987960999E+04  0.25500000920E-02 0. -1.
    10030    2    1    2    0    0  0.00000000000E+00  0.00000000000E+00 -0.18696466507E+03  0.22106275348E+04  0.22027070417E+04 0.  0.
        3    1    3    3  502    0 -0.35443164280E+03 -0.10367423186E+04  0.18826912037E+02  0.10958151703E+04  0.10100000352E+00 0.  1.
       -3    1    3    3    0  502  0.35443164280E+03  0.10367423186E+04 -0.20579157711E+03  0.11148123645E+04  0.10100000352E+00 0. -1.
</event>
<event>
 5   0  0.4188865E-05  0.2193545E+04  0.7818609E-02  0.8521119E-01
       -1   -1    0    0    0  501  0.00000000000E+00  0.00000000000E+00  0.44159228862E+03  0.44159228864E+03  0.50400001928E-02 0. -1.
        1   -1    0    0  501    0  0.00000000000E+00  0.00000000000E+00 -0.27240292633E+04  0.27240292633E+04  0.50400001928E-02 0.  1.
    10030    2    1    2    0    0  0.00000000000E+00  0.00000000000E+00 -0.22824369747E+04  0.31656215519E+04  0.21935453646E+04 0.  0.
        3    1    3    3  502    0 -0.24780717413E+02 -0.96637668910E+03 -0.39354222217E+03  0.10437305591E+04  0.10100000352E+00 0. -1.
       -3    1    3    3    0  502  0.24780717413E+02  0.96637668910E+03 -0.18888947525E+04  0.21218909928E+04  0.10100000352E+00 0.  1.
</event>
<event>
 5   0  0.4174075E-05  0.2132850E+04  0.7818609E-02  0.8546909E-01
       -1   -1    0    0    0  501  0.00000000000E+00  0.00000000000E+00  0.11172522650E+04  0.11172522650E+04  0.50400001928E-02 0. -1.
        1   -1    0    0  501    0  0.00000000000E+00  0.00000000000E+00 -0.10179097975E+04  0.10179097975E+04  0.50400001928E-02 0.  1.
    10030    2    1    2    0    0  0.00000000000E+00  0.00000000000E+00  0.99342467515E+02  0.21351620625E+04  0.21328497620E+04 0.  0.
        5    1    3    3  502    0 -0.58004870807E+03  0.77157550183E+03 -0.40409126074E+03  0.10464688699E+04  0.46999998093E+01 0.  1.
       -5    1    3    3    0  502  0.58004870807E+03 -0.77157550183E+03  0.50343372826E+03  0.10886931925E+04  0.46999998093E+01 0. -1.
</event>
<event>
 5   0  0.9938176E-05  0.2150044E+04  0.7818609E-02  0.8539513E-01
        2   -1    0    0  501    0  0.00000000000E+00  0.00000000000E+00  0.13032354893E+04  0.13032354893E+04  0.25500000920E-02 0.  1.
       -2   -1    0    0    0  501  0.00000000000E+00  0.00000000000E+00 -0.88677188898E+03  0.88677188899E+03  0.25500000920E-02 0. -1.
    10030    2    1    2    0    0  0.00000000000E+00  0.00000000000E+00  0.41646360035E+03  0.21900073783E+04  0.21500442755E+04 0.  0.
        5    1    3    3  502    0 -0.54636805795E+03  0.91905968902E+03  0.94524717655E+02  0.10733805378E+04  0.46999998093E+01 0. -1.
       -5    1    3    3    0  502  0.54636805795E+03 -0.91905968902E+03  0.32193888270E+03  0.11166268405E+04  0.46999998093E+01 0.  1.
</event>
<event>
 5   0  0.4188865E-05  0.2185615E+04  0.7818609E-02  0.8524439E-01
       -1   -1    0    0    0  501  0.00000000000E+00  0.00000000000E+00  0.59688303773E+03  0.59688303775E+03  0.50400001928E-02 0. -1.
        1   -1    0    0  501    0  0.00000000000E+00  0.00000000000E+00 -0.20007748916E+04  0.20007748916E+04  0.50400001928E-02 0.  1.
    10030    2    1    2    0    0  0.00000000000E+00  0.00000000000E+00 -0.14038918539E+04  0.25976579294E+04  0.21856153323E+04 0.  0.
        3    1    3    3  502    0  0.10551238344E+04  0.41715588502E+02 -0.36746100177E+03  0.11180581802E+04  0.10100000352E+00 0. -1.
       -3    1    3    3    0  502 -0.10551238344E+04 -0.41715588502E+02 -0.10364308521E+04  0.14795997492E+04  0.10100000352E+00 0.  1.
</event>
<event>
 5   0  0.4174030E-05  0.2299175E+04  0.7818609E-02  0.8478246E-01
        1   -1    0    0  501    0  0.00000000000E+00  0.00000000000E+00  0.18929843532E+04  0.18929843532E+04  0.50400001928E-02 0. -1.
       -1   -1    0    0    0  501  0.00000000000E+00  0.00000000000E+00 -0.69813124628E+03  0.69813124630E+03  0.50400001928E-02 0.  1.
    10030    2    1    2    0    0  0.00000000000E+00  0.00000000000E+00  0.11948531069E+04  0.25911155995E+04  0.22991750918E+04 0.  0.
        2    1    3    3  502    0 -0.91785914422E+03 -0.61083641798E+03  0.96428281726E+03  0.14647279235E+04  0.25500000920E-02 0. -1.
       -2    1    3    3    0  502  0.91785914422E+03  0.61083641798E+03  0.23057028962E+03  0.11263876760E+04  0.25500000920E-02 0.  1.
</event>
<event>
 5   0  0.9254673E-05  0.2113683E+04  0.7818609E-02  0.8555240E-01
        2   -1    0    0  501    0  0.00000000000E+00  0.00000000000E+00  0.13089058257E+04  0.13089058257E+04  0.25500000920E-02 0. -1.
       -2   -1    0    0    0  501  0.00000000000E+00  0.00000000000E+00 -0.85331869323E+03  0.85331869323E+03  0.25500000920E-02 0.  1.
    10030    2    1    2    0    0  0.00000000000E+00  0.00000000000E+00  0.45558713243E+03  0.21622245189E+04  0.21136828605E+04 0.  0.
        2    1    3    3  502    0  0.97739862171E+03  0.37033394839E+03  0.67809784928E+02  0.10474032012E+04  0.25500000920E-02 0.  1.
       -2    1    3    3    0  502 -0.97739862171E+03 -0.37033394839E+03  0.38777734751E+03  0.11148213177E+04  0.25500000920E-02 0. -1.
</event>
<event>
 5   0  0.9254673E-05  0.2206110E+04  0.7818609E-02  0.8515889E-01
        2   -1    0    0  501    0  0.00000000000E+00  0.00000000000E+00  0.78222979560E+03  0.78222979560E+03  0.25500000920E-02 0.  1.
       -2   -1    0    0    0  501  0.00000000000E+00  0.00000000000E+00 -0.15554638977E+04  0.15554638977E+04  0.25500000920E-02 0. -1.
    10030    2    1    2    0    0  0.00000000000E+00  0.00000000000E+00 -0.77323410206E+03  0.23376936933E+04  0.22061098855E+04 0.  0.
        2    1    3    3  502    0 -0.50124923075E+03  0.82139566843E+03 -0.95802875464E+03  0.13578515126E+04  0.25500000920E-02 0. -1.
       -2    1    3    3    0  502  0.50124923075E+03 -0.82139566843E+03  0.18479465259E+03  0.97984218070E+03  0.25500000920E-02 0.  1.
</event>
<event>
 5   0  0.9442578E-05  0.2247117E+04  0.7818609E-02  0.8499069E-01
        2   -1    0    0  501    0  0.00000000000E+00  0.00000000000E+00  0.12013670346E+04  0.12013670346E+04  0.25500000920E-02 0.  1.
       -2   -1    0    0    0  501  0.00000000000E+00  0.00000000000E+00 -0.10507892020E+04  0.10507892020E+04  0.25500000920E-02 0. -1.
    10030    2    1    2    0    0  0.00000000000E+00  0.00000000000E+00  0.15057783263E+03  0.22521562367E+04  0.22471168262E+04 0.  0.
        4    1    3    3  502    0  0.41050325438E+03  0.67155357876E+03  0.87888799471E+03  0.11798062770E+04  0.12699999809E+01 0.  1.
       -4    1    3    3    0  502 -0.41050325438E+03 -0.67155357876E+03 -0.72831016208E+03  0.10723499597E+04  0.12699999809E+01 0. -1.
</event>
<event>
 5   0  0.9457742E-05  0.2199335E+04  0.7818609E-02  0.8518705E-01
        2   -1    0    0  501    0  0.00000000000E+00  0.00000000000E+00  0.13344156304E+04  0.13344156304E+04  0.25500000920E-02 0.  1.
       -2   -1    0    0    0  501  0.00000000000E+00  0.00000000000E+00 -0.90621573926E+03  0.90621573927E+03  0.25500000920E-02 0. -1.
    10030    2    1    2    0    0  0.00000000000E+00  0.00000000000E+00  0.42819989114E+03  0.22406313697E+04  0.21993348513E+04 0.  0.
        1    1    3    3  502    0  0.61539614091E+03 -0.57310077068E+03  0.93600346422E+03  0.12582763562E+04  0.50400001928E-02 0.  1.
       -1    1    3    3    0  502 -0.61539614091E+03  0.57310077068E+03 -0.50780357307E+03  0.98235501345E+03  0.50400001928E-02 0. -1.
</event>
<event>
 5   0  0.4174030E-05  0.2210017E+04  0.7818609E-02  0.8514270E-01
       -1   -1    0    0    0  501  0.00000000000E+00  0.00000000000E+00  0.60789745038E+03  0.60789745040E+03  0.50400001928E-02 0. -1.
        1   -1    0    0  501    0  0.00000000000E+00  0.00000000000E+00 -0.20086348778E+04  0.20086348778E+04  0.50400001928E-02 0.  1.
    10030    2    1    2    0    0  0.00000000000E+00  0.00000000000E+00 -0.14007374274E+04  0.26165323282E+04  0.22100172135E+04 0.  0.
        2    1    3    3  502    0  0.22120090383E+03  0.42846995132E+02 -0.19811501601E+04  0.19939211774E+04  0.25500000920E-02 0.  1.
       -2    1    3    3    0  502 -0.22120090383E+03 -0.42846995132E+02  0.58041273268E+03  0.62261115081E+03  0.25500000920E-02 0. -1.
</event>
<event>
 5   0  0.9254673E-05  0.2297687E+04  0.7818609E-02  0.8478834E-01
        2   -1    0    0  501    0  0.00000000000E+00  0.00000000000E+00  0.19867058823E+04  0.19867058823E+04  0.25500000920E-02 0. -1.
       -2   -1    0    0    0  501  0.00000000000E+00  0.00000000000E+00 -0.66433642475E+03  0.66433642475E+03  0.25500000920E-02 0.  1.
    10030    2    1    2    0    0  0.00000000000E+00  0.00000000000E+00  0.13223694576E+04  0.26510423071E+04  0.22976867349E+04 0.  0.
        2    1    3    3  502    0  0.40494872616E+03  0.32781750051E+03  0.18425602279E+04  0.19148044229E+04  0.25500000920E-02 0. -1.
       -2    1    3    3    0  502 -0.40494872616E+03 -0.32781750051E+03 -0.52019077037E+03  0.73623788414E+03  0.25500000920E-02 0.  1.
</event>
<event>
 5   0  0.9179618E-05  0.2190800E+04  0.7818609E-02  0.8522267E-01
       -2   -1    0    0    0  501  0.00000000000E+00  0.00000000000E+00  0.59521471782E+03  0.59521471782E+03  0.25500000920E-02 0. -1.
        2   -1    0    0  501    0  0.00000000000E+00  0.00000000000E+00 -0.20159135940E+04  0.20159135940E+04  0.25500000920E-02 0.  1.
    10030    2    1    2    0    0  0.00000000000E+00  0.00000000000E+00 -0.14206988761E+04  0.26111283118E+04  0.21908002565E+04 0.  0.
        3    1    3    3  502    0 -0.32433969411E+03  0.18760871720E+03 -0.19371602199E+04  0.19730643669E+04  0.10100000352E+00 0.  1.
       -3    1    3    3    0  502  0.32433969411E+03 -0.18760871720E+03  0.51646134380E+03  0.63806394490E+03  0.10100000352E+00 0. -1.
</event>
<event>
 5   0  0.3283125E-05  0.2068219E+04  0.7818609E-02  0.8575374E-01
        3   -1    0    0  501    0  0.00000000000E+00  0.00000000000E+00  0.18667358130E+04  0.18667358158E+04  0.10100000352E+00 0. -1.
       -3   -1    0    0    0  501  0.00000000000E+00  0.00000000000E+00 -0.57286227990E+03  0.57286228881E+03  0.10100000352E+00 0.  1.
    10030    2    1    2    0    0  0.00000000000E+00  0.00000000000E+00  0.12938735331E+04  0.24395981046E+04  0.20682190871E+04 0.  0.
        3    1    3    3  502    0  0.78438740606E+03 -0.43396741554E+03  0.38812885462E+02  0.89727240614E+03  0.10100000352E+00 0.  1.
       -3    1    3    3    0  502 -0.78438740606E+03  0.43396741554E+03  0.12550606477E+04  0.15423256984E+04  0.10100000352E+00 0. -1.
</event>
<event>
 5   0  0.3283125E-05  0.2221067E+04  0.7818609E-02  0.8509710E-01
       -3   -1    0    0    0  501  0.00000000000E+00  0.00000000000E+00  0.54887513206E+03  0.54887514135E+03  0.10100000352E+00 0. -1.
        3   -1    0    0  501    0  0.00000000000E+00  0.00000000000E+00 -0.22469310105E+04  0.22469310128E+04  0.10100000352E+00 0.  1.
    10030    2    1    2    0    0  0.00000000000E+00  0.00000000000E+00 -0.16980558784E+04  0.27958061541E+04  0.22210669250E+04 0.  0.
        1    1    3    3  502    0  0.23038702585E+02  0.26567182005E+03  0.50797461990E+03  0.57371640404E+03  0.50400001928E-02 0. -1.
       -1    1    3    3    0  502 -0.23038702585E+02 -0.26567182005E+03 -0.22060304983E+04  0.22220897501E+04  0.50400001928E-02 0.  1.
</event>
<event>
 5   0  0.4188865E-05  0.2143503E+04  0.7818609E-02  0.8542318E-01
       -1   -1    0    0    0  501  0.00000000000E+00  0.00000000000E+00  0.67468289504E+03  0.67468289505E+03  0.50400001928E-02 0. -1.
        1   -1    0    0  501    0  0.00000000000E+00  0.00000000000E+00 -0.17025053053E+04  0.17025053053E+04  0.50400001928E-02 0.  1.
    10030    2    1    2    0    0  0.00000000000E+00  0.00000000000E+00 -0.10278224103E+04  0.23771882004E+04  0.21435029351E+04 0.  0.
        3    1    3    3  502    0 -0.94047747931E+02 -0.27813026344E+03 -0.16570361133E+04  0.16828458377E+04  0.10100000352E+00 0.  1.
       -3    1    3    3    0  502  0.94047747931E+02  0.27813026344E+03  0.62921370305E+03  0.69434236270E+03  0.10100000352E+00 0. -1.
</event>
<event>
 5   0  0.9938176E-05  0.2184280E+04  0.7818609E-02  0.8525000E-01
        2   -1    0    0  501    0  0.00000000000E+00  0.00000000000E+00  0.17979416009E+04  0.17979416009E+04  0.25500000920E-02 0.  1.
       -2   -1    0    0    0  501  0.00000000000E+00  0.00000000000E+00 -0.66340861841E+03  0.66340861842E+03  0.25500000920E-02 0. -1.
    10030    2    1    2    0    0  0.00000000000E+00  0.00000000000E+00  0.11345329824E+04  0.24613502193E+04  0.21842801592E+04 0.  0.
        5    1    3    3  502    0 -0.26044898350E+02  0.79895302704E+03 -0.27126509562E+03  0.84416296901E+03  0.46999998093E+01 0. -1.
       -5    1    3    3    0  502  0.26044898350E+02 -0.79895302704E+03  0.14057980781E+04  0.16171872503E+04  0.46999998093E+01 0.  1.
</event>
<event>
 5   0  0.4133418E-05  0.2193876E+04  0.7818609E-02  0.8520981E-01
       -1   -1    0    0    0  501  0.00000000000E+00  0.00000000000E+00  0.87460950337E+03  0.87460950338E+03  0.50400001928E-02 0.  1.
        1   -1    0    0  501    0  0.00000000000E+00  0.00000000000E+00 -0.13757829297E+04  0.13757829297E+04  0.50400001928E-02 0. -1.
    10030    2    1    2    0    0  0.00000000000E+00  0.00000000000E+00 -0.50117342629E+03  0.22503924331E+04  0.21938758624E+04 0.  0.
        4    1    3    3  502    0 -0.19262093453E+03 -0.78156634228E+03  0.51381001694E+03  0.95496131765E+03  0.12699999809E+01 0.  1.
       -4    1    3    3    0  502  0.19262093453E+03  0.78156634228E+03 -0.10149834432E+04  0.12954311154E+04  0.12699999809E+01 0. -1.
</event>
<event>
 5   0  0.9457742E-05  0.2136713E+04  0.7818609E-02  0.8545241E-01
       -2   -1    0    0    0  501  0.00000000000E+00  0.00000000000E+00  0.65536947199E+03  0.65536947200E+03  0.25500000920E-02 0.  1.
        2   -1    0    0  501    0  0.00000000000E+00  0.00000000000E+00 -0.17415918547E+04  0.17415918547E+04  0.25500000920E-02 0. -1.
    10030    2    1    2    0    0  0.00000000000E+00  0.00000000000E+00 -0.10862223827E+04  0.23969613267E+04  0.21367134897E+04 0.  0.
        1    1    3    3  502    0 -0.15778002487E+03  0.27925456991E+03  0.60008234279E+03  0.68042374240E+03  0.50400001928E-02 0.  1.
       -1    1    3    3    0  502  0.15778002487E+03 -0.27925456991E+03 -0.16863047255E+04  0.17165375843E+04  0.50400001928E-02 0. -1.
</event>
<event>
 5   0  0.9254673E-05  0.2195766E+04  0.7818609E-02  0.8520192E-01
        2   -1    0    0  501    0  0.00000000000E+00  0.00000000000E+00  0.72242627909E+03  0.72242627910E+03  0.25500000920E-02 0. -1.
       -2   -1    0    0    0  501  0.00000000000E+00  0.00000000000E+00 -0.16684712014E+04  0.16684712014E+04  0.25500000920E-02 0.  1.
    10030    2    1    2    0    0  0.00000000000E+00  0.00000000000E+00 -0.94604492228E+03  0.23908974805E+04  0.21957663280E+04 0.  0.
        2    1    3    3  502    0  0.41679940421E+03 -0.38782876134E+03 -0.14951748858E+04  0.15999002565E+04  0.25500000920E-02 0.  1.
       -2    1    3    3    0  502 -0.41679940421E+03  0.38782876134E+03  0.54912996355E+03  0.79099722398E+03  0.25500000920E-02 0. -1.
</event>
<event>
 5   0  0.4174075E-05  0.2182166E+04  0.7818609E-02  0.8525888E-01
       -1   -1    0    0    0  501  0.00000000000E+00  0.00000000000E+00  0.14209932699E+04  0.14209932699E+04  0.50400001928E-02 0. -1.
        1   -1    0    0  501    0  0.00000000000E+00  0.00000000000E+00 -0.83776752317E+03  0.83776752318E+03  0.50400001928E-02 0.  1.
    10030    2    1    2    0    0  0.00000000000E+00  0.00000000000E+00  0.58322574676E+03  0.22587607931E+04  0.21821659077E+04 0.  0.
        5    1    3    3  502    0 -0.77681259450E+03 -0.56034401808E+03  0.83246317737E+03  0.12690312278E+04  0.46999998093E+01 0. -1.
       -5    1    3    3    0  502  0.77681259450E+03  0.56034401808E+03 -0.24923743061E+03  0.98972956528E+03  0.46999998093E+01 0.  1.
</event>
<event>
 5   0  0.9442578E-05  0.2195434E+04  0.7818609E-02  0.8520331E-01
       -2   -1    0    0    0  501  0.00000000000E+00  0.00000000000E+00  0.18201070708E+04  0.18201070708E+04  0.25500000920E-02 0.  1.
        2   -1    0    0  501    0  0.00000000000E+00  0.00000000000E+00 -0.66203950481E+03  0.66203950482E+03  0.25500000920E-02 0. -1.
    10030    2    1    2    0    0  0.00000000000E+00  0.00000000000E+00  0.11580675660E+04  0.24821465757E+04  0.21954341565E+04 0.  0.
        4    1    3    3  502    0 -0.28277194794E+03  0.94515827480E+03  0.11232446912E+04  0.14949797283E+04  0.12699999809E+01 0.  1.
       -4    1    3    3    0  502  0.28277194794E+03 -0.94515827480E+03  0.34822874874E+02  0.98716684734E+03  0.12699999809E+01 0. -1.
</event>
<event>
 5   0  0.9938176E-05  0.2185941E+04  0.7818609E-02  0.8524303E-01
        2   -1    0    0  501    0  0.00000000000E+00  0.00000000000E+00  0.56948500299E+03  0.56948500299E+03  0.25500000920E-02 0.  1.
       -2   -1    0    0    0  501  0.00000000000E+00  0.00000000000E+00 -0.20976577312E+04  0.20976577312E+04  0.25500000920E-02 0. -1.
    10030    2    1    2    0    0  0.00000000000E+00  0.00000000000E+00 -0.15281727282E+04  0.26671427342E+04  0.21859410965E+04 0.  0.
        5    1    3    3  502    0  0.94265731277E+03  0.53174534874E+02 -0.92311374949E+02  0.94866950010E+03  0.46999998093E+01 0.  1.
       -5    1    3    3    0  502 -0.94265731277E+03 -0.53174534874E+02 -0.14358613533E+04  0.17184732341E+04  0.46999998093E+01 0. -1.
</event>
<event>
 5   0  0.4133418E-05  0.2133193E+04  0.7818609E-02  0.8546761E-01
        1   -1    0    0  501    0  0.00000000000E+00  0.00000000000E+00  0.12924354678E+04  0.12924354678E+04  0.50400001928E-02 0. -1.
       -1   -1    0    0    0  501  0.00000000000E+00  0.00000000000E+00 -0.88022037115E+03  0.88022037116E+03  0.50400001928E-02 0.  1.
    10030    2    1    2    0    0  0.00000000000E+00  0.00000000000E+00  0.41221509662E+03  0.21726558389E+04  0.21331929375E+04 0.  0.
        4    1    3    3  502    0 -0.24732792077E+03  0.62223460087E+03 -0.63947975698E+03  0.92589576703E+03  0.12699999809E+01 0.  1.
       -4    1    3    3    0  502  0.24732792077E+03 -0.62223460087E+03  0.10516948536E+04  0.12467600719E+04  0.12699999809E+01 0. -1.
</event>
<event>
 5   0  0.9179618E-05  0.2191683E+04  0.7818609E-02  0.8521898E-01
        2   -1    0    0  501    0  0.00000000000E+00  0.00000000000E+00  0.18212225905E+04  0.18212225905E+04  0.25500000920E-02 0.  1.
       -2   -1    0    0    0  501  0.00000000000E+00  0.00000000000E+00 -0.65937491939E+03  0.65937491939E+03  0.25500000920E-02 0. -1.
    10030    2    1    2    0    0  0.00000000000E+00  0.00000000000E+00  0.11618476712E+04  0.24805975099E+04  0.21916829140E+04 0.  0.
        3    1    3    3  502    0  0.55528006053E+03 -0.53895495027E+02 -0.48661272838E+03  0.74029225825E+03  0.10100000352E+00 0. -1.
       -3    1    3    3    0  502 -0.55528006053E+03  0.53895495027E+02  0.16484603995E+04  0.17403052517E+04  0.10100000352E+00 0.  1.
</event>
<event>
 5   0  0.4174075E-05  0.2214050E+04  0.7818609E-02  0.8512603E-01
       -1   -1    0    0    0  501  0.00000000000E+00  0.00000000000E+00  0.85229434290E+03  0.85229434292E+03  0.50400001928E-02 0. -1.
        1   -1    0    0  501    0  0.00000000000E+00  0.00000000000E+00 -0.14378888968E+04  0.14378888968E+04  0.50400001928E-02 0.  1.
    10030    2    1    2    0    0  0.00000000000E+00  0.00000000000E+00 -0.58559455391E+03  0.22901832397E+04  0.22140502004E+04 0.  0.
        5    1    3    3  502    0  0.30336489278E+03 -0.22972255944E+03  0.78250676736E+03  0.87013886446E+03  0.46999998093E+01 0. -1.
       -5    1    3    3    0  502 -0.30336489278E+03  0.22972255944E+03 -0.13681013213E+04  0.14200443753E+04  0.46999998093E+01 0.  1.
</event>
<event>
 5   0  0.4188865E-05  0.2217360E+04  0.7818609E-02  0.8511237E-01
       -1   -1    0    0    0  501  0.00000000000E+00  0.00000000000E+00  0.11043839676E+04  0.11043839676E+04  0.50400001928E-02 0. -1.
        1   -1    0    0  501    0  0.00000000000E+00  0.00000000000E+00 -0.11129926452E+04  0.11129926453E+04  0.50400001928E-02 0.  1.
    10030    2    1    2    0    0  0.00000000000E+00  0.00000000000E+00 -0.86086776925E+01  0.22173766128E+04  0.22173599017E+04 0.  0.
        3    1    3    3  502    0  0.94009383090E+03 -0.40240943355E+03 -0.43263157993E+03  0.11103512315E+04  0.10100000352E+00 0. -1.
       -3    1    3    3    0  502 -0.94009383090E+03  0.40240943355E+03  0.42402290224E+03  0.11070253813E+04  0.10100000352E+00 0.  1.
</event>
<event>
 5   0  0.4188865E-05  0.2091788E+04  0.7818609E-02  0.8564870E-01
       -1   -1    0    0    0  501  0.00000000000E+00  0.00000000000E+00  0.87128457107E+03  0.87128457108E+03  0.50400001928E-02 0.  1.
        1   -1    0    0  501    0  0.00000000000E+00  0.00000000000E+00 -0.12554955919E+04  0.12554955919E+04  0.50400001928E-02 0. -1.
    10030    2    1    2    0    0  0.00000000000E+00  0.00000000000E+00 -0.38421102086E+03  0.21267801630E+04  0.20917876932E+04 0.  0.
        3    1    3    3  502    0  0.64895254186E+03 -0.71619214533E+03 -0.59857232606E+03  0.11368198759E+04  0.10100000352E+00 0. -1.
       -3    1    3    3    0  502 -0.64895254186E+03  0.71619214533E+03  0.21436130520E+03  0.98996028707E+03  0.10100000352E+00 0.  1.
</event>
<event>
 5   0  0.4063293E-05  0.2323072E+04  0.7818609E-02  0.8468879E-01
        1   -1    0    0  501    0  0.00000000000E+00  0.00000000000E+00  0.97124659691E+03  0.97124659692E+03  0.50400001928E-02 0.  1.
       -1   -1    0    0    0  501  0.00000000000E+00  0.00000000000E+00 -0.13891073192E+04  0.13891073192E+04  0.50400001928E-02 0. -1.
    10030    2    1    2    0    0  0.00000000000E+00  0.00000000000E+00 -0.41786072233E+03  0.23603539162E+04  0.23230718943E+04 0.  0.
        1    1    3    3  502    0  0.51301991400E+03  0.77195541473E+03  0.50234803678E+03  0.10542571530E+04  0.50400001928E-02 0.  1.
       -1    1    3    3    0  502 -0.51301991400E+03 -0.77195541473E+03 -0.92020875911E+03  0.13060967632E+04  0.50400001928E-02 0. -1.
</event>
<event>
 5   0  0.9179618E-05  0.2182365E+04  0.7818609E-02  0.8525804E-01
        2   -1    0    0  501    0  0.00000000000E+00  0.00000000000E+00  0.24935778957E+04  0.24935778957E+04  0.25500000920E-02 0.  1.
       -2   -1    0    0    0  501  0.00000000000E+00  0.00000000000E+00 -0.47749839708E+03  0.47749839709E+03  0.25500000920E-02 0. -1.
    10030    2    1    2    0    0  0.00000000000E+00  0.00000000000E+00  0.20160794986E+04  0.29710762928E+04  0.21823651832E+04 0.  0.
        3    1    3    3  502    0  0.32037914818E+03  0.93314696936E+03  0.16426245017E+04  0.19161475227E+04  0.10100000352E+00 0.  1.
       -3    1    3    3    0  502 -0.32037914818E+03 -0.93314696936E+03  0.37345499692E+03  0.10549287701E+04  0.10100000352E+00 0. -1.
</event>
<event>
 5   0  0.3283125E-05  0.2201025E+04  0.7818609E-02  0.8518002E-01
        3   -1    0    0  501    0  0.00000000000E+00  0.00000000000E+00  0.12085734920E+04  0.12085734962E+04  0.10100000352E+00 0.  1.
       -3   -1    0    0    0  501  0.00000000000E+00  0.00000000000E+00 -0.10021130212E+04  0.10021130263E+04  0.10100000352E+00 0. -1.
    10030    2    1    2    0    0  0.00000000000E+00  0.00000000000E+00  0.20646047074E+03  0.22106865225E+04  0.22010245284E+04 0.  0.
        2    1    3    3  502    0 -0.41361872524E+03  0.22760102992E+03 -0.89523856414E+03  0.10120942473E+04  0.25500000920E-02 0. -1.
       -2    1    3    3    0  502  0.41361872524E+03 -0.22760102992E+03  0.11016990349E+04  0.11985922752E+04  0.25500000920E-02 0.  1.
</event>
<event>
 5   0  0.9179618E-05  0.2256928E+04  0.7818609E-02  0.8495100E-01
        2   -1    0    0  501    0  0.00000000000E+00  0.00000000000E+00  0.79381538421E+03  0.79381538422E+03  0.25500000920E-02 0.  1.
       -2   -1    0    0    0  501  0.00000000000E+00  0.00000000000E+00 -0.16041903745E+04  0.16041903745E+04  0.25500000920E-02 0. -1.
    10030    2    1    2    0    0  0.00000000000E+00  0.00000000000E+00 -0.81037499026E+03  0.23980057587E+04  0.22569279993E+04 0.  0.
        3    1    3    3  502    0 -0.32395230133E+03  0.10803769277E+04 -0.44307585897E+03  0.12118067612E+04  0.10100000352E+00 0.  1.
       -3    1    3    3    0  502  0.32395230133E+03 -0.10803769277E+04 -0.36729913129E+03  0.11861989975E+04  0.10100000352E+00 0. -1.
</event>
<event>
 5   0  0.9938176E-05  0.2155855E+04  0.7818609E-02  0.8537030E-01
        2   -1    0    0  501    0  0.00000000000E+00  0.00000000000E+00  0.10013204396E+04  0.10013204396E+04  0.25500000920E-02 0. -1.
       -2   -1    0    0    0  501  0.00000000000E+00  0.00000000000E+00 -0.11603951960E+04  0.11603951960E+04  0.25500000920E-02 0.  1.
    10030    2    1    2    0    0  0.00000000000E+00  0.00000000000E+00 -0.15907475635E+03  0.21617156356E+04  0.21558547519E+04 0.  0.
        5    1    3    3  502    0  0.55243364985E+03  0.90541831112E+03  0.11318315792E+03  0.10666760393E+04  0.46999998093E+01 0. -1.
       -5    1    3    3    0  502 -0.55243364985E+03 -0.90541831112E+03 -0.27225791427E+03  0.10950395963E+04  0.46999998093E+01 0.  1.
</event>
<event>
 5   0  0.4174030E-05  0.2138491E+04  0.7818609E-02  0.8544475E-01
        1   -1    0    0  501    0  0.00000000000E+00  0.00000000000E+00  0.10392551004E+04  0.10392551005E+04  0.50400001928E-02 0.  1.
       -1   -1    0    0    0  501  0.00000000000E+00  0.00000000000E+00 -0.11001012701E+04  0.11001012701E+04  0.50400001928E-02 0. -1.
    10030    2    1    2    0    0  0.00000000000E+00  0.00000000000E+00 -0.60846169667E+02  0.21393563706E+04  0.21384909221E+04 0.  0.
        2    1    3    3  502    0  0.92959473127E+03 -0.12780496716E+03 -0.54327602667E+03  0.10842644120E+04  0.25500000920E-02 0. -1.
       -2    1    3    3    0  502 -0.92959473127E+03  0.12780496716E+03  0.48242985700E+03  0.10550919585E+04  0.25500000920E-02 0.  1.
</event>
<event>
 5   0  0.4133418E-05  0.2097396E+04  0.7818609E-02  0.8562391E-01
       -1   -1    0    0    0  501  0.00000000000E+00  0.00000000000E+00  0.53449135724E+03  0.53449135726E+03  0.50400001928E-02 0. -1.
        1   -1    0    0  501    0  0.00000000000E+00  0.00000000000E+00 -0.20575957073E+04  0.20575957073E+04  0.50400001928E-02 0.  1.
    10030    2    1    2    0    0  0.00000000000E+00  0.00000000000E+00 -0.15231043501E+04  0.25920870646E+04  0.20973956444E+04 0.  0.
        4    1    3    3  502    0  0.97997092402E+03 -0.24326854734E+03 -0.41146793395E+03  0.10903348438E+04  0.12699999809E+01 0. -1.
       -4    1    3    3    0  502 -0.97997092402E+03  0.24326854734E+03 -0.11116364161E+04  0.15017522208E+04  0.12699999809E+01 0.  1.
</event>
<event>
 5   0  0.9254673E-05  0.2205033E+04  0.7818609E-02  0.8516336E-01
       -2   -1    0    0    0  501  0.00000000000E+00  0.00000000000E+00  0.56556818720E+03  0.56556818720E+03  0.25500000920E-02 0. -1.
        2   -1    0    0  501    0  0.00000000000E+00  0.00000000000E+00 -0.21492407988E+04  0.21492407988E+04  0.25500000920E-02 0.  1.
    10030    2    1    2    0    0  0.00000000000E+00  0.00000000000E+00 -0.15836726116E+04  0.27148089860E+04  0.22050326278E+04 0.  0.
        2    1    3    3  502    0 -0.16765663109E+03  0.65097436252E+03  0.28407369555E+03  0.72977683651E+03  0.25500000920E-02 0. -1.
       -2    1    3    3    0  502  0.16765663109E+03 -0.65097436252E+03 -0.18677463071E+04  0.19850321495E+04  0.25500000920E-02 0.  1.
</event>
<event>
 5   0  0.9179618E-05  0.2204275E+04  0.7818609E-02  0.8516651E-01
       -2   -1    0    0    0  501  0.00000000000E+00  0.00000000000E+00  0.78669913276E+03  0.78669913276E+03  0.25500000920E-02 0.  1.
        2   -1    0    0  501    0  0.00000000000E+00  0.00000000000E+00 -0.15440553696E+04  0.15440553696E+04  0.25500000920E-02 0. -1.
    10030    2    1    2    0    0  0.00000000000E+00  0.00000000000E+00 -0.75735623680E+03  0.23307545023E+04  0.22042749558E+04 0.  0.
        3    1    3    3  502    0  0.71869477226E+03 -0.53376925751E+03 -0.10584300419E+04  0.13862560946E+04  0.10100000352E+00 0. -1.
       -3    1    3    3    0  502 -0.71869477226E+03  0.53376925751E+03  0.30107380510E+03  0.94449840776E+03  0.10100000352E+00 0.  1.
</event>
<event>
 5   0  0.4063293E-05  0.1593268E+04  0.7818609E-02  0.8824694E-01
        1   -1    0    0  501    0  0.00000000000E+00  0.00000000000E+00  0.10359898863E+04  0.10359898863E+04  0.50400001928E-02 0.  1.
       -1   -1    0    0    0  501  0.00000000000E+00  0.00000000000E+00 -0.61257901502E+03  0.61257901504E+03  0.50400001928E-02 0. -1.
    10030    2    1    2    0    0  0.00000000000E+00  0.00000000000E+00  0.42341087126E+03  0.16485689013E+04  0.15932679174E+04 0.  0.
        1    1    3    3  502    0 -0.21421120740E+03 -0.26149009520E+03 -0.53469372580E+03  0.63258271530E+03  0.50400001928E-02 0. -1.
       -1    1    3    3    0  502  0.21421120740E+03  0.26149009520E+03  0.95810459706E+03  0.10159861860E+04  0.50400001928E-02 0.  1.
</event>
<event>
 5   0  0.9938176E-05  0.2233320E+04  0.7818609E-02  0.8504686E-01
       -2   -1    0    0    0  501  0.00000000000E+00  0.00000000000E+00  0.10317364732E+04  0.10317364732E+04  0.25500000920E-02 0.  1.
        2   -1    0    0  501    0  0.00000000000E+00  0.00000000000E+00 -0.12085735601E+04  0.12085735601E+04  0.25500000920E-02 0. -1.
    10030    2    1    2    0    0  0.00000000000E+00  0.00000000000E+00 -0.17683708689E+03  0.22403100333E+04  0.22333198808E+04 0.  0.
        5    1    3    3  502    0  0.38387399014E+03  0.96389001611E+03 -0.50258382836E+03  0.11528468233E+04  0.46999998093E+01 0. -1.
       -5    1    3    3    0  502 -0.38387399014E+03 -0.96389001611E+03  0.32574674147E+03  0.10874632100E+04  0.46999998093E+01 0.  1.
</event>
<event>
 5   0  0.4133418E-05  0.2190817E+04  0.7818609E-02  0.8522260E-01
        1   -1    0    0  501    0  0.00000000000E+00  0.00000000000E+00  0.11970989739E+04  0.11970989739E+04  0.50400001928E-02 0.  1.
       -1   -1    0    0    0  501  0.00000000000E+00  0.00000000000E+00 -0.10023565794E+04  0.10023565794E+04  0.50400001928E-02 0. -1.
    10030    2    1    2    0    0  0.00000000000E+00  0.00000000000E+00  0.19474239445E+03  0.21994555533E+04  0.21908172290E+04 0.  0.
        4    1    3    3  502    0  0.50707718297E+02  0.98924830662E+03 -0.37216396200E+03  0.10581545787E+04  0.12699999809E+01 0. -1.
       -4    1    3    3    0  502 -0.50707718297E+02 -0.98924830662E+03  0.56690635645E+03  0.11413009746E+04  0.12699999809E+01 0.  1.
</event>
<event>
 5   0  0.4174075E-05  0.2215901E+04  0.7818609E-02  0.8511839E-01
       -1   -1    0    0    0  501  0.00000000000E+00  0.00000000000E+00  0.80650705692E+03  0.80650705694E+03  0.50400001928E-02 0. -1.
        1   -1    0    0  501    0  0.00000000000E+00  0.00000000000E+00 -0.15220625187E+04  0.15220625187E+04  0.50400001928E-02 0.  1.
    10030    2    1    2    0    0  0.00000000000E+00  0.00000000000E+00 -0.71555546174E+03  0.23285695756E+04  0.22159008664E+04 0.  0.
        5    1    3    3  502    0  0.40549113790E+03 -0.85435925001E+03 -0.96434348236E+03  0.13506788045E+04  0.46999998093E+01 0.  1.
       -5    1    3    3    0  502 -0.40549113790E+03  0.85435925001E+03  0.24878802062E+03  0.97789077109E+03  0.46999998093E+01 0. -1.
</event>
<event>
 5   0  0.9254673E-05  0.2224282E+04  0.7818609E-02  0.8508389E-01
       -2   -1    0    0    0  501  0.00000000000E+00  0.00000000000E+00  0.68798665212E+03  0.68798665213E+03  0.25500000920E-02 0.  1.
        2   -1    0    0  501    0  0.00000000000E+00  0.00000000000E+00 -0.17977927006E+04  0.17977927006E+04  0.25500000920E-02 0. -1.
    10030    2    1    2    0    0  0.00000000000E+00  0.00000000000E+00 -0.11098060484E+04  0.24857793527E+04  0.22242817998E+04 0.  0.
        2    1    3    3  502    0  0.10135504063E+04  0.40288454202E+03 -0.31195920969E+03  0.11344244924E+04  0.25500000920E-02 0. -1.
       -2    1    3    3    0  502 -0.10135504063E+04 -0.40288454202E+03 -0.79784683875E+03  0.13513548603E+04  0.25500000920E-02 0.  1.
</event>
<event>
 5   0  0.4063293E-05  0.2203950E+04  0.7818609E-02  0.8516786E-01
       -1   -1    0    0    0  501  0.00000000000E+00  0.00000000000E+00  0.59995597743E+03  0.59995597745E+03  0.50400001928E-02 0. -1.
        1   -1    0    0  501    0  0.00000000000E+00  0.00000000000E+00 -0.20240641008E+04  0.20240641008E+04  0.50400001928E-02 0.  1.
    10030    2    1    2    0    0  0.00000000000E+00  0.00000000000E+00 -0.14241081234E+04  0.26240200783E+04  0.22039504133E+04 0.  0.
        1    1    3    3  502    0  0.71997891797E+02 -0.19743980268E+03  0.57587594337E+03  0.61302469305E+03  0.50400001928E-02 0. -1.
       -1    1    3    3    0  502 -0.71997891797E+02  0.19743980268E+03 -0.19999840668E+04  0.20109953853E+04  0.50400001928E-02 0.  1.
</event>
<event>
 5   0  0.4174030E-05  0.2199938E+04  0.7818609E-02  0.8518454E-01
       -1   -1    0    0    0  501  0.00000000000E+00  0.00000000000E+00  0.54406525553E+03  0.54406525555E+03  0.50400001928E-02 0.  1.
        1   -1    0    0  501    0  0.00000000000E+00  0.00000000000E+00 -0.22238716219E+04  0.22238716219E+04  0.50400001928E-02 0. -1.
    10030    2    1    2    0    0  0.00000000000E+00  0.00000000000E+00 -0.16798063664E+04  0.27679368775E+04  0.21999375284E+04 0.  0.
        2    1    3    3  502    0 -0.57266969975E+03  0.88604481158E+03 -0.44823384485E+03  0.11462720326E+04  0.25500000920E-02 0.  1.
       -2    1    3    3    0  502  0.57266969975E+03 -0.88604481158E+03 -0.12315725215E+04  0.16216648448E+04  0.25500000920E-02 0. -1.
</event>
<event>
 5   0  0.9938176E-05  0.2216514E+04  0.7818609E-02  0.8511586E-01
        2   -1    0    0  501    0  0.00000000000E+00  0.00000000000E+00  0.27272674857E+04  0.27272674857E+04  0.25500000920E-02 0.  1.
       -2   -1    0    0    0  501  0.00000000000E+00  0.00000000000E+00 -0.45035314364E+03  0.45035314364E+03  0.25500000920E-02 0. -1.
    10030    2    1    2    0    0  0.00000000000E+00  0.00000000000E+00  0.22769143420E+04  0.31776206293E+04  0.22165139167E+04 0.  0.
        5    1    3    3  502    0  0.67100530201E+03 -0.35831166345E+03 -0.16980651884E+02  0.76088487698E+03  0.46999998093E+01 0. -1.
       -5    1    3    3    0  502 -0.67100530201E+03  0.35831166345E+03  0.22938949939E+04  0.24167357523E+04  0.46999998093E+01 0.  1.
</event>
<event>
 5   0  0.9442578E-05  0.2189401E+04  0.7818609E-02  0.8522852E-01
       -2   -1    0    0    0  501  0.00000000000E+00  0.00000000000E+00  0.18747205487E+04  0.18747205487E+04  0.25500000920E-02 0.  1.
        2   -1    0    0  501    0  0.00000000000E+00  0.00000000000E+00 -0.63922577967E+03  0.63922577968E+03  0.25500000920E-02 0. -1.
    10030    2    1    2    0    0  0.00000000000E+00  0.00000000000E+00  0.12354947691E+04  0.25139463284E+04  0.21894014748E+04 0.  0.
        4    1    3    3  502    0  0.48130861699E+03 -0.96797766628E+03  0.41976649982E+03  0.11596742105E+04  0.12699999809E+01 0.  1.
       -4    1    3    3    0  502 -0.48130861699E+03  0.96797766628E+03  0.81572826924E+03  0.13542721179E+04  0.12699999809E+01 0. -1.
</event>
<event>
 5   0  0.4174030E-05  0.2345380E+04  0.7818609E-02  0.8460240E-01
        1   -1    0    0  501    0  0.00000000000E+00  0.00000000000E+00  0.10678679696E+04  0.10678679697E+04  0.50400001928E-02 0.  1.
       -1   -1    0    0    0  501  0.00000000000E+00  0.00000000000E+00 -0.12878016184E+04  0.12878016184E+04  0.50400001928E-02 0. -1.
    10030    2    1    2    0    0  0.00000000000E+00  0.00000000000E+00 -0.21993364879E+03  0.23556695881E+04  0.23453802247E+04 0.  0.
        2    1    3    3  502    0  0.13902800711E+03  0.10783901936E+04  0.33121859162E+03  0.11366441624E+04  0.25500000920E-02 0.  1.
       -2    1    3    3    0  502 -0.13902800711E+03 -0.10783901936E+04 -0.55115224042E+03  0.12190254257E+04  0.25500000920E-02 0. -1.
</event>
<event>
 5   0  0.4188865E-05  0.2206386E+04  0.7818609E-02  0.8515775E-01
        1   -1    0    0  501    0  0.00000000000E+00  0.00000000000E+00  0.11449160969E+04  0.11449160969E+04  0.50400001928E-02 0.  1.
       -1   -1    0    0    0  501  0.00000000000E+00  0.00000000000E+00 -0.10629901994E+04  0.10629901994E+04  0.50400001928E-02 0. -1.
    10030    2    1    2    0    0  0.00000000000E+00  0.00000000000E+00  0.81925897497E+02  0.22079062962E+04  0.22063858140E+04 0.  0.
        3    1    3    3  502    0  0.18152831621E+03  0.72907342274E+03  0.84931538631E+03  0.11339476271E+04  0.10100000352E+00 0.  1.
       -3    1    3    3    0  502 -0.18152831621E+03 -0.72907342274E+03 -0.76738948881E+03  0.10739586692E+04  0.10100000352E+00 0. -1.
</event>
<event>
 5   0  0.4174030E-05  0.2173835E+04  0.7818609E-02  0.8529398E-01
       -1   -1    0    0    0  501  0.00000000000E+00  0.00000000000E+00  0.63812872722E+03  0.63812872724E+03  0.50400001928E-02 0. -1.
        1   -1    0    0  501    0  0.00000000000E+00  0.00000000000E+00 -0.18513337816E+04  0.18513337816E+04  0.50400001928E-02 0.  1.
    10030    2    1    2    0    0  0.00000000000E+00  0.00000000000E+00 -0.12132050544E+04  0.24894625089E+04  0.21738346485E+04 0.  0.
        2    1    3    3  502    0 -0.36468978594E+03  0.39897132532E+03  0.47329330714E+03  0.71845898490E+03  0.25500000920E-02 0. -1.
       -2    1    3    3    0  502  0.36468978594E+03 -0.39897132532E+03 -0.16864983616E+04  0.17710035240E+04  0.25500000920E-02 0.  1.
</event>
<event>
 5   0  0.9179618E-05  0.2161939E+04  0.7818609E-02  0.8534439E-01
        2   -1    0    0  501    0  0.00000000000E+00  0.00000000000E+00  0.85492920870E+03  0.85492920870E+03  0.25500000920E-02 0. -1.
       -2   -1    0    0    0  501  0.00000000000E+00  0.00000000000E+00 -0.13667741473E+04  0.13667741473E+04  0.25500000920E-02 0.  1.
    10030    2    1    2    0    0  0.00000000000E+00  0.00000000000E+00 -0.51184493860E+03  0.22217033560E+04  0.21619390743E+04 0.  0.
        3    1    3    3  502    0  0.66679691846E+03 -0.83315370563E+03 -0.43311849177E+03  0.11516748090E+04  0.10100000352E+00 0.  1.
       -3    1    3    3    0  502 -0.66679691846E+03  0.83315370563E+03 -0.78726446838E+02  0.10700285470E+04  0.10100000352E+00 0. -1.
</event>
<event>
 5   0  0.4174075E-05  0.2214227E+04  0.7818609E-02  0.8512530E-01
        1   -1    0    0  501    0  0.00000000000E+00  0.00000000000E+00  0.21020527753E+04  0.21020527753E+04  0.50400001928E-02 0. -1.
       -1   -1    0    0    0  501  0.00000000000E+00  0.00000000000E+00 -0.58309674063E+03  0.58309674065E+03  0.50400001928E-02 0.  1.
    10030    2    1    2    0    0  0.00000000000E+00  0.00000000000E+00  0.15189560347E+04  0.26851495160E+04  0.22142268375E+04 0.  0.
        5    1    3    3  502    0 -0.64237600718E+03 -0.80878845150E+03  0.12428682166E+04  0.16160226446E+04  0.46999998093E+01 0. -1.
       -5    1    3    3    0  502  0.64237600718E+03  0.80878845150E+03  0.27608781806E+03  0.10691268714E+04  0.46999998093E+01 0.  1.
</event>
<event>
 5   0  0.4133418E-05  0.2223323E+04  0.7818609E-02  0.8508783E-01
        1   -1    0    0  501    0  0.00000000000E+00  0.00000000000E+00  0.99271357691E+03  0.99271357693E+03  0.50400001928E-02 0. -1.
       -1   -1    0    0    0  501  0.00000000000E+00  0.00000000000E+00 -0.12448617445E+04  0.12448617445E+04  0.50400001928E-02 0.  1.
    10030    2    1    2    0    0  0.00000000000E+00  0.00000000000E+00 -0.25214816761E+03  0.22375753215E+04  0.22233228782E+04 0.  0.
        4    1    3    3  502    0 -0.64874750184E+03  0.12184414926E+03 -0.10262744401E+04  0.12202295510E+04  0.12699999809E+01 0.  1.
       -4    1    3    3    0  502  0.64874750184E+03 -0.12184414926E+03  0.77412627253E+03  0.10173457704E+04  0.12699999809E+01 0. -1.
</event>
<event>
 5   0  0.4188865E-05  0.2178924E+04  0.7818609E-02  0.8527252E-01
        1   -1    0    0  501    0  0.00000000000E+00  0.00000000000E+00  0.10959528978E+04  0.10959528979E+04  0.50400001928E-02 0.  1.
       -1   -1    0    0    0  501  0.00000000000E+00  0.00000000000E+00 -0.10830091819E+04  0.10830091819E+04  0.50400001928E-02 0. -1.
    10030    2    1    2    0    0  0.00000000000E+00  0.00000000000E+00  0.12943715956E+02  0.21789620798E+04  0.21789236346E+04 0.  0.
        3    1    3    3  502    0  0.32229376984E+02  0.10427734616E+04  0.32034331650E+03  0.10913455345E+04  0.10100000352E+00 0.  1.
       -3    1    3    3    0  502 -0.32229376984E+02 -0.10427734616E+04 -0.30739960054E+03  0.10876165453E+04  0.10100000352E+00 0. -1.
</event>
<event>
 5   0  0.9457742E-05  0.2196187E+04  0.7818609E-02  0.8520017E-01
        2   -1    0    0  501    0  0.00000000000E+00  0.00000000000E+00  0.15586524723E+04  0.15586524723E+04  0.25500000920E-02 0. -1.
       -2   -1    0    0    0  501  0.00000000000E+00  0.00000000000E+00 -0.77362312832E+03  0.77362312832E+03  0.25500000920E-02 0.  1.
    10030    2    1    2    0    0  0.00000000000E+00  0.00000000000E+00  0.78502934394E+03  0.23322756006E+04  0.21961872430E+04 0.  0.
        1    1    3    3  502    0 -0.56107357961E+03  0.72406760296E+03 -0.25059493069E+03  0.94967114029E+03  0.50400001928E-02 0.  1.
       -1    1    3    3    0  502  0.56107357961E+03 -0.72406760296E+03  0.10356242746E+04  0.13826044603E+04  0.50400001928E-02 0. -1.
</event>
<event>
 5   0  0.4063293E-05  0.2204954E+04  0.7818609E-02  0.8516369E-01
       -1   -1    0    0    0  501  0.00000000000E+00  0.00000000000E+00  0.10906337807E+04  0.10906337807E+04  0.50400001928E-02 0.  1.
        1   -1    0    0  501    0  0.00000000000E+00  0.00000000000E+00 -0.11144484978E+04  0.11144484978E+04  0.50400001928E-02 0. -1.
    10030    2    1    2    0    0  0.00000000000E+00  0.00000000000E+00 -0.23814717141E+02  0.22050822785E+04  0.22049536762E+04 0.  0.
        1    1    3    3  502    0 -0.10713075753E+04  0.25762045843E+03 -0.49151404149E+02  0.11029433721E+04  0.50400001928E-02 0. -1.
       -1    1    3    3    0  502  0.10713075753E+04 -0.25762045843E+03  0.25336687008E+02  0.11021389065E+04  0.50400001928E-02 0.  1.
</event>
<event>
 5   0  0.9179618E-05  0.2139985E+04  0.7818609E-02  0.8543831E-01
       -2   -1    0    0    0  501  0.00000000000E+00  0.00000000000E+00  0.78823326961E+03  0.78823326962E+03  0.25500000920E-02 0.  1.
        2   -1    0    0  501    0  0.00000000000E+00  0.00000000000E+00 -0.14524682756E+04  0.14524682756E+04  0.25500000920E-02 0. -1.
    10030    2    1    2    0    0  0.00000000000E+00  0.00000000000E+00 -0.66423500600E+03  0.22407015452E+04  0.21399848765E+04 0.  0.
        3    1    3    3  502    0 -0.44639221468E+03  0.15822533411E+03 -0.13367441118E+04  0.14181629301E+04  0.10100000352E+00 0. -1.
       -3    1    3    3    0  502  0.44639221468E+03 -0.15822533411E+03  0.67250910584E+03  0.82253861509E+03  0.10100000352E+00 0.  1.
</event>
<event>
 5   0  0.9179618E-05  0.2137653E+04  0.7818609E-02  0.8544836E-01
       -2   -1    0    0    0  501  0.00000000000E+00  0.00000000000E+00  0.72765667054E+03  0.72765667054E+03  0.25500000920E-02 0.  1.
        2   -1    0    0  501    0  0.00000000000E+00  0.00000000000E+00 -0.15699582189E+04  0.15699582189E+04  0.25500000920E-02 0. -1.
    10030    2    1    2    0    0  0.00000000000E+00  0.00000000000E+00 -0.84230154836E+03  0.22976148894E+04  0.21376534522E+04 0.  0.
        3    1    3    3  502    0 -0.65626438119E+03 -0.31581429666E+03 -0.12619738673E+04  0.14570517012E+04  0.10100000352E+00 0. -1.
       -3    1    3    3    0  502  0.65626438119E+03  0.31581429666E+03  0.41967231892E+03  0.84056318826E+03  0.10100000352E+00 0.  1.
</event>
<event>
 5   0  0.9442578E-05  0.1980417E+04  0.7818609E-02  0.8615831E-01
        2   -1    0    0  501    0  0.00000000000E+00  0.00000000000E+00  0.10875220090E+04  0.10875220090E+04  0.25500000920E-02 0. -1.
       -2   -1    0    0    0  501  0.00000000000E+00  0.00000000000E+00 -0.90160310005E+03  0.90160310005E+03  0.25500000920E-02 0.  1.
    10030    2    1    2    0    0  0.00000000000E+00  0.00000000000E+00  0.18591890894E+03  0.19891251090E+04  0.19804173446E+04 0.  0.
        4    1    3    3  502    0  0.35908766726E+02 -0.96555284846E+03 -0.12462607210E+03  0.97422534018E+03  0.12699999809E+01 0.  1.
       -4    1    3    3    0  502 -0.35908766726E+02  0.96555284846E+03  0.31054498103E+03  0.10148997689E+04  0.12699999809E+01 0. -1.
</event>
<event>
 5   0  0.4188865E-05  0.2228271E+04  0.7818609E-02  0.8506752E-01
       -1   -1    0    0    0  501  0.00000000000E+00  0.00000000000E+00  0.75243677531E+03  0.75243677532E+03  0.50400001928E-02 0.  1.
        1   -1    0    0  501    0  0.00000000000E+00  0.00000000000E+00 -0.16497039830E+04  0.16497039830E+04  0.50400001928E-02 0. -1.
    10030    2    1    2    0    0  0.00000000000E+00  0.00000000000E+00 -0.89726720770E+03  0.24021407583E+04  0.22282710295E+04 0.  0.
        3    1    3    3  502    0 -0.30570517946E+03  0.23731776541E+02  0.70605525567E+03  0.76976157882E+03  0.10100000352E+00 0.  1.
       -3    1    3    3    0  502  0.30570517946E+03 -0.23731776541E+02 -0.16033224634E+04  0.16323791795E+04  0.10100000352E+00 0. -1.
</event>
<event>
 5   0  0.9442578E-05  0.2089121E+04  0.7818609E-02  0.8566051E-01
        2   -1    0    0  501    0  0.00000000000E+00  0.00000000000E+00  0.18188322635E+04  0.18188322635E+04  0.25500000920E-02 0. -1.
       -2   -1    0    0    0  501  0.00000000000E+00  0.00000000000E+00 -0.59989424435E+03  0.59989424435E+03  0.25500000920E-02 0.  1.
    10030    2    1    2    0    0  0.00000000000E+00  0.00000000000E+00  0.12189380192E+04  0.24187265079E+04  0.20891213525E+04 0.  0.
        4    1    3    3  502    0  0.98294087631E+03 -0.17109423499E+03  0.25138337422E+03  0.10289029193E+04  0.12699999809E+01 0. -1.
       -4    1    3    3    0  502 -0.98294087631E+03  0.17109423499E+03  0.96755464498E+03  0.13898235886E+04  0.12699999809E+01 0.  1.
</event>
<event>
 5   0  0.4174075E-05  0.2196262E+04  0.7818609E-02  0.8519985E-01
        1   -1    0    0  501    0  0.00000000000E+00  0.00000000000E+00  0.11279431290E+04  0.11279431290E+04  0.50400001928E-02 0. -1.
       -1   -1    0    0    0  501  0.00000000000E+00  0.00000000000E+00 -0.10691072960E+04  0.10691072960E+04  0.50400001928E-02 0.  1.
    10030    2    1    2    0    0  0.00000000000E+00  0.00000000000E+00  0.58835832998E+02  0.21970504250E+04  0.21962624877E+04 0.  0.
        5    1    3    3  502    0  0.35965624181E+03 -0.22336239913E+03 -0.98417151137E+03  0.10713818308E+04  0.46999998093E+01 0.  1.
       -5    1    3    3    0  502 -0.35965624181E+03  0.22336239913E+03  0.10430073444E+04  0.11256685942E+04  0.46999998093E+01 0. -1.
</event>
<event>
 5   0  0.9457742E-05  0.2214162E+04  0.7818609E-02  0.8512556E-01
        2   -1    0    0  501    0  0.00000000000E+00  0.00000000000E+00  0.17703162638E+04  0.17703162638E+04  0.25500000920E-02 0. -1.
       -2   -1    0    0    0  501  0.00000000000E+00  0.00000000000E+00 -0.69232193823E+03  0.69232193824E+03  0.25500000920E-02 0.  1.
    10030    2    1    2    0    0  0.00000000000E+00  0.00000000000E+00  0.10779943255E+04  0.24626382020E+04  0.22141624033E+04 0.  0.
        1    1    3    3  502    0  0.14752880551E+03  0.53281111276E+03  0.16057884823E+04  0.16982959343E+04  0.50400001928E-02 0. -1.
       -1    1    3    3    0  502 -0.14752880551E+03 -0.53281111276E+03 -0.52779415677E+03  0.76434226776E+03  0.50400001928E-02 0.  1.
</event>
<event>
 5   0  0.4174030E-05  0.2250491E+04  0.7818609E-02  0.8497702E-01
       -1   -1    0    0    0  501  0.00000000000E+00  0.00000000000E+00  0.77554106293E+03  0.77554106295E+03  0.50400001928E-02 0. -1.
        1   -1    0    0  501    0  0.00000000000E+00  0.00000000000E+00 -0.16326372570E+04  0.16326372570E+04  0.50400001928E-02 0.  1.
    10030    2    1    2    0    0  0.00000000000E+00  0.00000000000E+00 -0.85709619411E+03  0.24081783200E+04  0.22504908209E+04 0.  0.
        2    1    3    3  502    0  0.24043300418E+03 -0.93193103254E+03  0.19528758395E+03  0.98205942761E+03  0.25500000920E-02 0. -1.
       -2    1    3    3    0  502 -0.24043300418E+03  0.93193103254E+03 -0.10523837781E+04  0.14261188924E+04  0.25500000920E-02 0.  1.
</event>
<event>
 5   0  0.9938176E-05  0.2207441E+04  0.7818609E-02  0.8515337E-01
        2   -1    0    0  501    0  0.00000000000E+00  0.00000000000E+00  0.16945928463E+04  0.16945928463E+04  0.25500000920E-02 0. -1.
       -2   -1    0    0    0  501  0.00000000000E+00  0.00000000000E+00 -0.71887402737E+03  0.71887402738E+03  0.25500000920E-02 0.  1.
    10030    2    1    2    0    0  0.00000000000E+00  0.00000000000E+00  0.97571881897E+03  0.24134668737E+04  0.22074408569E+04 0.  0.
        5    1    3    3  502    0  0.49494292987E+03  0.77610837903E+03 -0.17796481174E+03  0.93755334997E+03  0.46999998093E+01 0.  1.
       -5    1    3    3    0  502 -0.49494292987E+03 -0.77610837903E+03  0.11536836307E+04  0.14759135238E+04  0.46999998093E+01 0. -1.
</event>
<event>
 5   0  0.4188865E-05  0.2188350E+04  0.7818609E-02  0.8523293E-01
       -1   -1    0    0    0  501  0.00000000000E+00  0.00000000000E+00  0.90985442491E+03  0.90985442493E+03  0.50400001928E-02 0. -1.
        1   -1    0    0  501    0  0.00000000000E+00  0.00000000000E+00 -0.13158358672E+04  0.13158358672E+04  0.50400001928E-02 0.  1.
    10030    2    1    2    0    0  0.00000000000E+00  0.00000000000E+00 -0.40598144226E+03  0.22256902921E+04  0.21883501422E+04 0.  0.
        3    1    3    3  502    0  0.41576564838E+03 -0.10120913012E+04 -0.19749484214E+03  0.11118426594E+04  0.10100000352E+00 0. -1.
       -3    1    3    3    0  502 -0.41576564838E+03  0.10120913012E+04 -0.20848660012E+03  0.11138476327E+04  0.10100000352E+00 0.  1.
</event>
<event>
 5   0  0.4188865E-05  0.2195102E+04  0.7818609E-02  0.8520470E-01
       -1   -1    0    0    0  501  0.00000000000E+00  0.00000000000E+00  0.10242569196E+04  0.10242569196E+04  0.50400001928E-02 0.  1.
        1   -1    0    0  501    0  0.00000000000E+00  0.00000000000E+00 -0.11760893670E+04  0.11760893670E+04  0.50400001928E-02 0. -1.
    10030    2    1    2    0    0  0.00000000000E+00  0.00000000000E+00 -0.15183244741E+03  0.22003462866E+04  0.21951015213E+04 0.  0.
        3    1    3    3  502    0 -0.10046271889E+04 -0.38392655648E+03  0.14356417090E+03  0.10850281428E+04  0.10100000352E+00 0. -1.
       -3    1    3    3    0  502  0.10046271889E+04  0.38392655648E+03 -0.29539661830E+03  0.11153181437E+04  0.10100000352E+00 0.  1.
</event>
<event>
 5   0  0.3283125E-05  0.2205107E+04  0.7818609E-02  0.8516306E-01
       -3   -1    0    0    0  501  0.00000000000E+00  0.00000000000E+00  0.51358842213E+03  0.51358843207E+03  0.10100000352E+00 0. -1.
        3   -1    0    0  501    0  0.00000000000E+00  0.00000000000E+00 -0.23669220358E+04  0.23669220380E+04  0.10100000352E+00 0.  1.
    10030    2    1    2    0    0  0.00000000000E+00  0.00000000000E+00 -0.18533336137E+04  0.28805104700E+04  0.22051065925E+04 0.  0.
        4    1    3    3  502    0 -0.47694684708E+03 -0.26434789436E+03 -0.21784342803E+04  0.22456481538E+04  0.12699999809E+01 0.  1.
       -4    1    3    3    0  502  0.47694684708E+03  0.26434789436E+03  0.32510066665E+03  0.63486231621E+03  0.12699999809E+01 0. -1.
</event>
<event>
 5   0  0.4063293E-05  0.2265024E+04  0.7818609E-02  0.8491841E-01
       -1   -1    0    0    0  501  0.00000000000E+00  0.00000000000E+00  0.11323414569E+04  0.11323414569E+04  0.50400001928E-02 0. -1.
        1   -1    0    0  501    0  0.00000000000E+00  0.00000000000E+00 -0.11326824485E+04  0.11326824485E+04  0.50400001928E-02 0.  1.
    10030    2    1    2    0    0  0.00000000000E+00  0.00000000000E+00 -0.34099158307E+00  0.22650239053E+04  0.22650238797E+04 0.  0.
        1    1    3    3  502    0 -0.11276215808E+04 -0.80472624301E+02 -0.67824181001E+02  0.11325221377E+04  0.50400001928E-02 0. -1.
       -1    1    3    3    0  502  0.11276215808E+04  0.80472624301E+02  0.67483189418E+02  0.11325017676E+04  0.50400001928E-02 0.  1.
</event>
<event>
 5   0  0.4174030E-05  0.1906793E+04  0.7818609E-02  0.8651482E-01
        1   -1    0    0  501    0  0.00000000000E+00  0.00000000000E+00  0.11101092422E+04  0.11101092422E+04  0.50400001928E-02 0. -1.
       -1   -1    0    0    0  501  0.00000000000E+00  0.00000000000E+00 -0.81880672383E+03  0.81880672385E+03  0.50400001928E-02 0.  1.
    10030    2    1    2    0    0  0.00000000000E+00  0.00000000000E+00  0.29130251832E+03  0.19289159660E+04  0.19067930267E+04 0.  0.
        2    1    3    3  502    0 -0.37617502964E+03  0.25449986773E+03 -0.70233875062E+03  0.83639557401E+03  0.25500000920E-02 0.  1.
       -2    1    3    3    0  502  0.37617502964E+03 -0.25449986773E+03  0.99364126893E+03  0.10925203920E+04  0.25500000920E-02 0. -1.
</event>
<event>
 5   0  0.4174075E-05  0.2178114E+04  0.7818609E-02  0.8527593E-01
        1   -1    0    0  501    0  0.00000000000E+00  0.00000000000E+00  0.18921253325E+04  0.18921253325E+04  0.50400001928E-02 0.  1.
       -1   -1    0    0    0  501  0.00000000000E+00  0.00000000000E+00 -0.62683244832E+03  0.62683244834E+03  0.50400001928E-02 0. -1.
    10030    2    1    2    0    0  0.00000000000E+00  0.00000000000E+00  0.12652928841E+04  0.25189577808E+04  0.21781143723E+04 0.  0.
        5    1    3    3  502    0  0.87446849419E+03 -0.63650017670E+03  0.77982413116E+03  0.13334074350E+04  0.46999998093E+01 0.  1.
       -5    1    3    3    0  502 -0.87446849419E+03  0.63650017670E+03  0.48546875297E+03  0.11855503458E+04  0.46999998093E+01 0. -1.
</event>
<event>
 5   0  0.9938176E-05  0.2142716E+04  0.7818609E-02  0.8542657E-01
       -2   -1    0    0    0  501  0.00000000000E+00  0.00000000000E+00  0.75288081479E+03  0.75288081480E+03  0.25500000920E-02 0. -1.
        2   -1    0    0  501    0  0.00000000000E+00  0.00000000000E+00 -0.15245542163E+04  0.15245542163E+04  0.25500000920E-02 0.  1.
    10030    2    1    2    0    0  0.00000000000E+00  0.00000000000E+00 -0.77167340150E+03  0.22774350311E+04  0.21427156793E+04 0.  0.
        5    1    3    3  502    0  0.98555910659E+03 -0.25196601854E+02 -0.83151389870E+03  0.12897282950E+04  0.46999998093E+01 0.  1.
       -5    1    3    3    0  502 -0.98555910659E+03  0.25196601854E+02  0.59840497196E+02  0.98770673605E+03  0.46999998093E+01 0. -1.
</event>
<event>
 5   0  0.4174075E-05  0.2219328E+04  0.7818609E-02  0.8510426E-01
       -1   -1    0    0    0  501  0.00000000000E+00  0.00000000000E+00  0.75288261814E+03  0.75288261815E+03  0.50400001928E-02 0. -1.
        1   -1    0    0  501    0  0.00000000000E+00  0.00000000000E+00 -0.16355195387E+04  0.16355195387E+04  0.50400001928E-02 0.  1.
    10030    2    1    2    0    0  0.00000000000E+00  0.00000000000E+00 -0.88263692055E+03  0.23884021568E+04  0.22193280355E+04 0.  0.
        5    1    3    3  502    0 -0.36406239662E+03 -0.10274069719E+04 -0.66506514529E+03  0.12768869379E+04  0.46999998093E+01 0.  1.
       -5    1    3    3    0  502  0.36406239662E+03  0.10274069719E+04 -0.21757177526E+03  0.11115152190E+04  0.46999998093E+01 0. -1.
</event>
<event>
 5   0  0.9457742E-05  0.2203312E+04  0.7818609E-02  0.8517051E-01
        2   -1    0    0  501    0  0.00000000000E+00  0.00000000000E+00  0.78363271402E+03  0.78363271402E+03  0.25500000920E-02 0.  1.
       -2   -1    0    0    0  501  0.00000000000E+00  0.00000000000E+00 -0.15487433916E+04  0.15487433916E+04  0.25500000920E-02 0. -1.
    10030    2    1    2    0    0  0.00000000000E+00  0.00000000000E+00 -0.76511067755E+03  0.23323761056E+04  0.22033120408E+04 0.  0.
        1    1    3    3  502    0  0.78377140774E+03 -0.24990874793E+03 -0.11582072110E+04  0.14206322345E+04  0.50400001928E-02 0. -1.
       -1    1    3    3    0  502 -0.78377140774E+03  0.24990874793E+03  0.39309653348E+03  0.91174387113E+03  0.50400001928E-02 0.  1.
</event>
<event>
 5   0  0.4063293E-05  0.2180786E+04  0.7818609E-02  0.8526468E-01
       -1   -1    0    0    0  501  0.00000000000E+00  0.00000000000E+00  0.10715350373E+04  0.10715350374E+04  0.50400001928E-02 0.  1.
        1   -1    0    0  501    0  0.00000000000E+00  0.00000000000E+00 -0.11095829643E+04  0.11095829644E+04  0.50400001928E-02 0. -1.
    10030    2    1    2    0    0  0.00000000000E+00  0.00000000000E+00 -0.38047926995E+02  0.21811180017E+04  0.21807861180E+04 0.  0.
        1    1    3    3  502    0  0.23558507602E+02 -0.10864898044E+04 -0.10815500376E+03  0.10921138233E+04  0.50400001928E-02 0.  1.
       -1    1    3    3    0  502 -0.23558507602E+02  0.10864898044E+04  0.70107076764E+02  0.10890041784E+04  0.50400001928E-02 0. -1.
</event>
<event>
 5   0  0.9442578E-05  0.2297734E+04  0.7818609E-02  0.8478815E-01
       -2   -1    0    0    0  501  0.00000000000E+00  0.00000000000E+00  0.11222625573E+04  0.11222625573E+04  0.25500000920E-02 0.  1.
        2   -1    0    0  501    0  0.00000000000E+00  0.00000000000E+00 -0.11761020067E+04  0.11761020067E+04  0.25500000920E-02 0. -1.
    10030    2    1    2    0    0  0.00000000000E+00  0.00000000000E+00 -0.53839449411E+02  0.22983645640E+04  0.22977338799E+04 0.  0.
        4    1    3    3  502    0  0.10642020831E+04  0.12621947760E+03  0.38724247485E+03  0.11394804857E+04  0.12699999809E+01 0.  1.
       -4    1    3    3    0  502 -0.10642020831E+04 -0.12621947760E+03 -0.44108192426E+03  0.11588840783E+04  0.12699999809E+01 0. -1.
</event>
<event>
 5   0  0.9179618E-05  0.2180290E+04  0.7818609E-02  0.8526677E-01
       -2   -1    0    0    0  501  0.00000000000E+00  0.00000000000E+00  0.68497357159E+03  0.68497357159E+03  0.25500000920E-02 0.  1.
        2   -1    0    0  501    0  0.00000000000E+00  0.00000000000E+00 -0.17349806533E+04  0.17349806533E+04  0.25500000920E-02 0. -1.
    10030    2    1    2    0    0  0.00000000000E+00  0.00000000000E+00 -0.10500070817E+04  0.24199542249E+04  0.21802897924E+04 0.  0.
        3    1    3    3  502    0 -0.74613252423E+03 -0.21094423835E+03 -0.13755297081E+04  0.15790165304E+04  0.10100000352E+00 0. -1.
       -3    1    3    3    0  502  0.74613252423E+03  0.21094423835E+03  0.32552262639E+03  0.84093769442E+03  0.10100000352E+00 0.  1.
</event>
<event>
 5   0  0.4188865E-05  0.2138814E+04  0.7818609E-02  0.8544336E-01
        1   -1    0    0  501    0  0.00000000000E+00  0.00000000000E+00  0.66039126143E+03  0.66039126145E+03  0.50400001928E-02 0. -1.
       -1   -1    0    0    0  501  0.00000000000E+00  0.00000000000E+00 -0.17317480879E+04  0.17317480880E+04  0.50400001928E-02 0.  1.
    10030    2    1    2    0    0  0.00000000000E+00  0.00000000000E+00 -0.10713568265E+04  0.23921393494E+04  0.21388139744E+04 0.  0.
        3    1    3    3  502    0  0.87981321990E+03 -0.13426602289E+03 -0.11988047581E+04  0.14930611257E+04  0.10100000352E+00 0.  1.
       -3    1    3    3    0  502 -0.87981321990E+03  0.13426602289E+03  0.12744793163E+03  0.89907822367E+03  0.10100000352E+00 0. -1.
</event>
<event>
 5   0  0.4174075E-05  0.1780073E+04  0.7818609E-02  0.8716969E-01
        1   -1    0    0  501    0  0.00000000000E+00  0.00000000000E+00  0.16309304889E+04  0.16309304890E+04  0.50400001928E-02 0. -1.
       -1   -1    0    0    0  501  0.00000000000E+00  0.00000000000E+00 -0.48571349715E+03  0.48571349718E+03  0.50400001928E-02 0.  1.
    10030    2    1    2    0    0  0.00000000000E+00  0.00000000000E+00  0.11452169918E+04  0.21166439861E+04  0.17800729776E+04 0.  0.
        5    1    3    3  502    0 -0.50330613375E+03  0.50831414537E+03 -0.57088969574E+02  0.71762216737E+03  0.46999998093E+01 0.  1.
       -5    1    3    3    0  502  0.50330613375E+03 -0.50831414537E+03  0.12023059614E+04  0.13990218188E+04  0.46999998093E+01 0. -1.
</event>
<event>
 5   0  0.3283125E-05  0.2040147E+04  0.7818609E-02  0.8588077E-01
       -3   -1    0    0    0  501  0.00000000000E+00  0.00000000000E+00  0.18755221707E+04  0.18755221734E+04  0.10100000352E+00 0.  1.
        3   -1    0    0  501    0  0.00000000000E+00  0.00000000000E+00 -0.55480553997E+03  0.55480554916E+03  0.10100000352E+00 0. -1.
    10030    2    1    2    0    0  0.00000000000E+00  0.00000000000E+00  0.13207166308E+04  0.24303277226E+04  0.20401471566E+04 0.  0.
        3    1    3    3  502    0  0.60364301748E+03 -0.43318884049E+03 -0.17225096084E+03  0.76269775651E+03  0.10100000352E+00 0. -1.
       -3    1    3    3    0  502 -0.60364301748E+03  0.43318884049E+03  0.14929675916E+04  0.16676299661E+04  0.10100000352E+00 0.  1.
</event>
<event>
 5   0  0.4133418E-05  0.2219260E+04  0.7818609E-02  0.8510454E-01
        1   -1    0    0  501    0  0.00000000000E+00  0.00000000000E+00  0.90820854642E+03  0.90820854643E+03  0.50400001928E-02 0.  1.
       -1   -1    0    0    0  501  0.00000000000E+00  0.00000000000E+00 -0.13557227392E+04  0.13557227392E+04  0.50400001928E-02 0. -1.
    10030    2    1    2    0    0  0.00000000000E+00  0.00000000000E+00 -0.44751419282E+03  0.22639312857E+04  0.22192602176E+04 0.  0.
        4    1    3    3  502    0  0.24671977224E+03  0.66149429033E+03  0.64953038077E+03  0.95934179029E+03  0.12699999809E+01 0.  1.
       -4    1    3    3    0  502 -0.24671977224E+03 -0.66149429033E+03 -0.10970445736E+04  0.13045894954E+04  0.12699999809E+01 0. -1.
</event>
<event>
 5   0  0.9179618E-05  0.2123393E+04  0.7818609E-02  0.8551008E-01
        2   -1    0    0  501    0  0.00000000000E+00  0.00000000000E+00  0.12563041068E+04  0.12563041068E+04  0.25500000920E-02 0. -1.
       -2   -1    0    0    0  501  0.00000000000E+00  0.00000000000E+00 -0.89723497383E+03  0.89723497383E+03  0.25500000920E-02 0.  1.
    10030    2    1    2    0    0  0.00000000000E+00  0.00000000000E+00  0.35906913293E+03  0.21535390806E+04  0.21233934938E+04 0.  0.
        3    1    3    3  502    0 -0.82782010473E+03  0.37208381393E+03 -0.37916502717E+03  0.98361507635E+03  0.10100000352E+00 0. -1.
       -3    1    3    3    0  502  0.82782010473E+03 -0.37208381393E+03  0.73823416011E+03  0.11699240043E+04  0.10100000352E+00 0.  1.
</event>
<event>
 5   0  0.9254673E-05  0.1666520E+04  0.7818609E-02  0.8780693E-01
        2   -1    0    0  501    0  0.00000000000E+00  0.00000000000E+00  0.80204581140E+03  0.80204581141E+03  0.25500000920E-02 0.  1.
       -2   -1    0    0    0  501  0.00000000000E+00  0.00000000000E+00 -0.86568915348E+03  0.86568915348E+03  0.25500000920E-02 0. -1.
    10030    2    1    2    0    0  0.00000000000E+00  0.00000000000E+00 -0.63643342076E+02  0.16677349649E+04  0.16665201583E+04 0.  0.
        2    1    3    3  502    0 -0.56394123450E+03 -0.36446767147E+03  0.46195056679E+03  0.81502437122E+03  0.25500000920E-02 0.  1.
       -2    1    3    3    0  502  0.56394123450E+03  0.36446767147E+03 -0.52559390886E+03  0.85271059367E+03  0.25500000920E-02 0. -1.
</event>
<event>
 5   0  0.9179618E-05  0.2171702E+04  0.7818609E-02  0.8530300E-01
        2   -1    0    0  501    0  0.00000000000E+00  0.00000000000E+00  0.20746995336E+04  0.20746995336E+04  0.25500000920E-02 0. -1.
       -2   -1    0    0    0  501  0.00000000000E+00  0.00000000000E+00 -0.56830986354E+03  0.56830986354E+03  0.25500000920E-02 0.  1.
    10030    2    1    2    0    0  0.00000000000E+00  0.00000000000E+00  0.15063896700E+04  0.26430093971E+04  0.21717018293E+04 0.  0.
        3    1    3    3  502    0 -0.98985311230E+03  0.34401697882E+03  0.40700531002E+03  0.11241931321E+04  0.10100000352E+00 0.  1.
       -3    1    3    3    0  502  0.98985311230E+03 -0.34401697882E+03  0.10993843600E+04  0.15188162650E+04  0.10100000352E+00 0. -1.
</event>
<event>
 5   0  0.9254673E-05  0.2311162E+04  0.7818609E-02  0.8473533E-01
        2   -1    0    0  501    0  0.00000000000E+00  0.00000000000E+00  0.99113194247E+03  0.99113194247E+03  0.25500000920E-02 0. -1.
       -2   -1    0    0    0  501  0.00000000000E+00  0.00000000000E+00 -0.13473155425E+04  0.13473155425E+04  0.25500000920E-02 0.  1.
    10030    2    1    2    0    0  0.00000000000E+00  0.00000000000E+00 -0.35618360000E+03  0.23384474849E+04  0.23111620200E+04 0.  0.
        2    1    3    3  502    0 -0.30218299074E+03  0.10840393473E+04 -0.44370118108E+03  0.12096803728E+04  0.25500000920E-02 0.  1.
       -2    1    3    3    0  502  0.30218299074E+03 -0.10840393473E+04  0.87517581076E+02  0.11287671121E+04  0.25500000920E-02 0. -1.
</event>
<event>
 5   0  0.9179618E-05  0.2265965E+04  0.7818609E-02  0.8491463E-01
       -2   -1    0    0    0  501  0.00000000000E+00  0.00000000000E+00  0.98513987761E+03  0.98513987761E+03  0.25500000920E-02 0.  1.
        2   -1    0    0  501    0  0.00000000000E+00  0.00000000000E+00 -0.13030127056E+04  0.13030127056E+04  0.25500000920E-02 0. -1.
    10030    2    1    2    0    0  0.00000000000E+00  0.00000000000E+00 -0.31787282798E+03  0.22881525832E+04  0.22659653813E+04 0.  0.
        3    1    3    3  502    0 -0.92651928807E+03 -0.63054411429E+03 -0.32677425964E+03  0.11673925210E+04  0.10100000352E+00 0. -1.
       -3    1    3    3    0  502  0.92651928807E+03  0.63054411429E+03  0.89014316582E+01  0.11207600622E+04  0.10100000352E+00 0.  1.
</event>
<event>
 5   0  0.9938176E-05  0.2162294E+04  0.7818609E-02  0.8534288E-01
       -2   -1    0    0    0  501  0.00000000000E+00  0.00000000000E+00  0.78208837429E+03  0.78208837429E+03  0.25500000920E-02 0.  1.
        2   -1    0    0  501    0  0.00000000000E+00  0.00000000000E+00 -0.14945615354E+04  0.14945615354E+04  0.25500000920E-02 0. -1.
    10030    2    1    2    0    0  0.00000000000E+00  0.00000000000E+00 -0.71247316113E+03  0.22766499097E+04  0.21622943384E+04 0.  0.
        5    1    3    3  502    0 -0.12630486998E+03 -0.49209358530E+02  0.77309500370E+03  0.78490283213E+03  0.46999998093E+01 0.  1.
       -5    1    3    3    0  502  0.12630486998E+03  0.49209358530E+02 -0.14855681648E+04  0.14917470776E+04  0.46999998093E+01 0. -1.
</event>
<event>
 5   0  0.9442578E-05  0.2203343E+04  0.7818609E-02  0.8517038E-01
        2   -1    0    0  501    0  0.00000000000E+00  0.00000000000E+00  0.19788548382E+04  0.19788548382E+04  0.25500000920E-02 0.  1.
       -2   -1    0    0    0  501  0.00000000000E+00  0.00000000000E+00 -0.61332471320E+03  0.61332471320E+03  0.25500000920E-02 0. -1.
    10030    2    1    2    0    0  0.00000000000E+00  0.00000000000E+00  0.13655301250E+04  0.25921795514E+04  0.22033434377E+04 0.  0.
        4    1    3    3  502    0  0.55600702541E+03  0.73301069953E+03  0.13957038371E+04  0.16716576539E+04  0.12699999809E+01 0. -1.
       -4    1    3    3    0  502 -0.55600702541E+03 -0.73301069953E+03 -0.30173712169E+02  0.92052189748E+03  0.12699999809E+01 0.  1.
</event>
<event>
 5   0  0.9442578E-05  0.2300774E+04  0.7818609E-02  0.8477616E-01
       -2   -1    0    0    0  501  0.00000000000E+00  0.00000000000E+00  0.79440212913E+03  0.79440212913E+03  0.25500000920E-02 0. -1.
        2   -1    0    0  501    0  0.00000000000E+00  0.00000000000E+00 -0.16658941506E+04  0.16658941506E+04  0.25500000920E-02 0.  1.
    10030    2    1    2    0    0  0.00000000000E+00  0.00000000000E+00 -0.87149202144E+03  0.24602962797E+04  0.23007736613E+04 0.  0.
        4    1    3    3  502    0  0.46772148323E+02  0.51260806908E+03 -0.15358793295E+04  0.16198399903E+04  0.12699999809E+01 0.  1.
       -4    1    3    3    0  502 -0.46772148323E+02 -0.51260806908E+03  0.66438730810E+03  0.84045628941E+03  0.12699999809E+01 0. -1.
</event>
<event>
 5   0  0.4063293E-05  0.2198032E+04  0.7818609E-02  0.8519248E-01
        1   -1    0    0  501    0  0.00000000000E+00  0.00000000000E+00  0.10139483039E+04  0.10139483039E+04  0.50400001928E-02 0.  1.
       -1   -1    0    0    0  501  0.00000000000E+00  0.00000000000E+00 -0.11912201623E+04  0.11912201623E+04  0.50400001928E-02 0. -1.
    10030    2    1    2    0    0  0.00000000000E+00  0.00000000000E+00 -0.17727185839E+03  0.22051684662E+04  0.21980315403E+04 0.  0.
        1    1    3    3  502    0 -0.55097915976E+02 -0.74468383430E+03 -0.89763245134E+03  0.11676188638E+04  0.50400001928E-02 0. -1.
       -1    1    3    3    0  502  0.55097915976E+02  0.74468383430E+03  0.72036059294E+03  0.10375496023E+04  0.50400001928E-02 0.  1.
</event>
<event>
 5   0  0.9254673E-05  0.2169606E+04  0.7818609E-02  0.8531186E-01
       -2   -1    0    0    0  501  0.00000000000E+00  0.00000000000E+00  0.90477435698E+03  0.90477435698E+03  0.25500000920E-02 0.  1.
        2   -1    0    0  501    0  0.00000000000E+00  0.00000000000E+00 -0.13006526777E+04  0.13006526777E+04  0.25500000920E-02 0. -1.
    10030    2    1    2    0    0  0.00000000000E+00  0.00000000000E+00 -0.39587832070E+03  0.22054270347E+04  0.21696056693E+04 0.  0.
        2    1    3    3  502    0  0.79341948422E+02  0.69460393880E+03 -0.10411084075E+04  0.12540639907E+04  0.25500000920E-02 0. -1.
       -2    1    3    3    0  502 -0.79341948422E+02 -0.69460393880E+03  0.64523008678E+03  0.95136304399E+03  0.25500000920E-02 0.  1.
</event>
<event>
 5   0  0.4174075E-05  0.1813568E+04  0.7818609E-02  0.8699117E-01
       -1   -1    0    0    0  501  0.00000000000E+00  0.00000000000E+00  0.52812362230E+03  0.52812362233E+03  0.50400001928E-02 0.  1.
        1   -1    0    0  501    0  0.00000000000E+00  0.00000000000E+00 -0.15569416233E+04  0.15569416233E+04  0.50400001928E-02 0. -1.
    10030    2    1    2    0    0  0.00000000000E+00  0.00000000000E+00 -0.10288180010E+04  0.20850652456E+04  0.18135684711E+04 0.  0.
        5    1    3    3  502    0 -0.70560869324E+03 -0.10694567609E+03  0.12872071168E+03  0.72519798485E+03  0.46999998093E+01 0.  1.
       -5    1    3    3    0  502  0.70560869324E+03  0.10694567609E+03 -0.11575387127E+04  0.13598672608E+04  0.46999998093E+01 0. -1.
</event>
<event>
 5   0  0.4133418E-05  0.2191357E+04  0.7818609E-02  0.8522034E-01
       -1   -1    0    0    0  501  0.00000000000E+00  0.00000000000E+00  0.54642568723E+03  0.54642568725E+03  0.50400001928E-02 0. -1.
        1   -1    0    0  501    0  0.00000000000E+00  0.00000000000E+00 -0.21970251552E+04  0.21970251552E+04  0.50400001928E-02 0.  1.
    10030    2    1    2    0    0  0.00000000000E+00  0.00000000000E+00 -0.16505994680E+04  0.27434508425E+04  0.21913566395E+04 0.  0.
        4    1    3    3  502    0 -0.79235592178E+02  0.10010649087E+04 -0.27658331447E+03  0.10415897337E+04  0.12699999809E+01 0. -1.
       -4    1    3    3    0  502  0.79235592178E+02 -0.10010649087E+04 -0.13740161535E+04  0.17018611088E+04  0.12699999809E+01 0.  1.
</event>
<event>
 5   0  0.4174075E-05  0.1717938E+04  0.7818609E-02  0.8751199E-01
       -1   -1    0    0    0  501  0.00000000000E+00  0.00000000000E+00  0.65454282563E+03  0.65454282564E+03  0.50400001928E-02 0. -1.
        1   -1    0    0  501    0  0.00000000000E+00  0.00000000000E+00 -0.11272413088E+04  0.11272413088E+04  0.50400001928E-02 0.  1.
    10030    2    1    2    0    0  0.00000000000E+00  0.00000000000E+00 -0.47269848315E+03  0.17817841344E+04  0.17179379633E+04 0.  0.
        5    1    3    3  502    0  0.71828684298E+03  0.44872866631E+03 -0.87805654112E+02  0.85148419108E+03  0.46999998093E+01 0. -1.
       -5    1    3    3    0  502 -0.71828684298E+03 -0.44872866631E+03 -0.38489282904E+03  0.93029994335E+03  0.46999998093E+01 0.  1.
</event>
<event>
 5   0  0.9457742E-05  0.2194462E+04  0.7818609E-02  0.8520737E-01
        2   -1    0    0  501    0  0.00000000000E+00  0.00000000000E+00  0.17206966373E+04  0.17206966373E+04  0.25500000920E-02 0.  1.
       -2   -1    0    0    0  501  0.00000000000E+00  0.00000000000E+00 -0.69966752743E+03  0.69966752743E+03  0.25500000920E-02 0. -1.
    10030    2    1    2    0    0  0.00000000000E+00  0.00000000000E+00  0.10210291099E+04  0.24203641648E+04  0.21944617214E+04 0.  0.
        1    1    3    3  502    0  0.16239622960E+03 -0.67750792762E+03 -0.42440438675E+03  0.81578711126E+03  0.50400001928E-02 0. -1.
       -1    1    3    3    0  502 -0.16239622960E+03  0.67750792762E+03  0.14454334967E+04  0.16045770535E+04  0.50400001928E-02 0.  1.
</event>
<event>
 5   0  0.9179618E-05  0.2178981E+04  0.7818609E-02  0.8527228E-01
       -2   -1    0    0    0  501  0.00000000000E+00  0.00000000000E+00  0.74819441857E+03  0.74819441858E+03  0.25500000920E-02 0. -1.
        2   -1    0    0  501    0  0.00000000000E+00  0.00000000000E+00 -0.15864715704E+04  0.15864715704E+04  0.25500000920E-02 0.  1.
    10030    2    1    2    0    0  0.00000000000E+00  0.00000000000E+00 -0.83827715179E+03  0.23346659889E+04  0.21789806554E+04 0.  0.
        3    1    3    3  502    0 -0.18288514860E+02 -0.13053822333E+03  0.73961942959E+03  0.75127332467E+03  0.10100000352E+00 0. -1.
       -3    1    3    3    0  502  0.18288514860E+02  0.13053822333E+03 -0.15778965814E+04  0.15833926643E+04  0.10100000352E+00 0.  1.
</event>
<event>
 5   0  0.9938176E-05  0.2210868E+04  0.7818609E-02  0.8513918E-01
       -2   -1    0    0    0  501  0.00000000000E+00  0.00000000000E+00  0.95535097440E+03  0.95535097440E+03  0.25500000920E-02 0. -1.
        2   -1    0    0  501    0  0.00000000000E+00  0.00000000000E+00 -0.12790942546E+04  0.12790942546E+04  0.25500000920E-02 0.  1.
    10030    2    1    2    0    0  0.00000000000E+00  0.00000000000E+00 -0.32374328016E+03  0.22344452290E+04  0.22108676509E+04 0.  0.
        5    1    3    3  502    0 -0.78167706497E+03  0.51767807614E+03  0.42999489185E+03  0.10314685266E+04  0.46999998093E+01 0. -1.
       -5    1    3    3    0  502  0.78167706497E+03 -0.51767807614E+03 -0.75373817201E+03  0.12029767023E+04  0.46999998093E+01 0.  1.
</event>
<event>
 5   0  0.4174075E-05  0.2211501E+04  0.7818609E-02  0.8513656E-01
        1   -1    0    0  501    0  0.00000000000E+00  0.00000000000E+00  0.14258432120E+04  0.14258432120E+04  0.50400001928E-02 0.  1.
       -1   -1    0    0    0  501  0.00000000000E+00  0.00000000000E+00 -0.85751677277E+03  0.85751677279E+03  0.50400001928E-02 0. -1.
    10030    2    1    2    0    0  0.00000000000E+00  0.00000000000E+00  0.56832643926E+03  0.22833599848E+04  0.22115012726E+04 0.  0.
        5    1    3    3  502    0  0.93309452051E+03  0.28358188987E+03 -0.25390176521E+03  0.10077560562E+04  0.46999998093E+01 0. -1.
       -5    1    3    3    0  502 -0.93309452051E+03 -0.28358188987E+03  0.82222820447E+03  0.12756039286E+04  0.46999998093E+01 0.  1.
</event>
<event>
 5   0  0.9179618E-05  0.2177286E+04  0.7818609E-02  0.8527942E-01
        2   -1    0    0  501    0  0.00000000000E+00  0.00000000000E+00  0.11879216207E+04  0.11879216207E+04  0.25500000920E-02 0. -1.
       -2   -1    0    0    0  501  0.00000000000E+00  0.00000000000E+00 -0.99766171380E+03  0.99766171380E+03  0.25500000920E-02 0.  1.
    10030    2    1    2    0    0  0.00000000000E+00  0.00000000000E+00  0.19025990687E+03  0.21855833345E+04  0.21772863109E+04 0.  0.
        3    1    3    3  502    0 -0.76249805913E+03 -0.41496383422E+03 -0.56429471989E+03  0.10353872778E+04  0.10100000352E+00 0.  1.
       -3    1    3    3    0  502  0.76249805913E+03  0.41496383422E+03  0.75455462676E+03  0.11501960567E+04  0.10100000352E+00 0. -1.
</event>
<event>
 5   0  0.9442578E-05  0.2126448E+04  0.7818609E-02  0.8549681E-01
        2   -1    0    0  501    0  0.00000000000E+00  0.00000000000E+00  0.18913564371E+04  0.18913564371E+04  0.25500000920E-02 0.  1.
       -2   -1    0    0    0  501  0.00000000000E+00  0.00000000000E+00 -0.59769050777E+03  0.59769050778E+03  0.25500000920E-02 0. -1.
    10030    2    1    2    0    0  0.00000000000E+00  0.00000000000E+00  0.12936659293E+04  0.24890469449E+04  0.21264484845E+04 0.  0.
        4    1    3    3  502    0  0.68910779611E+03  0.77822648197E+03  0.90840692600E+03  0.13804748342E+04  0.12699999809E+01 0.  1.
       -4    1    3    3    0  502 -0.68910779611E+03 -0.77822648197E+03  0.38525900332E+03  0.11085721106E+04  0.12699999809E+01 0. -1.
</event>
<event>
 5   0  0.9938176E-05  0.2190608E+04  0.7818609E-02  0.8522348E-01
       -2   -1    0    0    0  501  0.00000000000E+00  0.00000000000E+00  0.54753388180E+03  0.54753388181E+03  0.25500000920E-02 0.  1.
        2   -1    0    0  501    0  0.00000000000E+00  0.00000000000E+00 -0.21910800981E+04  0.21910800981E+04  0.25500000920E-02 0. -1.
    10030    2    1    2    0    0  0.00000000000E+00  0.00000000000E+00 -0.16435462163E+04  0.27386139799E+04  0.21906077617E+04 0.  0.
        5    1    3    3  502    0 -0.65608487179E+03  0.87069061157E+03 -0.68994771032E+03  0.12901935642E+04  0.46999998093E+01 0. -1.
       -5    1    3    3    0  502  0.65608487179E+03 -0.87069061157E+03 -0.95359850595E+03  0.14484204157E+04  0.46999998093E+01 0.  1.
</event>
<event>
 5   0  0.4174075E-05  0.2196818E+04  0.7818609E-02  0.8519754E-01
        1   -1    0    0  501    0  0.00000000000E+00  0.00000000000E+00  0.10349366070E+04  0.10349366070E+04  0.50400001928E-02 0.  1.
       -1   -1    0    0    0  501  0.00000000000E+00  0.00000000000E+00 -0.11657736693E+04  0.11657736693E+04  0.50400001928E-02 0. -1.
    10030    2    1    2    0    0  0.00000000000E+00  0.00000000000E+00 -0.13083706227E+03  0.22007102764E+04  0.21968175581E+04 0.  0.
        5    1    3    3  502    0  0.20853842877E+03  0.64147277297E+03  0.80301098387E+03  0.10487250950E+04  0.46999998093E+01 0.  1.
       -5    1    3    3    0  502 -0.20853842877E+03 -0.64147277297E+03 -0.93384804613E+03  0.11519851813E+04  0.46999998093E+01 0. -1.
</event>
<event>
 5   0  0.9179618E-05  0.2213047E+04  0.7818609E-02  0.8513017E-01
       -2   -1    0    0    0  501  0.00000000000E+00  0.00000000000E+00  0.59052014987E+03  0.59052014987E+03  0.25500000920E-02 0.  1.
        2   -1    0    0  501    0  0.00000000000E+00  0.00000000000E+00 -0.20734161529E+04  0.20734161529E+04  0.25500000920E-02 0. -1.
    10030    2    1    2    0    0  0.00000000000E+00  0.00000000000E+00 -0.14828960031E+04  0.26639363028E+04  0.22130467843E+04 0.  0.
        3    1    3    3  502    0 -0.20827698902E+03 -0.92563884190E+03 -0.56047010813E+02  0.95043560929E+03  0.10100000352E+00 0.  1.
       -3    1    3    3    0  502  0.20827698902E+03  0.92563884190E+03 -0.14268489923E+04  0.17135006935E+04  0.10100000352E+00 0. -1.
</event>
<event>
 5   0  0.9457742E-05  0.2197761E+04  0.7818609E-02  0.8519361E-01
        2   -1    0    0  501    0  0.00000000000E+00  0.00000000000E+00  0.17717025199E+04  0.17717025199E+04  0.25500000920E-02 0. -1.
       -2   -1    0    0    0  501  0.00000000000E+00  0.00000000000E+00 -0.68156950350E+03  0.68156950351E+03  0.25500000920E-02 0.  1.
    10030    2    1    2    0    0  0.00000000000E+00  0.00000000000E+00  0.10901330164E+04  0.24532720234E+04  0.21977610487E+04 0.  0.
        1    1    3    3  502    0  0.28940001488E+03 -0.10445582463E+04  0.34326074951E+03  0.11369618466E+04  0.50400001928E-02 0.  1.
       -1    1    3    3    0  502 -0.28940001488E+03  0.10445582463E+04  0.74687226686E+03  0.13163101768E+04  0.50400001928E-02 0. -1.
</event>
<event>
 5   0  0.9442578E-05  0.2305690E+04  0.7818609E-02  0.8475681E-01
       -2   -1    0    0    0  501  0.00000000000E+00  0.00000000000E+00  0.72663354518E+03  0.72663354518E+03  0.25500000920E-02 0. -1.
        2   -1    0    0  501    0  0.00000000000E+00  0.00000000000E+00 -0.18290532394E+04  0.18290532394E+04  0.25500000920E-02 0.  1.
    10030    2    1    2    0    0  0.00000000000E+00  0.00000000000E+00 -0.11024196943E+04  0.25556867846E+04  0.23056898661E+04 0.  0.
        4    1    3    3  502    0  0.48835157963E+03  0.32082202517E+03  0.55034251513E+03  0.80267835029E+03  0.12699999809E+01 0. -1.
       -4    1    3    3    0  502 -0.48835157963E+03 -0.32082202517E+03 -0.16527622094E+04  0.17530084343E+04  0.12699999809E+01 0.  1.
</event>
<event>
 5   0  0.9457742E-05  0.1990099E+04  0.7818609E-02  0.8611264E-01
       -2   -1    0    0    0  501  0.00000000000E+00  0.00000000000E+00  0.11230996038E+04  0.11230996038E+04  0.25500000920E-02 0. -1.
        2   -1    0    0  501    0  0.00000000000E+00  0.00000000000E+00 -0.88159895180E+03  0.88159895181E+03  0.25500000920E-02 0.  1.
    10030    2    1    2    0    0  0.00000000000E+00  0.00000000000E+00  0.24150065196E+03  0.20046985556E+04  0.19900989256E+04 0.  0.
        1    1    3    3  502    0 -0.23241340543E+03 -0.75670700000E+03  0.72808459890E+03  0.10755132068E+04  0.50400001928E-02 0. -1.
       -1    1    3    3    0  502  0.23241340543E+03  0.75670700000E+03 -0.48658394695E+03  0.92918534874E+03  0.50400001928E-02 0.  1.
</event>
<event>
 5   0  0.9179618E-05  0.2199298E+04  0.7818609E-02  0.8518721E-01
       -2   -1    0    0    0  501  0.00000000000E+00  0.00000000000E+00  0.56469550527E+03  0.56469550528E+03  0.25500000920E-02 0.  1.
        2   -1    0    0  501    0  0.00000000000E+00  0.00000000000E+00 -0.21413797017E+04  0.21413797017E+04  0.25500000920E-02 0. -1.
    10030    2    1    2    0    0  0.00000000000E+00  0.00000000000E+00 -0.15766841964E+04  0.27060752070E+04  0.21992976085E+04 0.  0.
        3    1    3    3  502    0  0.53414507766E+03 -0.96028992839E+03 -0.73672613335E+03  0.13229637623E+04  0.10100000352E+00 0. -1.
       -3    1    3    3    0  502 -0.53414507766E+03  0.96028992839E+03 -0.83995806309E+03  0.13831114447E+04  0.10100000352E+00 0.  1.
</event>
<event>
 5   0  0.9254673E-05  0.2093078E+04  0.7818609E-02  0.8564299E-01
        2   -1    0    0  501    0  0.00000000000E+00  0.00000000000E+00  0.89954995132E+03  0.89954995132E+03  0.25500000920E-02 0.  1.
       -2   -1    0    0    0  501  0.00000000000E+00  0.00000000000E+00 -0.12175460238E+04  0.12175460238E+04  0.25500000920E-02 0. -1.
    10030    2    1    2    0    0  0.00000000000E+00  0.00000000000E+00 -0.31799607251E+03  0.21170959752E+04  0.20930776063E+04 0.  0.
        2    1    3    3  502    0  0.19763248284E+03  0.67091224502E+03 -0.94643103230E+03  0.11768234947E+04  0.25500000920E-02 0. -1.
       -2    1    3    3    0  502 -0.19763248284E+03 -0.67091224502E+03  0.62843495979E+03  0.94027248045E+03  0.25500000920E-02 0.  1.
</event>
<event>
 5   0  0.9457742E-05  0.2208182E+04  0.7818609E-02  0.8515030E-01
       -2   -1    0    0    0  501  0.00000000000E+00  0.00000000000E+00  0.60502145543E+03  0.60502145544E+03  0.25500000920E-02 0.  1.
        2   -1    0    0  501    0  0.00000000000E+00  0.00000000000E+00 -0.20148334687E+04  0.20148334687E+04  0.25500000920E-02 0. -1.
    10030    2    1    2    0    0  0.00000000000E+00  0.00000000000E+00 -0.14098120132E+04  0.26198549241E+04  0.22081824904E+04 0.  0.
        1    1    3    3  502    0  0.83225479552E+03  0.31282336874E+03  0.71740252254E+02  0.89199392852E+03  0.50400001928E-02 0.  1.
       -1    1    3    3    0  502 -0.83225479552E+03 -0.31282336874E+03 -0.14815522655E+04  0.17278609956E+04  0.50400001928E-02 0. -1.
</event>
<event>
 5   0  0.9254673E-05  0.2176936E+04  0.7818609E-02  0.8528090E-01
        2   -1    0    0  501    0  0.00000000000E+00  0.00000000000E+00  0.20422271432E+04  0.20422271432E+04  0.25500000920E-02 0. -1.
       -2   -1    0    0    0  501  0.00000000000E+00  0.00000000000E+00 -0.58013237512E+03  0.58013237513E+03  0.25500000920E-02 0.  1.
    10030    2    1    2    0    0  0.00000000000E+00  0.00000000000E+00  0.14620947681E+04  0.26223595183E+04  0.21769355371E+04 0.  0.
        2    1    3    3  502    0  0.90833646315E+03  0.23491852183E+03  0.66324724857E+02  0.94056409208E+03  0.25500000920E-02 0.  1.
       -2    1    3    3    0  502 -0.90833646315E+03 -0.23491852183E+03  0.13957700432E+04  0.16817954262E+04  0.25500000920E-02 0. -1.
</event>
<event>
 5   0  0.4063293E-05  0.2139957E+04  0.7818609E-02  0.8543843E-01
        1   -1    0    0  501    0  0.00000000000E+00  0.00000000000E+00  0.16269031854E+04  0.16269031854E+04  0.50400001928E-02 0. -1.
       -1   -1    0    0    0  501  0.00000000000E+00  0.00000000000E+00 -0.70370164057E+03  0.70370164058E+03  0.50400001928E-02 0.  1.
    10030    2    1    2    0    0  0.00000000000E+00  0.00000000000E+00  0.92320154481E+03  0.23306048260E+04  0.21399574207E+04 0.  0.
        1    1    3    3  502    0  0.48636282330E+03  0.92202421271E+03  0.72428811979E+03  0.12693583912E+04  0.50400001928E-02 0.  1.
       -1    1    3    3    0  502 -0.48636282330E+03 -0.92202421271E+03  0.19891342503E+03  0.10612464348E+04  0.50400001928E-02 0. -1.
</event>
<event>
 5   0  0.4174030E-05  0.2117450E+04  0.7818609E-02  0.8553595E-01
        1   -1    0    0  501    0  0.00000000000E+00  0.00000000000E+00  0.17523717410E+04  0.17523717410E+04  0.50400001928E-02 0. -1.
       -1   -1    0    0    0  501  0.00000000000E+00  0.00000000000E+00 -0.63964658501E+03  0.63964658503E+03  0.50400001928E-02 0.  1.
    10030    2    1    2    0    0  0.00000000000E+00  0.00000000000E+00  0.11127251560E+04  0.23920183260E+04  0.21174499756E+04 0.  0.
        2    1    3    3  502    0 -0.76432235615E+03  0.21002140535E+02  0.13836237243E+04  0.15808366027E+04  0.25500000920E-02 0. -1.
       -2    1    3    3    0  502  0.76432235615E+03 -0.21002140535E+02 -0.27089856827E+03  0.81118172336E+03  0.25500000920E-02 0.  1.
</event>
<event>
 5   0  0.4133418E-05  0.2065403E+04  0.7818609E-02  0.8576639E-01
        1   -1    0    0  501    0  0.00000000000E+00  0.00000000000E+00  0.20402235179E+04  0.20402235179E+04  0.50400001928E-02 0. -1.
       -1   -1    0    0    0  501  0.00000000000E+00  0.00000000000E+00 -0.52272319812E+03  0.52272319814E+03  0.50400001928E-02 0.  1.
    10030    2    1    2    0    0  0.00000000000E+00  0.00000000000E+00  0.15175003198E+04  0.25629467160E+04  0.20654027812E+04 0.  0.
        4    1    3    3  502    0 -0.67592929022E+03 -0.37737700152E+03 -0.89405231126E+02  0.77928731216E+03  0.12699999809E+01 0.  1.
       -4    1    3    3    0  502  0.67592929022E+03  0.37737700152E+03  0.16069055509E+04  0.17836594039E+04  0.12699999809E+01 0. -1.
</event>
<event>
 5   0  0.4174075E-05  0.2203812E+04  0.7818609E-02  0.8516843E-01
       -1   -1    0    0    0  501  0.00000000000E+00  0.00000000000E+00  0.73633165048E+03  0.73633165049E+03  0.50400001928E-02 0.  1.
        1   -1    0    0  501    0  0.00000000000E+00  0.00000000000E+00 -0.16489813576E+04  0.16489813576E+04  0.50400001928E-02 0. -1.
    10030    2    1    2    0    0  0.00000000000E+00  0.00000000000E+00 -0.91264970712E+03  0.23853130081E+04  0.22038123011E+04 0.  0.
        5    1    3    3  502    0 -0.93446501403E+03 -0.58236673481E+03 -0.50223517190E+03  0.12102223491E+04  0.46999998093E+01 0. -1.
       -5    1    3    3    0  502  0.93446501403E+03  0.58236673481E+03 -0.41041453522E+03  0.11750906590E+04  0.46999998093E+01 0.  1.
</event>
<event>
 5   0  0.9179618E-05  0.2171467E+04  0.7818609E-02  0.8530399E-01
       -2   -1    0    0    0  501  0.00000000000E+00  0.00000000000E+00  0.12263041069E+04  0.12263041069E+04  0.25500000920E-02 0. -1.
        2   -1    0    0  501    0  0.00000000000E+00  0.00000000000E+00 -0.96127671627E+03  0.96127671627E+03  0.25500000920E-02 0.  1.
    10030    2    1    2    0    0  0.00000000000E+00  0.00000000000E+00  0.26502739065E+03  0.21875808232E+04  0.21714673242E+04 0.  0.
        3    1    3    3  502    0 -0.91253674050E+02  0.10604117813E+04  0.34862171555E+03  0.11199720933E+04  0.10100000352E+00 0.  1.
       -3    1    3    3    0  502  0.91253674050E+02 -0.10604117813E+04 -0.83594324897E+02  0.10676087299E+04  0.10100000352E+00 0. -1.
</event>
<event>
 5   0  0.9179618E-05  0.2208943E+04  0.7818609E-02  0.8514715E-01
       -2   -1    0    0    0  501  0.00000000000E+00  0.00000000000E+00  0.10316065531E+04  0.10316065531E+04  0.25500000920E-02 0.  1.
        2   -1    0    0  501    0  0.00000000000E+00  0.00000000000E+00 -0.11824834779E+04  0.11824834779E+04  0.25500000920E-02 0. -1.
    10030    2    1    2    0    0  0.00000000000E+00  0.00000000000E+00 -0.15087692477E+03  0.22140900310E+04  0.22089433716E+04 0.  0.
        3    1    3    3  502    0 -0.97246344371E+03  0.51975819488E+03 -0.13902098296E+03  0.11113777820E+04  0.10100000352E+00 0. -1.
       -3    1    3    3    0  502  0.97246344371E+03 -0.51975819488E+03 -0.11855941806E+02  0.11027122490E+04  0.10100000352E+00 0.  1.
</event>
<event>
 5   0  0.4188865E-05  0.2196198E+04  0.7818609E-02  0.8520012E-01
       -1   -1    0    0    0  501  0.00000000000E+00  0.00000000000E+00  0.53536093672E+03  0.53536093675E+03  0.50400001928E-02 0. -1.
        1   -1    0    0  501    0  0.00000000000E+00  0.00000000000E+00 -0.22523520354E+04  0.22523520354E+04  0.50400001928E-02 0.  1.
    10030    2    1    2    0    0  0.00000000000E+00  0.00000000000E+00 -0.17169910987E+04  0.27877129721E+04  0.21961978923E+04 0.  0.
        3    1    3    3  502    0  0.57381805022E+03 -0.72842313364E+03 -0.16050915884E+04  0.18536953454E+04  0.10100000352E+00 0.  1.
       -3    1    3    3    0  502 -0.57381805022E+03  0.72842313364E+03 -0.11189951028E+03  0.93401762670E+03  0.10100000352E+00 0. -1.
</event>
<event>
 5   0  0.4133418E-05  0.2185189E+04  0.7818609E-02  0.8524618E-01
       -1   -1    0    0    0  501  0.00000000000E+00  0.00000000000E+00  0.80259737193E+03  0.80259737194E+03  0.50400001928E-02 0. -1.
        1   -1    0    0  501    0  0.00000000000E+00  0.00000000000E+00 -0.14873742470E+04  0.14873742470E+04  0.50400001928E-02 0.  1.
    10030    2    1    2    0    0  0.00000000000E+00  0.00000000000E+00 -0.68477687503E+03  0.22899716189E+04  0.21851889270E+04 0.  0.
        4    1    3    3  502    0  0.98561270589E+03  0.41031071510E+03 -0.58585114367E+03  0.12177891707E+04  0.12699999809E+01 0.  1.
       -4    1    3    3    0  502 -0.98561270589E+03 -0.41031071510E+03 -0.98925731363E+02  0.10721824482E+04  0.12699999809E+01 0. -1.
</event>
<event>
 5   0  0.4174075E-05  0.2108017E+04  0.7818609E-02  0.8557720E-01
        1   -1    0    0  501    0  0.00000000000E+00  0.00000000000E+00  0.11117480788E+04  0.11117480788E+04  0.50400001928E-02 0. -1.
       -1   -1    0    0    0  501  0.00000000000E+00  0.00000000000E+00 -0.99926788393E+03  0.99926788394E+03  0.50400001928E-02 0.  1.
    10030    2    1    2    0    0  0.00000000000E+00  0.00000000000E+00  0.11248019483E+03  0.21110159627E+04  0.21080172202E+04 0.  0.
        5    1    3    3  502    0 -0.49649034345E+03 -0.44777639380E+03  0.87220327724E+03  0.10989845344E+04  0.46999998093E+01 0. -1.
       -5    1    3    3    0  502  0.49649034345E+03  0.44777639380E+03 -0.75972308241E+03  0.10120314283E+04  0.46999998093E+01 0.  1.
</event>
<event>
 5   0  0.9442578E-05  0.2229351E+04  0.7818609E-02  0.8506310E-01
        2   -1    0    0  501    0  0.00000000000E+00  0.00000000000E+00  0.11411355439E+04  0.11411355439E+04  0.25500000920E-02 0. -1.
       -2   -1    0    0    0  501  0.00000000000E+00  0.00000000000E+00 -0.10888291573E+04  0.10888291573E+04  0.25500000920E-02 0.  1.
    10030    2    1    2    0    0  0.00000000000E+00  0.00000000000E+00  0.52306386613E+02  0.22299647011E+04  0.22293511635E+04 0.  0.
        4    1    3    3  502    0 -0.66619449824E+03 -0.43198482260E+03 -0.75641372794E+03  0.10966263435E+04  0.12699999809E+01 0.  1.
       -4    1    3    3    0  502  0.66619449824E+03  0.43198482260E+03  0.80872011455E+03  0.11333383577E+04  0.12699999809E+01 0. -1.
</event>
<event>
 5   0  0.9442578E-05  0.2152189E+04  0.7818609E-02  0.8538596E-01
       -2   -1    0    0    0  501  0.00000000000E+00  0.00000000000E+00  0.12783712700E+04  0.12783712700E+04  0.25500000920E-02 0.  1.
        2   -1    0    0  501    0  0.00000000000E+00  0.00000000000E+00 -0.90582370184E+03  0.90582370184E+03  0.25500000920E-02 0. -1.
    10030    2    1    2    0    0  0.00000000000E+00  0.00000000000E+00  0.37254756814E+03  0.21841949718E+04  0.21521886498E+04 0.  0.
        4    1    3    3  502    0 -0.82040521476E+03  0.63810836746E+03  0.46922167207E+03  0.11403585381E+04  0.12699999809E+01 0. -1.
       -4    1    3    3    0  502  0.82040521476E+03 -0.63810836746E+03 -0.96674103929E+02  0.10438364337E+04  0.12699999809E+01 0.  1.
</event>
<event>
 5   0  0.9179618E-05  0.2150993E+04  0.7818609E-02  0.8539107E-01
       -2   -1    0    0    0  501  0.00000000000E+00  0.00000000000E+00  0.66014025552E+03  0.66014025552E+03  0.25500000920E-02 0.  1.
        2   -1    0    0  501    0  0.00000000000E+00  0.00000000000E+00 -0.17521929116E+04  0.17521929116E+04  0.25500000920E-02 0. -1.
    10030    2    1    2    0    0  0.00000000000E+00  0.00000000000E+00 -0.10920526561E+04  0.24123331672E+04  0.21509933300E+04 0.  0.
        3    1    3    3  502    0 -0.17878595358E+03  0.80771656307E+03  0.22473086919E+03  0.85724817714E+03  0.10100000352E+00 0.  1.
       -3    1    3    3    0  502  0.17878595358E+03 -0.80771656307E+03 -0.13167835253E+04  0.15550849900E+04  0.10100000352E+00 0. -1.
</event>
<event>
 5   0  0.4063293E-05  0.2145131E+04  0.7818609E-02  0.8541619E-01
        1   -1    0    0  501    0  0.00000000000E+00  0.00000000000E+00  0.12624862921E+04  0.12624862921E+04  0.50400001928E-02 0. -1.
       -1   -1    0    0    0  501  0.00000000000E+00  0.00000000000E+00 -0.91121561361E+03  0.91121561362E+03  0.50400001928E-02 0.  1.
    10030    2    1    2    0    0  0.00000000000E+00  0.00000000000E+00  0.35127067851E+03  0.21737019058E+04  0.21451314378E+04 0.  0.
        1    1    3    3  502    0  0.74732376162E+03  0.52978943919E+03  0.74094330759E+03  0.11782048377E+04  0.50400001928E-02 0. -1.
       -1    1    3    3    0  502 -0.74732376162E+03 -0.52978943919E+03 -0.38967262908E+03  0.99549706802E+03  0.50400001928E-02 0.  1.
</event>
<event>
 5   0  0.9442578E-05  0.2203074E+04  0.7818609E-02  0.8517150E-01
       -2   -1    0    0    0  501  0.00000000000E+00  0.00000000000E+00  0.55921604203E+03  0.55921604204E+03  0.25500000920E-02 0.  1.
        2   -1    0    0  501    0  0.00000000000E+00  0.00000000000E+00 -0.21697945562E+04  0.21697945562E+04  0.25500000920E-02 0. -1.
    10030    2    1    2    0    0  0.00000000000E+00  0.00000000000E+00 -0.16105785141E+04  0.27290105982E+04  0.22030741465E+04 0.  0.
        4    1    3    3  502    0 -0.74944577175E+03  0.73068783106E+03 -0.38011723481E+03  0.11135817870E+04  0.12699999809E+01 0.  1.
       -4    1    3    3    0  502  0.74944577175E+03 -0.73068783106E+03 -0.12304612793E+04  0.16154288112E+04  0.12699999809E+01 0. -1.
</event>
<event>
 5   0  0.4133418E-05  0.2196761E+04  0.7818609E-02  0.8519777E-01
       -1   -1    0    0    0  501  0.00000000000E+00  0.00000000000E+00  0.92323649577E+03  0.92323649579E+03  0.50400001928E-02 0. -1.
        1   -1    0    0  501    0  0.00000000000E+00  0.00000000000E+00 -0.13067508722E+04  0.13067508722E+04  0.50400001928E-02 0.  1.
    10030    2    1    2    0    0  0.00000000000E+00  0.00000000000E+00 -0.38351437644E+03  0.22299873680E+04  0.21967613399E+04 0.  0.
        4    1    3    3  502    0  0.37728689906E+02  0.47329243882E+03  0.81368264618E+03  0.94207762328E+03  0.12699999809E+01 0. -1.
       -4    1    3    3    0  502 -0.37728689906E+02 -0.47329243882E+03 -0.11971970226E+04  0.12879097447E+04  0.12699999809E+01 0.  1.
</event>
<event>
 5   0  0.9457742E-05  0.2263528E+04  0.7818609E-02  0.8492442E-01
        2   -1    0    0  501    0  0.00000000000E+00  0.00000000000E+00  0.14413471647E+04  0.14413471647E+04  0.25500000920E-02 0. -1.
       -2   -1    0    0    0  501  0.00000000000E+00  0.00000000000E+00 -0.88867543544E+03  0.88867543545E+03  0.25500000920E-02 0.  1.
    10030    2    1    2    0    0  0.00000000000E+00  0.00000000000E+00  0.55267172928E+03  0.23300226002E+04  0.22635280597E+04 0.  0.
        1    1    3    3  502    0 -0.62463383125E+03  0.92073225321E+03  0.48972865275E+03  0.12156271873E+04  0.50400001928E-02 0. -1.
       -1    1    3    3    0  502  0.62463383125E+03 -0.92073225321E+03  0.62943076528E+02  0.11143954128E+04  0.50400001928E-02 0.  1.
</event>
<event>
 5   0  0.9938176E-05  0.2191548E+04  0.7818609E-02  0.8521954E-01
        2   -1    0    0  501    0  0.00000000000E+00  0.00000000000E+00  0.18889470170E+04  0.18889470170E+04  0.25500000920E-02 0.  1.
       -2   -1    0    0    0  501  0.00000000000E+00  0.00000000000E+00 -0.63565621741E+03  0.63565621741E+03  0.25500000920E-02 0. -1.
    10030    2    1    2    0    0  0.00000000000E+00  0.00000000000E+00  0.12532907996E+04  0.25246032344E+04  0.21915482342E+04 0.  0.
        5    1    3    3  502    0 -0.21725977640E+02 -0.80041683681E+03 -0.23507289442E+03  0.83451811631E+03  0.46999998093E+01 0. -1.
       -5    1    3    3    0  502  0.21725977640E+02  0.80041683681E+03  0.14883636940E+04  0.16900851181E+04  0.46999998093E+01 0.  1.
</event>
<event>
 5   0  0.4063293E-05  0.2168884E+04  0.7818609E-02  0.8531492E-01
       -1   -1    0    0    0  501  0.00000000000E+00  0.00000000000E+00  0.70657570312E+03  0.70657570313E+03  0.50400001928E-02 0.  1.
        1   -1    0    0  501    0  0.00000000000E+00  0.00000000000E+00 -0.16643851392E+04  0.16643851392E+04  0.50400001928E-02 0. -1.
    10030    2    1    2    0    0  0.00000000000E+00  0.00000000000E+00 -0.95780943608E+03  0.23709608423E+04  0.21688836760E+04 0.  0.
        1    1    3    3  502    0  0.29781250231E+03 -0.10354493634E+04 -0.61353098237E+03  0.12398660964E+04  0.50400001928E-02 0. -1.
       -1    1    3    3    0  502 -0.29781250231E+03  0.10354493634E+04 -0.34427845371E+03  0.11310947460E+04  0.50400001928E-02 0.  1.
</event>
<event>
 5   0  0.4063293E-05  0.2160815E+04  0.7818609E-02  0.8534917E-01
        1   -1    0    0  501    0  0.00000000000E+00  0.00000000000E+00  0.11977395452E+04  0.11977395452E+04  0.50400001928E-02 0.  1.
       -1   -1    0    0    0  501  0.00000000000E+00  0.00000000000E+00 -0.97456940574E+03  0.97456940576E+03  0.50400001928E-02 0. -1.
    10030    2    1    2    0    0  0.00000000000E+00  0.00000000000E+00  0.22317013949E+03  0.21723089510E+04  0.21608149545E+04 0.  0.
        1    1    3    3  502    0  0.32827617420E+03 -0.76163136704E+03  0.80767901297E+03  0.11576670393E+04  0.50400001928E-02 0.  1.
       -1    1    3    3    0  502 -0.32827617420E+03  0.76163136704E+03 -0.58450887348E+03  0.10146419117E+04  0.50400001928E-02 0. -1.
</event>
<event>
 5   0  0.4133418E-05  0.2202738E+04  0.7818609E-02  0.8517289E-01
        1   -1    0    0  501    0  0.00000000000E+00  0.00000000000E+00  0.14604051964E+04  0.14604051964E+04  0.50400001928E-02 0.  1.
       -1   -1    0    0    0  501  0.00000000000E+00  0.00000000000E+00 -0.83060083294E+03  0.83060083295E+03  0.50400001928E-02 0. -1.
    10030    2    1    2    0    0  0.00000000000E+00  0.00000000000E+00  0.62980436341E+03  0.22910060293E+04  0.22027380893E+04 0.  0.
        4    1    3    3  502    0  0.76736511390E+03 -0.69280297890E+03  0.70983787356E+03  0.12540720096E+04  0.12699999809E+01 0.  1.
       -4    1    3    3    0  502 -0.76736511390E+03  0.69280297890E+03 -0.80033510146E+02  0.10369340197E+04  0.12699999809E+01 0. -1.
</event>
<event>
 5   0  0.9442578E-05  0.2183331E+04  0.7818609E-02  0.8525398E-01
       -2   -1    0    0    0  501  0.00000000000E+00  0.00000000000E+00  0.10602685042E+04  0.10602685042E+04  0.25500000920E-02 0.  1.
        2   -1    0    0  501    0  0.00000000000E+00  0.00000000000E+00 -0.11239921349E+04  0.11239921349E+04  0.25500000920E-02 0. -1.
    10030    2    1    2    0    0  0.00000000000E+00  0.00000000000E+00 -0.63723630676E+02  0.21842606390E+04  0.21833309044E+04 0.  0.
        4    1    3    3  502    0 -0.82251254873E+03 -0.12147221950E+03  0.67586395103E+03  0.10714831245E+04  0.12699999809E+01 0.  1.
       -4    1    3    3    0  502  0.82251254873E+03  0.12147221950E+03 -0.73958758171E+03  0.11127775145E+04  0.12699999809E+01 0. -1.
</event>
<event>
 5   0  0.4063293E-05  0.2169414E+04  0.7818609E-02  0.8531268E-01
       -1   -1    0    0    0  501  0.00000000000E+00  0.00000000000E+00  0.83590115678E+03  0.83590115679E+03  0.50400001928E-02 0.  1.
        1   -1    0    0  501    0  0.00000000000E+00  0.00000000000E+00 -0.14075693653E+04  0.14075693653E+04  0.50400001928E-02 0. -1.
    10030    2    1    2    0    0  0.00000000000E+00  0.00000000000E+00 -0.57166820853E+03  0.22434705221E+04  0.21694136173E+04 0.  0.
        1    1    3    3  502    0 -0.87985549964E+03  0.15078998263E+03 -0.92307182180E+03  0.12841124979E+04  0.50400001928E-02 0. -1.
       -1    1    3    3    0  502  0.87985549964E+03 -0.15078998263E+03  0.35140361327E+03  0.95935802418E+03  0.50400001928E-02 0.  1.
</event>
<event>
 5   0  0.9457742E-05  0.2150820E+04  0.7818609E-02  0.8539181E-01
        2   -1    0    0  501    0  0.00000000000E+00  0.00000000000E+00  0.14180845511E+04  0.14180845511E+04  0.25500000920E-02 0. -1.
       -2   -1    0    0    0  501  0.00000000000E+00  0.00000000000E+00 -0.81554170459E+03  0.81554170459E+03  0.25500000920E-02 0.  1.
    10030    2    1    2    0    0  0.00000000000E+00  0.00000000000E+00  0.60254284648E+03  0.22336262557E+04  0.21508203942E+04 0.  0.
        1    1    3    3  502    0  0.37781098684E+03 -0.19852148530E+03 -0.72382568201E+03  0.84028301177E+03  0.50400001928E-02 0.  1.
       -1    1    3    3    0  502 -0.37781098684E+03  0.19852148530E+03  0.13263685285E+04  0.13933432439E+04  0.50400001928E-02 0. -1.
</event>
<event>
 5   0  0.3283125E-05  0.2163491E+04  0.7818609E-02  0.8533779E-01
        3   -1    0    0  501    0  0.00000000000E+00  0.00000000000E+00  0.15286452317E+04  0.15286452351E+04  0.10100000352E+00 0.  1.
       -3   -1    0    0    0  501  0.00000000000E+00  0.00000000000E+00 -0.76549720914E+03  0.76549721580E+03  0.10100000352E+00 0. -1.
    10030    2    1    2    0    0  0.00000000000E+00  0.00000000000E+00  0.76314802261E+03  0.22941424509E+04  0.21634913174E+04 0.  0.
        3    1    3    3  502    0 -0.22475641675E+03 -0.64933708053E+03 -0.50435520402E+03  0.85236627868E+03  0.10100000352E+00 0. -1.
       -3    1    3    3    0  502  0.22475641675E+03  0.64933708053E+03  0.12675032266E+04  0.14417761722E+04  0.10100000352E+00 0.  1.
</event>
<event>
 5   0  0.4174075E-05  0.2230244E+04  0.7818609E-02  0.8505944E-01
       -1   -1    0    0    0  501  0.00000000000E+00  0.00000000000E+00  0.10016452635E+04  0.10016452635E+04  0.50400001928E-02 0.  1.
        1   -1    0    0  501    0  0.00000000000E+00  0.00000000000E+00 -0.12414545628E+04  0.12414545628E+04  0.50400001928E-02 0. -1.
    10030    2    1    2    0    0  0.00000000000E+00  0.00000000000E+00 -0.23980929929E+03  0.22430998263E+04  0.22302440070E+04 0.  0.
        5    1    3    3  502    0 -0.14258625730E+02 -0.11913070599E+03 -0.12349337932E+04  0.12407574288E+04  0.46999998093E+01 0. -1.
       -5    1    3    3    0  502  0.14258625730E+02  0.11913070599E+03  0.99512449392E+03  0.10023423975E+04  0.46999998093E+01 0.  1.
</event>
<event>
 5   0  0.9179618E-05  0.2205008E+04  0.7818609E-02  0.8516346E-01
        2   -1    0    0  501    0  0.00000000000E+00  0.00000000000E+00  0.15642708589E+04  0.15642708589E+04  0.25500000920E-02 0. -1.
       -2   -1    0    0    0  501  0.00000000000E+00  0.00000000000E+00 -0.77704914996E+03  0.77704914996E+03  0.25500000920E-02 0.  1.
    10030    2    1    2    0    0  0.00000000000E+00  0.00000000000E+00  0.78722170896E+03  0.23413200089E+04  0.22050082460E+04 0.  0.
        3    1    3    3  502    0 -0.10480679374E+04 -0.34101010435E+03  0.42328558133E+03  0.11806375338E+04  0.10100000352E+00 0.  1.
       -3    1    3    3    0  502  0.10480679374E+04  0.34101010435E+03  0.36393612763E+03  0.11606824751E+04  0.10100000352E+00 0. -1.
</event>
<event>
 5   0  0.4063293E-05  0.2191858E+04  0.7818609E-02  0.8521824E-01
       -1   -1    0    0    0  501  0.00000000000E+00  0.00000000000E+00  0.74307742351E+03  0.74307742352E+03  0.50400001928E-02 0. -1.
        1   -1    0    0  501    0  0.00000000000E+00  0.00000000000E+00 -0.16163333098E+04  0.16163333098E+04  0.50400001928E-02 0.  1.
    10030    2    1    2    0    0  0.00000000000E+00  0.00000000000E+00 -0.87325588628E+03  0.23594107333E+04  0.21918583817E+04 0.  0.
        1    1    3    3  502    0  0.39293353758E+02 -0.88224392064E+03 -0.11352075472E+04  0.14382609215E+04  0.50400001928E-02 0.  1.
       -1    1    3    3    0  502 -0.39293353758E+02  0.88224392064E+03  0.26195166088E+03  0.92114981182E+03  0.50400001928E-02 0. -1.
</event>
<event>
 5   0  0.4174075E-05  0.2128625E+04  0.7818609E-02  0.8548737E-01
        1   -1    0    0  501    0  0.00000000000E+00  0.00000000000E+00  0.23670353747E+04  0.23670353747E+04  0.50400001928E-02 0. -1.
       -1   -1    0    0    0  501  0.00000000000E+00  0.00000000000E+00 -0.47855702058E+03  0.47855702061E+03  0.50400001928E-02 0.  1.
    10030    2    1    2    0    0  0.00000000000E+00  0.00000000000E+00  0.18884783541E+04  0.28455923953E+04  0.21286252808E+04 0.  0.
        5    1    3    3  502    0  0.86995590311E+03  0.44676068304E+03  0.15055784191E+04  0.17953291752E+04  0.46999998093E+01 0.  1.
       -5    1    3    3    0  502 -0.86995590311E+03 -0.44676068304E+03  0.38289993500E+03  0.10502632201E+04  0.46999998093E+01 0. -1.
</event>
<event>
 5   0  0.9938176E-05  0.2345801E+04  0.7818609E-02  0.8460078E-01
       -2   -1    0    0    0  501  0.00000000000E+00  0.00000000000E+00  0.83744455709E+03  0.83744455709E+03  0.25500000920E-02 0. -1.
        2   -1    0    0  501    0  0.00000000000E+00  0.00000000000E+00 -0.16427309273E+04  0.16427309273E+04  0.25500000920E-02 0.  1.
    10030    2    1    2    0    0  0.00000000000E+00  0.00000000000E+00 -0.80528637024E+03  0.24801754844E+04  0.23458014186E+04 0.  0.
        5    1    3    3  502    0 -0.27865690988E+03  0.58538857628E+03  0.63076328266E+03  0.90455174944E+03  0.46999998093E+01 0. -1.
       -5    1    3    3    0  502  0.27865690988E+03 -0.58538857628E+03 -0.14360496529E+04  0.15756237350E+04  0.46999998093E+01 0.  1.
</event>
<event>
 5   0  0.4063293E-05  0.2323235E+04  0.7818609E-02  0.8468816E-01
        1   -1    0    0  501    0  0.00000000000E+00  0.00000000000E+00  0.18234563090E+04  0.18234563090E+04  0.50400001928E-02 0. -1.
       -1   -1    0    0    0  501  0.00000000000E+00  0.00000000000E+00 -0.73999858861E+03  0.73999858862E+03  0.50400001928E-02 0.  1.
    10030    2    1    2    0    0  0.00000000000E+00  0.00000000000E+00  0.10834577204E+04  0.25634548976E+04  0.23232348956E+04 0.  0.
        1    1    3    3  502    0  0.73456901682E+03  0.34598495334E+03 -0.37486156027E+03  0.89432567771E+03  0.50400001928E-02 0.  1.
       -1    1    3    3    0  502 -0.73456901682E+03 -0.34598495334E+03  0.14583192806E+04  0.16691292199E+04  0.50400001928E-02 0. -1.
</event>
<event>
 5   0  0.4174075E-05  0.2204876E+04  0.7818609E-02  0.8516401E-01
       -1   -1    0    0    0  501  0.00000000000E+00  0.00000000000E+00  0.19055041353E+04  0.19055041353E+04  0.50400001928E-02 0.  1.
        1   -1    0    0  501    0  0.00000000000E+00  0.00000000000E+00 -0.63782043006E+03  0.63782043008E+03  0.50400001928E-02 0. -1.
    10030    2    1    2    0    0  0.00000000000E+00  0.00000000000E+00  0.12676837052E+04  0.25433245654E+04  0.22048759304E+04 0.  0.
        5    1    3    3  502    0 -0.17102826271E+03 -0.97187377905E+03  0.12007705006E+04  0.15542397480E+04  0.46999998093E+01 0.  1.
       -5    1    3    3    0  502  0.17102826271E+03  0.97187377905E+03  0.66913204619E+02  0.98908481739E+03  0.46999998093E+01 0. -1.
</event>
<event>
 5   0  0.4188865E-05  0.2200084E+04  0.7818609E-02  0.8518393E-01
        1   -1    0    0  501    0  0.00000000000E+00  0.00000000000E+00  0.12987270373E+04  0.12987270373E+04  0.50400001928E-02 0.  1.
       -1   -1    0    0    0  501  0.00000000000E+00  0.00000000000E+00 -0.93175272736E+03  0.93175272737E+03  0.50400001928E-02 0. -1.
    10030    2    1    2    0    0  0.00000000000E+00  0.00000000000E+00  0.36697430992E+03  0.22304797647E+04  0.22000840521E+04 0.  0.
        3    1    3    3  502    0 -0.64305011194E+01  0.30199071653E+03 -0.88888486182E+03  0.93880565187E+03  0.10100000352E+00 0. -1.
       -3    1    3    3    0  502  0.64305011194E+01 -0.30199071653E+03  0.12558591717E+04  0.12916741128E+04  0.10100000352E+00 0.  1.
</event>
<event>
 5   0  0.9442578E-05  0.2194654E+04  0.7818609E-02  0.8520657E-01
       -2   -1    0    0    0  501  0.00000000000E+00  0.00000000000E+00  0.50053441164E+03  0.50053441165E+03  0.25500000920E-02 0. -1.
        2   -1    0    0  501    0  0.00000000000E+00  0.00000000000E+00 -0.24056815613E+04  0.24056815613E+04  0.25500000920E-02 0.  1.
    10030    2    1    2    0    0  0.00000000000E+00  0.00000000000E+00 -0.19051471496E+04  0.29062159729E+04  0.21946538724E+04 0.  0.
        4    1    3    3  502    0  0.79709820620E+03  0.26477526206E+03 -0.17466808654E+02  0.84010605998E+03  0.12699999809E+01 0. -1.
       -4    1    3    3    0  502 -0.79709820620E+03 -0.26477526206E+03 -0.18876803410E+04  0.20661099129E+04  0.12699999809E+01 0.  1.
</event>
<event>
 5   0  0.4174030E-05  0.2136979E+04  0.7818609E-02  0.8545127E-01
        1   -1    0    0  501    0  0.00000000000E+00  0.00000000000E+00  0.79643216524E+03  0.79643216526E+03  0.50400001928E-02 0. -1.
       -1   -1    0    0    0  501  0.00000000000E+00  0.00000000000E+00 -0.14334800935E+04  0.14334800935E+04  0.50400001928E-02 0.  1.
    10030    2    1    2    0    0  0.00000000000E+00  0.00000000000E+00 -0.63704792828E+03  0.22299122588E+04  0.21369788532E+04 0.  0.
        2    1    3    3  502    0 -0.36682203009E+03  0.64557910747E+03 -0.11202726189E+04  0.13440020560E+04  0.25500000920E-02 0.  1.
       -2    1    3    3    0  502  0.36682203009E+03 -0.64557910747E+03  0.48322469066E+03  0.88591020280E+03  0.25500000920E-02 0. -1.
</event>
<event>
 5   0  0.3283125E-05  0.2186982E+04  0.7818609E-02  0.8523866E-01
        3   -1    0    0  501    0  0.00000000000E+00  0.00000000000E+00  0.16978106876E+04  0.16978106906E+04  0.10100000352E+00 0. -1.
       -3   -1    0    0    0  501  0.00000000000E+00  0.00000000000E+00 -0.70427349490E+03  0.70427350214E+03  0.10100000352E+00 0.  1.
    10030    2    1    2    0    0  0.00000000000E+00  0.00000000000E+00  0.99353719274E+03  0.24020841928E+04  0.21869824681E+04 0.  0.
        4    1    3    3  502    0 -0.10811007737E+03 -0.65263723546E+01 -0.69836688417E+03  0.70671656283E+03  0.12699999809E+01 0.  1.
       -4    1    3    3    0  502  0.10811007737E+03  0.65263723546E+01  0.16919040769E+04  0.16953676300E+04  0.12699999809E+01 0. -1.
</event>
<event>
 5   0  0.9457742E-05  0.2173884E+04  0.7818609E-02  0.8529377E-01
       -2   -1    0    0    0  501  0.00000000000E+00  0.00000000000E+00  0.91254987258E+03  0.91254987258E+03  0.25500000920E-02 0. -1.
        2   -1    0    0  501    0  0.00000000000E+00  0.00000000000E+00 -0.12946615277E+04  0.12946615277E+04  0.25500000920E-02 0.  1.
    10030    2    1    2    0    0  0.00000000000E+00  0.00000000000E+00 -0.38211165507E+03  0.22072114002E+04  0.21738842767E+04 0.  0.
        1    1    3    3  502    0 -0.55904868112E+03 -0.86238218060E+03  0.16821166855E+03  0.10414094386E+04  0.50400001928E-02 0.  1.
       -1    1    3    3    0  502  0.55904868112E+03  0.86238218060E+03 -0.55032332362E+03  0.11658019617E+04  0.50400001928E-02 0. -1.
</event>
<event>
 5   0  0.9442578E-05  0.2271334E+04  0.7818609E-02  0.8489310E-01
       -2   -1    0    0    0  501  0.00000000000E+00  0.00000000000E+00  0.14732177784E+04  0.14732177784E+04  0.25500000920E-02 0.  1.
        2   -1    0    0  501    0  0.00000000000E+00  0.00000000000E+00 -0.87545783982E+03  0.87545783983E+03  0.25500000920E-02 0. -1.
    10030    2    1    2    0    0  0.00000000000E+00  0.00000000000E+00  0.59775993856E+03  0.23486756182E+04  0.22713344570E+04 0.  0.
        4    1    3    3  502    0  0.24169362530E+03  0.10333965504E+04 -0.11913020143E+03  0.10679503063E+04  0.12699999809E+01 0. -1.
       -4    1    3    3    0  502 -0.24169362530E+03 -0.10333965504E+04  0.71689013999E+03  0.12807253119E+04  0.12699999809E+01 0.  1.
</event>
<event>
 5   0  0.9442578E-05  0.2169137E+04  0.7818609E-02  0.8531385E-01
        2   -1    0    0  501    0  0.00000000000E+00  0.00000000000E+00  0.53191863577E+03  0.53191863577E+03  0.25500000920E-02 0. -1.
       -2   -1    0    0    0  501  0.00000000000E+00  0.00000000000E+00 -0.22114069412E+04  0.22114069412E+04  0.25500000920E-02 0.  1.
    10030    2    1    2    0    0  0.00000000000E+00  0.00000000000E+00 -0.16794883054E+04  0.27433255770E+04  0.21691367530E+04 0.  0.
        4    1    3    3  502    0  0.82117583360E+03 -0.67561807258E+03 -0.56998026737E+03  0.12065109398E+04  0.12699999809E+01 0. -1.
       -4    1    3    3    0  502 -0.82117583360E+03  0.67561807258E+03 -0.11095080381E+04  0.15368146372E+04  0.12699999809E+01 0.  1.
</event>
<event>
 5   0  0.9254673E-05  0.1624284E+04  0.7818609E-02  0.8805767E-01
       -2   -1    0    0    0  501  0.00000000000E+00  0.00000000000E+00  0.41094187523E+03  0.41094187524E+03  0.25500000920E-02 0.  1.
        2   -1    0    0  501    0  0.00000000000E+00  0.00000000000E+00 -0.16050308776E+04  0.16050308776E+04  0.25500000920E-02 0. -1.
    10030    2    1    2    0    0  0.00000000000E+00  0.00000000000E+00 -0.11940890023E+04  0.20159727528E+04  0.16242837174E+04 0.  0.
        2    1    3    3  502    0  0.78360952554E+02 -0.24253644150E+02  0.40578718571E+03  0.41399507030E+03  0.25500000920E-02 0.  1.
       -2    1    3    3    0  502 -0.78360952554E+02  0.24253644150E+02 -0.15998761880E+04  0.16019776825E+04  0.25500000920E-02 0. -1.
</event>
<event>
 5   0  0.9179618E-05  0.2184548E+04  0.7818609E-02  0.8524887E-01
       -2   -1    0    0    0  501  0.00000000000E+00  0.00000000000E+00  0.55467407935E+03  0.55467407935E+03  0.25500000920E-02 0. -1.
        2   -1    0    0  501    0  0.00000000000E+00  0.00000000000E+00 -0.21509244458E+04  0.21509244458E+04  0.25500000920E-02 0.  1.
    10030    2    1    2    0    0  0.00000000000E+00  0.00000000000E+00 -0.15962503664E+04  0.27055985251E+04  0.21845475840E+04 0.  0.
        3    1    3    3  502    0  0.61336887425E+02  0.55211941702E+02 -0.21470576991E+04  0.21486431407E+04  0.10100000352E+00 0.  1.
       -3    1    3    3    0  502 -0.61336887425E+02 -0.55211941702E+02  0.55080733274E+03  0.55695538444E+03  0.10100000352E+00 0. -1.
</event>
<event>
 5   0  0.4188865E-05  0.2370553E+04  0.7818609E-02  0.8450611E-01
       -1   -1    0    0    0  501  0.00000000000E+00  0.00000000000E+00  0.97892315262E+03  0.97892315263E+03  0.50400001928E-02 0.  1.
        1   -1    0    0  501    0  0.00000000000E+00  0.00000000000E+00 -0.14351278723E+04  0.14351278723E+04  0.50400001928E-02 0. -1.
    10030    2    1    2    0    0  0.00000000000E+00  0.00000000000E+00 -0.45620471965E+03  0.24140510249E+04  0.23705525948E+04 0.  0.
        3    1    3    3  502    0  0.94313474250E+03 -0.61683741654E+03 -0.60211309788E+03  0.12777056522E+04  0.10100000352E+00 0.  1.
       -3    1    3    3    0  502 -0.94313474250E+03  0.61683741654E+03  0.14590837822E+03  0.11363453727E+04  0.10100000352E+00 0. -1.
</event>
<event>
 5   0  0.4133418E-05  0.2358047E+04  0.7818609E-02  0.8455379E-01
        1   -1    0    0  501    0  0.00000000000E+00  0.00000000000E+00  0.15713169090E+04  0.15713169090E+04  0.50400001928E-02 0.  1.
       -1   -1    0    0    0  501  0.00000000000E+00  0.00000000000E+00 -0.88467001968E+03  0.88467001969E+03  0.50400001928E-02 0. -1.
    10030    2    1    2    0    0  0.00000000000E+00  0.00000000000E+00  0.68664688933E+03  0.24559869287E+04  0.23580474642E+04 0.  0.
        4    1    3    3  502    0  0.98894194906E+03 -0.23835002393E+03  0.96413234164E+03  0.14015597374E+04  0.12699999809E+01 0.  1.
       -4    1    3    3    0  502 -0.98894194906E+03  0.23835002393E+03 -0.27748545231E+03  0.10544271913E+04  0.12699999809E+01 0. -1.
</event>
<event>
 5   0  0.9179618E-05  0.2156339E+04  0.7818609E-02  0.8536824E-01
        2   -1    0    0  501    0  0.00000000000E+00  0.00000000000E+00  0.15617445052E+04  0.15617445052E+04  0.25500000920E-02 0.  1.
       -2   -1    0    0    0  501  0.00000000000E+00  0.00000000000E+00 -0.74432744995E+03  0.74432744995E+03  0.25500000920E-02 0. -1.
    10030    2    1    2    0    0  0.00000000000E+00  0.00000000000E+00  0.81741705522E+03  0.23060719551E+04  0.21563388463E+04 0.  0.
        3    1    3    3  502    0  0.67524121332E+03 -0.69016750359E+03  0.92177988225E+03  0.13349007606E+04  0.10100000352E+00 0.  1.
       -3    1    3    3    0  502 -0.67524121332E+03  0.69016750359E+03 -0.10436282703E+03  0.97117119451E+03  0.10100000352E+00 0. -1.
</event>
<event>
 5   0  0.9254673E-05  0.2237116E+04  0.7818609E-02  0.8503137E-01
        2   -1    0    0  501    0  0.00000000000E+00  0.00000000000E+00  0.10363409027E+04  0.10363409027E+04  0.25500000920E-02 0.  1.
       -2   -1    0    0    0  501  0.00000000000E+00  0.00000000000E+00 -0.12072976147E+04  0.12072976147E+04  0.25500000920E-02 0. -1.
    10030    2    1    2    0    0  0.00000000000E+00  0.00000000000E+00 -0.17095671200E+03  0.22436385173E+04  0.22371159110E+04 0.  0.
        2    1    3    3  502    0  0.96263005232E+03 -0.78637013114E+02 -0.65133212098E+03  0.11649351610E+04  0.25500000920E-02 0. -1.
       -2    1    3    3    0  502 -0.96263005232E+03  0.78637013114E+02  0.48037540898E+03  0.10787033564E+04  0.25500000920E-02 0.  1.
</event>
<event>
 5   0  0.4063293E-05  0.2186238E+04  0.7818609E-02  0.8524178E-01
        1   -1    0    0  501    0  0.00000000000E+00  0.00000000000E+00  0.85998325988E+03  0.85998325989E+03  0.50400001928E-02 0. -1.
       -1   -1    0    0    0  501  0.00000000000E+00  0.00000000000E+00 -0.13894558288E+04  0.13894558288E+04  0.50400001928E-02 0.  1.
    10030    2    1    2    0    0  0.00000000000E+00  0.00000000000E+00 -0.52947256895E+03  0.22494390887E+04  0.21862376386E+04 0.  0.
        1    1    3    3  502    0  0.29105210459E+03 -0.83496988076E+02  0.81597342083E+03  0.87034228791E+03  0.50400001928E-02 0. -1.
       -1    1    3    3    0  502 -0.29105210459E+03  0.83496988076E+02 -0.13454459898E+04  0.13790968008E+04  0.50400001928E-02 0.  1.
</event>
<event>
 5   0  0.9457742E-05  0.2207965E+04  0.7818609E-02  0.8515120E-01
       -2   -1    0    0    0  501  0.00000000000E+00  0.00000000000E+00  0.67859570670E+03  0.67859570670E+03  0.25500000920E-02 0.  1.
        2   -1    0    0  501    0  0.00000000000E+00  0.00000000000E+00 -0.17960281762E+04  0.17960281762E+04  0.25500000920E-02 0. -1.
    10030    2    1    2    0    0  0.00000000000E+00  0.00000000000E+00 -0.11174324695E+04  0.24746238829E+04  0.22079646822E+04 0.  0.
        1    1    3    3  502    0 -0.10987887316E+03  0.86535361266E+03 -0.13170958298E+04  0.15797631679E+04  0.50400001928E-02 0. -1.
       -1    1    3    3    0  502  0.10987887316E+03 -0.86535361266E+03  0.19966336034E+03  0.89486071497E+03  0.50400001928E-02 0.  1.
</event>
<event>
 5   0  0.4174030E-05  0.2164407E+04  0.7818609E-02  0.8533391E-01
        1   -1    0    0  501    0  0.00000000000E+00  0.00000000000E+00  0.18243570331E+04  0.18243570331E+04  0.50400001928E-02 0.  1.
       -1   -1    0    0    0  501  0.00000000000E+00  0.00000000000E+00 -0.64195992796E+03  0.64195992798E+03  0.50400001928E-02 0. -1.
    10030    2    1    2    0    0  0.00000000000E+00  0.00000000000E+00  0.11823971051E+04  0.24663169611E+04  0.21644067174E+04 0.  0.
        2    1    3    3  502    0 -0.73383206119E+03 -0.77752969312E+03  0.40017799269E+03  0.11415797579E+04  0.25500000920E-02 0. -1.
       -2    1    3    3    0  502  0.73383206119E+03  0.77752969312E+03  0.78221911244E+03  0.13247372032E+04  0.25500000920E-02 0.  1.
</event>
<event>
 5   0  0.9938176E-05  0.2316353E+04  0.7818609E-02  0.8471501E-01
       -2   -1    0    0    0  501  0.00000000000E+00  0.00000000000E+00  0.78181810304E+03  0.78181810305E+03  0.25500000920E-02 0. -1.
        2   -1    0    0  501    0  0.00000000000E+00  0.00000000000E+00 -0.17157098264E+04  0.17157098264E+04  0.25500000920E-02 0.  1.
    10030    2    1    2    0    0  0.00000000000E+00  0.00000000000E+00 -0.93389172335E+03  0.24975279294E+04  0.23163531698E+04 0.  0.
        5    1    3    3  502    0  0.61211746621E+03 -0.91272554131E+03 -0.86104094243E+03  0.13961265346E+04  0.46999998093E+01 0.  1.
       -5    1    3    3    0  502 -0.61211746621E+03  0.91272554131E+03 -0.72850780923E+02  0.11014013948E+04  0.46999998093E+01 0. -1.
</event>
<event>
 5   0  0.4174030E-05  0.2232492E+04  0.7818609E-02  0.8505025E-01
        1   -1    0    0  501    0  0.00000000000E+00  0.00000000000E+00  0.14132184339E+04  0.14132184339E+04  0.50400001928E-02 0.  1.
       -1   -1    0    0    0  501  0.00000000000E+00  0.00000000000E+00 -0.88167910294E+03  0.88167910296E+03  0.50400001928E-02 0. -1.
    10030    2    1    2    0    0  0.00000000000E+00  0.00000000000E+00  0.53153933098E+03  0.22948975369E+04  0.22324920256E+04 0.  0.
        2    1    3    3  502    0 -0.31649749030E+03  0.93411449249E+03  0.80312935282E+03  0.12719108867E+04  0.25500000920E-02 0.  1.
       -2    1    3    3    0  502  0.31649749030E+03 -0.93411449249E+03 -0.27159002184E+03  0.10229866502E+04  0.25500000920E-02 0. -1.
</event>
<event>
 5   0  0.4188865E-05  0.2211816E+04  0.7818609E-02  0.8513526E-01
        1   -1    0    0  501    0  0.00000000000E+00  0.00000000000E+00  0.13294774220E+04  0.13294774220E+04  0.50400001928E-02 0. -1.
       -1   -1    0    0    0  501  0.00000000000E+00  0.00000000000E+00 -0.91993458377E+03  0.91993458379E+03  0.50400001928E-02 0.  1.
    10030    2    1    2    0    0  0.00000000000E+00  0.00000000000E+00  0.40954283822E+03  0.22494120058E+04  0.22118157779E+04 0.  0.
        3    1    3    3  502    0  0.80756286098E+03 -0.41403359629E+03 -0.43799270117E+03  0.10076801128E+04  0.10100000352E+00 0.  1.
       -3    1    3    3    0  502 -0.80756286098E+03  0.41403359629E+03  0.84753553939E+03  0.12417318930E+04  0.10100000352E+00 0. -1.
</event>
<event>
 5   0  0.4174075E-05  0.2198436E+04  0.7818609E-02  0.8519079E-01
       -1   -1    0    0    0  501  0.00000000000E+00  0.00000000000E+00  0.10037072308E+04  0.10037072308E+04  0.50400001928E-02 0.  1.
        1   -1    0    0  501    0  0.00000000000E+00  0.00000000000E+00 -0.12038174241E+04  0.12038174241E+04  0.50400001928E-02 0. -1.
    10030    2    1    2    0    0  0.00000000000E+00  0.00000000000E+00 -0.20011019329E+03  0.22075246549E+04  0.21984360378E+04 0.  0.
        5    1    3    3  502    0  0.66230142861E+03  0.65845172365E+03  0.48204511108E+03  0.10509954490E+04  0.46999998093E+01 0.  1.
       -5    1    3    3    0  502 -0.66230142861E+03 -0.65845172365E+03 -0.68215530437E+03  0.11565292059E+04  0.46999998093E+01 0. -1.
</event>
<event>
 5   0  0.9457742E-05  0.2239013E+04  0.7818609E-02  0.8502363E-01
        2   -1    0    0  501    0  0.00000000000E+00  0.00000000000E+00  0.75842563687E+03  0.75842563688E+03  0.25500000920E-02 0. -1.
       -2   -1    0    0    0  501  0.00000000000E+00  0.00000000000E+00 -0.16524953704E+04  0.16524953704E+04  0.25500000920E-02 0.  1.
    10030    2    1    2    0    0  0.00000000000E+00  0.00000000000E+00 -0.89406973349E+03  0.24109210072E+04  0.22390130448E+04 0.  0.
        1    1    3    3  502    0 -0.13179482462E+03  0.49023802646E+03 -0.15214372950E+04  0.16038935878E+04  0.50400001928E-02 0.  1.
       -1    1    3    3    0  502  0.13179482462E+03 -0.49023802646E+03  0.62736756154E+03  0.80702741941E+03  0.50400001928E-02 0. -1.
</event>
<event>
 5   0  0.4188865E-05  0.2213492E+04  0.7818609E-02  0.8512833E-01
       -1   -1    0    0    0  501  0.00000000000E+00  0.00000000000E+00  0.11702082938E+04  0.11702082938E+04  0.50400001928E-02 0. -1.
        1   -1    0    0  501    0  0.00000000000E+00  0.00000000000E+00 -0.10467256357E+04  0.10467256357E+04  0.50400001928E-02 0.  1.
    10030    2    1    2    0    0  0.00000000000E+00  0.00000000000E+00  0.12348265808E+03  0.22169339296E+04  0.22134922817E+04 0.  0.
        3    1    3    3  502    0 -0.24965041863E+03 -0.46708908507E+03 -0.91156669810E+03  0.10542539543E+04  0.10100000352E+00 0.  1.
       -3    1    3    3    0  502  0.24965041863E+03  0.46708908507E+03  0.10350493562E+04  0.11626799752E+04  0.10100000352E+00 0. -1.
</event>
<event>
 5   0  0.9254673E-05  0.2205462E+04  0.7818609E-02  0.8516158E-01
        2   -1    0    0  501    0  0.00000000000E+00  0.00000000000E+00  0.83887459682E+03  0.83887459683E+03  0.25500000920E-02 0.  1.
       -2   -1    0    0    0  501  0.00000000000E+00  0.00000000000E+00 -0.14495794874E+04  0.14495794874E+04  0.25500000920E-02 0. -1.
    10030    2    1    2    0    0  0.00000000000E+00  0.00000000000E+00 -0.61070489054E+03  0.22884540842E+04  0.22054617730E+04 0.  0.
        2    1    3    3  502    0 -0.34922014191E+03  0.89111054180E+03  0.26296472241E+03  0.99256392765E+03  0.25500000920E-02 0.  1.
       -2    1    3    3    0  502  0.34922014191E+03 -0.89111054180E+03 -0.87366961295E+03  0.12958901565E+04  0.25500000920E-02 0. -1.
</event>
<event>
 5   0  0.4133418E-05  0.2208064E+04  0.7818609E-02  0.8515079E-01
        1   -1    0    0  501    0  0.00000000000E+00  0.00000000000E+00  0.10851873605E+04  0.10851873605E+04  0.50400001928E-02 0. -1.
       -1   -1    0    0    0  501  0.00000000000E+00  0.00000000000E+00 -0.11232035166E+04  0.11232035167E+04  0.50400001928E-02 0.  1.
    10030    2    1    2    0    0  0.00000000000E+00  0.00000000000E+00 -0.38016156170E+02  0.22083908771E+04  0.22080636400E+04 0.  0.
        4    1    3    3  502    0 -0.10158241368E+04 -0.15092013097E+03  0.38627917731E+03  0.10972186557E+04  0.12699999809E+01 0. -1.
       -4    1    3    3    0  502  0.10158241368E+04  0.15092013097E+03 -0.42429533348E+03  0.11111722214E+04  0.12699999809E+01 0.  1.
</event>
<event>
 5   0  0.4174075E-05  0.2205483E+04  0.7818609E-02  0.8516150E-01
        1   -1    0    0  501    0  0.00000000000E+00  0.00000000000E+00  0.86843367385E+03  0.86843367387E+03  0.50400001928E-02 0.  1.
       -1   -1    0    0    0  501  0.00000000000E+00  0.00000000000E+00 -0.14002665321E+04  0.14002665321E+04  0.50400001928E-02 0. -1.
    10030    2    1    2    0    0  0.00000000000E+00  0.00000000000E+00 -0.53183285826E+03  0.22687002060E+04  0.22054828123E+04 0.  0.
        5    1    3    3  502    0 -0.10798759576E+04  0.17434568642E+03 -0.40951735943E+03  0.11680132961E+04  0.46999998093E+01 0. -1.
       -5    1    3    3    0  502  0.10798759576E+04 -0.17434568642E+03 -0.12231549883E+03  0.11006869099E+04  0.46999998093E+01 0.  1.
</event>
<event>
 5   0  0.9938176E-05  0.2189823E+04  0.7818609E-02  0.8522676E-01
        2   -1    0    0  501    0  0.00000000000E+00  0.00000000000E+00  0.14516262011E+04  0.14516262011E+04  0.25500000920E-02 0. -1.
       -2   -1    0    0    0  501  0.00000000000E+00  0.00000000000E+00 -0.82585411061E+03  0.82585411062E+03  0.25500000920E-02 0.  1.
    10030    2    1    2    0    0  0.00000000000E+00  0.00000000000E+00  0.62577209051E+03  0.22774803117E+04  0.21898232488E+04 0.  0.
        5    1    3    3  502    0 -0.24297642894E+03 -0.70218972390E+03 -0.52348208740E+03  0.90893538781E+03  0.46999998093E+01 0.  1.
       -5    1    3    3    0  502  0.24297642894E+03  0.70218972390E+03  0.11492541779E+04  0.13685449239E+04  0.46999998093E+01 0. -1.
</event>
<event>
 5   0  0.4174075E-05  0.2212548E+04  0.7818609E-02  0.8513224E-01
       -1   -1    0    0    0  501  0.00000000000E+00  0.00000000000E+00  0.14159092164E+04  0.14159092164E+04  0.50400001928E-02 0. -1.
        1   -1    0    0  501    0  0.00000000000E+00  0.00000000000E+00 -0.86435060211E+03  0.86435060213E+03  0.50400001928E-02 0.  1.
    10030    2    1    2    0    0  0.00000000000E+00  0.00000000000E+00  0.55155861424E+03  0.22802598185E+04  0.22125478379E+04 0.  0.
        5    1    3    3  502    0 -0.33481693818E+03  0.10125887874E+04  0.57868116209E+03  0.12133970545E+04  0.46999998093E+01 0. -1.
       -5    1    3    3    0  502  0.33481693818E+03 -0.10125887874E+04 -0.27122547846E+02  0.10668627640E+04  0.46999998093E+01 0.  1.
</event>
<event>
 5   0  0.4174030E-05  0.2147994E+04  0.7818609E-02  0.8540392E-01
        1   -1    0    0  501    0  0.00000000000E+00  0.00000000000E+00  0.62779634065E+03  0.62779634067E+03  0.50400001928E-02 0.  1.
       -1   -1    0    0    0  501  0.00000000000E+00  0.00000000000E+00 -0.18373302294E+04  0.18373302294E+04  0.50400001928E-02 0. -1.
    10030    2    1    2    0    0  0.00000000000E+00  0.00000000000E+00 -0.12095338887E+04  0.24651265700E+04  0.21479936635E+04 0.  0.
        2    1    3    3  502    0  0.29245969724E+03  0.85197751025E+03  0.66452076943E+02  0.90322435254E+03  0.25500000920E-02 0.  1.
       -2    1    3    3    0  502 -0.29245969724E+03 -0.85197751025E+03 -0.12759859656E+04  0.15619022175E+04  0.25500000920E-02 0. -1.
</event>
<event>
 5   0  0.9457742E-05  0.2162890E+04  0.7818609E-02  0.8534035E-01
       -2   -1    0    0    0  501  0.00000000000E+00  0.00000000000E+00  0.17801682638E+04  0.17801682638E+04  0.25500000920E-02 0.  1.
        2   -1    0    0  501    0  0.00000000000E+00  0.00000000000E+00 -0.65697362353E+03  0.65697362353E+03  0.25500000920E-02 0. -1.
    10030    2    1    2    0    0  0.00000000000E+00  0.00000000000E+00  0.11231946403E+04  0.24371418873E+04  0.21628902836E+04 0.  0.
        1    1    3    3  502    0  0.81483043716E+03  0.11549150142E+02  0.13626882293E+04  0.15877661145E+04  0.50400001928E-02 0.  1.
       -1    1    3    3    0  502 -0.81483043716E+03 -0.11549150142E+02 -0.23949358903E+03  0.84937577279E+03  0.50400001928E-02 0. -1.
</event>
<event>
 5   0  0.4133418E-05  0.2232233E+04  0.7818609E-02  0.8505131E-01
       -1   -1    0    0    0  501  0.00000000000E+00  0.00000000000E+00  0.60835797298E+03  0.60835797300E+03  0.50400001928E-02 0.  1.
        1   -1    0    0  501    0  0.00000000000E+00  0.00000000000E+00 -0.20476694186E+04  0.20476694186E+04  0.50400001928E-02 0. -1.
    10030    2    1    2    0    0  0.00000000000E+00  0.00000000000E+00 -0.14393114456E+04  0.26560273916E+04  0.22322329779E+04 0.  0.
        4    1    3    3  502    0 -0.90403339113E+03  0.54518342084E+03 -0.11506599970E+04  0.15615765675E+04  0.12699999809E+01 0. -1.
       -4    1    3    3    0  502  0.90403339113E+03 -0.54518342084E+03 -0.28865144861E+03  0.10944508241E+04  0.12699999809E+01 0.  1.
</event>
<event>
 5   0  0.9457742E-05  0.2471758E+04  0.7818609E-02  0.8413116E-01
        2   -1    0    0  501    0  0.00000000000E+00  0.00000000000E+00  0.15558696707E+04  0.15558696707E+04  0.25500000920E-02 0. -1.
       -2   -1    0    0    0  501  0.00000000000E+00  0.00000000000E+00 -0.98170015591E+03  0.98170015591E+03  0.25500000920E-02 0.  1.
    10030    2    1    2    0    0  0.00000000000E+00  0.00000000000E+00  0.57416951479E+03  0.25375698266E+04  0.24717584820E+04 0.  0.
        1    1    3    3  502    0 -0.10658359002E+04 -0.48332491749E+03  0.69488684486E+03  0.13610572615E+04  0.50400001928E-02 0. -1.
       -1    1    3    3    0  502  0.10658359002E+04  0.48332491749E+03 -0.12071733007E+03  0.11765125651E+04  0.50400001928E-02 0.  1.
</event>
<event>
 5   0  0.9457742E-05  0.2197003E+04  0.7818609E-02  0.8519676E-01
        2   -1    0    0  501    0  0.00000000000E+00  0.00000000000E+00  0.18048944651E+04  0.18048944651E+04  0.25500000920E-02 0.  1.
       -2   -1    0    0    0  501  0.00000000000E+00  0.00000000000E+00 -0.66857411163E+03  0.66857411164E+03  0.25500000920E-02 0. -1.
    10030    2    1    2    0    0  0.00000000000E+00  0.00000000000E+00  0.11363203535E+04  0.24734685768E+04  0.21970031530E+04 0.  0.
        1    1    3    3  502    0 -0.58687924440E+03 -0.68690242659E+03  0.12716451551E+04  0.15599178157E+04  0.50400001928E-02 0.  1.
       -1    1    3    3    0  502  0.58687924440E+03  0.68690242659E+03 -0.13532480158E+03  0.91355076110E+03  0.50400001928E-02 0. -1.
</event>
<event>
 5   0  0.4133418E-05  0.2230177E+04  0.7818609E-02  0.8505972E-01
       -1   -1    0    0    0  501  0.00000000000E+00  0.00000000000E+00  0.10314485158E+04  0.10314485158E+04  0.50400001928E-02 0.  1.
        1   -1    0    0  501    0  0.00000000000E+00  0.00000000000E+00 -0.12055105753E+04  0.12055105753E+04  0.50400001928E-02 0. -1.
    10030    2    1    2    0    0  0.00000000000E+00  0.00000000000E+00 -0.17406205951E+03  0.22369590911E+04  0.22301767586E+04 0.  0.
        4    1    3    3  502    0 -0.10369268898E+04 -0.10265945930E+03 -0.48530802436E+03  0.11494702392E+04  0.12699999809E+01 0.  1.
       -4    1    3    3    0  502  0.10369268898E+04  0.10265945930E+03  0.31124596485E+03  0.10874888519E+04  0.12699999809E+01 0. -1.
</event>
<event>
 5   0  0.4188865E-05  0.2206188E+04  0.7818609E-02  0.8515857E-01
        1   -1    0    0  501    0  0.00000000000E+00  0.00000000000E+00  0.15918334186E+04  0.15918334186E+04  0.50400001928E-02 0. -1.
       -1   -1    0    0    0  501  0.00000000000E+00  0.00000000000E+00 -0.76441222126E+03  0.76441222128E+03  0.50400001928E-02 0.  1.
    10030    2    1    2    0    0  0.00000000000E+00  0.00000000000E+00  0.82742119730E+03  0.23562456398E+04  0.22061884955E+04 0.  0.
        3    1    3    3  502    0 -0.35826435451E+03 -0.76064348545E+03 -0.34891975612E+03  0.91031690420E+03  0.10100000352E+00 0.  1.
       -3    1    3    3    0  502  0.35826435451E+03  0.76064348545E+03  0.11763409534E+04  0.14459287356E+04  0.10100000352E+00 0. -1.
</event>
<event>
 5   0  0.9442578E-05  0.2222131E+04  0.7818609E-02  0.8509273E-01
       -2   -1    0    0    0  501  0.00000000000E+00  0.00000000000E+00  0.67203895356E+03  0.67203895357E+03  0.25500000920E-02 0.  1.
        2   -1    0    0  501    0  0.00000000000E+00  0.00000000000E+00 -0.18368975893E+04  0.18368975894E+04  0.25500000920E-02 0. -1.
    10030    2    1    2    0    0  0.00000000000E+00  0.00000000000E+00 -0.11648586358E+04  0.25089365429E+04  0.22221311696E+04 0.  0.
        4    1    3    3  502    0 -0.29313612111E+03  0.18766916850E+03 -0.17737517839E+04  0.18075800137E+04  0.12699999809E+01 0. -1.
       -4    1    3    3    0  502  0.29313612111E+03 -0.18766916850E+03  0.60889314811E+03  0.70135652918E+03  0.12699999809E+01 0.  1.
</event>
<event>
 5   0  0.4133418E-05  0.2216080E+04  0.7818609E-02  0.8511765E-01
        1   -1    0    0  501    0  0.00000000000E+00  0.00000000000E+00  0.16356310288E+04  0.16356310288E+04  0.50400001928E-02 0.  1.
       -1   -1    0    0    0  501  0.00000000000E+00  0.00000000000E+00 -0.75062904728E+03  0.75062904730E+03  0.50400001928E-02 0. -1.
    10030    2    1    2    0    0  0.00000000000E+00  0.00000000000E+00  0.88500198148E+03  0.23862600761E+04  0.22160795661E+04 0.  0.
        4    1    3    3  502    0  0.46594556737E+03  0.82031319453E+03  0.10682760292E+04  0.14252137721E+04  0.12699999809E+01 0.  1.
       -4    1    3    3    0  502 -0.46594556737E+03 -0.82031319453E+03 -0.18327404768E+03  0.96104630394E+03  0.12699999809E+01 0. -1.
</event>
<event>
 5   0  0.4063293E-05  0.2198634E+04  0.7818609E-02  0.8518997E-01
        1   -1    0    0  501    0  0.00000000000E+00  0.00000000000E+00  0.24635474603E+04  0.24635474603E+04  0.50400001928E-02 0. -1.
       -1   -1    0    0    0  501  0.00000000000E+00  0.00000000000E+00 -0.49055204156E+03  0.49055204159E+03  0.50400001928E-02 0.  1.
    10030    2    1    2    0    0  0.00000000000E+00  0.00000000000E+00  0.19729954188E+04  0.29540995019E+04  0.21986343363E+04 0.  0.
        1    1    3    3  502    0 -0.88495582771E+03 -0.87287257583E+01  0.18627055934E+04  0.20622548668E+04  0.50400001928E-02 0.  1.
       -1    1    3    3    0  502  0.88495582771E+03  0.87287257583E+01  0.11028982533E+03  0.89184463516E+03  0.50400001928E-02 0. -1.
</event>
<event>
 5   0  0.4174075E-05  0.2214033E+04  0.7818609E-02  0.8512610E-01
       -1   -1    0    0    0  501  0.00000000000E+00  0.00000000000E+00  0.23157522002E+04  0.23157522002E+04  0.50400001928E-02 0.  1.
        1   -1    0    0  501    0  0.00000000000E+00  0.00000000000E+00 -0.52919535266E+03  0.52919535268E+03  0.50400001928E-02 0. -1.
    10030    2    1    2    0    0  0.00000000000E+00  0.00000000000E+00  0.17865568475E+04  0.28449475529E+04  0.22140327932E+04 0.  0.
        5    1    3    3  502    0 -0.10967425417E+02 -0.10872681626E+04  0.62623235192E+03  0.12547754342E+04  0.46999998093E+01 0. -1.
       -5    1    3    3    0  502  0.10967425417E+02  0.10872681626E+04  0.11603244956E+04  0.15901721186E+04  0.46999998093E+01 0.  1.
</event>
<event>
 5   0  0.9442578E-05  0.2147712E+04  0.7818609E-02  0.8540512E-01
       -2   -1    0    0    0  501  0.00000000000E+00  0.00000000000E+00  0.71187603621E+03  0.71187603621E+03  0.25500000920E-02 0.  1.
        2   -1    0    0  501    0  0.00000000000E+00  0.00000000000E+00 -0.16198981517E+04  0.16198981517E+04  0.25500000920E-02 0. -1.
    10030    2    1    2    0    0  0.00000000000E+00  0.00000000000E+00 -0.90802211548E+03  0.23317741879E+04  0.21477119689E+04 0.  0.
        4    1    3    3  502    0  0.10396384908E+03  0.10677858246E+04 -0.40320285659E+03  0.11461017432E+04  0.12699999809E+01 0.  1.
       -4    1    3    3    0  502 -0.10396384908E+03 -0.10677858246E+04 -0.50481925889E+03  0.11856724447E+04  0.12699999809E+01 0. -1.
</event>
<event>
 5   0  0.9254673E-05  0.2217946E+04  0.7818609E-02  0.8510996E-01
       -2   -1    0    0    0  501  0.00000000000E+00  0.00000000000E+00  0.16014143342E+04  0.16014143342E+04  0.25500000920E-02 0. -1.
        2   -1    0    0  501    0  0.00000000000E+00  0.00000000000E+00 -0.76795939363E+03  0.76795939364E+03  0.25500000920E-02 0.  1.
    10030    2    1    2    0    0  0.00000000000E+00  0.00000000000E+00  0.83345494052E+03  0.23693737278E+04  0.22179460598E+04 0.  0.
        2    1    3    3  502    0 -0.41522231688E+03  0.94682018079E+03 -0.11839643613E+02  0.10339333655E+04  0.25500000920E-02 0.  1.
       -2    1    3    3    0  502  0.41522231688E+03 -0.94682018079E+03  0.84529458413E+03  0.13354403623E+04  0.25500000920E-02 0. -1.
</event>
<event>
 5   0  0.4174075E-05  0.2204068E+04  0.7818609E-02  0.8516737E-01
       -1   -1    0    0    0  501  0.00000000000E+00  0.00000000000E+00  0.11531693579E+04  0.11531693579E+04  0.50400001928E-02 0. -1.
        1   -1    0    0  501    0  0.00000000000E+00  0.00000000000E+00 -0.10531658876E+04  0.10531658876E+04  0.50400001928E-02 0.  1.
    10030    2    1    2    0    0  0.00000000000E+00  0.00000000000E+00  0.10000347027E+03  0.22063352456E+04  0.22040677217E+04 0.  0.
        5    1    3    3  502    0 -0.13545838121E+03  0.92802258224E+03  0.62928668642E+03  0.11294240612E+04  0.46999998093E+01 0. -1.
       -5    1    3    3    0  502  0.13545838121E+03 -0.92802258224E+03 -0.52928321615E+03  0.10769111844E+04  0.46999998093E+01 0.  1.
</event>
<event>
 5   0  0.4063293E-05  0.2216061E+04  0.7818609E-02  0.8511773E-01
        1   -1    0    0  501    0  0.00000000000E+00  0.00000000000E+00  0.98593007650E+03  0.98593007651E+03  0.50400001928E-02 0.  1.
       -1   -1    0    0    0  501  0.00000000000E+00  0.00000000000E+00 -0.12452518562E+04  0.12452518562E+04  0.50400001928E-02 0. -1.
    10030    2    1    2    0    0  0.00000000000E+00  0.00000000000E+00 -0.25932177970E+03  0.22311819327E+04  0.22160607012E+04 0.  0.
        1    1    3    3  502    0  0.13731882627E+03  0.60129677925E+03 -0.10564401095E+04  0.12233069859E+04  0.50400001928E-02 0. -1.
       -1    1    3    3    0  502 -0.13731882627E+03 -0.60129677925E+03  0.79711832977E+03  0.10078749468E+04  0.50400001928E-02 0.  1.
</event>
<event>
 5   0  0.9179618E-05  0.2183523E+04  0.7818609E-02  0.8525317E-01
        2   -1    0    0  501    0  0.00000000000E+00  0.00000000000E+00  0.23775791907E+04  0.23775791907E+04  0.25500000920E-02 0. -1.
       -2   -1    0    0    0  501  0.00000000000E+00  0.00000000000E+00 -0.50132656366E+03  0.50132656367E+03  0.25500000920E-02 0.  1.
    10030    2    1    2    0    0  0.00000000000E+00  0.00000000000E+00  0.18762526271E+04  0.28789057544E+04  0.21835233963E+04 0.  0.
        3    1    3    3  502    0 -0.59679743120E+03  0.41565337500E+03 -0.13544082514E+03  0.73978316374E+03  0.10100000352E+00 0.  1.
       -3    1    3    3    0  502  0.59679743120E+03 -0.41565337500E+03  0.20116934522E+04  0.21391225907E+04  0.10100000352E+00 0. -1.
</event>
<event>
 5   0  0.9442578E-05  0.2183842E+04  0.7818609E-02  0.8525184E-01
       -2   -1    0    0    0  501  0.00000000000E+00  0.00000000000E+00  0.58388222832E+03  0.58388222832E+03  0.25500000920E-02 0.  1.
        2   -1    0    0  501    0  0.00000000000E+00  0.00000000000E+00 -0.20420064156E+04  0.20420064156E+04  0.25500000920E-02 0. -1.
    10030    2    1    2    0    0  0.00000000000E+00  0.00000000000E+00 -0.14581241872E+04  0.26258886439E+04  0.21838418039E+04 0.  0.
        4    1    3    3  502    0  0.23648600542E+02 -0.10731538673E+04 -0.96975933299E+03  0.14466005862E+04  0.12699999809E+01 0.  1.
       -4    1    3    3    0  502 -0.23648600542E+02  0.10731538673E+04 -0.48836485425E+03  0.11792880577E+04  0.12699999809E+01 0. -1.
</event>
<event>
 5   0  0.9442578E-05  0.2067980E+04  0.7818609E-02  0.8575481E-01
       -2   -1    0    0    0  501  0.00000000000E+00  0.00000000000E+00  0.52403034305E+03  0.52403034305E+03  0.25500000920E-02 0.  1.
        2   -1    0    0  501    0  0.00000000000E+00  0.00000000000E+00 -0.20402161746E+04  0.20402161746E+04  0.25500000920E-02 0. -1.
    10030    2    1    2    0    0  0.00000000000E+00  0.00000000000E+00 -0.15161858316E+04  0.25642465177E+04  0.20679798663E+04 0.  0.
        4    1    3    3  502    0 -0.82559047180E+03  0.49111993837E+03 -0.12324307800E+04  0.15625894091E+04  0.12699999809E+01 0. -1.
       -4    1    3    3    0  502  0.82559047180E+03 -0.49111993837E+03 -0.28375505158E+03  0.10016571086E+04  0.12699999809E+01 0.  1.
</event>
<event>
 5   0  0.4188865E-05  0.2226096E+04  0.7818609E-02  0.8507644E-01
       -1   -1    0    0    0  501  0.00000000000E+00  0.00000000000E+00  0.98670137373E+03  0.98670137374E+03  0.50400001928E-02 0.  1.
        1   -1    0    0  501    0  0.00000000000E+00  0.00000000000E+00 -0.12555737578E+04  0.12555737578E+04  0.50400001928E-02 0. -1.
    10030    2    1    2    0    0  0.00000000000E+00  0.00000000000E+00 -0.26887238408E+03  0.22422751316E+04  0.22260964504E+04 0.  0.
        3    1    3    3  502    0 -0.51275802771E+03  0.77646386628E+03 -0.74966111872E+03  0.11949095086E+04  0.10100000352E+00 0. -1.
       -3    1    3    3    0  502  0.51275802771E+03 -0.77646386628E+03  0.48078873464E+03  0.10473656230E+04  0.10100000352E+00 0.  1.
</event>
<event>
 5   0  0.4188865E-05  0.2018678E+04  0.7818609E-02  0.8597938E-01
       -1   -1    0    0    0  501  0.00000000000E+00  0.00000000000E+00  0.24263869697E+04  0.24263869697E+04  0.50400001928E-02 0.  1.
        1   -1    0    0  501    0  0.00000000000E+00  0.00000000000E+00 -0.41986915725E+03  0.41986915728E+03  0.50400001928E-02 0. -1.
    10030    2    1    2    0    0  0.00000000000E+00  0.00000000000E+00  0.20065178125E+04  0.28462561270E+04  0.20186778368E+04 0.  0.
        3    1    3    3  502    0 -0.90874713619E+03 -0.93240141445E+02  0.39804253773E+03  0.99647024720E+03  0.10100000352E+00 0. -1.
       -3    1    3    3    0  502  0.90874713619E+03  0.93240141445E+02  0.16084752747E+04  0.18497858798E+04  0.10100000352E+00 0.  1.
</event>
<event>
 5   0  0.4063293E-05  0.2209898E+04  0.7818609E-02  0.8514320E-01
        1   -1    0    0  501    0  0.00000000000E+00  0.00000000000E+00  0.15358154921E+04  0.15358154921E+04  0.50400001928E-02 0.  1.
       -1   -1    0    0    0  501  0.00000000000E+00  0.00000000000E+00 -0.79496046025E+03  0.79496046027E+03  0.50400001928E-02 0. -1.
    10030    2    1    2    0    0  0.00000000000E+00  0.00000000000E+00  0.74085503180E+03  0.23307759523E+04  0.22098982696E+04 0.  0.
        1    1    3    3  502    0 -0.44006644558E+03  0.19397692383E+03  0.14196414009E+04  0.14988886652E+04  0.50400001928E-02 0.  1.
       -1    1    3    3    0  502  0.44006644558E+03 -0.19397692383E+03 -0.67878636913E+03  0.83188728710E+03  0.50400001928E-02 0. -1.
</event>
<event>
 5   0  0.4174030E-05  0.2161662E+04  0.7818609E-02  0.8534557E-01
       -1   -1    0    0    0  501  0.00000000000E+00  0.00000000000E+00  0.18877017997E+04  0.18877017998E+04  0.50400001928E-02 0. -1.
        1   -1    0    0  501    0  0.00000000000E+00  0.00000000000E+00 -0.61884530286E+03  0.61884530288E+03  0.50400001928E-02 0.  1.
    10030    2    1    2    0    0  0.00000000000E+00  0.00000000000E+00  0.12688564969E+04  0.25065471026E+04  0.21616617608E+04 0.  0.
        2    1    3    3  502    0 -0.78504148143E+03  0.19098940160E+03  0.14669052909E+04  0.16746874967E+04  0.25500000920E-02 0. -1.
       -2    1    3    3    0  502  0.78504148143E+03 -0.19098940160E+03 -0.19804879406E+03  0.83185960590E+03  0.25500000920E-02 0.  1.
</event>
<event>
 5   0  0.9179618E-05  0.2183927E+04  0.7818609E-02  0.8525148E-01
       -2   -1    0    0    0  501  0.00000000000E+00  0.00000000000E+00  0.48605877367E+03  0.48605877368E+03  0.25500000920E-02 0.  1.
        2   -1    0    0  501    0  0.00000000000E+00  0.00000000000E+00 -0.24531683019E+04  0.24531683019E+04  0.25500000920E-02 0. -1.
    10030    2    1    2    0    0  0.00000000000E+00  0.00000000000E+00 -0.19671095283E+04  0.29392270756E+04  0.21839267171E+04 0.  0.
        3    1    3    3  502    0  0.92955765817E+03  0.57290045077E+03 -0.97067397118E+03  0.14609929277E+04  0.10100000352E+00 0.  1.
       -3    1    3    3    0  502 -0.92955765817E+03 -0.57290045077E+03 -0.99643555708E+03  0.14782341479E+04  0.10100000352E+00 0. -1.
</event>
<event>
 5   0  0.9179618E-05  0.2195839E+04  0.7818609E-02  0.8520162E-01
        2   -1    0    0  501    0  0.00000000000E+00  0.00000000000E+00  0.16279831253E+04  0.16279831253E+04  0.25500000920E-02 0. -1.
       -2   -1    0    0    0  501  0.00000000000E+00  0.00000000000E+00 -0.74044207295E+03  0.74044207295E+03  0.25500000920E-02 0.  1.
    10030    2    1    2    0    0  0.00000000000E+00  0.00000000000E+00  0.88754105237E+03  0.23684251983E+04  0.21958389741E+04 0.  0.
        3    1    3    3  502    0  0.72141803346E+03  0.68262641249E+03 -0.60990245806E+02  0.99505910292E+03  0.10100000352E+00 0.  1.
       -3    1    3    3    0  502 -0.72141803346E+03 -0.68262641249E+03  0.94853129818E+03  0.13733660953E+04  0.10100000352E+00 0. -1.
</event>
<event>
 5   0  0.4188865E-05  0.2189799E+04  0.7818609E-02  0.8522686E-01
        1   -1    0    0  501    0  0.00000000000E+00  0.00000000000E+00  0.17705091122E+04  0.17705091122E+04  0.50400001928E-02 0. -1.
       -1   -1    0    0    0  501  0.00000000000E+00  0.00000000000E+00 -0.67709590687E+03  0.67709590688E+03  0.50400001928E-02 0.  1.
    10030    2    1    2    0    0  0.00000000000E+00  0.00000000000E+00  0.10934132053E+04  0.24476050191E+04  0.21897985962E+04 0.  0.
        3    1    3    3  502    0 -0.20957190839E+03 -0.58056400554E+03 -0.46410112075E+03  0.77224659909E+03  0.10100000352E+00 0.  1.
       -3    1    3    3    0  502  0.20957190839E+03  0.58056400554E+03  0.15575143261E+04  0.16753584200E+04  0.10100000352E+00 0. -1.
</event>
<event>
 5   0  0.9254673E-05  0.1640099E+04  0.7818609E-02  0.8796285E-01
        2   -1    0    0  501    0  0.00000000000E+00  0.00000000000E+00  0.14022724912E+04  0.14022724912E+04  0.25500000920E-02 0. -1.
       -2   -1    0    0    0  501  0.00000000000E+00  0.00000000000E+00 -0.47956552550E+03  0.47956552550E+03  0.25500000920E-02 0.  1.
    10030    2    1    2    0    0  0.00000000000E+00  0.00000000000E+00  0.92270696569E+03  0.18818380167E+04  0.16400994411E+04 0.  0.
        2    1    3    3  502    0  0.44250102514E+03  0.11871997464E+02  0.12534147011E+04  0.13292842113E+04  0.25500000920E-02 0. -1.
       -2    1    3    3    0  502 -0.44250102514E+03 -0.11871997464E+02 -0.33070773539E+03  0.55255380537E+03  0.25500000920E-02 0.  1.
</event>
<event>
 5   0  0.9457742E-05  0.2174274E+04  0.7818609E-02  0.8529213E-01
       -2   -1    0    0    0  501  0.00000000000E+00  0.00000000000E+00  0.66520635740E+03  0.66520635740E+03  0.25500000920E-02 0.  1.
        2   -1    0    0  501    0  0.00000000000E+00  0.00000000000E+00 -0.17766920462E+04  0.17766920462E+04  0.25500000920E-02 0. -1.
    10030    2    1    2    0    0  0.00000000000E+00  0.00000000000E+00 -0.11114856888E+04  0.24418984036E+04  0.21742739885E+04 0.  0.
        1    1    3    3  502    0 -0.44276035852E+03  0.97714958856E+03 -0.75351071416E+03  0.13109677532E+04  0.50400001928E-02 0.  1.
       -1    1    3    3    0  502  0.44276035852E+03 -0.97714958856E+03 -0.35797497459E+03  0.11309306504E+04  0.50400001928E-02 0. -1.
</event>
<event>
 5   0  0.9442578E-05  0.2191055E+04  0.7818609E-02  0.8522160E-01
       -2   -1    0    0    0  501  0.00000000000E+00  0.00000000000E+00  0.74263937594E+03  0.74263937594E+03  0.25500000920E-02 0.  1.
        2   -1    0    0  501    0  0.00000000000E+00  0.00000000000E+00 -0.16161016642E+04  0.16161016642E+04  0.25500000920E-02 0. -1.
    10030    2    1    2    0    0  0.00000000000E+00  0.00000000000E+00 -0.87346228826E+03  0.23587410401E+04  0.21910552082E+04 0.  0.
        4    1    3    3  502    0 -0.29464729966E+03 -0.72478667107E+03  0.38879860644E+03  0.87366968531E+03  0.12699999809E+01 0.  1.
       -4    1    3    3    0  502  0.29464729966E+03  0.72478667107E+03 -0.12622608947E+04  0.14850713548E+04  0.12699999809E+01 0. -1.
</event>
<event>
 5   0  0.4174075E-05  0.2228720E+04  0.7818609E-02  0.8506568E-01
       -1   -1    0    0    0  501  0.00000000000E+00  0.00000000000E+00  0.87222751224E+03  0.87222751226E+03  0.50400001928E-02 0. -1.
        1   -1    0    0  501    0  0.00000000000E+00  0.00000000000E+00 -0.14237089549E+04  0.14237089549E+04  0.50400001928E-02 0.  1.
    10030    2    1    2    0    0  0.00000000000E+00  0.00000000000E+00 -0.55148144267E+03  0.22959364672E+04  0.22287199195E+04 0.  0.
        5    1    3    3  502    0 -0.54936026030E+03 -0.95354428099E+02 -0.12696639105E+04  0.13867075028E+04  0.46999998093E+01 0.  1.
       -5    1    3    3    0  502  0.54936026030E+03  0.95354428099E+02  0.71818246787E+03  0.90922896440E+03  0.46999998093E+01 0. -1.
</event>
<event>
 5   0  0.9457742E-05  0.2174650E+04  0.7818609E-02  0.8529054E-01
       -2   -1    0    0    0  501  0.00000000000E+00  0.00000000000E+00  0.52174775809E+03  0.52174775809E+03  0.25500000920E-02 0. -1.
        2   -1    0    0  501    0  0.00000000000E+00  0.00000000000E+00 -0.22659907696E+04  0.22659907696E+04  0.25500000920E-02 0.  1.
    10030    2    1    2    0    0  0.00000000000E+00  0.00000000000E+00 -0.17442430115E+04  0.27877385277E+04  0.21746499524E+04 0.  0.
        1    1    3    3  502    0  0.94142541077E+03  0.46034582547E+03 -0.12438256992E+04  0.16264385795E+04  0.50400001928E-02 0. -1.
       -1    1    3    3    0  502 -0.94142541077E+03 -0.46034582547E+03 -0.50041731235E+03  0.11612999482E+04  0.50400001928E-02 0.  1.
</event>
<event>
 5   0  0.9179618E-05  0.2330609E+04  0.7818609E-02  0.8465949E-01
       -2   -1    0    0    0  501  0.00000000000E+00  0.00000000000E+00  0.10598618868E+04  0.10598618868E+04  0.25500000920E-02 0. -1.
        2   -1    0    0  501    0  0.00000000000E+00  0.00000000000E+00 -0.12812374770E+04  0.12812374770E+04  0.25500000920E-02 0.  1.
    10030    2    1    2    0    0  0.00000000000E+00  0.00000000000E+00 -0.22137559015E+03  0.23410993638E+04  0.23306091648E+04 0.  0.
        3    1    3    3  502    0  0.10412660413E+04 -0.52205117572E+03 -0.76440927092E+02  0.11673112800E+04  0.10100000352E+00 0. -1.
       -3    1    3    3    0  502 -0.10412660413E+04  0.52205117572E+03 -0.14493466306E+03  0.11737880838E+04  0.10100000352E+00 0.  1.
</event>
<event>
 5   0  0.4133418E-05  0.2214365E+04  0.7818609E-02  0.8512473E-01
       -1   -1    0    0    0  501  0.00000000000E+00  0.00000000000E+00  0.13929074851E+04  0.13929074851E+04  0.50400001928E-02 0. -1.
        1   -1    0    0  501    0  0.00000000000E+00  0.00000000000E+00 -0.88006792463E+03  0.88006792464E+03  0.50400001928E-02 0.  1.
    10030    2    1    2    0    0  0.00000000000E+00  0.00000000000E+00  0.51283956045E+03  0.22729754097E+04  0.22143651005E+04 0.  0.
        4    1    3    3  502    0  0.92297836380E+02  0.77535808589E+03  0.10621499560E+04  0.13182803927E+04  0.12699999809E+01 0. -1.
       -4    1    3    3    0  502 -0.92297836380E+02 -0.77535808589E+03 -0.54931039553E+03  0.95469501700E+03  0.12699999809E+01 0.  1.
</event>
<event>
 5   0  0.9938176E-05  0.2202388E+04  0.7818609E-02  0.8517435E-01
       -2   -1    0    0    0  501  0.00000000000E+00  0.00000000000E+00  0.11068667516E+04  0.11068667516E+04  0.25500000920E-02 0. -1.
        2   -1    0    0  501    0  0.00000000000E+00  0.00000000000E+00 -0.10955501179E+04  0.10955501179E+04  0.25500000920E-02 0.  1.
    10030    2    1    2    0    0  0.00000000000E+00  0.00000000000E+00  0.11316633649E+02  0.22024168695E+04  0.22023877953E+04 0.  0.
        5    1    3    3  502    0 -0.90863068797E+03 -0.62177209081E+03  0.25549536316E+02  0.11013106414E+04  0.46999998093E+01 0. -1.
       -5    1    3    3    0  502  0.90863068797E+03  0.62177209081E+03 -0.14232902667E+02  0.11011062281E+04  0.46999998093E+01 0.  1.
</event>
<event>
 5   0  0.9254673E-05  0.2209204E+04  0.7818609E-02  0.8514607E-01
       -2   -1    0    0    0  501  0.00000000000E+00  0.00000000000E+00  0.56549318333E+03  0.56549318334E+03  0.25500000920E-02 0.  1.
        2   -1    0    0  501    0  0.00000000000E+00  0.00000000000E+00 -0.21576667029E+04  0.21576667029E+04  0.25500000920E-02 0. -1.
    10030    2    1    2    0    0  0.00000000000E+00  0.00000000000E+00 -0.15921735196E+04  0.27231598862E+04  0.22092042118E+04 0.  0.
        2    1    3    3  502    0  0.32747605413E+03 -0.81949436288E+01  0.50424230351E+03  0.60130526672E+03  0.25500000920E-02 0.  1.
       -2    1    3    3    0  502 -0.32747605413E+03  0.81949436288E+01 -0.20964158231E+04  0.21218546195E+04  0.25500000920E-02 0. -1.
</event>
<event>
 5   0  0.9254673E-05  0.2209139E+04  0.7818609E-02  0.8514634E-01
       -2   -1    0    0    0  501  0.00000000000E+00  0.00000000000E+00  0.18441867755E+04  0.18441867755E+04  0.25500000920E-02 0.  1.
        2   -1    0    0  501    0  0.00000000000E+00  0.00000000000E+00 -0.66157817378E+03  0.66157817379E+03  0.25500000920E-02 0. -1.
    10030    2    1    2    0    0  0.00000000000E+00  0.00000000000E+00  0.11826086017E+04  0.25057649493E+04  0.22091389445E+04 0.  0.
        2    1    3    3  502    0 -0.10800301184E+04  0.22512308281E+03  0.52992497455E+03  0.12239141872E+04  0.25500000920E-02 0.  1.
       -2    1    3    3    0  502  0.10800301184E+04 -0.22512308281E+03  0.65268362719E+03  0.12818507621E+04  0.25500000920E-02 0. -1.
</event>
<event>
 5   0  0.4188865E-05  0.2226898E+04  0.7818609E-02  0.8507315E-01
       -1   -1    0    0    0  501  0.00000000000E+00  0.00000000000E+00  0.57046332384E+03  0.57046332386E+03  0.50400001928E-02 0. -1.
        1   -1    0    0  501    0  0.00000000000E+00  0.00000000000E+00 -0.21732660931E+04  0.21732660931E+04  0.50400001928E-02 0.  1.
    10030    2    1    2    0    0  0.00000000000E+00  0.00000000000E+00 -0.16028027693E+04  0.27437294170E+04  0.22268979313E+04 0.  0.
        3    1    3    3  502    0  0.50891392105E+03  0.71980663573E+02 -0.20183592074E+04  0.20827742305E+04  0.10100000352E+00 0.  1.
       -3    1    3    3    0  502 -0.50891392105E+03 -0.71980663573E+02  0.41555643817E+03  0.66095518643E+03  0.10100000352E+00 0. -1.
</event>
<event>
 5   0  0.4174030E-05  0.2104552E+04  0.7818609E-02  0.8559241E-01
        1   -1    0    0  501    0  0.00000000000E+00  0.00000000000E+00  0.14803193898E+04  0.14803193898E+04  0.50400001928E-02 0.  1.
       -1   -1    0    0    0  501  0.00000000000E+00  0.00000000000E+00 -0.74800409207E+03  0.74800409208E+03  0.50400001928E-02 0. -1.
    10030    2    1    2    0    0  0.00000000000E+00  0.00000000000E+00  0.73231529776E+03  0.22283234819E+04  0.21045521720E+04 0.  0.
        2    1    3    3  502    0  0.77847749276E+03 -0.62024678958E+03  0.46830378307E+01  0.99536687586E+03  0.25500000920E-02 0. -1.
       -2    1    3    3    0  502 -0.77847749276E+03  0.62024678958E+03  0.72763225993E+03  0.12329566061E+04  0.25500000920E-02 0.  1.
</event>
<event>
 5   0  0.9457742E-05  0.2386269E+04  0.7818609E-02  0.8444662E-01
       -2   -1    0    0    0  501  0.00000000000E+00  0.00000000000E+00  0.74828776515E+03  0.74828776516E+03  0.25500000920E-02 0.  1.
        2   -1    0    0  501    0  0.00000000000E+00  0.00000000000E+00 -0.19024368003E+04  0.19024368003E+04  0.25500000920E-02 0. -1.
    10030    2    1    2    0    0  0.00000000000E+00  0.00000000000E+00 -0.11541490351E+04  0.26507245655E+04  0.23862692066E+04 0.  0.
        1    1    3    3  502    0 -0.10272290309E+04  0.38568315930E+03 -0.56503100190E+02  0.10987008608E+04  0.50400001928E-02 0.  1.
       -1    1    3    3    0  502  0.10272290309E+04 -0.38568315930E+03 -0.10976459350E+04  0.15520237046E+04  0.50400001928E-02 0. -1.
</event>
<event>
 5   0  0.4174030E-05  0.2204514E+04  0.7818609E-02  0.8516552E-01
       -1   -1    0    0    0  501  0.00000000000E+00  0.00000000000E+00  0.99298961619E+03  0.99298961620E+03  0.50400001928E-02 0. -1.
        1   -1    0    0  501    0  0.00000000000E+00  0.00000000000E+00 -0.12235478591E+04  0.12235478591E+04  0.50400001928E-02 0.  1.
    10030    2    1    2    0    0  0.00000000000E+00  0.00000000000E+00 -0.23055824294E+03  0.22165374753E+04  0.22045138412E+04 0.  0.
        2    1    3    3  502    0 -0.62093609481E+03  0.83195230325E+03 -0.48779145232E+03  0.11470164644E+04  0.25500000920E-02 0.  1.
       -2    1    3    3    0  502  0.62093609481E+03 -0.83195230325E+03  0.25723320939E+03  0.10695210109E+04  0.25500000920E-02 0. -1.
</event>
<event>
 5   0  0.4174075E-05  0.2195324E+04  0.7818609E-02  0.8520377E-01
       -1   -1    0    0    0  501  0.00000000000E+00  0.00000000000E+00  0.16546798594E+04  0.16546798594E+04  0.50400001928E-02 0.  1.
        1   -1    0    0  501    0  0.00000000000E+00  0.00000000000E+00 -0.72815438405E+03  0.72815438407E+03  0.50400001928E-02 0. -1.
    10030    2    1    2    0    0  0.00000000000E+00  0.00000000000E+00  0.92652547536E+03  0.23828342435E+04  0.21953244807E+04 0.  0.
        5    1    3    3  502    0  0.10605376642E+04  0.25807088422E+03  0.33715105319E+03  0.11423806901E+04  0.46999998093E+01 0.  1.
       -5    1    3    3    0  502 -0.10605376642E+04 -0.25807088422E+03  0.58937442217E+03  0.12404535534E+04  0.46999998093E+01 0. -1.
</event>
<event>
 5   0  0.9938176E-05  0.2042127E+04  0.7818609E-02  0.8587175E-01
        2   -1    0    0  501    0  0.00000000000E+00  0.00000000000E+00  0.13967454050E+04  0.13967454050E+04  0.25500000920E-02 0.  1.
       -2   -1    0    0    0  501  0.00000000000E+00  0.00000000000E+00 -0.74642821864E+03  0.74642821865E+03  0.25500000920E-02 0. -1.
    10030    2    1    2    0    0  0.00000000000E+00  0.00000000000E+00  0.65031718640E+03  0.21431736237E+04  0.20421265236E+04 0.  0.
        5    1    3    3  502    0  0.17960642816E+02 -0.16724107178E+03  0.13820941009E+04  0.13922996640E+04  0.46999998093E+01 0.  1.
       -5    1    3    3    0  502 -0.17960642816E+02  0.16724107178E+03 -0.73177691446E+03  0.75087395967E+03  0.46999998093E+01 0. -1.
</event>
<event>
 5   0  0.4174030E-05  0.1581616E+04  0.7818609E-02  0.8831923E-01
       -1   -1    0    0    0  501  0.00000000000E+00  0.00000000000E+00  0.62302410168E+03  0.62302410170E+03  0.50400001928E-02 0. -1.
        1   -1    0    0  501    0  0.00000000000E+00  0.00000000000E+00 -0.10037765176E+04  0.10037765177E+04  0.50400001928E-02 0.  1.
    10030    2    1    2    0    0  0.00000000000E+00  0.00000000000E+00 -0.38075241595E+03  0.16268006194E+04  0.15816155832E+04 0.  0.
        2    1    3    3  502    0 -0.25056620888E+03  0.60314350060E+02  0.57861627613E+03  0.63341774593E+03  0.25500000920E-02 0. -1.
       -2    1    3    3    0  502  0.25056620888E+03 -0.60314350060E+02 -0.95936869208E+03  0.99338287342E+03  0.25500000920E-02 0.  1.
</event>
<event>
 5   0  0.4188865E-05  0.2177348E+04  0.7818609E-02  0.8527916E-01
        1   -1    0    0  501    0  0.00000000000E+00  0.00000000000E+00  0.10972364733E+04  0.10972364733E+04  0.50400001928E-02 0. -1.
       -1   -1    0    0    0  501  0.00000000000E+00  0.00000000000E+00 -0.10801782702E+04  0.10801782702E+04  0.50400001928E-02 0.  1.
    10030    2    1    2    0    0  0.00000000000E+00  0.00000000000E+00  0.17058203107E+02  0.21774147435E+04  0.21773479242E+04 0.  0.
        3    1    3    3  502    0  0.88804676015E+03  0.60966643079E+03  0.16630206581E+03  0.10899433895E+04  0.10100000352E+00 0. -1.
       -3    1    3    3    0  502 -0.88804676015E+03 -0.60966643079E+03 -0.14924386270E+03  0.10874713540E+04  0.10100000352E+00 0.  1.
</event>
<event>
 5   0  0.4174075E-05  0.2216751E+04  0.7818609E-02  0.8511488E-01
       -1   -1    0    0    0  501  0.00000000000E+00  0.00000000000E+00  0.98528113670E+03  0.98528113672E+03  0.50400001928E-02 0.  1.
        1   -1    0    0  501    0  0.00000000000E+00  0.00000000000E+00 -0.12468481067E+04  0.12468481067E+04  0.50400001928E-02 0. -1.
    10030    2    1    2    0    0  0.00000000000E+00  0.00000000000E+00 -0.26156696995E+03  0.22321292434E+04  0.22167507030E+04 0.  0.
        5    1    3    3  502    0  0.34874602022E+02 -0.54176765340E+03 -0.11037921782E+04  0.12300844242E+04  0.46999998093E+01 0. -1.
       -5    1    3    3    0  502 -0.34874602022E+02  0.54176765340E+03  0.84222520825E+03  0.10020448191E+04  0.46999998093E+01 0.  1.
</event>
<event>
 5   0  0.9254673E-05  0.2210189E+04  0.7818609E-02  0.8514199E-01
        2   -1    0    0  501    0  0.00000000000E+00  0.00000000000E+00  0.19441242635E+04  0.19441242635E+04  0.25500000920E-02 0.  1.
       -2   -1    0    0    0  501  0.00000000000E+00  0.00000000000E+00 -0.62816632833E+03  0.62816632833E+03  0.25500000920E-02 0. -1.
    10030    2    1    2    0    0  0.00000000000E+00  0.00000000000E+00  0.13159579352E+04  0.25722905918E+04  0.22101885896E+04 0.  0.
        2    1    3    3  502    0 -0.32185671761E+03  0.72597368558E+03  0.15523934813E+04  0.17437187444E+04  0.25500000920E-02 0.  1.
       -2    1    3    3    0  502  0.32185671761E+03 -0.72597368558E+03 -0.23643554614E+03  0.82857184741E+03  0.25500000920E-02 0. -1.
</event>
<event>
 5   0  0.9457742E-05  0.2208199E+04  0.7818609E-02  0.8515023E-01
       -2   -1    0    0    0  501  0.00000000000E+00  0.00000000000E+00  0.10018395365E+04  0.10018395365E+04  0.25500000920E-02 0. -1.
        2   -1    0    0  501    0  0.00000000000E+00  0.00000000000E+00 -0.12167970981E+04  0.12167970981E+04  0.25500000920E-02 0.  1.
    10030    2    1    2    0    0  0.00000000000E+00  0.00000000000E+00 -0.21495756152E+03  0.22186366346E+04  0.22081987599E+04 0.  0.
        1    1    3    3  502    0  0.32885603057E+03 -0.51525583222E+03  0.81632405016E+03  0.10198136184E+04  0.50400001928E-02 0. -1.
       -1    1    3    3    0  502 -0.32885603057E+03  0.51525583222E+03 -0.10312816117E+04  0.11988230162E+04  0.50400001928E-02 0.  1.
</event>
<event>
 5   0  0.4188865E-05  0.2072259E+04  0.7818609E-02  0.8573563E-01
       -1   -1    0    0    0  501  0.00000000000E+00  0.00000000000E+00  0.11160202516E+04  0.11160202517E+04  0.50400001928E-02 0.  1.
        1   -1    0    0  501    0  0.00000000000E+00  0.00000000000E+00 -0.96195746590E+03  0.96195746592E+03  0.50400001928E-02 0. -1.
    10030    2    1    2    0    0  0.00000000000E+00  0.00000000000E+00  0.15406278574E+03  0.20779777176E+04  0.20722586838E+04 0.  0.
        3    1    3    3  502    0 -0.23882206863E+03 -0.93322725994E+03 -0.30561694560E+03  0.10106190315E+04  0.10100000352E+00 0. -1.
       -3    1    3    3    0  502  0.23882206863E+03  0.93322725994E+03  0.45967973134E+03  0.10673586861E+04  0.10100000352E+00 0.  1.
</event>
<event>
 5   0  0.9457742E-05  0.2229402E+04  0.7818609E-02  0.8506289E-01
        2   -1    0    0  501    0  0.00000000000E+00  0.00000000000E+00  0.22760630140E+04  0.22760630140E+04  0.25500000920E-02 0.  1.
       -2   -1    0    0    0  501  0.00000000000E+00  0.00000000000E+00 -0.54592436337E+03  0.54592436337E+03  0.25500000920E-02 0. -1.
    10030    2    1    2    0    0  0.00000000000E+00  0.00000000000E+00  0.17301386506E+04  0.28219873773E+04  0.22294019394E+04 0.  0.
        1    1    3    3  502    0 -0.27557724155E+03  0.13761241848E+02  0.22321536386E+04  0.22491425153E+04  0.50400001928E-02 0.  1.
       -1    1    3    3    0  502  0.27557724155E+03 -0.13761241848E+02 -0.50201498796E+03  0.57284486207E+03  0.50400001928E-02 0. -1.
</event>
<event>
 5   0  0.9457742E-05  0.2203733E+04  0.7818609E-02  0.8516876E-01
       -2   -1    0    0    0  501  0.00000000000E+00  0.00000000000E+00  0.11907695589E+04  0.11907695589E+04  0.25500000920E-02 0. -1.
        2   -1    0    0  501    0  0.00000000000E+00  0.00000000000E+00 -0.10196006798E+04  0.10196006798E+04  0.25500000920E-02 0.  1.
    10030    2    1    2    0    0  0.00000000000E+00  0.00000000000E+00  0.17116887911E+03  0.22103702386E+04  0.22037326986E+04 0.  0.
        1    1    3    3  502    0 -0.24087900742E+03  0.89217220823E+03 -0.51631926988E+03  0.10585742930E+04  0.50400001928E-02 0.  1.
       -1    1    3    3    0  502  0.24087900742E+03 -0.89217220823E+03  0.68748814899E+03  0.11517959456E+04  0.50400001928E-02 0. -1.
</event>
<event>
 5   0  0.9938176E-05  0.2168132E+04  0.7818609E-02  0.8531811E-01
       -2   -1    0    0    0  501  0.00000000000E+00  0.00000000000E+00  0.11418951048E+04  0.11418951048E+04  0.25500000920E-02 0. -1.
        2   -1    0    0  501    0  0.00000000000E+00  0.00000000000E+00 -0.10291652696E+04  0.10291652696E+04  0.25500000920E-02 0.  1.
    10030    2    1    2    0    0  0.00000000000E+00  0.00000000000E+00  0.11272983520E+03  0.21710603743E+04  0.21681317149E+04 0.  0.
        5    1    3    3  502    0 -0.70019852559E+03 -0.17693146095E+03 -0.75317871082E+03  0.10434955570E+04  0.46999998093E+01 0.  1.
       -5    1    3    3    0  502  0.70019852559E+03  0.17693146095E+03  0.86590854602E+03  0.11275648173E+04  0.46999998093E+01 0. -1.
</event>
<event>
 5   0  0.9179618E-05  0.2174827E+04  0.7818609E-02  0.8528979E-01
       -2   -1    0    0    0  501  0.00000000000E+00  0.00000000000E+00  0.78148851369E+03  0.78148851370E+03  0.25500000920E-02 0.  1.
        2   -1    0    0  501    0  0.00000000000E+00  0.00000000000E+00 -0.15130968161E+04  0.15130968161E+04  0.25500000920E-02 0. -1.
    10030    2    1    2    0    0  0.00000000000E+00  0.00000000000E+00 -0.73160830236E+03  0.22945853298E+04  0.21748266891E+04 0.  0.
        3    1    3    3  502    0  0.24830965867E+03 -0.95631900646E+02 -0.14782181657E+04  0.15019760659E+04  0.10100000352E+00 0. -1.
       -3    1    3    3    0  502 -0.24830965867E+03  0.95631900646E+02  0.74660986329E+03  0.79260926387E+03  0.10100000352E+00 0.  1.
</event>
<event>
 5   0  0.4063293E-05  0.2208148E+04  0.7818609E-02  0.8515044E-01
        1   -1    0    0  501    0  0.00000000000E+00  0.00000000000E+00  0.17355191515E+04  0.17355191515E+04  0.50400001928E-02 0.  1.
       -1   -1    0    0    0  501  0.00000000000E+00  0.00000000000E+00 -0.70237179000E+03  0.70237179001E+03  0.50400001928E-02 0. -1.
    10030    2    1    2    0    0  0.00000000000E+00  0.00000000000E+00  0.10331473615E+04  0.24378909415E+04  0.22081482677E+04 0.  0.
        1    1    3    3  502    0  0.10727783593E+04  0.25262352804E+03  0.58903489947E+03  0.12496536192E+04  0.50400001928E-02 0. -1.
       -1    1    3    3    0  502 -0.10727783593E+04 -0.25262352804E+03  0.44411246203E+03  0.11882373223E+04  0.50400001928E-02 0.  1.
</event>
<event>
 5   0  0.4063293E-05  0.2156913E+04  0.7818609E-02  0.8536579E-01
        1   -1    0    0  501    0  0.00000000000E+00  0.00000000000E+00  0.10333647746E+04  0.10333647746E+04  0.50400001928E-02 0.  1.
       -1   -1    0    0    0  501  0.00000000000E+00  0.00000000000E+00 -0.11255157966E+04  0.11255157966E+04  0.50400001928E-02 0. -1.
    10030    2    1    2    0    0  0.00000000000E+00  0.00000000000E+00 -0.92151022039E+02  0.21588805712E+04  0.21569129583E+04 0.  0.
        1    1    3    3  502    0  0.10377391094E+04 -0.46431582019E+02 -0.33618474945E+03  0.10918234916E+04  0.50400001928E-02 0. -1.
       -1    1    3    3    0  502 -0.10377391094E+04  0.46431582019E+02  0.24403372741E+03  0.10670570796E+04  0.50400001928E-02 0.  1.
</event>
<event>
 5   0  0.4063293E-05  0.2193731E+04  0.7818609E-02  0.8521042E-01
       -1   -1    0    0    0  501  0.00000000000E+00  0.00000000000E+00  0.18035065371E+04  0.18035065372E+04  0.50400001928E-02 0. -1.
        1   -1    0    0  501    0  0.00000000000E+00  0.00000000000E+00 -0.66709737103E+03  0.66709737105E+03  0.50400001928E-02 0.  1.
    10030    2    1    2    0    0  0.00000000000E+00  0.00000000000E+00  0.11364091661E+04  0.24706039082E+04  0.21937314964E+04 0.  0.
        1    1    3    3  502    0  0.86283129395E+03  0.77108185043E+02  0.13259451914E+04  0.15838415844E+04  0.50400001928E-02 0. -1.
       -1    1    3    3    0  502 -0.86283129395E+03 -0.77108185043E+02 -0.18953602523E+03  0.88676232379E+03  0.50400001928E-02 0.  1.
</event>
<event>
 5   0  0.9938176E-05  0.2214974E+04  0.7818609E-02  0.8512221E-01
        2   -1    0    0  501    0  0.00000000000E+00  0.00000000000E+00  0.85230044433E+03  0.85230044433E+03  0.25500000920E-02 0. -1.
       -2   -1    0    0    0  501  0.00000000000E+00  0.00000000000E+00 -0.14390787687E+04  0.14390787687E+04  0.25500000920E-02 0.  1.
    10030    2    1    2    0    0  0.00000000000E+00  0.00000000000E+00 -0.58677832436E+03  0.22913792130E+04  0.22149740170E+04 0.  0.
        5    1    3    3  502    0  0.22182367846E+03 -0.58657087253E+03  0.65091496935E+03  0.90387140687E+03  0.46999998093E+01 0. -1.
       -5    1    3    3    0  502 -0.22182367846E+03  0.58657087253E+03 -0.12376932937E+04  0.13875078061E+04  0.46999998093E+01 0.  1.
</event>
<event>
 5   0  0.9457742E-05  0.1670868E+04  0.7818609E-02  0.8778156E-01
       -2   -1    0    0    0  501  0.00000000000E+00  0.00000000000E+00  0.41274980498E+03  0.41274980498E+03  0.25500000920E-02 0.  1.
        2   -1    0    0  501    0  0.00000000000E+00  0.00000000000E+00 -0.16909751131E+04  0.16909751131E+04  0.25500000920E-02 0. -1.
    10030    2    1    2    0    0  0.00000000000E+00  0.00000000000E+00 -0.12782253081E+04  0.21037249181E+04  0.16708676167E+04 0.  0.
        1    1    3    3  502    0  0.34132974847E+03 -0.60481645616E+03 -0.54440674307E+02  0.69661519498E+03  0.50400001928E-02 0.  1.
       -1    1    3    3    0  502 -0.34132974847E+03  0.60481645616E+03 -0.12237846338E+04  0.14071097231E+04  0.50400001928E-02 0. -1.
</event>
<event>
 5   0  0.4174075E-05  0.2183782E+04  0.7818609E-02  0.8525209E-01
        1   -1    0    0  501    0  0.00000000000E+00  0.00000000000E+00  0.84907629195E+03  0.84907629196E+03  0.50400001928E-02 0.  1.
       -1   -1    0    0    0  501  0.00000000000E+00  0.00000000000E+00 -0.14041448790E+04  0.14041448790E+04  0.50400001928E-02 0. -1.
    10030    2    1    2    0    0  0.00000000000E+00  0.00000000000E+00 -0.55506858700E+03  0.22532211709E+04  0.21837821569E+04 0.  0.
        5    1    3    3  502    0  0.59629017701E+03 -0.56547886978E+03 -0.10193355620E+04  0.13093492297E+04  0.46999998093E+01 0. -1.
       -5    1    3    3    0  502 -0.59629017701E+03  0.56547886978E+03  0.46426697499E+03  0.94387194123E+03  0.46999998093E+01 0.  1.
</event>
<event>
 5   0  0.4188865E-05  0.2201065E+04  0.7818609E-02  0.8517985E-01
       -1   -1    0    0    0  501  0.00000000000E+00  0.00000000000E+00  0.87194412029E+03  0.87194412031E+03  0.50400001928E-02 0. -1.
        1   -1    0    0  501    0  0.00000000000E+00  0.00000000000E+00 -0.13890471015E+04  0.13890471015E+04  0.50400001928E-02 0.  1.
    10030    2    1    2    0    0  0.00000000000E+00  0.00000000000E+00 -0.51710298119E+03  0.22609912218E+04  0.22010646996E+04 0.  0.
        3    1    3    3  502    0 -0.44255116237E+03  0.72870912076E+03  0.45631446548E+03  0.96700124901E+03  0.10100000352E+00 0.  1.
       -3    1    3    3    0  502  0.44255116237E+03 -0.72870912076E+03 -0.97341744667E+03  0.12939899728E+04  0.10100000352E+00 0. -1.
</event>
<event>
 5   0  0.9457742E-05  0.2195971E+04  0.7818609E-02  0.8520107E-01
       -2   -1    0    0    0  501  0.00000000000E+00  0.00000000000E+00  0.12284790059E+04  0.12284790059E+04  0.25500000920E-02 0.  1.
        2   -1    0    0  501    0  0.00000000000E+00  0.00000000000E+00 -0.98135376755E+03  0.98135376755E+03  0.25500000920E-02 0. -1.
    10030    2    1    2    0    0  0.00000000000E+00  0.00000000000E+00  0.24712523834E+03  0.22098327734E+04  0.21959713120E+04 0.  0.
        1    1    3    3  502    0 -0.64871133585E+03  0.63672006508E+03  0.74335101377E+03  0.11742272217E+04  0.50400001928E-02 0.  1.
       -1    1    3    3    0  502  0.64871133585E+03 -0.63672006508E+03 -0.49622577542E+03  0.10356055517E+04  0.50400001928E-02 0. -1.
</event>
<event>
 5   0  0.4063293E-05  0.2210509E+04  0.7818609E-02  0.8514067E-01
        1   -1    0    0  501    0  0.00000000000E+00  0.00000000000E+00  0.20567154163E+04  0.20567154163E+04  0.50400001928E-02 0.  1.
       -1   -1    0    0    0  501  0.00000000000E+00  0.00000000000E+00 -0.59395055094E+03  0.59395055096E+03  0.50400001928E-02 0. -1.
    10030    2    1    2    0    0  0.00000000000E+00  0.00000000000E+00  0.14627648654E+04  0.26506659673E+04  0.22105087692E+04 0.  0.
        1    1    3    3  502    0  0.11976596697E+03  0.10099235636E+04  0.21242820323E+03  0.10389491001E+04  0.50400001928E-02 0. -1.
       -1    1    3    3    0  502 -0.11976596697E+03 -0.10099235636E+04  0.12503366621E+04  0.16117168671E+04  0.50400001928E-02 0.  1.
</event>
<event>
 5   0  0.4174030E-05  0.2326752E+04  0.7818609E-02  0.8467447E-01
       -1   -1    0    0    0  501  0.00000000000E+00  0.00000000000E+00  0.85261821061E+03  0.85261821062E+03  0.50400001928E-02 0. -1.
        1   -1    0    0  501    0  0.00000000000E+00  0.00000000000E+00 -0.15873967670E+04  0.15873967670E+04  0.50400001928E-02 0.  1.
    10030    2    1    2    0    0  0.00000000000E+00  0.00000000000E+00 -0.73477855640E+03  0.24400149776E+04  0.23267517195E+04 0.  0.
        2    1    3    3  502    0  0.21738370108E+03 -0.10160126981E+04  0.18144743388E+03  0.10547325005E+04  0.25500000920E-02 0. -1.
       -2    1    3    3    0  502 -0.21738370108E+03  0.10160126981E+04 -0.91622599028E+03  0.13852824772E+04  0.25500000920E-02 0.  1.
</event>
<event>
 5   0  0.4133418E-05  0.2142034E+04  0.7818609E-02  0.8542950E-01
        1   -1    0    0  501    0  0.00000000000E+00  0.00000000000E+00  0.18522008568E+04  0.18522008568E+04  0.50400001928E-02 0.  1.
       -1   -1    0    0    0  501  0.00000000000E+00  0.00000000000E+00 -0.61930515355E+03  0.61930515357E+03  0.50400001928E-02 0. -1.
    10030    2    1    2    0    0  0.00000000000E+00  0.00000000000E+00  0.12328957033E+04  0.24715060104E+04  0.21420341137E+04 0.  0.
        4    1    3    3  502    0 -0.32155465120E+03 -0.46482806566E+03  0.16661088108E+04  0.17593699744E+04  0.12699999809E+01 0.  1.
       -4    1    3    3    0  502  0.32155465120E+03  0.46482806566E+03 -0.43321310756E+03  0.71213603602E+03  0.12699999809E+01 0. -1.
</event>
<event>
 5   0  0.4133418E-05  0.2202095E+04  0.7818609E-02  0.8517557E-01
       -1   -1    0    0    0  501  0.00000000000E+00  0.00000000000E+00  0.66158840073E+03  0.66158840075E+03  0.50400001928E-02 0.  1.
        1   -1    0    0  501    0  0.00000000000E+00  0.00000000000E+00 -0.18324168161E+04  0.18324168161E+04  0.50400001928E-02 0. -1.
    10030    2    1    2    0    0  0.00000000000E+00  0.00000000000E+00 -0.11708284154E+04  0.24940052169E+04  0.22020951032E+04 0.  0.
        4    1    3    3  502    0  0.45984798656E+03 -0.10004209232E+04 -0.58697682754E+03  0.12477361914E+04  0.12699999809E+01 0.  1.
       -4    1    3    3    0  502 -0.45984798656E+03  0.10004209232E+04 -0.58385158783E+03  0.12462690255E+04  0.12699999809E+01 0. -1.
</event>
<event>
 5   0  0.4063293E-05  0.2246608E+04  0.7818609E-02  0.8499276E-01
       -1   -1    0    0    0  501  0.00000000000E+00  0.00000000000E+00  0.90503522077E+03  0.90503522079E+03  0.50400001928E-02 0. -1.
        1   -1    0    0  501    0  0.00000000000E+00  0.00000000000E+00 -0.13942124380E+04  0.13942124380E+04  0.50400001928E-02 0.  1.
    10030    2    1    2    0    0  0.00000000000E+00  0.00000000000E+00 -0.48917721719E+03  0.22992476588E+04  0.22466075417E+04 0.  0.
        1    1    3    3  502    0  0.16332865800E+03 -0.21264431331E+03 -0.13609812562E+04  0.13871423266E+04  0.50400001928E-02 0.  1.
       -1    1    3    3    0  502 -0.16332865800E+03  0.21264431331E+03  0.87180403900E+03  0.91210533216E+03  0.50400001928E-02 0. -1.
</event>
<event>
 5   0  0.4188865E-05  0.2208173E+04  0.7818609E-02  0.8515034E-01
        1   -1    0    0  501    0  0.00000000000E+00  0.00000000000E+00  0.95544012895E+03  0.95544012896E+03  0.50400001928E-02 0. -1.
       -1   -1    0    0    0  501  0.00000000000E+00  0.00000000000E+00 -0.12758595878E+04  0.12758595878E+04  0.50400001928E-02 0.  1.
    10030    2    1    2    0    0  0.00000000000E+00  0.00000000000E+00 -0.32041945885E+03  0.22312997168E+04  0.22081734072E+04 0.  0.
        3    1    3    3  502    0  0.92815771997E+03 -0.59513326903E+03 -0.21866957210E+03  0.11240448181E+04  0.10100000352E+00 0.  1.
       -3    1    3    3    0  502 -0.92815771997E+03  0.59513326903E+03 -0.10174988675E+03  0.11072548987E+04  0.10100000352E+00 0. -1.
</event>
<event>
 5   0  0.4133418E-05  0.2189664E+04  0.7818609E-02  0.8522742E-01
       -1   -1    0    0    0  501  0.00000000000E+00  0.00000000000E+00  0.20558581304E+04  0.20558581305E+04  0.50400001928E-02 0. -1.
        1   -1    0    0  501    0  0.00000000000E+00  0.00000000000E+00 -0.58304473948E+03  0.58304473950E+03  0.50400001928E-02 0.  1.
    10030    2    1    2    0    0  0.00000000000E+00  0.00000000000E+00  0.14728133910E+04  0.26389028700E+04  0.21896641460E+04 0.  0.
        4    1    3    3  502    0 -0.42143933511E+03 -0.91722012549E+03  0.22545187328E+03  0.10342794747E+04  0.12699999809E+01 0.  1.
       -4    1    3    3    0  502  0.42143933511E+03  0.91722012549E+03  0.12473615177E+04  0.16046233952E+04  0.12699999809E+01 0. -1.
</event>
<event>
 5   0  0.9179618E-05  0.2163077E+04  0.7818609E-02  0.8533956E-01
       -2   -1    0    0    0  501  0.00000000000E+00  0.00000000000E+00  0.14133450228E+04  0.14133450228E+04  0.25500000920E-02 0. -1.
        2   -1    0    0  501    0  0.00000000000E+00  0.00000000000E+00 -0.82762883785E+03  0.82762883786E+03  0.25500000920E-02 0.  1.
    10030    2    1    2    0    0  0.00000000000E+00  0.00000000000E+00  0.58571618498E+03  0.22409738607E+04  0.21630766040E+04 0.  0.
        3    1    3    3  502    0 -0.65219336339E+03 -0.63772899132E+03  0.89487895364E+03  0.12778352012E+04  0.10100000352E+00 0. -1.
       -3    1    3    3    0  502  0.65219336339E+03  0.63772899132E+03 -0.30916276867E+03  0.96313865946E+03  0.10100000352E+00 0.  1.
</event>
<event>
 5   0  0.4174030E-05  0.1724829E+04  0.7818609E-02  0.8747329E-01
       -1   -1    0    0    0  501  0.00000000000E+00  0.00000000000E+00  0.47822267402E+03  0.47822267405E+03  0.50400001928E-02 0.  1.
        1   -1    0    0  501    0  0.00000000000E+00  0.00000000000E+00 -0.15552561972E+04  0.15552561972E+04  0.50400001928E-02 0. -1.
    10030    2    1    2    0    0  0.00000000000E+00  0.00000000000E+00 -0.10770335232E+04  0.20334788712E+04  0.17248290088E+04 0.  0.
        2    1    3    3  502    0  0.28848259519E+02 -0.82916007987E+03 -0.26097564134E+03  0.86973958488E+03  0.25500000920E-02 0.  1.
       -2    1    3    3    0  502 -0.28848259519E+02  0.82916007987E+03 -0.81605788183E+03  0.11637392864E+04  0.25500000920E-02 0. -1.
</event>
<event>
 5   0  0.4188865E-05  0.2214235E+04  0.7818609E-02  0.8512526E-01
       -1   -1    0    0    0  501  0.00000000000E+00  0.00000000000E+00  0.59702077116E+03  0.59702077118E+03  0.50400001928E-02 0. -1.
        1   -1    0    0  501    0  0.00000000000E+00  0.00000000000E+00 -0.20530433361E+04  0.20530433361E+04  0.50400001928E-02 0.  1.
    10030    2    1    2    0    0  0.00000000000E+00  0.00000000000E+00 -0.14560225649E+04  0.26500641073E+04  0.22142353224E+04 0.  0.
        3    1    3    3  502    0 -0.88637656417E+03 -0.29695684523E+03 -0.14379473422E+04  0.17150916449E+04  0.10100000352E+00 0.  1.
       -3    1    3    3    0  502  0.88637656417E+03  0.29695684523E+03 -0.18075222731E+02  0.93497246233E+03  0.10100000352E+00 0. -1.
</event>
<event>
 5   0  0.4174030E-05  0.2082063E+04  0.7818609E-02  0.8569186E-01
        1   -1    0    0  501    0  0.00000000000E+00  0.00000000000E+00  0.63728048507E+03  0.63728048509E+03  0.50400001928E-02 0. -1.
       -1   -1    0    0    0  501  0.00000000000E+00  0.00000000000E+00 -0.17005808372E+04  0.17005808372E+04  0.50400001928E-02 0.  1.
    10030    2    1    2    0    0  0.00000000000E+00  0.00000000000E+00 -0.10633003521E+04  0.23378613223E+04  0.20820633812E+04 0.  0.
        2    1    3    3  502    0 -0.53814015252E+02  0.65498216473E+03  0.37491375063E+03  0.75660947970E+03  0.25500000920E-02 0. -1.
       -2    1    3    3    0  502  0.53814015252E+02 -0.65498216473E+03 -0.14382141028E+04  0.15812518426E+04  0.25500000920E-02 0.  1.
</event>
<event>
 5   0  0.9457742E-05  0.1960620E+04  0.7818609E-02  0.8625257E-01
        2   -1    0    0  501    0  0.00000000000E+00  0.00000000000E+00  0.13837488851E+04  0.13837488851E+04  0.25500000920E-02 0. -1.
       -2   -1    0    0    0  501  0.00000000000E+00  0.00000000000E+00 -0.69449540143E+03  0.69449540143E+03  0.25500000920E-02 0.  1.
    10030    2    1    2    0    0  0.00000000000E+00  0.00000000000E+00  0.68925348369E+03  0.20782442865E+04  0.19606195321E+04 0.  0.
        1    1    3    3  502    0  0.13316198339E+03  0.18387313003E+03  0.13554994127E+04  0.13743798964E+04  0.50400001928E-02 0. -1.
       -1    1    3    3    0  502 -0.13316198339E+03 -0.18387313003E+03 -0.66624592901E+03  0.70386439015E+03  0.50400001928E-02 0.  1.
</event>
<event>
 5   0  0.4063293E-05  0.2201805E+04  0.7818609E-02  0.8517677E-01
        1   -1    0    0  501    0  0.00000000000E+00  0.00000000000E+00  0.17434673558E+04  0.17434673559E+04  0.50400001928E-02 0.  1.
       -1   -1    0    0    0  501  0.00000000000E+00  0.00000000000E+00 -0.69515831926E+03  0.69515831928E+03  0.50400001928E-02 0. -1.
    10030    2    1    2    0    0  0.00000000000E+00  0.00000000000E+00  0.10483090366E+04  0.24386256751E+04  0.22018045661E+04 0.  0.
        1    1    3    3  502    0  0.13536524946E+03 -0.54169446560E+03 -0.52670078390E+03  0.76757433556E+03  0.50400001928E-02 0. -1.
       -1    1    3    3    0  502 -0.13536524946E+03  0.54169446560E+03  0.15750098205E+04  0.16710513396E+04  0.50400001928E-02 0.  1.
</event>
<event>
 5   0  0.9254673E-05  0.2188895E+04  0.7818609E-02  0.8523065E-01
        2   -1    0    0  501    0  0.00000000000E+00  0.00000000000E+00  0.13416807223E+04  0.13416807223E+04  0.25500000920E-02 0.  1.
       -2   -1    0    0    0  501  0.00000000000E+00  0.00000000000E+00 -0.89277193281E+03  0.89277193282E+03  0.25500000920E-02 0. -1.
    10030    2    1    2    0    0  0.00000000000E+00  0.00000000000E+00  0.44890878950E+03  0.22344526551E+04  0.21888945993E+04 0.  0.
        2    1    3    3  502    0 -0.63429407231E+03  0.89147879252E+03  0.19647062751E+03  0.11116042979E+04  0.25500000920E-02 0. -1.
       -2    1    3    3    0  502  0.63429407231E+03 -0.89147879252E+03  0.25243816199E+03  0.11228483572E+04  0.25500000920E-02 0.  1.
</event>
<event>
 5   0  0.4174075E-05  0.2204296E+04  0.7818609E-02  0.8516642E-01
       -1   -1    0    0    0  501  0.00000000000E+00  0.00000000000E+00  0.54015204138E+03  0.54015204140E+03  0.50400001928E-02 0.  1.
        1   -1    0    0  501    0  0.00000000000E+00  0.00000000000E+00 -0.22488662296E+04  0.22488662296E+04  0.50400001928E-02 0. -1.
    10030    2    1    2    0    0  0.00000000000E+00  0.00000000000E+00 -0.17087141883E+04  0.27890182711E+04  0.22042955199E+04 0.  0.
        5    1    3    3  502    0 -0.33796749385E+03 -0.88081528455E+03 -0.13343348773E+03  0.95282956401E+03  0.46999998093E+01 0.  1.
       -5    1    3    3    0  502  0.33796749385E+03  0.88081528455E+03 -0.15752807005E+04  0.18361887070E+04  0.46999998093E+01 0. -1.
</event>
<event>
 5   0  0.4063293E-05  0.2041037E+04  0.7818609E-02  0.8587671E-01
        1   -1    0    0  501    0  0.00000000000E+00  0.00000000000E+00  0.91301299907E+03  0.91301299909E+03  0.50400001928E-02 0.  1.
       -1   -1    0    0    0  501  0.00000000000E+00  0.00000000000E+00 -0.11406824416E+04  0.11406824416E+04  0.50400001928E-02 0. -1.
    10030    2    1    2    0    0  0.00000000000E+00  0.00000000000E+00 -0.22766944252E+03  0.20536954407E+04  0.20410368904E+04 0.  0.
        1    1    3    3  502    0  0.68045951661E+03 -0.14276222806E+03  0.63782693781E+03  0.94351969249E+03  0.50400001928E-02 0.  1.
       -1    1    3    3    0  502 -0.68045951661E+03  0.14276222806E+03 -0.86549638032E+03  0.11101757482E+04  0.50400001928E-02 0. -1.
</event>
<event>
 5   0  0.4188865E-05  0.2188078E+04  0.7818609E-02  0.8523407E-01
        1   -1    0    0  501    0  0.00000000000E+00  0.00000000000E+00  0.78025480618E+03  0.78025480620E+03  0.50400001928E-02 0.  1.
       -1   -1    0    0    0  501  0.00000000000E+00  0.00000000000E+00 -0.15340134660E+04  0.15340134660E+04  0.50400001928E-02 0. -1.
    10030    2    1    2    0    0  0.00000000000E+00  0.00000000000E+00 -0.75375865979E+03  0.23142682722E+04  0.21880780421E+04 0.  0.
        3    1    3    3  502    0  0.47410107490E+03  0.43266778097E+03 -0.13139479040E+04  0.14623379714E+04  0.10100000352E+00 0. -1.
       -3    1    3    3    0  502 -0.47410107490E+03 -0.43266778097E+03  0.56018924420E+03  0.85193030080E+03  0.10100000352E+00 0.  1.
</event>
<event>
 5   0  0.9179618E-05  0.2195495E+04  0.7818609E-02  0.8520306E-01
        2   -1    0    0  501    0  0.00000000000E+00  0.00000000000E+00  0.81772252746E+03  0.81772252747E+03  0.25500000920E-02 0. -1.
       -2   -1    0    0    0  501  0.00000000000E+00  0.00000000000E+00 -0.14736655925E+04  0.14736655925E+04  0.25500000920E-02 0.  1.
    10030    2    1    2    0    0  0.00000000000E+00  0.00000000000E+00 -0.65594306506E+03  0.22913881200E+04  0.21954949811E+04 0.  0.
        3    1    3    3  502    0  0.32342224521E+03  0.49347438540E+03  0.63816619247E+03  0.86912313119E+03  0.10100000352E+00 0. -1.
       -3    1    3    3    0  502 -0.32342224521E+03 -0.49347438540E+03 -0.12941092575E+04  0.14222649888E+04  0.10100000352E+00 0.  1.
</event>
<event>
 5   0  0.9442578E-05  0.2165956E+04  0.7818609E-02  0.8532733E-01
       -2   -1    0    0    0  501  0.00000000000E+00  0.00000000000E+00  0.12264688258E+04  0.12264688258E+04  0.25500000920E-02 0. -1.
        2   -1    0    0  501    0  0.00000000000E+00  0.00000000000E+00 -0.95627532612E+03  0.95627532612E+03  0.25500000920E-02 0.  1.
    10030    2    1    2    0    0  0.00000000000E+00  0.00000000000E+00  0.27019349971E+03  0.21827441520E+04  0.21659564875E+04 0.  0.
        4    1    3    3  502    0 -0.89359054138E+02 -0.15552207417E+03  0.12113952997E+04  0.12246029320E+04  0.12699999809E+01 0. -1.
       -4    1    3    3    0  502  0.89359054138E+02  0.15552207417E+03 -0.94120179999E+03  0.95814121992E+03  0.12699999809E+01 0.  1.
</event>
<event>
 5   0  0.4063293E-05  0.2204449E+04  0.7818609E-02  0.8516579E-01
        1   -1    0    0  501    0  0.00000000000E+00  0.00000000000E+00  0.12860573684E+04  0.12860573684E+04  0.50400001928E-02 0.  1.
       -1   -1    0    0    0  501  0.00000000000E+00  0.00000000000E+00 -0.94466923323E+03  0.94466923324E+03  0.50400001928E-02 0. -1.
    10030    2    1    2    0    0  0.00000000000E+00  0.00000000000E+00  0.34138813514E+03  0.22307266016E+04  0.22044489816E+04 0.  0.
        1    1    3    3  502    0  0.10416441430E+04  0.31065615807E+03 -0.14155429540E+02  0.10870741214E+04  0.50400001928E-02 0.  1.
       -1    1    3    3    0  502 -0.10416441430E+04 -0.31065615807E+03  0.35554356468E+03  0.11436524802E+04  0.50400001928E-02 0. -1.
</event>
<event>
 5   0  0.4174075E-05  0.2157963E+04  0.7818609E-02  0.8536131E-01
       -1   -1    0    0    0  501  0.00000000000E+00  0.00000000000E+00  0.10357441631E+04  0.10357441632E+04  0.50400001928E-02 0.  1.
        1   -1    0    0  501    0  0.00000000000E+00  0.00000000000E+00 -0.11240239891E+04  0.11240239891E+04  0.50400001928E-02 0. -1.
    10030    2    1    2    0    0  0.00000000000E+00  0.00000000000E+00 -0.88279825992E+02  0.21597681523E+04  0.21579631934E+04 0.  0.
        5    1    3    3  502    0 -0.11626029679E+03  0.85631657729E+02 -0.11143003503E+04  0.11236265386E+04  0.46999998093E+01 0. -1.
       -5    1    3    3    0  502  0.11626029679E+03 -0.85631657729E+02  0.10260205243E+04  0.10361416138E+04  0.46999998093E+01 0.  1.
</event>
<event>
 5   0  0.9179618E-05  0.2190042E+04  0.7818609E-02  0.8522584E-01
       -2   -1    0    0    0  501  0.00000000000E+00  0.00000000000E+00  0.14553220530E+04  0.14553220530E+04  0.25500000920E-02 0.  1.
        2   -1    0    0  501    0  0.00000000000E+00  0.00000000000E+00 -0.82392147425E+03  0.82392147426E+03  0.25500000920E-02 0. -1.
    10030    2    1    2    0    0  0.00000000000E+00  0.00000000000E+00  0.63140057871E+03  0.22792435272E+04  0.21900420922E+04 0.  0.
        3    1    3    3  502    0  0.16400978784E+03 -0.22466101479E+03  0.14179411142E+04  0.14449667109E+04  0.10100000352E+00 0.  1.
       -3    1    3    3    0  502 -0.16400978784E+03  0.22466101479E+03 -0.78654053549E+03  0.83427681632E+03  0.10100000352E+00 0. -1.
</event>
<event>
 5   0  0.4133418E-05  0.2188738E+04  0.7818609E-02  0.8523130E-01
        1   -1    0    0  501    0  0.00000000000E+00  0.00000000000E+00  0.10255478324E+04  0.10255478324E+04  0.50400001928E-02 0. -1.
       -1   -1    0    0    0  501  0.00000000000E+00  0.00000000000E+00 -0.11678087694E+04  0.11678087694E+04  0.50400001928E-02 0.  1.
    10030    2    1    2    0    0  0.00000000000E+00  0.00000000000E+00 -0.14226093698E+03  0.21933566018E+04  0.21887382229E+04 0.  0.
        4    1    3    3  502    0  0.14363509248E+03  0.93997106102E+03  0.47173716985E+03  0.10614679485E+04  0.12699999809E+01 0. -1.
       -4    1    3    3    0  502 -0.14363509248E+03 -0.93997106102E+03 -0.61399810683E+03  0.11318886533E+04  0.12699999809E+01 0.  1.
</event>
<event>
 5   0  0.9179618E-05  0.2234514E+04  0.7818609E-02  0.8504198E-01
        2   -1    0    0  501    0  0.00000000000E+00  0.00000000000E+00  0.23389571252E+04  0.23389571252E+04  0.25500000920E-02 0.  1.
       -2   -1    0    0    0  501  0.00000000000E+00  0.00000000000E+00 -0.53368389515E+03  0.53368389516E+03  0.25500000920E-02 0. -1.
    10030    2    1    2    0    0  0.00000000000E+00  0.00000000000E+00  0.18052732301E+04  0.28726410204E+04  0.22345144879E+04 0.  0.
        3    1    3    3  502    0  0.54629410403E+03  0.32479947987E+03 -0.27864855882E+03  0.69395747691E+03  0.10100000352E+00 0. -1.
       -3    1    3    3    0  502 -0.54629410403E+03 -0.32479947987E+03  0.20839217889E+04  0.21786835435E+04  0.10100000352E+00 0.  1.
</event>
<event>
 5   0  0.4174075E-05  0.2222986E+04  0.7818609E-02  0.8508921E-01
        1   -1    0    0  501    0  0.00000000000E+00  0.00000000000E+00  0.20457647111E+04  0.20457647111E+04  0.50400001928E-02 0.  1.
       -1   -1    0    0    0  501  0.00000000000E+00  0.00000000000E+00 -0.60388991159E+03  0.60388991161E+03  0.50400001928E-02 0. -1.
    10030    2    1    2    0    0  0.00000000000E+00  0.00000000000E+00  0.14418747995E+04  0.26496546227E+04  0.22229859834E+04 0.  0.
        5    1    3    3  502    0  0.97602430881E+03 -0.45212110694E+03  0.38728580850E+03  0.11432625832E+04  0.46999998093E+01 0. -1.
       -5    1    3    3    0  502 -0.97602430881E+03  0.45212110694E+03  0.10545889910E+04  0.15063920395E+04  0.46999998093E+01 0.  1.
</event>
<event>
 5   0  0.4174030E-05  0.2258871E+04  0.7818609E-02  0.8494317E-01
        1   -1    0    0  501    0  0.00000000000E+00  0.00000000000E+00  0.14759919114E+04  0.14759919114E+04  0.50400001928E-02 0.  1.
       -1   -1    0    0    0  501  0.00000000000E+00  0.00000000000E+00 -0.86424901290E+03  0.86424901292E+03  0.50400001928E-02 0. -1.
    10030    2    1    2    0    0  0.00000000000E+00  0.00000000000E+00  0.61174289846E+03  0.23402409243E+04  0.22588710034E+04 0.  0.
        2    1    3    3  502    0  0.33604714728E+03 -0.90755222193E+03  0.90912285678E+03  0.13278113908E+04  0.25500000920E-02 0.  1.
       -2    1    3    3    0  502 -0.33604714728E+03  0.90755222193E+03 -0.29737995832E+03  0.10124295335E+04  0.25500000920E-02 0. -1.
</event>
<event>
 5   0  0.9938176E-05  0.2207756E+04  0.7818609E-02  0.8515207E-01
        2   -1    0    0  501    0  0.00000000000E+00  0.00000000000E+00  0.18041718185E+04  0.18041718185E+04  0.25500000920E-02 0.  1.
       -2   -1    0    0    0  501  0.00000000000E+00  0.00000000000E+00 -0.67540479363E+03  0.67540479363E+03  0.25500000920E-02 0. -1.
    10030    2    1    2    0    0  0.00000000000E+00  0.00000000000E+00  0.11287670248E+04  0.24795766121E+04  0.22077556882E+04 0.  0.
        5    1    3    3  502    0 -0.55316944934E+03 -0.75267489264E+03 -0.96263931666E+02  0.93904460396E+03  0.46999998093E+01 0. -1.
       -5    1    3    3    0  502  0.55316944934E+03  0.75267489264E+03  0.12250309565E+04  0.15405320081E+04  0.46999998093E+01 0.  1.
</event>
<event>
 5   0  0.4063293E-05  0.2120757E+04  0.7818609E-02  0.8552155E-01
        1   -1    0    0  501    0  0.00000000000E+00  0.00000000000E+00  0.10310088012E+04  0.10310088012E+04  0.50400001928E-02 0. -1.
       -1   -1    0    0    0  501  0.00000000000E+00  0.00000000000E+00 -0.10905844554E+04  0.10905844554E+04  0.50400001928E-02 0.  1.
    10030    2    1    2    0    0  0.00000000000E+00  0.00000000000E+00 -0.59575654215E+02  0.21215932567E+04  0.21207566311E+04 0.  0.
        1    1    3    3  502    0 -0.77671528652E+03 -0.41556200053E+03  0.56071934116E+03  0.10442148209E+04  0.50400001928E-02 0. -1.
       -1    1    3    3    0  502  0.77671528652E+03  0.41556200053E+03 -0.62029499537E+03  0.10773784358E+04  0.50400001928E-02 0.  1.
</event>
<event>
 5   0  0.4063293E-05  0.1735095E+04  0.7818609E-02  0.8741598E-01
       -1   -1    0    0    0  501  0.00000000000E+00  0.00000000000E+00  0.80287402529E+03  0.80287402531E+03  0.50400001928E-02 0.  1.
        1   -1    0    0  501    0  0.00000000000E+00  0.00000000000E+00 -0.93743064784E+03  0.93743064786E+03  0.50400001928E-02 0. -1.
    10030    2    1    2    0    0  0.00000000000E+00  0.00000000000E+00 -0.13455662255E+03  0.17403046732E+04  0.17350950610E+04 0.  0.
        1    1    3    3  502    0 -0.31684723721E+03 -0.55218124639E+03  0.52384886223E+03  0.82444765212E+03  0.50400001928E-02 0.  1.
       -1    1    3    3    0  502  0.31684723721E+03  0.55218124639E+03 -0.65840548478E+03  0.91585702105E+03  0.50400001928E-02 0. -1.
</event>
<event>
 5   0  0.9179618E-05  0.2088247E+04  0.7818609E-02  0.8566439E-01
       -2   -1    0    0    0  501  0.00000000000E+00  0.00000000000E+00  0.43843363721E+03  0.43843363721E+03  0.25500000920E-02 0. -1.
        2   -1    0    0  501    0  0.00000000000E+00  0.00000000000E+00 -0.24865646681E+04  0.24865646681E+04  0.25500000920E-02 0.  1.
    10030    2    1    2    0    0  0.00000000000E+00  0.00000000000E+00 -0.20481310309E+04  0.29249983053E+04  0.20882467207E+04 0.  0.
        3    1    3    3  502    0  0.16602473359E+03  0.88212071169E+03 -0.17711662440E+04  0.19856311431E+04  0.10100000352E+00 0.  1.
       -3    1    3    3    0  502 -0.16602473359E+03 -0.88212071169E+03 -0.27696478687E+03  0.93936716225E+03  0.10100000352E+00 0. -1.
</event>
<event>
 5   0  0.4133418E-05  0.2217915E+04  0.7818609E-02  0.8511008E-01
       -1   -1    0    0    0  501  0.00000000000E+00  0.00000000000E+00  0.55225942061E+03  0.55225942063E+03  0.50400001928E-02 0.  1.
        1   -1    0    0  501    0  0.00000000000E+00  0.00000000000E+00 -0.22268280726E+04  0.22268280726E+04  0.50400001928E-02 0. -1.
    10030    2    1    2    0    0  0.00000000000E+00  0.00000000000E+00 -0.16745686520E+04  0.27790874932E+04  0.22179150400E+04 0.  0.
        4    1    3    3  502    0 -0.78718440125E+01  0.53370785054E+03 -0.20552791500E+04  0.21234594494E+04  0.12699999809E+01 0. -1.
       -4    1    3    3    0  502  0.78718440125E+01 -0.53370785054E+03  0.38071049806E+03  0.65562804385E+03  0.12699999809E+01 0.  1.
</event>
<event>
 5   0  0.4063293E-05  0.2214195E+04  0.7818609E-02  0.8512543E-01
       -1   -1    0    0    0  501  0.00000000000E+00  0.00000000000E+00  0.12452252868E+04  0.12452252868E+04  0.50400001928E-02 0.  1.
        1   -1    0    0  501    0  0.00000000000E+00  0.00000000000E+00 -0.98429188297E+03  0.98429188298E+03  0.50400001928E-02 0. -1.
    10030    2    1    2    0    0  0.00000000000E+00  0.00000000000E+00  0.26093340385E+03  0.22295171698E+04  0.22141952419E+04 0.  0.
        1    1    3    3  502    0 -0.54338151567E+03  0.90635302081E+03 -0.20185632238E+03  0.10758648822E+04  0.50400001928E-02 0. -1.
       -1    1    3    3    0  502  0.54338151567E+03 -0.90635302081E+03  0.46278972622E+03  0.11536522876E+04  0.50400001928E-02 0.  1.
</event>
<event>
 5   0  0.9938176E-05  0.2163778E+04  0.7818609E-02  0.8533658E-01
       -2   -1    0    0    0  501  0.00000000000E+00  0.00000000000E+00  0.47610977309E+03  0.47610977310E+03  0.25500000920E-02 0. -1.
        2   -1    0    0  501    0  0.00000000000E+00  0.00000000000E+00 -0.24584323445E+04  0.24584323445E+04  0.25500000920E-02 0.  1.
    10030    2    1    2    0    0  0.00000000000E+00  0.00000000000E+00 -0.19823225714E+04  0.29345421176E+04  0.21637778682E+04 0.  0.
        5    1    3    3  502    0 -0.84747240026E+03 -0.54259350113E+03 -0.45234308082E+03  0.11032921324E+04  0.46999998093E+01 0. -1.
       -5    1    3    3    0  502  0.84747240026E+03  0.54259350113E+03 -0.15299794906E+04  0.18312499852E+04  0.46999998093E+01 0.  1.
</event>
<event>
 5   0  0.4174075E-05  0.2245875E+04  0.7818609E-02  0.8499573E-01
        1   -1    0    0  501    0  0.00000000000E+00  0.00000000000E+00  0.14127201142E+04  0.14127201142E+04  0.50400001928E-02 0. -1.
       -1   -1    0    0    0  501  0.00000000000E+00  0.00000000000E+00 -0.89259588708E+03  0.89259588709E+03  0.50400001928E-02 0.  1.
    10030    2    1    2    0    0  0.00000000000E+00  0.00000000000E+00  0.52012422710E+03  0.23053160013E+04  0.22458745856E+04 0.  0.
        5    1    3    3  502    0  0.17865584806E+03  0.71104483727E+03 -0.61301629243E+03  0.95567449345E+03  0.46999998093E+01 0.  1.
       -5    1    3    3    0  502 -0.17865584806E+03 -0.71104483727E+03  0.11331405195E+04  0.13496415078E+04  0.46999998093E+01 0. -1.
</event>
<event>
 5   0  0.9179618E-05  0.2094784E+04  0.7818609E-02  0.8563545E-01
       -2   -1    0    0    0  501  0.00000000000E+00  0.00000000000E+00  0.82542160942E+03  0.82542160942E+03  0.25500000920E-02 0.  1.
        2   -1    0    0  501    0  0.00000000000E+00  0.00000000000E+00 -0.13290539966E+04  0.13290539966E+04  0.25500000920E-02 0. -1.
    10030    2    1    2    0    0  0.00000000000E+00  0.00000000000E+00 -0.50363238717E+03  0.21544756060E+04  0.20947838923E+04 0.  0.
        3    1    3    3  502    0 -0.10817786853E+01 -0.37684792210E+03 -0.12569116379E+04  0.13121899262E+04  0.10100000352E+00 0. -1.
       -3    1    3    3    0  502  0.10817786853E+01  0.37684792210E+03  0.75327925075E+03  0.84228567983E+03  0.10100000352E+00 0.  1.
</event>
<event>
 5   0  0.4174030E-05  0.2099032E+04  0.7818609E-02  0.8561670E-01
       -1   -1    0    0    0  501  0.00000000000E+00  0.00000000000E+00  0.59429670313E+03  0.59429670315E+03  0.50400001928E-02 0.  1.
        1   -1    0    0  501    0  0.00000000000E+00  0.00000000000E+00 -0.18534249854E+04  0.18534249854E+04  0.50400001928E-02 0. -1.
    10030    2    1    2    0    0  0.00000000000E+00  0.00000000000E+00 -0.12591282822E+04  0.24477216885E+04  0.20990324993E+04 0.  0.
        2    1    3    3  502    0 -0.10475681073E+04 -0.19124955806E+02 -0.55844374009E+03  0.11872759217E+04  0.25500000920E-02 0. -1.
       -2    1    3    3    0  502  0.10475681073E+04  0.19124955806E+02 -0.70068454213E+03  0.12604457668E+04  0.25500000920E-02 0.  1.
</event>
<event>
 5   0  0.4133418E-05  0.2208445E+04  0.7818609E-02  0.8514921E-01
        1   -1    0    0  501    0  0.00000000000E+00  0.00000000000E+00  0.15254047490E+04  0.15254047490E+04  0.50400001928E-02 0. -1.
       -1   -1    0    0    0  501  0.00000000000E+00  0.00000000000E+00 -0.79933338071E+03  0.79933338073E+03  0.50400001928E-02 0.  1.
    10030    2    1    2    0    0  0.00000000000E+00  0.00000000000E+00  0.72607136829E+03  0.23247381297E+04  0.22084446427E+04 0.  0.
        4    1    3    3  502    0  0.10057229596E+04  0.41360137130E+03  0.56486235624E+03  0.12254043660E+04  0.12699999809E+01 0.  1.
       -4    1    3    3    0  502 -0.10057229596E+04 -0.41360137130E+03  0.16120901205E+03  0.10993337638E+04  0.12699999809E+01 0. -1.
</event>
<event>
 5   0  0.4063293E-05  0.2197751E+04  0.7818609E-02  0.8519365E-01
       -1   -1    0    0    0  501  0.00000000000E+00  0.00000000000E+00  0.53536515664E+03  0.53536515666E+03  0.50400001928E-02 0. -1.
        1   -1    0    0  501    0  0.00000000000E+00  0.00000000000E+00 -0.22555203647E+04  0.22555203647E+04  0.50400001928E-02 0.  1.
    10030    2    1    2    0    0  0.00000000000E+00  0.00000000000E+00 -0.17201552080E+04  0.27908855213E+04  0.21977506805E+04 0.  0.
        1    1    3    3  502    0 -0.78966660243E+03 -0.51024702999E+03 -0.15824629967E+04  0.18406831641E+04  0.50400001928E-02 0.  1.
       -1    1    3    3    0  502  0.78966660243E+03  0.51024702999E+03 -0.13769221132E+03  0.95020235723E+03  0.50400001928E-02 0. -1.
</event>
<event>
 5   0  0.4133418E-05  0.2075146E+04  0.7818609E-02  0.8572271E-01
        1   -1    0    0  501    0  0.00000000000E+00  0.00000000000E+00  0.22023992028E+04  0.22023992028E+04  0.50400001928E-02 0. -1.
       -1   -1    0    0    0  501  0.00000000000E+00  0.00000000000E+00 -0.48881150713E+03  0.48881150716E+03  0.50400001928E-02 0.  1.
    10030    2    1    2    0    0  0.00000000000E+00  0.00000000000E+00  0.17135876957E+04  0.26912107100E+04  0.20751463309E+04 0.  0.
        4    1    3    3  502    0  0.94273775738E+03  0.38166792445E+03  0.59059704607E+03  0.11761085696E+04  0.12699999809E+01 0.  1.
       -4    1    3    3    0  502 -0.94273775738E+03 -0.38166792445E+03  0.11229906496E+04  0.15151021404E+04  0.12699999809E+01 0. -1.
</event>
<event>
 5   0  0.9254673E-05  0.2222070E+04  0.7818609E-02  0.8509298E-01
       -2   -1    0    0    0  501  0.00000000000E+00  0.00000000000E+00  0.11869032013E+04  0.11869032013E+04  0.25500000920E-02 0.  1.
        2   -1    0    0  501    0  0.00000000000E+00  0.00000000000E+00 -0.10400160530E+04  0.10400160530E+04  0.25500000920E-02 0. -1.
    10030    2    1    2    0    0  0.00000000000E+00  0.00000000000E+00  0.14688714829E+03  0.22269192543E+04  0.22220696503E+04 0.  0.
        2    1    3    3  502    0 -0.25249369174E+03 -0.29400496402E+03 -0.97008125218E+03  0.10446289385E+04  0.25500000920E-02 0. -1.
       -2    1    3    3    0  502  0.25249369174E+03  0.29400496402E+03  0.11169684005E+04  0.11822903158E+04  0.25500000920E-02 0.  1.
</event>
<event>
 5   0  0.9457742E-05  0.2192725E+04  0.7818609E-02  0.8521462E-01
       -2   -1    0    0    0  501  0.00000000000E+00  0.00000000000E+00  0.94920796733E+03  0.94920796734E+03  0.25500000920E-02 0.  1.
        2   -1    0    0  501    0  0.00000000000E+00  0.00000000000E+00 -0.12663305749E+04  0.12663305749E+04  0.25500000920E-02 0. -1.
    10030    2    1    2    0    0  0.00000000000E+00  0.00000000000E+00 -0.31712260760E+03  0.22155385423E+04  0.21927253098E+04 0.  0.
        1    1    3    3  502    0  0.43278284834E+03  0.32241619284E+03  0.80570401673E+03  0.96974850236E+03  0.50400001928E-02 0.  1.
       -1    1    3    3    0  502 -0.43278284834E+03 -0.32241619284E+03 -0.11228266243E+04  0.12457900399E+04  0.50400001928E-02 0. -1.
</event>
<event>
 5   0  0.9179618E-05  0.2184203E+04  0.7818609E-02  0.8525032E-01
       -2   -1    0    0    0  501  0.00000000000E+00  0.00000000000E+00  0.66990985904E+03  0.66990985904E+03  0.25500000920E-02 0.  1.
        2   -1    0    0  501    0  0.00000000000E+00  0.00000000000E+00 -0.17803668804E+04  0.17803668804E+04  0.25500000920E-02 0. -1.
    10030    2    1    2    0    0  0.00000000000E+00  0.00000000000E+00 -0.11104570214E+04  0.24502767395E+04  0.21842026700E+04 0.  0.
        3    1    3    3  502    0 -0.30815964243E+02  0.93172076348E+03 -0.11934155891E+04  0.15143625666E+04  0.10100000352E+00 0. -1.
       -3    1    3    3    0  502  0.30815964243E+02 -0.93172076348E+03  0.82958567703E+02  0.93591417283E+03  0.10100000352E+00 0.  1.
</event>
<event>
 5   0  0.9457742E-05  0.2207084E+04  0.7818609E-02  0.8515486E-01
        2   -1    0    0  501    0  0.00000000000E+00  0.00000000000E+00  0.15703622702E+04  0.15703622702E+04  0.25500000920E-02 0.  1.
       -2   -1    0    0    0  501  0.00000000000E+00  0.00000000000E+00 -0.77549271597E+03  0.77549271597E+03  0.25500000920E-02 0. -1.
    10030    2    1    2    0    0  0.00000000000E+00  0.00000000000E+00  0.79486955423E+03  0.23458549862E+04  0.22070835979E+04 0.  0.
        1    1    3    3  502    0 -0.23844833845E+03 -0.52861335276E+02  0.15412747419E+04  0.15605062515E+04  0.50400001928E-02 0.  1.
       -1    1    3    3    0  502  0.23844833845E+03  0.52861335276E+02 -0.74640518767E+03  0.78534873469E+03  0.50400001928E-02 0. -1.
</event>
<event>
 5   0  0.9442578E-05  0.2325430E+04  0.7818609E-02  0.8467962E-01
        2   -1    0    0  501    0  0.00000000000E+00  0.00000000000E+00  0.26027988542E+04  0.26027988542E+04  0.25500000920E-02 0. -1.
       -2   -1    0    0    0  501  0.00000000000E+00  0.00000000000E+00 -0.51940463893E+03  0.51940463894E+03  0.25500000920E-02 0.  1.
    10030    2    1    2    0    0  0.00000000000E+00  0.00000000000E+00  0.20833942153E+04  0.31222034931E+04  0.23254296799E+04 0.  0.
        4    1    3    3  502    0  0.65280654734E+03  0.14074451807E+03  0.23196281481E+04  0.24138437741E+04  0.12699999809E+01 0. -1.
       -4    1    3    3    0  502 -0.65280654734E+03 -0.14074451807E+03 -0.23623393281E+03  0.70835971902E+03  0.12699999809E+01 0.  1.
</event>
<event>
 5   0  0.4188865E-05  0.2120458E+04  0.7818609E-02  0.8552285E-01
        1   -1    0    0  501    0  0.00000000000E+00  0.00000000000E+00  0.11223656617E+04  0.11223656617E+04  0.50400001928E-02 0. -1.
       -1   -1    0    0    0  501  0.00000000000E+00  0.00000000000E+00 -0.10015324546E+04  0.10015324546E+04  0.50400001928E-02 0.  1.
    10030    2    1    2    0    0  0.00000000000E+00  0.00000000000E+00  0.12083320708E+03  0.21238981163E+04  0.21204580978E+04 0.  0.
        3    1    3    3  502    0  0.99202368885E+03  0.23119781652E+03 -0.23420714626E+03  0.10451872689E+04  0.10100000352E+00 0.  1.
       -3    1    3    3    0  502 -0.99202368885E+03 -0.23119781652E+03  0.35504035335E+03  0.10787108474E+04  0.10100000352E+00 0. -1.
</event>
<event>
 5   0  0.4063293E-05  0.2216418E+04  0.7818609E-02  0.8511626E-01
       -1   -1    0    0    0  501  0.00000000000E+00  0.00000000000E+00  0.10331781212E+04  0.10331781212E+04  0.50400001928E-02 0. -1.
        1   -1    0    0  501    0  0.00000000000E+00  0.00000000000E+00 -0.11886887134E+04  0.11886887134E+04  0.50400001928E-02 0.  1.
    10030    2    1    2    0    0  0.00000000000E+00  0.00000000000E+00 -0.15551059218E+03  0.22218668347E+04  0.22164179856E+04 0.  0.
        1    1    3    3  502    0  0.37460494242E+03  0.91079953083E+03  0.43166968629E+03  0.10752782739E+04  0.50400001928E-02 0. -1.
       -1    1    3    3    0  502 -0.37460494242E+03 -0.91079953083E+03 -0.58718027847E+03  0.11465885608E+04  0.50400001928E-02 0.  1.
</event>
<event>
 5   0  0.4174075E-05  0.2188826E+04  0.7818609E-02  0.8523093E-01
        1   -1    0    0  501    0  0.00000000000E+00  0.00000000000E+00  0.99757905943E+03  0.99757905944E+03  0.50400001928E-02 0. -1.
       -1   -1    0    0    0  501  0.00000000000E+00  0.00000000000E+00 -0.12006466710E+04  0.12006466710E+04  0.50400001928E-02 0.  1.
    10030    2    1    2    0    0  0.00000000000E+00  0.00000000000E+00 -0.20306761155E+03  0.21982257304E+04  0.21888261482E+04 0.  0.
        5    1    3    3  502    0  0.27557969036E+02  0.86469306571E+03  0.57161642086E+03  0.10369286196E+04  0.46999998093E+01 0. -1.
       -5    1    3    3    0  502 -0.27557969036E+02 -0.86469306571E+03 -0.77468403242E+03  0.11612971108E+04  0.46999998093E+01 0.  1.
</event>
<event>
 5   0  0.4063293E-05  0.2130668E+04  0.7818609E-02  0.8547853E-01
        1   -1    0    0  501    0  0.00000000000E+00  0.00000000000E+00  0.19564621165E+04  0.19564621165E+04  0.50400001928E-02 0. -1.
       -1   -1    0    0    0  501  0.00000000000E+00  0.00000000000E+00 -0.58009614450E+03  0.58009614452E+03  0.50400001928E-02 0.  1.
    10030    2    1    2    0    0  0.00000000000E+00  0.00000000000E+00  0.13763659720E+04  0.25365582610E+04  0.21306676237E+04 0.  0.
        1    1    3    3  502    0 -0.79616715167E+03 -0.67084883258E+03  0.95707732591E+03  0.14141843223E+04  0.50400001928E-02 0. -1.
       -1    1    3    3    0  502  0.79616715167E+03  0.67084883258E+03  0.41928864606E+03  0.11223739387E+04  0.50400001928E-02 0.  1.
</event>
<event>
 5   0  0.4133418E-05  0.2182887E+04  0.7818609E-02  0.8525585E-01
       -1   -1    0    0    0  501  0.00000000000E+00  0.00000000000E+00  0.73204469177E+03  0.73204469178E+03  0.50400001928E-02 0. -1.
        1   -1    0    0  501    0  0.00000000000E+00  0.00000000000E+00 -0.16272904049E+04  0.16272904049E+04  0.50400001928E-02 0.  1.
    10030    2    1    2    0    0  0.00000000000E+00  0.00000000000E+00 -0.89524571309E+03  0.23593350966E+04  0.21828873566E+04 0.  0.
        4    1    3    3  502    0 -0.10401889563E+04  0.30054969660E+03 -0.29893668934E+03  0.11232488336E+04  0.12699999809E+01 0. -1.
       -4    1    3    3    0  502  0.10401889563E+04 -0.30054969660E+03 -0.59630902375E+03  0.12360862631E+04  0.12699999809E+01 0.  1.
</event>
<event>
 5   0  0.4188865E-05  0.2175925E+04  0.7818609E-02  0.8528516E-01
        1   -1    0    0  501    0  0.00000000000E+00  0.00000000000E+00  0.21891579235E+04  0.21891579235E+04  0.50400001928E-02 0.  1.
       -1   -1    0    0    0  501  0.00000000000E+00  0.00000000000E+00 -0.54069279358E+03  0.54069279360E+03  0.50400001928E-02 0. -1.
    10030    2    1    2    0    0  0.00000000000E+00  0.00000000000E+00  0.16484651300E+04  0.27298507171E+04  0.21759245514E+04 0.  0.
        3    1    3    3  502    0  0.51114474018E+03  0.81226695231E+03  0.18131524721E+03  0.97668919125E+03  0.10100000352E+00 0.  1.
       -3    1    3    3    0  502 -0.51114474018E+03 -0.81226695231E+03  0.14671498827E+04  0.17531615259E+04  0.10100000352E+00 0. -1.
</event>
<event>
 5   0  0.9442578E-05  0.2226584E+04  0.7818609E-02  0.8507444E-01
        2   -1    0    0  501    0  0.00000000000E+00  0.00000000000E+00  0.27622029365E+04  0.27622029365E+04  0.25500000920E-02 0.  1.
       -2   -1    0    0    0  501  0.00000000000E+00  0.00000000000E+00 -0.44870663799E+03  0.44870663800E+03  0.25500000920E-02 0. -1.
    10030    2    1    2    0    0  0.00000000000E+00  0.00000000000E+00  0.23134962986E+04  0.32109095745E+04  0.22265837448E+04 0.  0.
        4    1    3    3  502    0  0.23593492540E+03 -0.93488416663E+03  0.35416482480E+03  0.10271845161E+04  0.12699999809E+01 0. -1.
       -4    1    3    3    0  502 -0.23593492540E+03  0.93488416663E+03  0.19593314737E+04  0.21837250585E+04  0.12699999809E+01 0.  1.
</event>
<event>
 5   0  0.4174030E-05  0.2238719E+04  0.7818609E-02  0.8502483E-01
        1   -1    0    0  501    0  0.00000000000E+00  0.00000000000E+00  0.99317841203E+03  0.99317841204E+03  0.50400001928E-02 0. -1.
       -1   -1    0    0    0  501  0.00000000000E+00  0.00000000000E+00 -0.12615715562E+04  0.12615715562E+04  0.50400001928E-02 0.  1.
    10030    2    1    2    0    0  0.00000000000E+00  0.00000000000E+00 -0.26839314413E+03  0.22547499682E+04  0.22387189505E+04 0.  0.
        2    1    3    3  502    0 -0.38147405371E+03 -0.78707143782E+03  0.56934812909E+03  0.10436288584E+04  0.25500000920E-02 0. -1.
       -2    1    3    3    0  502  0.38147405371E+03  0.78707143782E+03 -0.83774127323E+03  0.12111211099E+04  0.25500000920E-02 0.  1.
</event>
<event>
 5   0  0.4188865E-05  0.2204834E+04  0.7818609E-02  0.8516419E-01
       -1   -1    0    0    0  501  0.00000000000E+00  0.00000000000E+00  0.87337072825E+03  0.87337072827E+03  0.50400001928E-02 0.  1.
        1   -1    0    0  501    0  0.00000000000E+00  0.00000000000E+00 -0.13915321349E+04  0.13915321349E+04  0.50400001928E-02 0. -1.
    10030    2    1    2    0    0  0.00000000000E+00  0.00000000000E+00 -0.51816140663E+03  0.22649028632E+04  0.22048341743E+04 0.  0.
        3    1    3    3  502    0  0.53056365498E+03  0.72623464919E+03 -0.91395091507E+03  0.12822717509E+04  0.10100000352E+00 0. -1.
       -3    1    3    3    0  502 -0.53056365498E+03 -0.72623464919E+03  0.39578950845E+03  0.98263111231E+03  0.10100000352E+00 0.  1.
</event>
<event>
 5   0  0.9938176E-05  0.2172376E+04  0.7818609E-02  0.8530014E-01
        2   -1    0    0  501    0  0.00000000000E+00  0.00000000000E+00  0.20617917508E+04  0.20617917508E+04  0.25500000920E-02 0. -1.
       -2   -1    0    0    0  501  0.00000000000E+00  0.00000000000E+00 -0.57222310110E+03  0.57222310110E+03  0.25500000920E-02 0.  1.
    10030    2    1    2    0    0  0.00000000000E+00  0.00000000000E+00  0.14895686497E+04  0.26340148519E+04  0.21723764586E+04 0.  0.
        5    1    3    3  502    0 -0.47622148055E+03  0.54323348599E+03 -0.23868507216E+03  0.76084306694E+03  0.46999998093E+01 0.  1.
       -5    1    3    3    0  502  0.47622148055E+03 -0.54323348599E+03  0.17282537218E+04  0.18731717849E+04  0.46999998093E+01 0. -1.
</event>
<event>
 5   0  0.4174030E-05  0.2325943E+04  0.7818609E-02  0.8467762E-01
        1   -1    0    0  501    0  0.00000000000E+00  0.00000000000E+00  0.20102567205E+04  0.20102567205E+04  0.50400001928E-02 0.  1.
       -1   -1    0    0    0  501  0.00000000000E+00  0.00000000000E+00 -0.67280084555E+03  0.67280084557E+03  0.50400001928E-02 0. -1.
    10030    2    1    2    0    0  0.00000000000E+00  0.00000000000E+00  0.13374558750E+04  0.26830575661E+04  0.23259427520E+04 0.  0.
        2    1    3    3  502    0 -0.57430953152E+03 -0.53828467879E+03  0.16562787032E+04  0.18338050540E+04  0.25500000920E-02 0.  1.
       -2    1    3    3    0  502  0.57430953152E+03  0.53828467879E+03 -0.31882282825E+03  0.84925251206E+03  0.25500000920E-02 0. -1.
</event>
<event>
 5   0  0.4174075E-05  0.2189393E+04  0.7818609E-02  0.8522856E-01
        1   -1    0    0  501    0  0.00000000000E+00  0.00000000000E+00  0.24570351567E+04  0.24570351567E+04  0.50400001928E-02 0.  1.
       -1   -1    0    0    0  501  0.00000000000E+00  0.00000000000E+00 -0.48772598410E+03  0.48772598413E+03  0.50400001928E-02 0. -1.
    10030    2    1    2    0    0  0.00000000000E+00  0.00000000000E+00  0.19693091726E+04  0.29447611408E+04  0.21893925092E+04 0.  0.
        5    1    3    3  502    0  0.10051853141E+04  0.42480160541E+03  0.86829829770E+03  0.13945672961E+04  0.46999998093E+01 0. -1.
       -5    1    3    3    0  502 -0.10051853141E+04 -0.42480160541E+03  0.11010108749E+04  0.15501938447E+04  0.46999998093E+01 0.  1.
</event>
<event>
 5   0  0.4174075E-05  0.2138618E+04  0.7818609E-02  0.8544420E-01
        1   -1    0    0  501    0  0.00000000000E+00  0.00000000000E+00  0.12763853293E+04  0.12763853294E+04  0.50400001928E-02 0. -1.
       -1   -1    0    0    0  501  0.00000000000E+00  0.00000000000E+00 -0.89582818131E+03  0.89582818133E+03  0.50400001928E-02 0.  1.
    10030    2    1    2    0    0  0.00000000000E+00  0.00000000000E+00  0.38055714803E+03  0.21722135107E+04  0.21386181971E+04 0.  0.
        5    1    3    3  502    0  0.47613385874E+03  0.92828824707E+03  0.42843434141E+03  0.11278300386E+04  0.46999998093E+01 0.  1.
       -5    1    3    3    0  502 -0.47613385874E+03 -0.92828824707E+03 -0.47877193384E+02  0.10443834721E+04  0.46999998093E+01 0. -1.
</event>
<event>
 5   0  0.9254673E-05  0.2205053E+04  0.7818609E-02  0.8516328E-01
        2   -1    0    0  501    0  0.00000000000E+00  0.00000000000E+00  0.12018390022E+04  0.12018390022E+04  0.25500000920E-02 0. -1.
       -2   -1    0    0    0  501  0.00000000000E+00  0.00000000000E+00 -0.10114208401E+04  0.10114208401E+04  0.25500000920E-02 0.  1.
    10030    2    1    2    0    0  0.00000000000E+00  0.00000000000E+00  0.19041816208E+03  0.22132598423E+04  0.22050532993E+04 0.  0.
        2    1    3    3  502    0  0.10834856972E+04 -0.11070333450E+02  0.29968570506E+03  0.11242221000E+04  0.25500000920E-02 0. -1.
       -2    1    3    3    0  502 -0.10834856972E+04  0.11070333450E+02 -0.10926754298E+03  0.10890377423E+04  0.25500000920E-02 0.  1.
</event>
<event>
 5   0  0.9254673E-05  0.2142582E+04  0.7818609E-02  0.8542714E-01
       -2   -1    0    0    0  501  0.00000000000E+00  0.00000000000E+00  0.72044567621E+03  0.72044567622E+03  0.25500000920E-02 0.  1.
        2   -1    0    0  501    0  0.00000000000E+00  0.00000000000E+00 -0.15929928418E+04  0.15929928418E+04  0.25500000920E-02 0. -1.
    10030    2    1    2    0    0  0.00000000000E+00  0.00000000000E+00 -0.87254716557E+03  0.23134385180E+04  0.21425823719E+04 0.  0.
        2    1    3    3  502    0 -0.35651979819E+03 -0.34723951064E+02 -0.15264145748E+04  0.15678818748E+04  0.25500000920E-02 0. -1.
       -2    1    3    3    0  502  0.35651979819E+03  0.34723951064E+02  0.65386740924E+03  0.74555664315E+03  0.25500000920E-02 0.  1.
</event>
<event>
 5   0  0.9938176E-05  0.2178964E+04  0.7818609E-02  0.8527235E-01
       -2   -1    0    0    0  501  0.00000000000E+00  0.00000000000E+00  0.25290701416E+04  0.25290701416E+04  0.25500000920E-02 0.  1.
        2   -1    0    0  501    0  0.00000000000E+00  0.00000000000E+00 -0.46933120665E+03  0.46933120665E+03  0.25500000920E-02 0. -1.
    10030    2    1    2    0    0  0.00000000000E+00  0.00000000000E+00  0.20597389350E+04  0.29984013483E+04  0.21789644708E+04 0.  0.
        5    1    3    3  502    0 -0.92748228667E+03 -0.24787502485E+03  0.17386228912E+04  0.19860757961E+04  0.46999998093E+01 0.  1.
       -5    1    3    3    0  502  0.92748228667E+03  0.24787502485E+03  0.32111604378E+03  0.10123255522E+04  0.46999998093E+01 0. -1.
</event>
<event>
 5   0  0.9442578E-05  0.2161113E+04  0.7818609E-02  0.8534790E-01
       -2   -1    0    0    0  501  0.00000000000E+00  0.00000000000E+00  0.77332840588E+03  0.77332840589E+03  0.25500000920E-02 0. -1.
        2   -1    0    0  501    0  0.00000000000E+00  0.00000000000E+00 -0.15098396692E+04  0.15098396692E+04  0.25500000920E-02 0.  1.
    10030    2    1    2    0    0  0.00000000000E+00  0.00000000000E+00 -0.73651126328E+03  0.22831680751E+04  0.21611125880E+04 0.  0.
        4    1    3    3  502    0  0.10564756238E+04 -0.18708967925E+03 -0.50378575148E+03  0.11853037535E+04  0.12699999809E+01 0.  1.
       -4    1    3    3    0  502 -0.10564756238E+04  0.18708967925E+03 -0.23272551180E+03  0.10978643215E+04  0.12699999809E+01 0. -1.
</event>
<event>
 5   0  0.4063293E-05  0.2177099E+04  0.7818609E-02  0.8528021E-01
        1   -1    0    0  501    0  0.00000000000E+00  0.00000000000E+00  0.75030455044E+03  0.75030455046E+03  0.50400001928E-02 0. -1.
       -1   -1    0    0    0  501  0.00000000000E+00  0.00000000000E+00 -0.15792792979E+04  0.15792792979E+04  0.50400001928E-02 0.  1.
    10030    2    1    2    0    0  0.00000000000E+00  0.00000000000E+00 -0.82897474748E+03  0.23295838484E+04  0.21770993948E+04 0.  0.
        1    1    3    3  502    0  0.49142027965E+03 -0.17034980918E+01  0.62485365684E+03  0.79494583818E+03  0.50400001928E-02 0. -1.
       -1    1    3    3    0  502 -0.49142027965E+03  0.17034980918E+01 -0.14538284043E+04  0.15346380102E+04  0.50400001928E-02 0.  1.
</event>
<event>
 5   0  0.9442578E-05  0.2086790E+04  0.7818609E-02  0.8567085E-01
        2   -1    0    0  501    0  0.00000000000E+00  0.00000000000E+00  0.14483869285E+04  0.14483869285E+04  0.25500000920E-02 0.  1.
       -2   -1    0    0    0  501  0.00000000000E+00  0.00000000000E+00 -0.75164519741E+03  0.75164519742E+03  0.25500000920E-02 0. -1.
    10030    2    1    2    0    0  0.00000000000E+00  0.00000000000E+00  0.69674173112E+03  0.22000321260E+04  0.20867899548E+04 0.  0.
        4    1    3    3  502    0  0.71246400895E+03 -0.71207756382E+02 -0.45175811875E+03  0.84661828434E+03  0.12699999809E+01 0. -1.
       -4    1    3    3    0  502 -0.71246400895E+03  0.71207756382E+02  0.11484998499E+04  0.13534138416E+04  0.12699999809E+01 0.  1.
</event>
<event>
 5   0  0.4133418E-05  0.2181814E+04  0.7818609E-02  0.8526036E-01
        1   -1    0    0  501    0  0.00000000000E+00  0.00000000000E+00  0.89122529763E+03  0.89122529764E+03  0.50400001928E-02 0. -1.
       -1   -1    0    0    0  501  0.00000000000E+00  0.00000000000E+00 -0.13353285759E+04  0.13353285759E+04  0.50400001928E-02 0.  1.
    10030    2    1    2    0    0  0.00000000000E+00  0.00000000000E+00 -0.44410327830E+03  0.22265538736E+04  0.21818144811E+04 0.  0.
        4    1    3    3  502    0  0.80101244042E+03  0.72555701425E+02  0.53007672063E+03  0.96325915629E+03  0.12699999809E+01 0. -1.
       -4    1    3    3    0  502 -0.80101244042E+03 -0.72555701425E+02 -0.97417999893E+03  0.12632947173E+04  0.12699999809E+01 0.  1.
</event>
<event>
 5   0  0.9457742E-05  0.2204437E+04  0.7818609E-02  0.8516583E-01
       -2   -1    0    0    0  501  0.00000000000E+00  0.00000000000E+00  0.62916887676E+03  0.62916887676E+03  0.25500000920E-02 0. -1.
        2   -1    0    0  501    0  0.00000000000E+00  0.00000000000E+00 -0.19309379923E+04  0.19309379923E+04  0.25500000920E-02 0.  1.
    10030    2    1    2    0    0  0.00000000000E+00  0.00000000000E+00 -0.13017691156E+04  0.25601068691E+04  0.22044374228E+04 0.  0.
        1    1    3    3  502    0  0.51608236610E+03 -0.34984193209E+03  0.40469573141E+03  0.74330950559E+03  0.50400001928E-02 0. -1.
       -1    1    3    3    0  502 -0.51608236610E+03  0.34984193209E+03 -0.17064648470E+04  0.18167973635E+04  0.50400001928E-02 0.  1.
</event>
<event>
 5   0  0.4188865E-05  0.2207113E+04  0.7818609E-02  0.8515473E-01
        1   -1    0    0  501    0  0.00000000000E+00  0.00000000000E+00  0.21953530963E+04  0.21953530963E+04  0.50400001928E-02 0.  1.
       -1   -1    0    0    0  501  0.00000000000E+00  0.00000000000E+00 -0.55473397963E+03  0.55473397965E+03  0.50400001928E-02 0. -1.
    10030    2    1    2    0    0  0.00000000000E+00  0.00000000000E+00  0.16406191167E+04  0.27500870760E+04  0.22071130101E+04 0.  0.
        3    1    3    3  502    0  0.10945151735E+04 -0.28058702771E+02  0.64816966135E+03  0.12723500603E+04  0.10100000352E+00 0. -1.
       -3    1    3    3    0  502 -0.10945151735E+04  0.28058702771E+02  0.99244945532E+03  0.14777370157E+04  0.10100000352E+00 0.  1.
</event>
<event>
 5   0  0.9179618E-05  0.2106731E+04  0.7818609E-02  0.8558284E-01
       -2   -1    0    0    0  501  0.00000000000E+00  0.00000000000E+00  0.45706249165E+03  0.45706249165E+03  0.25500000920E-02 0.  1.
        2   -1    0    0  501    0  0.00000000000E+00  0.00000000000E+00 -0.24276302185E+04  0.24276302185E+04  0.25500000920E-02 0. -1.
    10030    2    1    2    0    0  0.00000000000E+00  0.00000000000E+00 -0.19705677269E+04  0.28846927102E+04  0.21067308480E+04 0.  0.
        3    1    3    3  502    0  0.77730808944E+03  0.70274270905E+03 -0.83829542327E+03  0.13419368122E+04  0.10100000352E+00 0.  1.
       -3    1    3    3    0  502 -0.77730808944E+03 -0.70274270905E+03 -0.11322723036E+04  0.15427558980E+04  0.10100000352E+00 0. -1.
</event>
<event>
 5   0  0.4174075E-05  0.2199706E+04  0.7818609E-02  0.8518550E-01
        1   -1    0    0  501    0  0.00000000000E+00  0.00000000000E+00  0.11209244744E+04  0.11209244745E+04  0.50400001928E-02 0. -1.
       -1   -1    0    0    0  501  0.00000000000E+00  0.00000000000E+00 -0.10791778136E+04  0.10791778136E+04  0.50400001928E-02 0.  1.
    10030    2    1    2    0    0  0.00000000000E+00  0.00000000000E+00  0.41746660873E+02  0.22001022880E+04  0.21997061836E+04 0.  0.
        5    1    3    3  502    0  0.17872612539E+03 -0.51965929368E+03 -0.93201325418E+03  0.10819702424E+04  0.46999998093E+01 0.  1.
       -5    1    3    3    0  502 -0.17872612539E+03  0.51965929368E+03  0.97375991505E+03  0.11181320457E+04  0.46999998093E+01 0. -1.
</event>
<event>
 5   0  0.9457742E-05  0.2200637E+04  0.7818609E-02  0.8518163E-01
        2   -1    0    0  501    0  0.00000000000E+00  0.00000000000E+00  0.18861137672E+04  0.18861137672E+04  0.25500000920E-02 0.  1.
       -2   -1    0    0    0  501  0.00000000000E+00  0.00000000000E+00 -0.64190211108E+03  0.64190211109E+03  0.25500000920E-02 0. -1.
    10030    2    1    2    0    0  0.00000000000E+00  0.00000000000E+00  0.12442116561E+04  0.25280158783E+04  0.22006366432E+04 0.  0.
        1    1    3    3  502    0  0.38859450171E+03  0.22018615465E+03  0.17772939958E+04  0.18325560229E+04  0.50400001928E-02 0.  1.
       -1    1    3    3    0  502 -0.38859450171E+03 -0.22018615465E+03 -0.53308233973E+03  0.69545985536E+03  0.50400001928E-02 0. -1.
</event>
<event>
 5   0  0.9179618E-05  0.2237055E+04  0.7818609E-02  0.8503161E-01
       -2   -1    0    0    0  501  0.00000000000E+00  0.00000000000E+00  0.74776609016E+03  0.74776609016E+03  0.25500000920E-02 0.  1.
        2   -1    0    0  501    0  0.00000000000E+00  0.00000000000E+00 -0.16731224282E+04  0.16731224282E+04  0.25500000920E-02 0. -1.
    10030    2    1    2    0    0  0.00000000000E+00  0.00000000000E+00 -0.92535633805E+03  0.24208885184E+04  0.22370554007E+04 0.  0.
        3    1    3    3  502    0 -0.41445267037E+03  0.10050319702E+04 -0.74744467259E+03  0.13192929265E+04  0.10100000352E+00 0. -1.
       -3    1    3    3    0  502  0.41445267037E+03 -0.10050319702E+04 -0.17791166546E+03  0.11015955919E+04  0.10100000352E+00 0.  1.
</event>
<event>
 5   0  0.4174075E-05  0.2221885E+04  0.7818609E-02  0.8509374E-01
        1   -1    0    0  501    0  0.00000000000E+00  0.00000000000E+00  0.10419884090E+04  0.10419884091E+04  0.50400001928E-02 0. -1.
       -1   -1    0    0    0  501  0.00000000000E+00  0.00000000000E+00 -0.11844592589E+04  0.11844592589E+04  0.50400001928E-02 0.  1.
    10030    2    1    2    0    0  0.00000000000E+00  0.00000000000E+00 -0.14247084985E+03  0.22264476679E+04  0.22218846224E+04 0.  0.
        5    1    3    3  502    0  0.43874579415E+03 -0.26648388516E+03 -0.10584791341E+04  0.11763977645E+04  0.46999998093E+01 0.  1.
       -5    1    3    3    0  502 -0.43874579415E+03  0.26648388516E+03  0.91600828426E+03  0.10500499035E+04  0.46999998093E+01 0. -1.
</event>
<event>
 5   0  0.4133418E-05  0.1932074E+04  0.7818609E-02  0.8639054E-01
       -1   -1    0    0    0  501  0.00000000000E+00  0.00000000000E+00  0.13019143303E+04  0.13019143303E+04  0.50400001928E-02 0. -1.
        1   -1    0    0  501    0  0.00000000000E+00  0.00000000000E+00 -0.71681202675E+03  0.71681202677E+03  0.50400001928E-02 0.  1.
    10030    2    1    2    0    0  0.00000000000E+00  0.00000000000E+00  0.58510230359E+03  0.20187263571E+04  0.19320743773E+04 0.  0.
        4    1    3    3  502    0 -0.25903841730E+03 -0.61512931272E+03  0.10222578990E+04  0.12208594506E+04  0.12699999809E+01 0. -1.
       -4    1    3    3    0  502  0.25903841730E+03  0.61512931272E+03 -0.43715559546E+03  0.79786690654E+03  0.12699999809E+01 0.  1.
</event>
<event>
 5   0  0.4174030E-05  0.2196132E+04  0.7818609E-02  0.8520040E-01
        1   -1    0    0  501    0  0.00000000000E+00  0.00000000000E+00  0.11287982680E+04  0.11287982680E+04  0.50400001928E-02 0.  1.
       -1   -1    0    0    0  501  0.00000000000E+00  0.00000000000E+00 -0.10681706563E+04  0.10681706563E+04  0.50400001928E-02 0. -1.
    10030    2    1    2    0    0  0.00000000000E+00  0.00000000000E+00  0.60627611639E+02  0.21969689243E+04  0.21961322244E+04 0.  0.
        2    1    3    3  502    0 -0.30187653907E+02  0.78076346140E+03 -0.74150220814E+03  0.10771854073E+04  0.25500000920E-02 0. -1.
       -2    1    3    3    0  502  0.30187653907E+02 -0.78076346140E+03  0.80212981977E+03  0.11197835170E+04  0.25500000920E-02 0.  1.
</event>
<event>
 5   0  0.9442578E-05  0.2198942E+04  0.7818609E-02  0.8518868E-01
        2   -1    0    0  501    0  0.00000000000E+00  0.00000000000E+00  0.86093046589E+03  0.86093046590E+03  0.25500000920E-02 0. -1.
       -2   -1    0    0    0  501  0.00000000000E+00  0.00000000000E+00 -0.14041049997E+04  0.14041049997E+04  0.25500000920E-02 0.  1.
    10030    2    1    2    0    0  0.00000000000E+00  0.00000000000E+00 -0.54317453381E+03  0.22650354656E+04  0.21989422653E+04 0.  0.
        4    1    3    3  502    0 -0.89015359648E+03  0.18298544730E+03 -0.90904020445E+03  0.12853843026E+04  0.12699999809E+01 0.  1.
       -4    1    3    3    0  502  0.89015359648E+03 -0.18298544730E+03  0.36586567064E+03  0.97965116297E+03  0.12699999809E+01 0. -1.
</event>
<event>
 5   0  0.9457742E-05  0.2197908E+04  0.7818609E-02  0.8519299E-01
        2   -1    0    0  501    0  0.00000000000E+00  0.00000000000E+00  0.22495519737E+04  0.22495519737E+04  0.25500000920E-02 0. -1.
       -2   -1    0    0    0  501  0.00000000000E+00  0.00000000000E+00 -0.53686227647E+03  0.53686227648E+03  0.25500000920E-02 0.  1.
    10030    2    1    2    0    0  0.00000000000E+00  0.00000000000E+00  0.17126896972E+04  0.27864142502E+04  0.21979077266E+04 0.  0.
        1    1    3    3  502    0 -0.63565689095E+02 -0.24721575501E+03 -0.49875898371E+03  0.56028274131E+03  0.50400001928E-02 0.  1.
       -1    1    3    3    0  502  0.63565689095E+02  0.24721575501E+03  0.22114486809E+04  0.22261315088E+04  0.50400001928E-02 0. -1.
</event>
<event>
 5   0  0.4063293E-05  0.2160719E+04  0.7818609E-02  0.8534958E-01
       -1   -1    0    0    0  501  0.00000000000E+00  0.00000000000E+00  0.13222867694E+04  0.13222867694E+04  0.50400001928E-02 0. -1.
        1   -1    0    0  501    0  0.00000000000E+00  0.00000000000E+00 -0.88269570583E+03  0.88269570585E+03  0.50400001928E-02 0.  1.
    10030    2    1    2    0    0  0.00000000000E+00  0.00000000000E+00  0.43959106353E+03  0.22049824752E+04  0.21607191888E+04 0.  0.
        1    1    3    3  502    0 -0.52968476092E+03 -0.43889700859E+03 -0.63032477782E+03  0.93300903300E+03  0.50400001928E-02 0.  1.
       -1    1    3    3    0  502  0.52968476092E+03  0.43889700859E+03  0.10699158414E+04  0.12719734422E+04  0.50400001928E-02 0. -1.
</event>
<event>
 5   0  0.9938176E-05  0.2203489E+04  0.7818609E-02  0.8516977E-01
       -2   -1    0    0    0  501  0.00000000000E+00  0.00000000000E+00  0.57828287204E+03  0.57828287204E+03  0.25500000920E-02 0.  1.
        2   -1    0    0  501    0  0.00000000000E+00  0.00000000000E+00 -0.20990442511E+04  0.20990442511E+04  0.25500000920E-02 0. -1.
    10030    2    1    2    0    0  0.00000000000E+00  0.00000000000E+00 -0.15207613791E+04  0.26773271232E+04  0.22034893583E+04 0.  0.
        5    1    3    3  502    0  0.43486405465E+03 -0.85470983864E+03 -0.10135900517E+03  0.96432950397E+03  0.46999998093E+01 0.  1.
       -5    1    3    3    0  502 -0.43486405465E+03  0.85470983864E+03 -0.14194023739E+04  0.17129976192E+04  0.46999998093E+01 0. -1.
</event>
<event>
 5   0  0.4133418E-05  0.2322877E+04  0.7818609E-02  0.8468955E-01
        1   -1    0    0  501    0  0.00000000000E+00  0.00000000000E+00  0.10322656432E+04  0.10322656433E+04  0.50400001928E-02 0. -1.
       -1   -1    0    0    0  501  0.00000000000E+00  0.00000000000E+00 -0.13067759816E+04  0.13067759816E+04  0.50400001928E-02 0.  1.
    10030    2    1    2    0    0  0.00000000000E+00  0.00000000000E+00 -0.27451033833E+03  0.23390416248E+04  0.23228774821E+04 0.  0.
        4    1    3    3  502    0  0.13350674756E+03  0.65712176865E+03 -0.10921712670E+04  0.12815899344E+04  0.12699999809E+01 0.  1.
       -4    1    3    3    0  502 -0.13350674756E+03 -0.65712176865E+03  0.81766092869E+03  0.10574516905E+04  0.12699999809E+01 0. -1.
</event>
<event>
 5   0  0.4188865E-05  0.2186494E+04  0.7818609E-02  0.8524071E-01
       -1   -1    0    0    0  501  0.00000000000E+00  0.00000000000E+00  0.75770449706E+03  0.75770449708E+03  0.50400001928E-02 0.  1.
        1   -1    0    0  501    0  0.00000000000E+00  0.00000000000E+00 -0.15773820121E+04  0.15773820121E+04  0.50400001928E-02 0. -1.
    10030    2    1    2    0    0  0.00000000000E+00  0.00000000000E+00 -0.81967751507E+03  0.23350865092E+04  0.21864944036E+04 0.  0.
        3    1    3    3  502    0 -0.32361829113E+03  0.81696493235E+03 -0.11044465348E+04  0.14113690720E+04  0.10100000352E+00 0. -1.
       -3    1    3    3    0  502  0.32361829113E+03 -0.81696493235E+03  0.28476901970E+03  0.92371743722E+03  0.10100000352E+00 0.  1.
</event>
<event>
 5   0  0.4174030E-05  0.2241326E+04  0.7818609E-02  0.8501422E-01
       -1   -1    0    0    0  501  0.00000000000E+00  0.00000000000E+00  0.17190858830E+04  0.17190858830E+04  0.50400001928E-02 0. -1.
        1   -1    0    0  501    0  0.00000000000E+00  0.00000000000E+00 -0.73055417771E+03  0.73055417773E+03  0.50400001928E-02 0.  1.
    10030    2    1    2    0    0  0.00000000000E+00  0.00000000000E+00  0.98853170524E+03  0.24496400607E+04  0.22413258341E+04 0.  0.
        2    1    3    3  502    0 -0.23321293869E+03  0.11373166579E+02 -0.70367469062E+03  0.74140116935E+03  0.25500000920E-02 0.  1.
       -2    1    3    3    0  502  0.23321293869E+03 -0.11373166579E+02  0.16922063959E+04  0.17082388913E+04  0.25500000920E-02 0. -1.
</event>
<event>
 5   0  0.9442578E-05  0.2243572E+04  0.7818609E-02  0.8500508E-01
        2   -1    0    0  501    0  0.00000000000E+00  0.00000000000E+00  0.77963067591E+03  0.77963067592E+03  0.25500000920E-02 0.  1.
       -2   -1    0    0    0  501  0.00000000000E+00  0.00000000000E+00 -0.16141027261E+04  0.16141027261E+04  0.25500000920E-02 0. -1.
    10030    2    1    2    0    0  0.00000000000E+00  0.00000000000E+00 -0.83447205022E+03  0.23937334021E+04  0.22435721512E+04 0.  0.
        4    1    3    3  502    0  0.24634517170E+03 -0.10097040813E+04 -0.86764473868E+03  0.13538822995E+04  0.12699999809E+01 0. -1.
       -4    1    3    3    0  502 -0.24634517170E+03  0.10097040813E+04  0.33172688458E+02  0.10398511026E+04  0.12699999809E+01 0.  1.
</event>
<event>
 5   0  0.4063293E-05  0.2150880E+04  0.7818609E-02  0.8539156E-01
        1   -1    0    0  501    0  0.00000000000E+00  0.00000000000E+00  0.18159699549E+04  0.18159699550E+04  0.50400001928E-02 0.  1.
       -1   -1    0    0    0  501  0.00000000000E+00  0.00000000000E+00 -0.63688905473E+03  0.63688905475E+03  0.50400001928E-02 0. -1.
    10030    2    1    2    0    0  0.00000000000E+00  0.00000000000E+00  0.11790809002E+04  0.24528590097E+04  0.21508801808E+04 0.  0.
        1    1    3    3  502    0 -0.19897731519E+03  0.10111311116E+04  0.23879945000E+03  0.10578295109E+04  0.50400001928E-02 0. -1.
       -1    1    3    3    0  502  0.19897731519E+03 -0.10111311116E+04  0.94028145021E+03  0.13950294988E+04  0.50400001928E-02 0.  1.
</event>
<event>
 5   0  0.4188865E-05  0.2198148E+04  0.7818609E-02  0.8519199E-01
       -1   -1    0    0    0  501  0.00000000000E+00  0.00000000000E+00  0.86416876686E+03  0.86416876687E+03  0.50400001928E-02 0. -1.
        1   -1    0    0  501    0  0.00000000000E+00  0.00000000000E+00 -0.13978333609E+04  0.13978333610E+04  0.50400001928E-02 0.  1.
    10030    2    1    2    0    0  0.00000000000E+00  0.00000000000E+00 -0.53366459408E+03  0.22620021278E+04  0.21981482496E+04 0.  0.
        3    1    3    3  502    0  0.24254472323E+03  0.45689439845E+03  0.73107116022E+03  0.89556992223E+03  0.10100000352E+00 0. -1.
       -3    1    3    3    0  502 -0.24254472323E+03 -0.45689439845E+03 -0.12647357543E+04  0.13664322056E+04  0.10100000352E+00 0.  1.
</event>
<event>
 5   0  0.9254673E-05  0.2171163E+04  0.7818609E-02  0.8530527E-01
       -2   -1    0    0    0  501  0.00000000000E+00  0.00000000000E+00  0.19988480429E+04  0.19988480429E+04  0.25500000920E-02 0. -1.
        2   -1    0    0  501    0  0.00000000000E+00  0.00000000000E+00 -0.58958313419E+03  0.58958313419E+03  0.25500000920E-02 0.  1.
    10030    2    1    2    0    0  0.00000000000E+00  0.00000000000E+00  0.14092649087E+04  0.25884311770E+04  0.21711629086E+04 0.  0.
        2    1    3    3  502    0  0.45686159528E+03 -0.98446171037E+03  0.67543684417E+03  0.12783201113E+04  0.25500000920E-02 0.  1.
       -2    1    3    3    0  502 -0.45686159528E+03  0.98446171037E+03  0.73382806450E+03  0.13101110658E+04  0.25500000920E-02 0. -1.
</event>
<event>
 5   0  0.9442578E-05  0.2235320E+04  0.7818609E-02  0.8503869E-01
        2   -1    0    0  501    0  0.00000000000E+00  0.00000000000E+00  0.26632127946E+04  0.26632127946E+04  0.25500000920E-02 0.  1.
       -2   -1    0    0    0  501  0.00000000000E+00  0.00000000000E+00 -0.46904388154E+03  0.46904388155E+03  0.25500000920E-02 0. -1.
    10030    2    1    2    0    0  0.00000000000E+00  0.00000000000E+00  0.21941689130E+04  0.31322566761E+04  0.22353198130E+04 0.  0.
        4    1    3    3  502    0 -0.37964092758E+03  0.97254211706E+03  0.53799070480E+03  0.11744790397E+04  0.12699999809E+01 0. -1.
       -4    1    3    3    0  502  0.37964092758E+03 -0.97254211706E+03  0.16561782082E+04  0.19577776364E+04  0.12699999809E+01 0.  1.
</event>
<event>
 5   0  0.4174075E-05  0.2217322E+04  0.7818609E-02  0.8511253E-01
       -1   -1    0    0    0  501  0.00000000000E+00  0.00000000000E+00  0.10368912212E+04  0.10368912212E+04  0.50400001928E-02 0.  1.
        1   -1    0    0  501    0  0.00000000000E+00  0.00000000000E+00 -0.11853984435E+04  0.11853984435E+04  0.50400001928E-02 0. -1.
    10030    2    1    2    0    0  0.00000000000E+00  0.00000000000E+00 -0.14850722234E+03  0.22222896647E+04  0.22173220242E+04 0.  0.
        5    1    3    3  502    0 -0.12447970600E+03 -0.26284384295E+03 -0.11464752068E+04  0.11827973507E+04  0.46999998093E+01 0. -1.
       -5    1    3    3    0  502  0.12447970600E+03  0.26284384295E+03  0.99796798444E+03  0.10394923140E+04  0.46999998093E+01 0.  1.
</event>
<event>
 5   0  0.9442578E-05  0.2197418E+04  0.7818609E-02  0.8519503E-01
        2   -1    0    0  501    0  0.00000000000E+00  0.00000000000E+00  0.10236190951E+04  0.10236190951E+04  0.25500000920E-02 0. -1.
       -2   -1    0    0    0  501  0.00000000000E+00  0.00000000000E+00 -0.11793076599E+04  0.11793076599E+04  0.25500000920E-02 0.  1.
    10030    2    1    2    0    0  0.00000000000E+00  0.00000000000E+00 -0.15568856485E+03  0.22029267550E+04  0.21974183395E+04 0.  0.
        4    1    3    3  502    0  0.64989400032E+03  0.45613191581E+03  0.68349455715E+03  0.10476568898E+04  0.12699999809E+01 0. -1.
       -4    1    3    3    0  502 -0.64989400032E+03 -0.45613191581E+03 -0.83918312200E+03  0.11552698652E+04  0.12699999809E+01 0.  1.
</event>
<event>
 5   0  0.4174030E-05  0.2250347E+04  0.7818609E-02  0.8497760E-01
        1   -1    0    0  501    0  0.00000000000E+00  0.00000000000E+00  0.90076084381E+03  0.90076084383E+03  0.50400001928E-02 0.  1.
       -1   -1    0    0    0  501  0.00000000000E+00  0.00000000000E+00 -0.14054958252E+04  0.14054958252E+04  0.50400001928E-02 0. -1.
    10030    2    1    2    0    0  0.00000000000E+00  0.00000000000E+00 -0.50473498135E+03  0.23062566690E+04  0.22503471781E+04 0.  0.
        2    1    3    3  502    0 -0.48005882766E+03  0.71866976136E+03  0.48599953348E+03  0.99153328258E+03  0.25500000920E-02 0.  1.
       -2    1    3    3    0  502  0.48005882766E+03 -0.71866976136E+03 -0.99073451484E+03  0.13147233864E+04  0.25500000920E-02 0. -1.
</event>
<event>
 5   0  0.9938176E-05  0.2225851E+04  0.7818609E-02  0.8507745E-01
        2   -1    0    0  501    0  0.00000000000E+00  0.00000000000E+00  0.22353544337E+04  0.22353544337E+04  0.25500000920E-02 0. -1.
       -2   -1    0    0    0  501  0.00000000000E+00  0.00000000000E+00 -0.55409719651E+03  0.55409719651E+03  0.25500000920E-02 0.  1.
    10030    2    1    2    0    0  0.00000000000E+00  0.00000000000E+00  0.16812572372E+04  0.27894516302E+04  0.22258514101E+04 0.  0.
        5    1    3    3  502    0  0.21286907739E+03 -0.80797509232E+03 -0.80665361140E+02  0.83944385423E+03  0.46999998093E+01 0.  1.
       -5    1    3    3    0  502 -0.21286907739E+03  0.80797509232E+03  0.17619225983E+04  0.19500077760E+04  0.46999998093E+01 0. -1.
</event>
<event>
 5   0  0.4133418E-05  0.2263071E+04  0.7818609E-02  0.8492626E-01
       -1   -1    0    0    0  501  0.00000000000E+00  0.00000000000E+00  0.87335364647E+03  0.87335364648E+03  0.50400001928E-02 0. -1.
        1   -1    0    0  501    0  0.00000000000E+00  0.00000000000E+00 -0.14660411359E+04  0.14660411360E+04  0.50400001928E-02 0.  1.
    10030    2    1    2    0    0  0.00000000000E+00  0.00000000000E+00 -0.59268748948E+03  0.23393947824E+04  0.22630708093E+04 0.  0.
        4    1    3    3  502    0 -0.85667587381E+03  0.73184488587E+03 -0.18851732203E+03  0.11423794831E+04  0.12699999809E+01 0.  1.
       -4    1    3    3    0  502  0.85667587381E+03 -0.73184488587E+03 -0.40417016745E+03  0.11970152994E+04  0.12699999809E+01 0. -1.
</event>
<event>
 5   0  0.9179618E-05  0.2104022E+04  0.7818609E-02  0.8559474E-01
       -2   -1    0    0    0  501  0.00000000000E+00  0.00000000000E+00  0.63486299262E+03  0.63486299262E+03  0.25500000920E-02 0.  1.
        2   -1    0    0  501    0  0.00000000000E+00  0.00000000000E+00 -0.17432534623E+04  0.17432534623E+04  0.25500000920E-02 0. -1.
    10030    2    1    2    0    0  0.00000000000E+00  0.00000000000E+00 -0.11083904696E+04  0.23781164549E+04  0.21040219675E+04 0.  0.
        3    1    3    3  502    0  0.39221942790E+03 -0.10042713445E+02  0.54907393091E+03  0.67484748464E+03  0.10100000352E+00 0.  1.
       -3    1    3    3    0  502 -0.39221942790E+03  0.10042713445E+02 -0.16574644005E+04  0.17032689702E+04  0.10100000352E+00 0. -1.
</event>
<event>
 5   0  0.4174030E-05  0.2240734E+04  0.7818609E-02  0.8501663E-01
        1   -1    0    0  501    0  0.00000000000E+00  0.00000000000E+00  0.16234262975E+04  0.16234262975E+04  0.50400001928E-02 0.  1.
       -1   -1    0    0    0  501  0.00000000000E+00  0.00000000000E+00 -0.77319295380E+03  0.77319295381E+03  0.50400001928E-02 0. -1.
    10030    2    1    2    0    0  0.00000000000E+00  0.00000000000E+00  0.85023334369E+03  0.23966192513E+04  0.22407336069E+04 0.  0.
        2    1    3    3  502    0 -0.15297861830E+02 -0.75730215354E+03 -0.45783260417E+03  0.88507133599E+03  0.25500000920E-02 0. -1.
       -2    1    3    3    0  502  0.15297861830E+02  0.75730215354E+03  0.13080659479E+04  0.15115479153E+04  0.25500000920E-02 0.  1.
</event>
<event>
 5   0  0.9254673E-05  0.2201323E+04  0.7818609E-02  0.8517877E-01
        2   -1    0    0  501    0  0.00000000000E+00  0.00000000000E+00  0.16546025184E+04  0.16546025184E+04  0.25500000920E-02 0.  1.
       -2   -1    0    0    0  501  0.00000000000E+00  0.00000000000E+00 -0.73217359272E+03  0.73217359272E+03  0.25500000920E-02 0. -1.
    10030    2    1    2    0    0  0.00000000000E+00  0.00000000000E+00  0.92242892571E+03  0.23867761111E+04  0.22013234841E+04 0.  0.
        2    1    3    3  502    0  0.53269663055E+03 -0.49660930409E+03 -0.43358067900E+03  0.84757224253E+03  0.25500000920E-02 0. -1.
       -2    1    3    3    0  502 -0.53269663055E+03  0.49660930409E+03  0.13560096047E+04  0.15392038686E+04  0.25500000920E-02 0.  1.
</event>
<event>
 5   0  0.3283125E-05  0.2175713E+04  0.7818609E-02  0.8528605E-01
       -3   -1    0    0    0  501  0.00000000000E+00  0.00000000000E+00  0.16543036049E+04  0.16543036079E+04  0.10100000352E+00 0.  1.
        3   -1    0    0  501    0  0.00000000000E+00  0.00000000000E+00 -0.71536547678E+03  0.71536548391E+03  0.10100000352E+00 0. -1.
    10030    2    1    2    0    0  0.00000000000E+00  0.00000000000E+00  0.93893812808E+03  0.23696690919E+04  0.21757129398E+04 0.  0.
        4    1    3    3  502    0  0.37643994242E+03 -0.80153840660E+03  0.11576673656E+04  0.14575205624E+04  0.12699999809E+01 0.  1.
       -4    1    3    3    0  502 -0.37643994242E+03  0.80153840660E+03 -0.21872923757E+03  0.91214852944E+03  0.12699999809E+01 0. -1.
</event>
<event>
 5   0  0.9442578E-05  0.2221143E+04  0.7818609E-02  0.8509679E-01
        2   -1    0    0  501    0  0.00000000000E+00  0.00000000000E+00  0.16394111060E+04  0.16394111060E+04  0.25500000920E-02 0.  1.
       -2   -1    0    0    0  501  0.00000000000E+00  0.00000000000E+00 -0.75232454886E+03  0.75232454887E+03  0.25500000920E-02 0. -1.
    10030    2    1    2    0    0  0.00000000000E+00  0.00000000000E+00  0.88708655712E+03  0.23917356549E+04  0.22211431478E+04 0.  0.
        4    1    3    3  502    0  0.87998849090E+03 -0.67323704421E+03  0.36196341646E+03  0.11656101362E+04  0.12699999809E+01 0.  1.
       -4    1    3    3    0  502 -0.87998849090E+03  0.67323704421E+03  0.52512314066E+03  0.12261255187E+04  0.12699999809E+01 0. -1.
</event>
<event>
 5   0  0.9938176E-05  0.2099015E+04  0.7818609E-02  0.8561678E-01
       -2   -1    0    0    0  501  0.00000000000E+00  0.00000000000E+00  0.97885758487E+03  0.97885758488E+03  0.25500000920E-02 0.  1.
        2   -1    0    0  501    0  0.00000000000E+00  0.00000000000E+00 -0.11252561220E+04  0.11252561220E+04  0.25500000920E-02 0. -1.
    10030    2    1    2    0    0  0.00000000000E+00  0.00000000000E+00 -0.14639853715E+03  0.21041137069E+04  0.20990145211E+04 0.  0.
        5    1    3    3  502    0 -0.22261609991E+03 -0.61701342865E+03  0.74804666808E+03  0.99491678380E+03  0.46999998093E+01 0.  1.
       -5    1    3    3    0  502  0.22261609991E+03  0.61701342865E+03 -0.89444520522E+03  0.11091969231E+04  0.46999998093E+01 0. -1.
</event>
<event>
 5   0  0.4133418E-05  0.2157980E+04  0.7818609E-02  0.8536124E-01
        1   -1    0    0  501    0  0.00000000000E+00  0.00000000000E+00  0.14819193826E+04  0.14819193826E+04  0.50400001928E-02 0. -1.
       -1   -1    0    0    0  501  0.00000000000E+00  0.00000000000E+00 -0.78561620064E+03  0.78561620066E+03  0.50400001928E-02 0.  1.
    10030    2    1    2    0    0  0.00000000000E+00  0.00000000000E+00  0.69630318196E+03  0.22675355833E+04  0.21579804216E+04 0.  0.
        4    1    3    3  502    0  0.14651418040E+03  0.51805323103E+03 -0.63439896826E+03  0.83205121180E+03  0.12699999809E+01 0.  1.
       -4    1    3    3    0  502 -0.14651418040E+03 -0.51805323103E+03  0.13307021502E+04  0.14354843715E+04  0.12699999809E+01 0. -1.
</event>
<event>
 5   0  0.4174030E-05  0.2204009E+04  0.7818609E-02  0.8516761E-01
        1   -1    0    0  501    0  0.00000000000E+00  0.00000000000E+00  0.12390620257E+04  0.12390620257E+04  0.50400001928E-02 0.  1.
       -1   -1    0    0    0  501  0.00000000000E+00  0.00000000000E+00 -0.98010755043E+03  0.98010755044E+03  0.50400001928E-02 0. -1.
    10030    2    1    2    0    0  0.00000000000E+00  0.00000000000E+00  0.25895447525E+03  0.22191695761E+04  0.22040091169E+04 0.  0.
        2    1    3    3  502    0  0.78475111490E+02 -0.10517375847E+04  0.45121198232E+03  0.11471279542E+04  0.25500000920E-02 0.  1.
       -2    1    3    3    0  502 -0.78475111490E+02  0.10517375847E+04 -0.19225750707E+03  0.10720416220E+04  0.25500000920E-02 0. -1.
</event>
<event>
 5   0  0.9938176E-05  0.2205359E+04  0.7818609E-02  0.8516201E-01
        2   -1    0    0  501    0  0.00000000000E+00  0.00000000000E+00  0.11298183308E+04  0.11298183308E+04  0.25500000920E-02 0. -1.
       -2   -1    0    0    0  501  0.00000000000E+00  0.00000000000E+00 -0.10761921904E+04  0.10761921905E+04  0.25500000920E-02 0.  1.
    10030    2    1    2    0    0  0.00000000000E+00  0.00000000000E+00  0.53626140318E+02  0.22060105212E+04  0.22053586232E+04 0.  0.
        5    1    3    3  502    0 -0.98025145394E+00 -0.37707337923E+03 -0.10096854277E+04  0.10778089103E+04  0.46999998093E+01 0.  1.
       -5    1    3    3    0  502  0.98025145394E+00  0.37707337923E+03  0.10633115680E+04  0.11282016109E+04  0.46999998093E+01 0. -1.
</event>
<event>
 5   0  0.4188865E-05  0.2205267E+04  0.7818609E-02  0.8516239E-01
        1   -1    0    0  501    0  0.00000000000E+00  0.00000000000E+00  0.16796063084E+04  0.16796063084E+04  0.50400001928E-02 0.  1.
       -1   -1    0    0    0  501  0.00000000000E+00  0.00000000000E+00 -0.72386026673E+03  0.72386026675E+03  0.50400001928E-02 0. -1.
    10030    2    1    2    0    0  0.00000000000E+00  0.00000000000E+00  0.95574604169E+03  0.24034665752E+04  0.22052666691E+04 0.  0.
        3    1    3    3  502    0 -0.79253918302E+03  0.61388878913E+03  0.97829388643E+03  0.14007272184E+04  0.10100000352E+00 0. -1.
       -3    1    3    3    0  502  0.79253918302E+03 -0.61388878913E+03 -0.22547844736E+02  0.10027393567E+04  0.10100000352E+00 0.  1.
</event>
<event>
 5   0  0.9457742E-05  0.2222210E+04  0.7818609E-02  0.8509240E-01
       -2   -1    0    0    0  501  0.00000000000E+00  0.00000000000E+00  0.71352573670E+03  0.71352573671E+03  0.25500000920E-02 0. -1.
        2   -1    0    0  501    0  0.00000000000E+00  0.00000000000E+00 -0.17302162776E+04  0.17302162776E+04  0.25500000920E-02 0.  1.
    10030    2    1    2    0    0  0.00000000000E+00  0.00000000000E+00 -0.10166905409E+04  0.24437420143E+04  0.22222095708E+04 0.  0.
        1    1    3    3  502    0  0.83255176698E+03  0.38665484052E+02  0.29969609413E+03  0.88569476301E+03  0.50400001928E-02 0. -1.
       -1    1    3    3    0  502 -0.83255176698E+03 -0.38665484052E+02 -0.13163866350E+04  0.15580472513E+04  0.50400001928E-02 0.  1.
</event>
<event>
 5   0  0.4063293E-05  0.2216437E+04  0.7818609E-02  0.8511618E-01
       -1   -1    0    0    0  501  0.00000000000E+00  0.00000000000E+00  0.22806026100E+04  0.22806026101E+04  0.50400001928E-02 0.  1.
        1   -1    0    0  501    0  0.00000000000E+00  0.00000000000E+00 -0.53851918820E+03  0.53851918823E+03  0.50400001928E-02 0. -1.
    10030    2    1    2    0    0  0.00000000000E+00  0.00000000000E+00  0.17420834218E+04  0.28191217983E+04  0.22164370203E+04 0.  0.
        1    1    3    3  502    0 -0.58133769304E+03 -0.82728872263E+03  0.29405129884E+03  0.10530082195E+04  0.50400001928E-02 0. -1.
       -1    1    3    3    0  502  0.58133769304E+03  0.82728872263E+03  0.14480321230E+04  0.17661135788E+04  0.50400001928E-02 0.  1.
</event>
<event>
 5   0  0.9457742E-05  0.1796697E+04  0.7818609E-02  0.8708058E-01
        2   -1    0    0  501    0  0.00000000000E+00  0.00000000000E+00  0.11809989083E+04  0.11809989083E+04  0.25500000920E-02 0. -1.
       -2   -1    0    0    0  501  0.00000000000E+00  0.00000000000E+00 -0.68334497206E+03  0.68334497206E+03  0.25500000920E-02 0.  1.
    10030    2    1    2    0    0  0.00000000000E+00  0.00000000000E+00  0.49765393619E+03  0.18643438803E+04  0.17966965976E+04 0.  0.
        1    1    3    3  502    0  0.40838178282E+03  0.12067826157E+03 -0.57196130112E+03  0.71307689162E+03  0.50400001928E-02 0.  1.
       -1    1    3    3    0  502 -0.40838178282E+03 -0.12067826157E+03  0.10696152373E+04  0.11512669887E+04  0.50400001928E-02 0. -1.
</event>
<event>
 5   0  0.9457742E-05  0.2212597E+04  0.7818609E-02  0.8513203E-01
       -2   -1    0    0    0  501  0.00000000000E+00  0.00000000000E+00  0.57154264557E+03  0.57154264557E+03  0.25500000920E-02 0.  1.
        2   -1    0    0  501    0  0.00000000000E+00  0.00000000000E+00 -0.21413907169E+04  0.21413907169E+04  0.25500000920E-02 0. -1.
    10030    2    1    2    0    0  0.00000000000E+00  0.00000000000E+00 -0.15698480713E+04  0.27129333624E+04  0.22125967690E+04 0.  0.
        1    1    3    3  502    0  0.26621210658E+03 -0.19900269144E+03  0.50887662219E+03  0.60780455208E+03  0.50400001928E-02 0.  1.
       -1    1    3    3    0  502 -0.26621210658E+03  0.19900269144E+03 -0.20787246935E+04  0.21051288104E+04  0.50400001928E-02 0. -1.
</event>
<event>
 5   0  0.9938176E-05  0.2195765E+04  0.7818609E-02  0.8520193E-01
        2   -1    0    0  501    0  0.00000000000E+00  0.00000000000E+00  0.52121664645E+03  0.52121664645E+03  0.25500000920E-02 0. -1.
       -2   -1    0    0    0  501  0.00000000000E+00  0.00000000000E+00 -0.23125618363E+04  0.23125618363E+04  0.25500000920E-02 0.  1.
    10030    2    1    2    0    0  0.00000000000E+00  0.00000000000E+00 -0.17913451899E+04  0.28337784828E+04  0.21957647643E+04 0.  0.
        5    1    3    3  502    0 -0.91849219027E+03  0.57639504913E+03 -0.67414416561E+03  0.12768522241E+04  0.46999998093E+01 0. -1.
       -5    1    3    3    0  502  0.91849219027E+03 -0.57639504913E+03 -0.11172010243E+04  0.15569262586E+04  0.46999998093E+01 0.  1.
</event>
<event>
 5   0  0.9179618E-05  0.2158146E+04  0.7818609E-02  0.8536053E-01
        2   -1    0    0  501    0  0.00000000000E+00  0.00000000000E+00  0.86198318260E+03  0.86198318260E+03  0.25500000920E-02 0.  1.
       -2   -1    0    0    0  501  0.00000000000E+00  0.00000000000E+00 -0.13508366930E+04  0.13508366930E+04  0.25500000920E-02 0. -1.
    10030    2    1    2    0    0  0.00000000000E+00  0.00000000000E+00 -0.48885351043E+03  0.22128198756E+04  0.21581459745E+04 0.  0.
        3    1    3    3  502    0  0.36590817328E+03 -0.10055621832E+04 -0.10178220905E+03  0.10748970759E+04  0.10100000352E+00 0.  1.
       -3    1    3    3    0  502 -0.36590817328E+03  0.10055621832E+04 -0.38707130138E+03  0.11379227997E+04  0.10100000352E+00 0. -1.
</event>
<event>
 5   0  0.4174030E-05  0.2206929E+04  0.7818609E-02  0.8515550E-01
       -1   -1    0    0    0  501  0.00000000000E+00  0.00000000000E+00  0.61113155309E+03  0.61113155311E+03  0.50400001928E-02 0. -1.
        1   -1    0    0  501    0  0.00000000000E+00  0.00000000000E+00 -0.19924246368E+04  0.19924246369E+04  0.50400001928E-02 0.  1.
    10030    2    1    2    0    0  0.00000000000E+00  0.00000000000E+00 -0.13812930838E+04  0.26035561900E+04  0.22069286919E+04 0.  0.
        2    1    3    3  502    0 -0.17613063578E+03 -0.23826371824E+03 -0.19446175751E+04  0.19670610346E+04  0.25500000920E-02 0.  1.
       -2    1    3    3    0  502  0.17613063578E+03  0.23826371824E+03  0.56332449135E+03  0.63649515540E+03  0.25500000920E-02 0. -1.
</event>
<event>
 5   0  0.4188865E-05  0.2109970E+04  0.7818609E-02  0.8556864E-01
       -1   -1    0    0    0  501  0.00000000000E+00  0.00000000000E+00  0.46399609864E+03  0.46399609866E+03  0.50400001928E-02 0.  1.
        1   -1    0    0  501    0  0.00000000000E+00  0.00000000000E+00 -0.23987122657E+04  0.23987122657E+04  0.50400001928E-02 0. -1.
    10030    2    1    2    0    0  0.00000000000E+00  0.00000000000E+00 -0.19347161671E+04  0.28627083644E+04  0.21099697942E+04 0.  0.
        3    1    3    3  502    0 -0.42907310671E+03  0.73429493142E+03 -0.18143246446E+04  0.20037631356E+04  0.10100000352E+00 0. -1.
       -3    1    3    3    0  502  0.42907310671E+03 -0.73429493142E+03 -0.12039152245E+03  0.85894522881E+03  0.10100000352E+00 0.  1.
</event>
<event>
 5   0  0.3283125E-05  0.2200556E+04  0.7818609E-02  0.8518197E-01
        3   -1    0    0  501    0  0.00000000000E+00  0.00000000000E+00  0.11822417560E+04  0.11822417603E+04  0.10100000352E+00 0. -1.
       -3   -1    0    0    0  501  0.00000000000E+00  0.00000000000E+00 -0.10239962920E+04  0.10239962970E+04  0.10100000352E+00 0.  1.
    10030    2    1    2    0    0  0.00000000000E+00  0.00000000000E+00  0.15824546397E+03  0.22062380573E+04  0.22005555523E+04 0.  0.
        3    1    3    3  502    0  0.78310017987E+02 -0.98075748728E+03 -0.41468693270E+03  0.10676998502E+04  0.10100000352E+00 0.  1.
       -3    1    3    3    0  502 -0.78310017987E+02  0.98075748728E+03  0.57293239667E+03  0.11385382071E+04  0.10100000352E+00 0. -1.
</event>
<event>
 5   0  0.4174030E-05  0.2222849E+04  0.7818609E-02  0.8508978E-01
        1   -1    0    0  501    0  0.00000000000E+00  0.00000000000E+00  0.10850857006E+04  0.10850857007E+04  0.50400001928E-02 0.  1.
       -1   -1    0    0    0  501  0.00000000000E+00  0.00000000000E+00 -0.11384026287E+04  0.11384026287E+04  0.50400001928E-02 0. -1.
    10030    2    1    2    0    0  0.00000000000E+00  0.00000000000E+00 -0.53316928046E+02  0.22234883293E+04  0.22228489953E+04 0.  0.
        2    1    3    3  502    0  0.40160112344E+03  0.72380801295E+03 -0.76854753008E+03  0.11295338897E+04  0.25500000920E-02 0. -1.
       -2    1    3    3    0  502 -0.40160112344E+03 -0.72380801295E+03  0.71523060203E+03  0.10939544397E+04  0.25500000920E-02 0.  1.
</event>
<event>
 5   0  0.4063293E-05  0.2499649E+04  0.7818609E-02  0.8403111E-01
        1   -1    0    0  501    0  0.00000000000E+00  0.00000000000E+00  0.18480559987E+04  0.18480559987E+04  0.50400001928E-02 0.  1.
       -1   -1    0    0    0  501  0.00000000000E+00  0.00000000000E+00 -0.84524560187E+03  0.84524560188E+03  0.50400001928E-02 0. -1.
    10030    2    1    2    0    0  0.00000000000E+00  0.00000000000E+00  0.10028103968E+04  0.26933016006E+04  0.24996489393E+04 0.  0.
        1    1    3    3  502    0  0.11722799650E+04 -0.38257628078E+03  0.28202313156E+03  0.12649671829E+04  0.50400001928E-02 0. -1.
       -1    1    3    3    0  502 -0.11722799650E+04  0.38257628078E+03  0.72078726527E+03  0.14283344177E+04  0.50400001928E-02 0.  1.
</event>
<event>
 5   0  0.9457742E-05  0.2187147E+04  0.7818609E-02  0.8523797E-01
        2   -1    0    0  501    0  0.00000000000E+00  0.00000000000E+00  0.15501934492E+04  0.15501934492E+04  0.25500000920E-02 0. -1.
       -2   -1    0    0    0  501  0.00000000000E+00  0.00000000000E+00 -0.77145438455E+03  0.77145438456E+03  0.25500000920E-02 0.  1.
    10030    2    1    2    0    0  0.00000000000E+00  0.00000000000E+00  0.77873906469E+03  0.23216478338E+04  0.21871474878E+04 0.  0.
        1    1    3    3  502    0  0.29863323816E+03  0.10385354145E+04  0.21122183758E+03  0.11010687003E+04  0.50400001928E-02 0. -1.
       -1    1    3    3    0  502 -0.29863323816E+03 -0.10385354145E+04  0.56751722711E+03  0.12205791335E+04  0.50400001928E-02 0.  1.
</event>
<event>
 5   0  0.4188865E-05  0.2187149E+04  0.7818609E-02  0.8523796E-01
        1   -1    0    0  501    0  0.00000000000E+00  0.00000000000E+00  0.13220300495E+04  0.13220300495E+04  0.50400001928E-02 0. -1.
       -1   -1    0    0    0  501  0.00000000000E+00  0.00000000000E+00 -0.90459744192E+03  0.90459744194E+03  0.50400001928E-02 0.  1.
    10030    2    1    2    0    0  0.00000000000E+00  0.00000000000E+00  0.41743260755E+03  0.22266274914E+04  0.21871488298E+04 0.  0.
        3    1    3    3  502    0 -0.95696911791E+03 -0.35992821118E+03  0.60374970026E+03  0.11873718544E+04  0.10100000352E+00 0. -1.
       -3    1    3    3    0  502  0.95696911791E+03  0.35992821118E+03 -0.18631709271E+03  0.10392556370E+04  0.10100000352E+00 0.  1.
</event>
<event>
 5   0  0.9254673E-05  0.2188430E+04  0.7818609E-02  0.8523259E-01
       -2   -1    0    0    0  501  0.00000000000E+00  0.00000000000E+00  0.10366787190E+04  0.10366787190E+04  0.25500000920E-02 0. -1.
        2   -1    0    0  501    0  0.00000000000E+00  0.00000000000E+00 -0.11549443714E+04  0.11549443714E+04  0.25500000920E-02 0.  1.
    10030    2    1    2    0    0  0.00000000000E+00  0.00000000000E+00 -0.11826565240E+03  0.21916230905E+04  0.21884298038E+04 0.  0.
        2    1    3    3  502    0 -0.13967963323E+03  0.79026486869E+03  0.68577865573E+03  0.10556141943E+04  0.25500000920E-02 0. -1.
       -2    1    3    3    0  502  0.13967963323E+03 -0.79026486869E+03 -0.80404430813E+03  0.11360088961E+04  0.25500000920E-02 0.  1.
</event>
<event>
 5   0  0.4174075E-05  0.2189417E+04  0.7818609E-02  0.8522846E-01
       -1   -1    0    0    0  501  0.00000000000E+00  0.00000000000E+00  0.10404806734E+04  0.10404806734E+04  0.50400001928E-02 0. -1.
        1   -1    0    0  501    0  0.00000000000E+00  0.00000000000E+00 -0.11517627777E+04  0.11517627777E+04  0.50400001928E-02 0.  1.
    10030    2    1    2    0    0  0.00000000000E+00  0.00000000000E+00 -0.11128210434E+03  0.21922434511E+04  0.21894171924E+04 0.  0.
        5    1    3    3  502    0  0.10360182190E+04 -0.19801868997E+03  0.23768705148E+03  0.10812318790E+04  0.46999998093E+01 0. -1.
       -5    1    3    3    0  502 -0.10360182190E+04  0.19801868997E+03 -0.34896915582E+03  0.11110115721E+04  0.46999998093E+01 0.  1.
</event>
<event>
 5   0  0.9442578E-05  0.2206714E+04  0.7818609E-02  0.8515639E-01
        2   -1    0    0  501    0  0.00000000000E+00  0.00000000000E+00  0.12567459120E+04  0.12567459120E+04  0.25500000920E-02 0.  1.
       -2   -1    0    0    0  501  0.00000000000E+00  0.00000000000E+00 -0.96868982256E+03  0.96868982256E+03  0.25500000920E-02 0. -1.
    10030    2    1    2    0    0  0.00000000000E+00  0.00000000000E+00  0.28805608948E+03  0.22254357346E+04  0.22067142765E+04 0.  0.
        4    1    3    3  502    0 -0.45043884503E+03 -0.46991620022E+03  0.10424728254E+04  0.12290108189E+04  0.12699999809E+01 0.  1.
       -4    1    3    3    0  502  0.45043884503E+03  0.46991620022E+03 -0.75441673591E+03  0.99642491572E+03  0.12699999809E+01 0. -1.
</event>
<event>
 5   0  0.9457742E-05  0.2209163E+04  0.7818609E-02  0.8514624E-01
        2   -1    0    0  501    0  0.00000000000E+00  0.00000000000E+00  0.13797751577E+04  0.13797751577E+04  0.25500000920E-02 0. -1.
       -2   -1    0    0    0  501  0.00000000000E+00  0.00000000000E+00 -0.88427466083E+03  0.88427466083E+03  0.25500000920E-02 0.  1.
    10030    2    1    2    0    0  0.00000000000E+00  0.00000000000E+00  0.49550049690E+03  0.22640498186E+04  0.22091629271E+04 0.  0.
        1    1    3    3  502    0 -0.15592247232E+03  0.51949120336E+03 -0.73840281330E+03  0.91619956476E+03  0.50400001928E-02 0.  1.
       -1    1    3    3    0  502  0.15592247232E+03 -0.51949120336E+03  0.12339033102E+04  0.13478502538E+04  0.50400001928E-02 0. -1.
</event>
<event>
 5   0  0.9457742E-05  0.2215118E+04  0.7818609E-02  0.8512162E-01
        2   -1    0    0  501    0  0.00000000000E+00  0.00000000000E+00  0.16163365079E+04  0.16163365080E+04  0.25500000920E-02 0. -1.
       -2   -1    0    0    0  501  0.00000000000E+00  0.00000000000E+00 -0.75893035405E+03  0.75893035406E+03  0.25500000920E-02 0.  1.
    10030    2    1    2    0    0  0.00000000000E+00  0.00000000000E+00  0.85740615390E+03  0.23752668620E+04  0.22151179095E+04 0.  0.
        1    1    3    3  502    0 -0.25000490658E+03  0.46453429216E+03 -0.61555914190E+03  0.81068342718E+03  0.50400001928E-02 0.  1.
       -1    1    3    3    0  502  0.25000490658E+03 -0.46453429216E+03  0.14729652958E+04  0.15645834348E+04  0.50400001928E-02 0. -1.
</event>
<event>
 5   0  0.4133418E-05  0.2321846E+04  0.7818609E-02  0.8469357E-01
        1   -1    0    0  501    0  0.00000000000E+00  0.00000000000E+00  0.16949440500E+04  0.16949440500E+04  0.50400001928E-02 0.  1.
       -1   -1    0    0    0  501  0.00000000000E+00  0.00000000000E+00 -0.79515440465E+03  0.79515440466E+03  0.50400001928E-02 0. -1.
    10030    2    1    2    0    0  0.00000000000E+00  0.00000000000E+00  0.89978964534E+03  0.24900984547E+04  0.23218460130E+04 0.  0.
        4    1    3    3  502    0  0.21943037231E+03 -0.77992739406E+03  0.13415926295E+04  0.15672615687E+04  0.12699999809E+01 0.  1.
       -4    1    3    3    0  502 -0.21943037231E+03  0.77992739406E+03 -0.44180298418E+03  0.92283688593E+03  0.12699999809E+01 0. -1.
</event>
<event>
 5   0  0.9442578E-05  0.2211788E+04  0.7818609E-02  0.8513538E-01
       -2   -1    0    0    0  501  0.00000000000E+00  0.00000000000E+00  0.79499062167E+03  0.79499062167E+03  0.25500000920E-02 0. -1.
        2   -1    0    0  501    0  0.00000000000E+00  0.00000000000E+00 -0.15383842967E+04  0.15383842967E+04  0.25500000920E-02 0.  1.
    10030    2    1    2    0    0  0.00000000000E+00  0.00000000000E+00 -0.74339367506E+03  0.23333749184E+04  0.22117875924E+04 0.  0.
        4    1    3    3  502    0 -0.59162636457E+03 -0.60345412969E+03 -0.11242263739E+04  0.14064370568E+04  0.12699999809E+01 0.  1.
       -4    1    3    3    0  502  0.59162636457E+03  0.60345412969E+03  0.38083269887E+03  0.92693786163E+03  0.12699999809E+01 0. -1.
</event>
<event>
 5   0  0.9442578E-05  0.2193882E+04  0.7818609E-02  0.8520979E-01
        2   -1    0    0  501    0  0.00000000000E+00  0.00000000000E+00  0.98112499090E+03  0.98112499090E+03  0.25500000920E-02 0.  1.
       -2   -1    0    0    0  501  0.00000000000E+00  0.00000000000E+00 -0.12264288124E+04  0.12264288124E+04  0.25500000920E-02 0. -1.
    10030    2    1    2    0    0  0.00000000000E+00  0.00000000000E+00 -0.24530382150E+03  0.22075538033E+04  0.21938823646E+04 0.  0.
        4    1    3    3  502    0  0.55756918166E+03 -0.70440115316E+03  0.51072590908E+03  0.10333958312E+04  0.12699999809E+01 0.  1.
       -4    1    3    3    0  502 -0.55756918166E+03  0.70440115316E+03 -0.75602973059E+03  0.11741579721E+04  0.12699999809E+01 0. -1.
</event>
<event>
 5   0  0.4174030E-05  0.2181902E+04  0.7818609E-02  0.8525999E-01
       -1   -1    0    0    0  501  0.00000000000E+00  0.00000000000E+00  0.82742186170E+03  0.82742186172E+03  0.50400001928E-02 0. -1.
        1   -1    0    0  501    0  0.00000000000E+00  0.00000000000E+00 -0.14384123629E+04  0.14384123629E+04  0.50400001928E-02 0.  1.
    10030    2    1    2    0    0  0.00000000000E+00  0.00000000000E+00 -0.61099050122E+03  0.22658342247E+04  0.21819017716E+04 0.  0.
        2    1    3    3  502    0  0.36415534127E+03  0.80155445517E+03 -0.97454177495E+03  0.13133279592E+04  0.25500000920E-02 0.  1.
       -2    1    3    3    0  502 -0.36415534127E+03 -0.80155445517E+03  0.36355127373E+03  0.95250626550E+03  0.25500000920E-02 0. -1.
</event>
<event>
 5   0  0.9457742E-05  0.2202976E+04  0.7818609E-02  0.8517190E-01
        2   -1    0    0  501    0  0.00000000000E+00  0.00000000000E+00  0.15156379439E+04  0.15156379439E+04  0.25500000920E-02 0.  1.
       -2   -1    0    0    0  501  0.00000000000E+00  0.00000000000E+00 -0.80050531736E+03  0.80050531737E+03  0.25500000920E-02 0. -1.
    10030    2    1    2    0    0  0.00000000000E+00  0.00000000000E+00  0.71513262651E+03  0.23161432612E+04  0.22029763805E+04 0.  0.
        1    1    3    3  502    0  0.15408802152E+03  0.29394371303E+03 -0.74668764943E+03  0.81712206594E+03  0.50400001928E-02 0. -1.
       -1    1    3    3    0  502 -0.15408802152E+03 -0.29394371303E+03  0.14618202759E+04  0.14990211953E+04  0.50400001928E-02 0.  1.
</event>
<event>
 5   0  0.4174075E-05  0.2071999E+04  0.7818609E-02  0.8573679E-01
        1   -1    0    0  501    0  0.00000000000E+00  0.00000000000E+00  0.15438229697E+04  0.15438229697E+04  0.50400001928E-02 0.  1.
       -1   -1    0    0    0  501  0.00000000000E+00  0.00000000000E+00 -0.69521902706E+03  0.69521902708E+03  0.50400001928E-02 0. -1.
    10030    2    1    2    0    0  0.00000000000E+00  0.00000000000E+00  0.84860394264E+03  0.22390419968E+04  0.20719991342E+04 0.  0.
        5    1    3    3  502    0  0.25009067699E+03  0.20860129066E+03 -0.63845452943E+03  0.71673294980E+03  0.46999998093E+01 0. -1.
       -5    1    3    3    0  502 -0.25009067699E+03 -0.20860129066E+03  0.14870584721E+04  0.15223090470E+04  0.46999998093E+01 0.  1.
</event>
<event>
 5   0  0.4174075E-05  0.2161820E+04  0.7818609E-02  0.8534490E-01
        1   -1    0    0  501    0  0.00000000000E+00  0.00000000000E+00  0.90615115691E+03  0.90615115692E+03  0.50400001928E-02 0.  1.
       -1   -1    0    0    0  501  0.00000000000E+00  0.00000000000E+00 -0.12893721951E+04  0.12893721951E+04  0.50400001928E-02 0. -1.
    10030    2    1    2    0    0  0.00000000000E+00  0.00000000000E+00 -0.38322103818E+03  0.21955233520E+04  0.21618197023E+04 0.  0.
        5    1    3    3  502    0  0.28757362623E+03 -0.86545924046E+02  0.86292020330E+03  0.91369697096E+03  0.46999998093E+01 0.  1.
       -5    1    3    3    0  502 -0.28757362623E+03  0.86545924046E+02 -0.12461412415E+04  0.12818263811E+04  0.46999998093E+01 0. -1.
</event>
<event>
 5   0  0.4174075E-05  0.2162656E+04  0.7818609E-02  0.8534134E-01
        1   -1    0    0  501    0  0.00000000000E+00  0.00000000000E+00  0.13635203367E+04  0.13635203367E+04  0.50400001928E-02 0.  1.
       -1   -1    0    0    0  501  0.00000000000E+00  0.00000000000E+00 -0.85753809000E+03  0.85753809002E+03  0.50400001928E-02 0. -1.
    10030    2    1    2    0    0  0.00000000000E+00  0.00000000000E+00  0.50598224667E+03  0.22210584267E+04  0.21626563529E+04 0.  0.
        5    1    3    3  502    0 -0.15772491809E+03 -0.41945357580E+03 -0.75767242847E+03  0.88028861796E+03  0.46999998093E+01 0. -1.
       -5    1    3    3    0  502  0.15772491809E+03  0.41945357580E+03  0.12636546751E+04  0.13407698087E+04  0.46999998093E+01 0.  1.
</event>
<event>
 5   0  0.4174030E-05  0.2216805E+04  0.7818609E-02  0.8511466E-01
       -1   -1    0    0    0  501  0.00000000000E+00  0.00000000000E+00  0.71962428464E+03  0.71962428466E+03  0.50400001928E-02 0.  1.
        1   -1    0    0  501    0  0.00000000000E+00  0.00000000000E+00 -0.17072191405E+04  0.17072191405E+04  0.50400001928E-02 0. -1.
    10030    2    1    2    0    0  0.00000000000E+00  0.00000000000E+00 -0.98759485587E+03  0.24268434252E+04  0.22168052262E+04 0.  0.
        2    1    3    3  502    0  0.87990360009E+03  0.50058161832E+03 -0.98794502628E+03  0.14145132297E+04  0.25500000920E-02 0.  1.
       -2    1    3    3    0  502 -0.87990360009E+03 -0.50058161832E+03  0.35017041105E+00  0.10123301955E+04  0.25500000920E-02 0. -1.
</event>
<event>
 5   0  0.9179618E-05  0.2208750E+04  0.7818609E-02  0.8514795E-01
        2   -1    0    0  501    0  0.00000000000E+00  0.00000000000E+00  0.11966353968E+04  0.11966353968E+04  0.25500000920E-02 0. -1.
       -2   -1    0    0    0  501  0.00000000000E+00  0.00000000000E+00 -0.10192281833E+04  0.10192281833E+04  0.25500000920E-02 0.  1.
    10030    2    1    2    0    0  0.00000000000E+00  0.00000000000E+00  0.17740721349E+03  0.22158635801E+04  0.22087503449E+04 0.  0.
        3    1    3    3  502    0 -0.73742568593E+03 -0.35630211136E+03  0.83196519483E+03  0.11674390487E+04  0.10100000352E+00 0. -1.
       -3    1    3    3    0  502  0.73742568593E+03  0.35630211136E+03 -0.65455798134E+03  0.10484245314E+04  0.10100000352E+00 0.  1.
</event>
<event>
 5   0  0.9938176E-05  0.2185761E+04  0.7818609E-02  0.8524378E-01
        2   -1    0    0  501    0  0.00000000000E+00  0.00000000000E+00  0.25062517616E+04  0.25062517616E+04  0.25500000920E-02 0.  1.
       -2   -1    0    0    0  501  0.00000000000E+00  0.00000000000E+00 -0.47656326011E+03  0.47656326011E+03  0.25500000920E-02 0. -1.
    10030    2    1    2    0    0  0.00000000000E+00  0.00000000000E+00  0.20296885015E+04  0.29828150217E+04  0.21857607464E+04 0.  0.
        5    1    3    3  502    0  0.74997692507E+03 -0.22675488485E+03  0.20545685000E+04  0.21988990375E+04  0.46999998093E+01 0.  1.
       -5    1    3    3    0  502 -0.74997692507E+03  0.22675488485E+03 -0.24879998528E+02  0.78391598419E+03  0.46999998093E+01 0. -1.
</event>
<event>
 5   0  0.9254673E-05  0.2070267E+04  0.7818609E-02  0.8574455E-01
        2   -1    0    0  501    0  0.00000000000E+00  0.00000000000E+00  0.98954170667E+03  0.98954170667E+03  0.25500000920E-02 0.  1.
       -2   -1    0    0    0  501  0.00000000000E+00  0.00000000000E+00 -0.10828259382E+04  0.10828259382E+04  0.25500000920E-02 0. -1.
    10030    2    1    2    0    0  0.00000000000E+00  0.00000000000E+00 -0.93284231552E+02  0.20723676449E+04  0.20702670619E+04 0.  0.
        2    1    3    3  502    0  0.91587773062E+01  0.53519371270E+03 -0.93353500786E+03  0.10761058518E+04  0.25500000920E-02 0. -1.
       -2    1    3    3    0  502 -0.91587773062E+01 -0.53519371270E+03  0.84025077631E+03  0.99626179311E+03  0.25500000920E-02 0.  1.
</event>
<event>
 5   0  0.4133418E-05  0.2188364E+04  0.7818609E-02  0.8523287E-01
       -1   -1    0    0    0  501  0.00000000000E+00  0.00000000000E+00  0.60315864656E+03  0.60315864659E+03  0.50400001928E-02 0. -1.
        1   -1    0    0  501    0  0.00000000000E+00  0.00000000000E+00 -0.19849413880E+04  0.19849413880E+04  0.50400001928E-02 0.  1.
    10030    2    1    2    0    0  0.00000000000E+00  0.00000000000E+00 -0.13817827415E+04  0.25881000346E+04  0.21883642852E+04 0.  0.
        4    1    3    3  502    0  0.49086589335E+02  0.63153520631E+03 -0.17460417425E+04  0.18573932242E+04  0.12699999809E+01 0.  1.
       -4    1    3    3    0  502 -0.49086589335E+02 -0.63153520631E+03  0.36425900100E+03  0.73070681040E+03  0.12699999809E+01 0. -1.
</event>
<event>
 5   0  0.9457742E-05  0.2231997E+04  0.7818609E-02  0.8505227E-01
       -2   -1    0    0    0  501  0.00000000000E+00  0.00000000000E+00  0.61936807643E+03  0.61936807644E+03  0.25500000920E-02 0.  1.
        2   -1    0    0  501    0  0.00000000000E+00  0.00000000000E+00 -0.20108438282E+04  0.20108438282E+04  0.25500000920E-02 0. -1.
    10030    2    1    2    0    0  0.00000000000E+00  0.00000000000E+00 -0.13914757517E+04  0.26302119046E+04  0.22319968404E+04 0.  0.
        1    1    3    3  502    0 -0.35439051785E+03  0.74837970435E+03  0.18593772231E+03  0.84866816697E+03  0.50400001928E-02 0.  1.
       -1    1    3    3    0  502  0.35439051785E+03 -0.74837970435E+03 -0.15774134740E+04  0.17815437376E+04  0.50400001928E-02 0. -1.
</event>
<event>
 5   0  0.3283125E-05  0.2191776E+04  0.7818609E-02  0.8521859E-01
        3   -1    0    0  501    0  0.00000000000E+00  0.00000000000E+00  0.60778780398E+03  0.60778781237E+03  0.10100000352E+00 0. -1.
       -3   -1    0    0    0  501  0.00000000000E+00  0.00000000000E+00 -0.19759695317E+04  0.19759695343E+04  0.10100000352E+00 0.  1.
    10030    2    1    2    0    0  0.00000000000E+00  0.00000000000E+00 -0.13681817277E+04  0.25837573466E+04  0.21917757153E+04 0.  0.
        5    1    3    3  502    0 -0.81098844275E+03 -0.43995906896E+03  0.13004463681E+02  0.92274451649E+03  0.46999998093E+01 0. -1.
       -5    1    3    3    0  502  0.81098844275E+03  0.43995906896E+03 -0.13811861914E+04  0.16610128301E+04  0.46999998093E+01 0.  1.
</event>
<event>
 5   0  0.4174030E-05  0.1980414E+04  0.7818609E-02  0.8615833E-01
       -1   -1    0    0    0  501  0.00000000000E+00  0.00000000000E+00  0.79044797135E+03  0.79044797137E+03  0.50400001928E-02 0. -1.
        1   -1    0    0  501    0  0.00000000000E+00  0.00000000000E+00 -0.12404488307E+04  0.12404488307E+04  0.50400001928E-02 0.  1.
    10030    2    1    2    0    0  0.00000000000E+00  0.00000000000E+00 -0.45000085934E+03  0.20308968021E+04  0.19804143625E+04 0.  0.
        2    1    3    3  502    0 -0.75136146916E+03 -0.74549372133E+02 -0.88196207062E+03  0.11610162618E+04  0.25500000920E-02 0.  1.
       -2    1    3    3    0  502  0.75136146916E+03  0.74549372133E+02  0.43196121128E+03  0.86988054023E+03  0.25500000920E-02 0. -1.
</event>
<event>
 5   0  0.4063293E-05  0.2191840E+04  0.7818609E-02  0.8521832E-01
       -1   -1    0    0    0  501  0.00000000000E+00  0.00000000000E+00  0.78813927297E+03  0.78813927298E+03  0.50400001928E-02 0. -1.
        1   -1    0    0  501    0  0.00000000000E+00  0.00000000000E+00 -0.15238937949E+04  0.15238937949E+04  0.50400001928E-02 0.  1.
    10030    2    1    2    0    0  0.00000000000E+00  0.00000000000E+00 -0.73575452191E+03  0.23120330679E+04  0.21918399099E+04 0.  0.
        1    1    3    3  502    0  0.12711161308E+03  0.37819039457E+03 -0.14445628368E+04  0.14986484332E+04  0.50400001928E-02 0.  1.
       -1    1    3    3    0  502 -0.12711161308E+03 -0.37819039457E+03  0.70880831488E+03  0.81338463472E+03  0.50400001928E-02 0. -1.
</event>
<event>
 5   0  0.4188865E-05  0.2189029E+04  0.7818609E-02  0.8523008E-01
        1   -1    0    0  501    0  0.00000000000E+00  0.00000000000E+00  0.46441438938E+03  0.46441438941E+03  0.50400001928E-02 0. -1.
       -1   -1    0    0    0  501  0.00000000000E+00  0.00000000000E+00 -0.25795115003E+04  0.25795115003E+04  0.50400001928E-02 0.  1.
    10030    2    1    2    0    0  0.00000000000E+00  0.00000000000E+00 -0.21150971109E+04  0.30439258897E+04  0.21890292445E+04 0.  0.
        3    1    3    3  502    0  0.55152158305E+03 -0.93181529101E+03 -0.83546952004E+03  0.13676494881E+04  0.10100000352E+00 0.  1.
       -3    1    3    3    0  502 -0.55152158305E+03  0.93181529101E+03 -0.12796275909E+04  0.16762764016E+04  0.10100000352E+00 0. -1.
</event>
<event>
 5   0  0.4174030E-05  0.2204294E+04  0.7818609E-02  0.8516643E-01
       -1   -1    0    0    0  501  0.00000000000E+00  0.00000000000E+00  0.66055369768E+03  0.66055369770E+03  0.50400001928E-02 0. -1.
        1   -1    0    0  501    0  0.00000000000E+00  0.00000000000E+00 -0.18389533909E+04  0.18389533909E+04  0.50400001928E-02 0.  1.
    10030    2    1    2    0    0  0.00000000000E+00  0.00000000000E+00 -0.11783996933E+04  0.24995070886E+04  0.22042935034E+04 0.  0.
        2    1    3    3  502    0 -0.26744956368E+03  0.10474462145E+04 -0.34585533379E+03  0.11350280848E+04  0.25500000920E-02 0. -1.
       -2    1    3    3    0  502  0.26744956368E+03 -0.10474462145E+04 -0.83254435946E+03  0.13644790038E+04  0.25500000920E-02 0.  1.
</event>
<event>
 5   0  0.4188865E-05  0.2120588E+04  0.7818609E-02  0.8552228E-01
        1   -1    0    0  501    0  0.00000000000E+00  0.00000000000E+00  0.16607889090E+04  0.16607889090E+04  0.50400001928E-02 0. -1.
       -1   -1    0    0    0  501  0.00000000000E+00  0.00000000000E+00 -0.67692136982E+03  0.67692136984E+03  0.50400001928E-02 0.  1.
    10030    2    1    2    0    0  0.00000000000E+00  0.00000000000E+00  0.98386753914E+03  0.23377102788E+04  0.21205881290E+04 0.  0.
        3    1    3    3  502    0  0.49708071935E+03  0.10363654501E+02  0.15243166739E+04  0.16033521071E+04  0.10100000352E+00 0. -1.
       -3    1    3    3    0  502 -0.49708071935E+03 -0.10363654501E+02 -0.54044913474E+03  0.73435817169E+03  0.10100000352E+00 0.  1.
</event>
<event>
 5   0  0.4063293E-05  0.2198699E+04  0.7818609E-02  0.8518970E-01
       -1   -1    0    0    0  501  0.00000000000E+00  0.00000000000E+00  0.63765277185E+03  0.63765277187E+03  0.50400001928E-02 0. -1.
        1   -1    0    0  501    0  0.00000000000E+00  0.00000000000E+00 -0.18953403137E+04  0.18953403137E+04  0.50400001928E-02 0.  1.
    10030    2    1    2    0    0  0.00000000000E+00  0.00000000000E+00 -0.12576875418E+04  0.25329930856E+04  0.21986987103E+04 0.  0.
        1    1    3    3  502    0  0.81709577775E+02  0.72800524001E+03 -0.15731674949E+04  0.17353743261E+04  0.50400001928E-02 0.  1.
       -1    1    3    3    0  502 -0.81709577775E+02 -0.72800524001E+03  0.31547995311E+03  0.79761875945E+03  0.50400001928E-02 0. -1.
</event>
<event>
 5   0  0.4174030E-05  0.2253541E+04  0.7818609E-02  0.8496468E-01
        1   -1    0    0  501    0  0.00000000000E+00  0.00000000000E+00  0.59568894447E+03  0.59568894449E+03  0.50400001928E-02 0. -1.
       -1   -1    0    0    0  501  0.00000000000E+00  0.00000000000E+00 -0.21313335499E+04  0.21313335499E+04  0.50400001928E-02 0.  1.
    10030    2    1    2    0    0  0.00000000000E+00  0.00000000000E+00 -0.15356446054E+04  0.27270224944E+04  0.22535410648E+04 0.  0.
        2    1    3    3  502    0 -0.11118288019E+04 -0.27111778510E+02 -0.98669255893E+03  0.14867617627E+04  0.25500000920E-02 0.  1.
       -2    1    3    3    0  502  0.11118288019E+04  0.27111778510E+02 -0.54895204648E+03  0.12402607317E+04  0.25500000920E-02 0. -1.
</event>
<event>
 5   0  0.9254673E-05  0.2149957E+04  0.7818609E-02  0.8539551E-01
        2   -1    0    0  501    0  0.00000000000E+00  0.00000000000E+00  0.10205864594E+04  0.10205864594E+04  0.25500000920E-02 0. -1.
       -2   -1    0    0    0  501  0.00000000000E+00  0.00000000000E+00 -0.11322695249E+04  0.11322695249E+04  0.25500000920E-02 0.  1.
    10030    2    1    2    0    0  0.00000000000E+00  0.00000000000E+00 -0.11168306554E+03  0.21528559843E+04  0.21499571582E+04 0.  0.
        2    1    3    3  502    0  0.10081502010E+04 -0.11425730063E+03 -0.41150684882E+03  0.10948787353E+04  0.25500000920E-02 0.  1.
       -2    1    3    3    0  502 -0.10081502010E+04  0.11425730063E+03  0.29982378328E+03  0.10579772490E+04  0.25500000920E-02 0. -1.
</event>
<event>
 5   0  0.4174030E-05  0.2194985E+04  0.7818609E-02  0.8520518E-01
       -1   -1    0    0    0  501  0.00000000000E+00  0.00000000000E+00  0.55520145996E+03  0.55520145998E+03  0.50400001928E-02 0. -1.
        1   -1    0    0  501    0  0.00000000000E+00  0.00000000000E+00 -0.21694640425E+04  0.21694640426E+04  0.50400001928E-02 0.  1.
    10030    2    1    2    0    0  0.00000000000E+00  0.00000000000E+00 -0.16142625826E+04  0.27246655025E+04  0.21949848326E+04 0.  0.
        2    1    3    3  502    0  0.88333313732E+03  0.31451288170E+03 -0.15151089865E+04  0.17817831027E+04  0.25500000920E-02 0.  1.
       -2    1    3    3    0  502 -0.88333313732E+03 -0.31451288170E+03 -0.99153596116E+02  0.94288239981E+03  0.25500000920E-02 0. -1.
</event>
<event>
 5   0  0.4174075E-05  0.2220120E+04  0.7818609E-02  0.8510100E-01
        1   -1    0    0  501    0  0.00000000000E+00  0.00000000000E+00  0.11581050394E+04  0.11581050394E+04  0.50400001928E-02 0.  1.
       -1   -1    0    0    0  501  0.00000000000E+00  0.00000000000E+00 -0.10640081477E+04  0.10640081477E+04  0.50400001928E-02 0. -1.
    10030    2    1    2    0    0  0.00000000000E+00  0.00000000000E+00  0.94096891742E+02  0.22221131871E+04  0.22201199948E+04 0.  0.
        5    1    3    3  502    0  0.10921663719E+04  0.19821316154E+03  0.56817664446E+02  0.11114702777E+04  0.46999998093E+01 0. -1.
       -5    1    3    3    0  502 -0.10921663719E+04 -0.19821316154E+03  0.37279227296E+02  0.11106429094E+04  0.46999998093E+01 0.  1.
</event>
<event>
 5   0  0.3283125E-05  0.2152084E+04  0.7818609E-02  0.8538641E-01
        3   -1    0    0  501    0  0.00000000000E+00  0.00000000000E+00  0.83585650389E+03  0.83585651000E+03  0.10100000352E+00 0. -1.
       -3   -1    0    0    0  501  0.00000000000E+00  0.00000000000E+00 -0.13852451366E+04  0.13852451403E+04  0.10100000352E+00 0.  1.
    10030    2    1    2    0    0  0.00000000000E+00  0.00000000000E+00 -0.54938863268E+03  0.22211016503E+04  0.21520837974E+04 0.  0.
        1    1    3    3  502    0  0.29270687346E+03 -0.19427820598E+03 -0.13243888226E+04  0.13701923546E+04  0.50400001928E-02 0.  1.
       -1    1    3    3    0  502 -0.29270687346E+03  0.19427820598E+03  0.77500018991E+03  0.85090929568E+03  0.50400001928E-02 0. -1.
</event>
<event>
 5   0  0.9179618E-05  0.2205749E+04  0.7818609E-02  0.8516039E-01
       -2   -1    0    0    0  501  0.00000000000E+00  0.00000000000E+00  0.12360036731E+04  0.12360036731E+04  0.25500000920E-02 0. -1.
        2   -1    0    0  501    0  0.00000000000E+00  0.00000000000E+00 -0.98408472228E+03  0.98408472228E+03  0.25500000920E-02 0.  1.
    10030    2    1    2    0    0  0.00000000000E+00  0.00000000000E+00  0.25191895084E+03  0.22200883954E+04  0.22057491529E+04 0.  0.
        3    1    3    3  502    0  0.57042205949E+03  0.88935350972E+03  0.44424510700E+03  0.11461608598E+04  0.10100000352E+00 0. -1.
       -3    1    3    3    0  502 -0.57042205949E+03 -0.88935350972E+03 -0.19232615616E+03  0.10739275356E+04  0.10100000352E+00 0.  1.
</event>
<event>
 5   0  0.9179618E-05  0.2386890E+04  0.7818609E-02  0.8444428E-01
        2   -1    0    0  501    0  0.00000000000E+00  0.00000000000E+00  0.13834609264E+04  0.13834609265E+04  0.25500000920E-02 0. -1.
       -2   -1    0    0    0  501  0.00000000000E+00  0.00000000000E+00 -0.10295270352E+04  0.10295270352E+04  0.25500000920E-02 0.  1.
    10030    2    1    2    0    0  0.00000000000E+00  0.00000000000E+00  0.35393389126E+03  0.24129879616E+04  0.23868895458E+04 0.  0.
        3    1    3    3  502    0  0.29607442779E+03 -0.72237830498E+03 -0.73557672108E+03  0.10726432795E+04  0.10100000352E+00 0.  1.
       -3    1    3    3    0  502 -0.29607442779E+03  0.72237830498E+03  0.10895106123E+04  0.13403446821E+04  0.10100000352E+00 0. -1.
</event>
<event>
 5   0  0.9442578E-05  0.2182365E+04  0.7818609E-02  0.8525804E-01
        2   -1    0    0  501    0  0.00000000000E+00  0.00000000000E+00  0.15025363668E+04  0.15025363668E+04  0.25500000920E-02 0. -1.
       -2   -1    0    0    0  501  0.00000000000E+00  0.00000000000E+00 -0.79244642517E+03  0.79244642517E+03  0.25500000920E-02 0.  1.
    10030    2    1    2    0    0  0.00000000000E+00  0.00000000000E+00  0.71008994166E+03  0.22949827920E+04  0.21823652972E+04 0.  0.
        4    1    3    3  502    0  0.10599706311E+04  0.25313053337E+03  0.29682417593E+03  0.11294773172E+04  0.12699999809E+01 0. -1.
       -4    1    3    3    0  502 -0.10599706311E+04 -0.25313053337E+03  0.41326576574E+03  0.11655054748E+04  0.12699999809E+01 0.  1.
</event>
<event>
 5   0  0.9179618E-05  0.2125633E+04  0.7818609E-02  0.8550035E-01
       -2   -1    0    0    0  501  0.00000000000E+00  0.00000000000E+00  0.73049770540E+03  0.73049770540E+03  0.25500000920E-02 0.  1.
        2   -1    0    0  501    0  0.00000000000E+00  0.00000000000E+00 -0.15463142847E+04  0.15463142847E+04  0.25500000920E-02 0. -1.
    10030    2    1    2    0    0  0.00000000000E+00  0.00000000000E+00 -0.81581657935E+03  0.22768119901E+04  0.21256331168E+04 0.  0.
        3    1    3    3  502    0 -0.30498708069E+02  0.24577347594E+03 -0.15149759005E+04  0.15350852621E+04  0.10100000352E+00 0. -1.
       -3    1    3    3    0  502  0.30498708069E+02 -0.24577347594E+03  0.69915932110E+03  0.74172672808E+03  0.10100000352E+00 0.  1.
</event>
<event>
 5   0  0.9457742E-05  0.2217854E+04  0.7818609E-02  0.8511033E-01
        2   -1    0    0  501    0  0.00000000000E+00  0.00000000000E+00  0.12084166559E+04  0.12084166559E+04  0.25500000920E-02 0.  1.
       -2   -1    0    0    0  501  0.00000000000E+00  0.00000000000E+00 -0.10176283196E+04  0.10176283197E+04  0.25500000920E-02 0. -1.
    10030    2    1    2    0    0  0.00000000000E+00  0.00000000000E+00  0.19078833628E+03  0.22260449756E+04  0.22178539276E+04 0.  0.
        1    1    3    3  502    0  0.34744405589E+03  0.10463520259E+04 -0.23995033592E+02  0.11027899600E+04  0.50400001928E-02 0. -1.
       -1    1    3    3    0  502 -0.34744405589E+03 -0.10463520259E+04  0.21478336988E+03  0.11232550156E+04  0.50400001928E-02 0.  1.
</event>
<event>
 5   0  0.9179618E-05  0.2157995E+04  0.7818609E-02  0.8536118E-01
       -2   -1    0    0    0  501  0.00000000000E+00  0.00000000000E+00  0.55390561543E+03  0.55390561543E+03  0.25500000920E-02 0. -1.
        2   -1    0    0  501    0  0.00000000000E+00  0.00000000000E+00 -0.21018671961E+04  0.21018671961E+04  0.25500000920E-02 0.  1.
    10030    2    1    2    0    0  0.00000000000E+00  0.00000000000E+00 -0.15479615807E+04  0.26557728116E+04  0.21579954058E+04 0.  0.
        3    1    3    3  502    0 -0.95916396893E+03  0.33537656731E+03 -0.12207027067E+04  0.15882657427E+04  0.10100000352E+00 0. -1.
       -3    1    3    3    0  502  0.95916396893E+03 -0.33537656731E+03 -0.32725887400E+03  0.10675070688E+04  0.10100000352E+00 0.  1.
</event>
<event>
 5   0  0.9938176E-05  0.2214482E+04  0.7818609E-02  0.8512424E-01
        2   -1    0    0  501    0  0.00000000000E+00  0.00000000000E+00  0.12034811491E+04  0.12034811491E+04  0.25500000920E-02 0. -1.
       -2   -1    0    0    0  501  0.00000000000E+00  0.00000000000E+00 -0.10186973687E+04  0.10186973687E+04  0.25500000920E-02 0.  1.
    10030    2    1    2    0    0  0.00000000000E+00  0.00000000000E+00  0.18478378040E+03  0.22221785177E+04  0.22144824043E+04 0.  0.
        5    1    3    3  502    0 -0.56041807419E+03 -0.14074577147E+03  0.10401759303E+04  0.11899016119E+04  0.46999998093E+01 0. -1.
       -5    1    3    3    0  502  0.56041807419E+03  0.14074577147E+03 -0.85539214993E+03  0.10322769058E+04  0.46999998093E+01 0.  1.
</event>
<event>
 5   0  0.4188865E-05  0.2204267E+04  0.7818609E-02  0.8516654E-01
        1   -1    0    0  501    0  0.00000000000E+00  0.00000000000E+00  0.16639409539E+04  0.16639409539E+04  0.50400001928E-02 0.  1.
       -1   -1    0    0    0  501  0.00000000000E+00  0.00000000000E+00 -0.73001256069E+03  0.73001256071E+03  0.50400001928E-02 0. -1.
    10030    2    1    2    0    0  0.00000000000E+00  0.00000000000E+00  0.93392839317E+03  0.23939535146E+04  0.22042665870E+04 0.  0.
        3    1    3    3  502    0 -0.98008983079E+02 -0.10977419878E+04  0.47498586013E+03  0.12001061662E+04  0.10100000352E+00 0. -1.
       -3    1    3    3    0  502  0.98008983079E+02  0.10977419878E+04  0.45894253304E+03  0.11938473484E+04  0.10100000352E+00 0.  1.
</event>
<event>
 5   0  0.4063293E-05  0.2205551E+04  0.7818609E-02  0.8516121E-01
        1   -1    0    0  501    0  0.00000000000E+00  0.00000000000E+00  0.83130652877E+03  0.83130652879E+03  0.50400001928E-02 0.  1.
       -1   -1    0    0    0  501  0.00000000000E+00  0.00000000000E+00 -0.14628945263E+04  0.14628945263E+04  0.50400001928E-02 0. -1.
    10030    2    1    2    0    0  0.00000000000E+00  0.00000000000E+00 -0.63158799753E+03  0.22942010551E+04  0.22055509703E+04 0.  0.
        1    1    3    3  502    0 -0.28421340872E+02  0.88829130847E+03 -0.99490973761E+03  0.13340594467E+04  0.50400001928E-02 0. -1.
       -1    1    3    3    0  502  0.28421340872E+02 -0.88829130847E+03  0.36332174008E+03  0.96014160839E+03  0.50400001928E-02 0.  1.
</event>
<event>
 5   0  0.4188865E-05  0.2182489E+04  0.7818609E-02  0.8525752E-01
        1   -1    0    0  501    0  0.00000000000E+00  0.00000000000E+00  0.18270664563E+04  0.18270664563E+04  0.50400001928E-02 0. -1.
       -1   -1    0    0    0  501  0.00000000000E+00  0.00000000000E+00 -0.65176336375E+03  0.65176336377E+03  0.50400001928E-02 0.  1.
    10030    2    1    2    0    0  0.00000000000E+00  0.00000000000E+00  0.11753030926E+04  0.24788298201E+04  0.21824893854E+04 0.  0.
        3    1    3    3  502    0 -0.26831437338E+03  0.27434053024E+03 -0.57260281328E+03  0.68929625087E+03  0.10100000352E+00 0.  1.
       -3    1    3    3    0  502  0.26831437338E+03 -0.27434053024E+03  0.17479059058E+04  0.17895335692E+04  0.10100000352E+00 0. -1.
</event>
<event>
 5   0  0.4063293E-05  0.2194654E+04  0.7818609E-02  0.8520656E-01
        1   -1    0    0  501    0  0.00000000000E+00  0.00000000000E+00  0.96954227309E+03  0.96954227311E+03  0.50400001928E-02 0. -1.
       -1   -1    0    0    0  501  0.00000000000E+00  0.00000000000E+00 -0.12419537608E+04  0.12419537608E+04  0.50400001928E-02 0.  1.
    10030    2    1    2    0    0  0.00000000000E+00  0.00000000000E+00 -0.27241148766E+03  0.22114960339E+04  0.21946541161E+04 0.  0.
        1    1    3    3  502    0 -0.61150995614E+03 -0.47348386277E+03  0.64822517050E+03  0.10091220275E+04  0.50400001928E-02 0. -1.
       -1    1    3    3    0  502  0.61150995614E+03  0.47348386277E+03 -0.92063665816E+03  0.12023740063E+04  0.50400001928E-02 0.  1.
</event>
<event>
 5   0  0.4133418E-05  0.2369393E+04  0.7818609E-02  0.8451052E-01
        1   -1    0    0  501    0  0.00000000000E+00  0.00000000000E+00  0.95053865453E+03  0.95053865454E+03  0.50400001928E-02 0. -1.
       -1   -1    0    0    0  501  0.00000000000E+00  0.00000000000E+00 -0.14765376938E+04  0.14765376938E+04  0.50400001928E-02 0.  1.
    10030    2    1    2    0    0  0.00000000000E+00  0.00000000000E+00 -0.52599903927E+03  0.24270763484E+04  0.23693933003E+04 0.  0.
        4    1    3    3  502    0 -0.13246470029E+03  0.41268364686E+03 -0.13924066689E+04  0.14583047123E+04  0.12699999809E+01 0.  1.
       -4    1    3    3    0  502  0.13246470029E+03 -0.41268364686E+03  0.86640762968E+03  0.96877163608E+03  0.12699999809E+01 0. -1.
</event>
<event>
 5   0  0.9442578E-05  0.2237710E+04  0.7818609E-02  0.8502894E-01
       -2   -1    0    0    0  501  0.00000000000E+00  0.00000000000E+00  0.49528869269E+03  0.49528869270E+03  0.25500000920E-02 0. -1.
        2   -1    0    0  501    0  0.00000000000E+00  0.00000000000E+00 -0.25274876126E+04  0.25274876126E+04  0.25500000920E-02 0.  1.
    10030    2    1    2    0    0  0.00000000000E+00  0.00000000000E+00 -0.20321989199E+04  0.30227763053E+04  0.22377095750E+04 0.  0.
        4    1    3    3  502    0  0.36817107660E+02 -0.81604837835E+03 -0.20488867401E+04  0.22057263978E+04  0.12699999809E+01 0.  1.
       -4    1    3    3    0  502 -0.36817107660E+02  0.81604837835E+03  0.16687820143E+02  0.81704990757E+03  0.12699999809E+01 0. -1.
</event>
<event>
 5   0  0.9938176E-05  0.2200539E+04  0.7818609E-02  0.8518204E-01
        2   -1    0    0  501    0  0.00000000000E+00  0.00000000000E+00  0.14752747085E+04  0.14752747085E+04  0.25500000920E-02 0. -1.
       -2   -1    0    0    0  501  0.00000000000E+00  0.00000000000E+00 -0.82058809471E+03  0.82058809471E+03  0.25500000920E-02 0.  1.
    10030    2    1    2    0    0  0.00000000000E+00  0.00000000000E+00  0.65468661380E+03  0.22958628032E+04  0.22005388997E+04 0.  0.
        5    1    3    3  502    0 -0.52078337315E+03 -0.80034495644E+03 -0.24296493774E+03  0.98530270578E+03  0.46999998093E+01 0.  1.
       -5    1    3    3    0  502  0.52078337315E+03  0.80034495644E+03  0.89765155154E+03  0.13105600975E+04  0.46999998093E+01 0. -1.
</event>
<event>
 5   0  0.4063293E-05  0.2182782E+04  0.7818609E-02  0.8525629E-01
        1   -1    0    0  501    0  0.00000000000E+00  0.00000000000E+00  0.78045332991E+03  0.78045332992E+03  0.50400001928E-02 0.  1.
       -1   -1    0    0    0  501  0.00000000000E+00  0.00000000000E+00 -0.15262086286E+04  0.15262086286E+04  0.50400001928E-02 0. -1.
    10030    2    1    2    0    0  0.00000000000E+00  0.00000000000E+00 -0.74575529873E+03  0.23066619586E+04  0.21827822671E+04 0.  0.
        1    1    3    3  502    0 -0.40418488397E+03 -0.23001776236E+03 -0.14162633678E+04  0.14906627783E+04  0.50400001928E-02 0. -1.
       -1    1    3    3    0  502  0.40418488397E+03  0.23001776236E+03  0.67050806912E+03  0.81599918028E+03  0.50400001928E-02 0.  1.
</event>
<event>
 5   0  0.9179618E-05  0.2260833E+04  0.7818609E-02  0.8493526E-01
       -2   -1    0    0    0  501  0.00000000000E+00  0.00000000000E+00  0.74143808325E+03  0.74143808325E+03  0.25500000920E-02 0. -1.
        2   -1    0    0  501    0  0.00000000000E+00  0.00000000000E+00 -0.17234633148E+04  0.17234633148E+04  0.25500000920E-02 0.  1.
    10030    2    1    2    0    0  0.00000000000E+00  0.00000000000E+00 -0.98202523160E+03  0.24649013981E+04  0.22608328879E+04 0.  0.
        3    1    3    3  502    0  0.35009969407E+03 -0.55685600119E+03 -0.14933327311E+04  0.16317784953E+04  0.10100000352E+00 0.  1.
       -3    1    3    3    0  502 -0.35009969407E+03  0.55685600119E+03  0.51130749951E+03  0.83312290276E+03  0.10100000352E+00 0. -1.
</event>
<event>
 5   0  0.9457742E-05  0.2205692E+04  0.7818609E-02  0.8516063E-01
        2   -1    0    0  501    0  0.00000000000E+00  0.00000000000E+00  0.93705416842E+03  0.93705416842E+03  0.25500000920E-02 0.  1.
       -2   -1    0    0    0  501  0.00000000000E+00  0.00000000000E+00 -0.12979711451E+04  0.12979711451E+04  0.25500000920E-02 0. -1.
    10030    2    1    2    0    0  0.00000000000E+00  0.00000000000E+00 -0.36091697668E+03  0.22350253135E+04  0.22056919749E+04 0.  0.
        1    1    3    3  502    0 -0.91730876462E+03  0.13632006112E+02 -0.80066702703E+03  0.12176653438E+04  0.50400001928E-02 0. -1.
       -1    1    3    3    0  502  0.91730876462E+03 -0.13632006112E+02  0.43975005035E+03  0.10173599697E+04  0.50400001928E-02 0.  1.
</event>
<event>
 5   0  0.9254673E-05  0.2248922E+04  0.7818609E-02  0.8498337E-01
        2   -1    0    0  501    0  0.00000000000E+00  0.00000000000E+00  0.12215927045E+04  0.12215927045E+04  0.25500000920E-02 0. -1.
       -2   -1    0    0    0  501  0.00000000000E+00  0.00000000000E+00 -0.10350528118E+04  0.10350528118E+04  0.25500000920E-02 0.  1.
    10030    2    1    2    0    0  0.00000000000E+00  0.00000000000E+00  0.18653989272E+03  0.22566455163E+04  0.22489223764E+04 0.  0.
        2    1    3    3  502    0  0.24663144508E+03  0.84792066834E+03 -0.60526469266E+03  0.10705801594E+04  0.25500000920E-02 0.  1.
       -2    1    3    3    0  502 -0.24663144508E+03 -0.84792066834E+03  0.79180458539E+03  0.11860653569E+04  0.25500000920E-02 0. -1.
</event>
<event>
 5   0  0.4174030E-05  0.2203850E+04  0.7818609E-02  0.8516827E-01
       -1   -1    0    0    0  501  0.00000000000E+00  0.00000000000E+00  0.11552033187E+04  0.11552033187E+04  0.50400001928E-02 0. -1.
        1   -1    0    0  501    0  0.00000000000E+00  0.00000000000E+00 -0.10511042193E+04  0.10511042193E+04  0.50400001928E-02 0.  1.
    10030    2    1    2    0    0  0.00000000000E+00  0.00000000000E+00  0.10409909941E+03  0.22063075381E+04  0.22038503421E+04 0.  0.
        2    1    3    3  502    0  0.55202751270E+03  0.19716624971E+03 -0.88206644343E+03  0.10590798437E+04  0.25500000920E-02 0.  1.
       -2    1    3    3    0  502 -0.55202751270E+03 -0.19716624971E+03  0.98616554283E+03  0.11472276943E+04  0.25500000920E-02 0. -1.
</event>
<event>
 5   0  0.4133418E-05  0.2211164E+04  0.7818609E-02  0.8513796E-01
        1   -1    0    0  501    0  0.00000000000E+00  0.00000000000E+00  0.84457420248E+03  0.84457420250E+03  0.50400001928E-02 0. -1.
       -1   -1    0    0    0  501  0.00000000000E+00  0.00000000000E+00 -0.14472522832E+04  0.14472522833E+04  0.50400001928E-02 0.  1.
    10030    2    1    2    0    0  0.00000000000E+00  0.00000000000E+00 -0.60267808076E+03  0.22918264857E+04  0.22111643475E+04 0.  0.
        4    1    3    3  502    0 -0.73274571165E+01  0.31283231019E+03  0.79771664483E+03  0.85689626226E+03  0.12699999809E+01 0. -1.
       -4    1    3    3    0  502  0.73274571165E+01 -0.31283231019E+03 -0.14003947256E+04  0.14349302235E+04  0.12699999809E+01 0.  1.
</event>
<event>
 5   0  0.9938176E-05  0.2201948E+04  0.7818609E-02  0.8517618E-01
       -2   -1    0    0    0  501  0.00000000000E+00  0.00000000000E+00  0.78937729199E+03  0.78937729200E+03  0.25500000920E-02 0.  1.
        2   -1    0    0  501    0  0.00000000000E+00  0.00000000000E+00 -0.15355694323E+04  0.15355694323E+04  0.25500000920E-02 0. -1.
    10030    2    1    2    0    0  0.00000000000E+00  0.00000000000E+00 -0.74619214031E+03  0.23249467243E+04  0.22019479014E+04 0.  0.
        5    1    3    3  502    0 -0.19522513123E+03 -0.27889857366E+03 -0.14785882520E+04  0.15172813105E+04  0.46999998093E+01 0. -1.
       -5    1    3    3    0  502  0.19522513123E+03  0.27889857366E+03  0.73239611168E+03  0.80766541381E+03  0.46999998093E+01 0.  1.
</event>
<event>
 5   0  0.4174030E-05  0.2172617E+04  0.7818609E-02  0.8529913E-01
        1   -1    0    0  501    0  0.00000000000E+00  0.00000000000E+00  0.85921888098E+03  0.85921888100E+03  0.50400001928E-02 0.  1.
       -1   -1    0    0    0  501  0.00000000000E+00  0.00000000000E+00 -0.13734172080E+04  0.13734172080E+04  0.50400001928E-02 0. -1.
    10030    2    1    2    0    0  0.00000000000E+00  0.00000000000E+00 -0.51419832697E+03  0.22326360890E+04  0.21726168522E+04 0.  0.
        2    1    3    3  502    0 -0.65679024872E+03 -0.36168721983E+03  0.55066592771E+03  0.93028169914E+03  0.25500000920E-02 0.  1.
       -2    1    3    3    0  502  0.65679024872E+03  0.36168721983E+03 -0.10648642547E+04  0.13023543898E+04  0.25500000920E-02 0. -1.
</event>
<event>
 5   0  0.4174075E-05  0.2193278E+04  0.7818609E-02  0.8521231E-01
        1   -1    0    0  501    0  0.00000000000E+00  0.00000000000E+00  0.12762223705E+04  0.12762223705E+04  0.50400001928E-02 0.  1.
       -1   -1    0    0    0  501  0.00000000000E+00  0.00000000000E+00 -0.94232591906E+03  0.94232591907E+03  0.50400001928E-02 0. -1.
    10030    2    1    2    0    0  0.00000000000E+00  0.00000000000E+00  0.33389645147E+03  0.22185482896E+04  0.21932782936E+04 0.  0.
        5    1    3    3  502    0 -0.39452572392E+03  0.46062528083E+03 -0.75723554199E+03  0.97018243245E+03  0.46999998093E+01 0. -1.
       -5    1    3    3    0  502  0.39452572392E+03 -0.46062528083E+03  0.10911319935E+04  0.12483658572E+04  0.46999998093E+01 0.  1.
</event>
<event>
 5   0  0.4133418E-05  0.2063466E+04  0.7818609E-02  0.8577510E-01
        1   -1    0    0  501    0  0.00000000000E+00  0.00000000000E+00  0.13653395296E+04  0.13653395296E+04  0.50400001928E-02 0.  1.
       -1   -1    0    0    0  501  0.00000000000E+00  0.00000000000E+00 -0.77963967860E+03  0.77963967862E+03  0.50400001928E-02 0. -1.
    10030    2    1    2    0    0  0.00000000000E+00  0.00000000000E+00  0.58569985097E+03  0.21449792082E+04  0.20634658922E+04 0.  0.
        4    1    3    3  502    0 -0.61857423450E+02 -0.10014467580E+04  0.54265381073E+03  0.11407001013E+04  0.12699999809E+01 0.  1.
       -4    1    3    3    0  502  0.61857423450E+02  0.10014467580E+04  0.43046040240E+02  0.10042791069E+04  0.12699999809E+01 0. -1.
</event>
<event>
 5   0  0.4188865E-05  0.2202455E+04  0.7818609E-02  0.8517407E-01
        1   -1    0    0  501    0  0.00000000000E+00  0.00000000000E+00  0.17845923153E+04  0.17845923153E+04  0.50400001928E-02 0. -1.
       -1   -1    0    0    0  501  0.00000000000E+00  0.00000000000E+00 -0.67953979637E+03  0.67953979639E+03  0.50400001928E-02 0.  1.
    10030    2    1    2    0    0  0.00000000000E+00  0.00000000000E+00  0.11050525190E+04  0.24641321117E+04  0.22024545386E+04 0.  0.
        3    1    3    3  502    0  0.17693653884E+03 -0.77981628100E+03 -0.29458607574E+03  0.85217424105E+03  0.10100000352E+00 0.  1.
       -3    1    3    3    0  502 -0.17693653884E+03  0.77981628100E+03  0.13996385947E+04  0.16119578707E+04  0.10100000352E+00 0. -1.
</event>
<event>
 5   0  0.4174075E-05  0.2360957E+04  0.7818609E-02  0.8454267E-01
        1   -1    0    0  501    0  0.00000000000E+00  0.00000000000E+00  0.20770550924E+04  0.20770550924E+04  0.50400001928E-02 0. -1.
       -1   -1    0    0    0  501  0.00000000000E+00  0.00000000000E+00 -0.67091605442E+03  0.67091605444E+03  0.50400001928E-02 0.  1.
    10030    2    1    2    0    0  0.00000000000E+00  0.00000000000E+00  0.14061390380E+04  0.27479711468E+04  0.23609571004E+04 0.  0.
        5    1    3    3  502    0  0.23588928235E+03  0.53419568588E+03 -0.49101443798E+03  0.76297185574E+03  0.46999998093E+01 0.  1.
       -5    1    3    3    0  502 -0.23588928235E+03 -0.53419568588E+03  0.18971534759E+04  0.19849992911E+04  0.46999998093E+01 0. -1.
</event>
<event>
 5   0  0.4063293E-05  0.2212356E+04  0.7818609E-02  0.8513303E-01
       -1   -1    0    0    0  501  0.00000000000E+00  0.00000000000E+00  0.76844368646E+03  0.76844368647E+03  0.50400001928E-02 0. -1.
        1   -1    0    0  501    0  0.00000000000E+00  0.00000000000E+00 -0.15923483579E+04  0.15923483579E+04  0.50400001928E-02 0.  1.
    10030    2    1    2    0    0  0.00000000000E+00  0.00000000000E+00 -0.82390467144E+03  0.23607920444E+04  0.22123562482E+04 0.  0.
        1    1    3    3  502    0 -0.32960590106E+03 -0.54998351257E+02 -0.15372003740E+04  0.15731019860E+04  0.50400001928E-02 0.  1.
       -1    1    3    3    0  502  0.32960590106E+03  0.54998351257E+02  0.71329570256E+03  0.78769005832E+03  0.50400001928E-02 0. -1.
</event>
<event>
 5   0  0.3283125E-05  0.2215783E+04  0.7818609E-02  0.8511887E-01
       -3   -1    0    0    0  501  0.00000000000E+00  0.00000000000E+00  0.78292380663E+03  0.78292381314E+03  0.10100000352E+00 0. -1.
        3   -1    0    0  501    0  0.00000000000E+00  0.00000000000E+00 -0.15677434602E+04  0.15677434635E+04  0.10100000352E+00 0.  1.
    10030    2    1    2    0    0  0.00000000000E+00  0.00000000000E+00 -0.78481965357E+03  0.23506672766E+04  0.22157831023E+04 0.  0.
        1    1    3    3  502    0  0.10574754705E+04  0.10293685983E+03 -0.72548603394E+03  0.12865381274E+04  0.50400001928E-02 0.  1.
       -1    1    3    3    0  502 -0.10574754705E+04 -0.10293685983E+03 -0.59333619628E+02  0.10641291492E+04  0.50400001928E-02 0. -1.
</event>
<event>
 5   0  0.9457742E-05  0.1967366E+04  0.7818609E-02  0.8622032E-01
       -2   -1    0    0    0  501  0.00000000000E+00  0.00000000000E+00  0.72419450336E+03  0.72419450337E+03  0.25500000920E-02 0.  1.
        2   -1    0    0  501    0  0.00000000000E+00  0.00000000000E+00 -0.13361501406E+04  0.13361501406E+04  0.25500000920E-02 0. -1.
    10030    2    1    2    0    0  0.00000000000E+00  0.00000000000E+00 -0.61195563728E+03  0.20603446440E+04  0.19673663487E+04 0.  0.
        1    1    3    3  502    0 -0.83504226967E+03  0.50796127667E+03 -0.42218283528E+03  0.10646870889E+04  0.50400001928E-02 0. -1.
       -1    1    3    3    0  502  0.83504226967E+03 -0.50796127667E+03 -0.18977280200E+03  0.99565755516E+03  0.50400001928E-02 0.  1.
</event>
<event>
 5   0  0.4063293E-05  0.2180649E+04  0.7818609E-02  0.8526526E-01
       -1   -1    0    0    0  501  0.00000000000E+00  0.00000000000E+00  0.65583500981E+03  0.65583500982E+03  0.50400001928E-02 0.  1.
        1   -1    0    0  501    0  0.00000000000E+00  0.00000000000E+00 -0.18126633027E+04  0.18126633027E+04  0.50400001928E-02 0. -1.
    10030    2    1    2    0    0  0.00000000000E+00  0.00000000000E+00 -0.11568282929E+04  0.24684983125E+04  0.21806494949E+04 0.  0.
        1    1    3    3  502    0 -0.93287884204E+03  0.22224793123E+03  0.88655013808E+01  0.95902850531E+03  0.50400001928E-02 0.  1.
       -1    1    3    3    0  502  0.93287884204E+03 -0.22224793123E+03 -0.11656937942E+04  0.15094698072E+04  0.50400001928E-02 0. -1.
</event>
<event>
 5   0  0.9442578E-05  0.2184265E+04  0.7818609E-02  0.8525006E-01
       -2   -1    0    0    0  501  0.00000000000E+00  0.00000000000E+00  0.57350504741E+03  0.57350504741E+03  0.25500000920E-02 0.  1.
        2   -1    0    0  501    0  0.00000000000E+00  0.00000000000E+00 -0.20797607245E+04  0.20797607245E+04  0.25500000920E-02 0. -1.
    10030    2    1    2    0    0  0.00000000000E+00  0.00000000000E+00 -0.15062556771E+04  0.26532657719E+04  0.21842648859E+04 0.  0.
        4    1    3    3  502    0 -0.23316193971E+03  0.98397058258E+03 -0.25200837242E+03  0.10421479886E+04  0.12699999809E+01 0.  1.
       -4    1    3    3    0  502  0.23316193971E+03 -0.98397058258E+03 -0.12542473047E+04  0.16111177833E+04  0.12699999809E+01 0. -1.
</event>
<event>
 5   0  0.9938176E-05  0.2179370E+04  0.7818609E-02  0.8527064E-01
        2   -1    0    0  501    0  0.00000000000E+00  0.00000000000E+00  0.24279464879E+04  0.24279464879E+04  0.25500000920E-02 0.  1.
       -2   -1    0    0    0  501  0.00000000000E+00  0.00000000000E+00 -0.48906078761E+03  0.48906078762E+03  0.25500000920E-02 0. -1.
    10030    2    1    2    0    0  0.00000000000E+00  0.00000000000E+00  0.19388857003E+04  0.29170072755E+04  0.21793700206E+04 0.  0.
        5    1    3    3  502    0 -0.82973704518E+03  0.54244297164E+03  0.15749898273E+04  0.18610005340E+04  0.46999998093E+01 0.  1.
       -5    1    3    3    0  502  0.82973704518E+03 -0.54244297164E+03  0.36389587297E+03  0.10560067415E+04  0.46999998093E+01 0. -1.
</event>
<event>
 5   0  0.4174030E-05  0.2117945E+04  0.7818609E-02  0.8553379E-01
        1   -1    0    0  501    0  0.00000000000E+00  0.00000000000E+00  0.88417342024E+03  0.88417342025E+03  0.50400001928E-02 0. -1.
       -1   -1    0    0    0  501  0.00000000000E+00  0.00000000000E+00 -0.12683289812E+04  0.12683289812E+04  0.50400001928E-02 0.  1.
    10030    2    1    2    0    0  0.00000000000E+00  0.00000000000E+00 -0.38415556098E+03  0.21525024015E+04  0.21179450166E+04 0.  0.
        2    1    3    3  502    0 -0.11770930465E+03  0.44430929941E+03  0.77750972473E+03  0.90320961355E+03  0.25500000920E-02 0. -1.
       -2    1    3    3    0  502  0.11770930465E+03 -0.44430929941E+03 -0.11616652857E+04  0.12492927879E+04  0.25500000920E-02 0.  1.
</event>
<event>
 5   0  0.4063293E-05  0.2205710E+04  0.7818609E-02  0.8516055E-01
        1   -1    0    0  501    0  0.00000000000E+00  0.00000000000E+00  0.11607057729E+04  0.11607057729E+04  0.50400001928E-02 0. -1.
       -1   -1    0    0    0  501  0.00000000000E+00  0.00000000000E+00 -0.10478871994E+04  0.10478871994E+04  0.50400001928E-02 0.  1.
    10030    2    1    2    0    0  0.00000000000E+00  0.00000000000E+00  0.11281857351E+03  0.22085929724E+04  0.22057096108E+04 0.  0.
        1    1    3    3  502    0  0.84264971605E+03 -0.43108237893E+03  0.62318646844E+03  0.11332483999E+04  0.50400001928E-02 0. -1.
       -1    1    3    3    0  502 -0.84264971605E+03  0.43108237893E+03 -0.51036789493E+03  0.10753445725E+04  0.50400001928E-02 0.  1.
</event>
<event>
 5   0  0.9254673E-05  0.2028985E+04  0.7818609E-02  0.8593188E-01
       -2   -1    0    0    0  501  0.00000000000E+00  0.00000000000E+00  0.10709268052E+04  0.10709268052E+04  0.25500000920E-02 0. -1.
        2   -1    0    0  501    0  0.00000000000E+00  0.00000000000E+00 -0.96103242284E+03  0.96103242284E+03  0.25500000920E-02 0.  1.
    10030    2    1    2    0    0  0.00000000000E+00  0.00000000000E+00  0.10989438232E+03  0.20319592280E+04  0.20289853447E+04 0.  0.
        2    1    3    3  502    0 -0.26854410713E+03  0.58641715295E+03  0.83916221427E+03  0.10583922886E+04  0.25500000920E-02 0. -1.
       -2    1    3    3    0  502  0.26854410713E+03 -0.58641715295E+03 -0.72926783195E+03  0.97356693939E+03  0.25500000920E-02 0.  1.
</event>
<event>
 5   0  0.4188865E-05  0.2145476E+04  0.7818609E-02  0.8541471E-01
       -1   -1    0    0    0  501  0.00000000000E+00  0.00000000000E+00  0.94298758894E+03  0.94298758896E+03  0.50400001928E-02 0.  1.
        1   -1    0    0  501    0  0.00000000000E+00  0.00000000000E+00 -0.12203414823E+04  0.12203414823E+04  0.50400001928E-02 0. -1.
    10030    2    1    2    0    0  0.00000000000E+00  0.00000000000E+00 -0.27735389332E+03  0.21633290712E+04  0.21454760517E+04 0.  0.
        3    1    3    3  502    0 -0.59559216672E+03  0.11558241726E+03 -0.10307293144E+04  0.11960318783E+04  0.10100000352E+00 0. -1.
       -3    1    3    3    0  502  0.59559216672E+03 -0.11558241726E+03  0.75337542103E+03  0.96729719293E+03  0.10100000352E+00 0.  1.
</event>
<event>
 5   0  0.4188865E-05  0.2187321E+04  0.7818609E-02  0.8523724E-01
        1   -1    0    0  501    0  0.00000000000E+00  0.00000000000E+00  0.16316262017E+04  0.16316262017E+04  0.50400001928E-02 0.  1.
       -1   -1    0    0    0  501  0.00000000000E+00  0.00000000000E+00 -0.73306812003E+03  0.73306812004E+03  0.50400001928E-02 0. -1.
    10030    2    1    2    0    0  0.00000000000E+00  0.00000000000E+00  0.89855808164E+03  0.23646943217E+04  0.21873208747E+04 0.  0.
        3    1    3    3  502    0 -0.10731130480E+03  0.92532471233E+03  0.10687658753E+04  0.14177454094E+04  0.10100000352E+00 0.  1.
       -3    1    3    3    0  502  0.10731130480E+03 -0.92532471233E+03 -0.17020779365E+03  0.94694891235E+03  0.10100000352E+00 0. -1.
</event>
<event>
 5   0  0.9254673E-05  0.2253654E+04  0.7818609E-02  0.8496422E-01
       -2   -1    0    0    0  501  0.00000000000E+00  0.00000000000E+00  0.59618567306E+03  0.59618567307E+03  0.25500000920E-02 0. -1.
        2   -1    0    0  501    0  0.00000000000E+00  0.00000000000E+00 -0.21297709682E+04  0.21297709682E+04  0.25500000920E-02 0.  1.
    10030    2    1    2    0    0  0.00000000000E+00  0.00000000000E+00 -0.15335852951E+04  0.27259566413E+04  0.22536538671E+04 0.  0.
        2    1    3    3  502    0 -0.37849294035E+02  0.35967427737E+03 -0.20576620336E+04  0.20892034845E+04  0.25500000920E-02 0.  1.
       -2    1    3    3    0  502  0.37849294035E+02 -0.35967427737E+03  0.52407673849E+03  0.63675315680E+03  0.25500000920E-02 0. -1.
</event>
<event>
 5   0  0.4174075E-05  0.2189094E+04  0.7818609E-02  0.8522981E-01
       -1   -1    0    0    0  501  0.00000000000E+00  0.00000000000E+00  0.96161611643E+03  0.96161611645E+03  0.50400001928E-02 0. -1.
        1   -1    0    0  501    0  0.00000000000E+00  0.00000000000E+00 -0.12458541680E+04  0.12458541680E+04  0.50400001928E-02 0.  1.
    10030    2    1    2    0    0  0.00000000000E+00  0.00000000000E+00 -0.28423805157E+03  0.22074702845E+04  0.21890942846E+04 0.  0.
        5    1    3    3  502    0  0.88744601663E+03  0.36218351775E+03  0.39078091277E+03  0.10351179376E+04  0.46999998093E+01 0. -1.
       -5    1    3    3    0  502 -0.88744601663E+03 -0.36218351775E+03 -0.67501896434E+03  0.11723523469E+04  0.46999998093E+01 0.  1.
</event>
<event>
 5   0  0.9179618E-05  0.2123862E+04  0.7818609E-02  0.8550804E-01
        2   -1    0    0  501    0  0.00000000000E+00  0.00000000000E+00  0.24255746488E+04  0.24255746488E+04  0.25500000920E-02 0.  1.
       -2   -1    0    0    0  501  0.00000000000E+00  0.00000000000E+00 -0.46491954759E+03  0.46491954760E+03  0.25500000920E-02 0. -1.
    10030    2    1    2    0    0  0.00000000000E+00  0.00000000000E+00  0.19606551012E+04  0.28904941964E+04  0.21238616418E+04 0.  0.
        3    1    3    3  502    0 -0.98147506185E+03 -0.31523504854E+03  0.63326732451E+03  0.12098321980E+04  0.10100000352E+00 0. -1.
       -3    1    3    3    0  502  0.98147506185E+03  0.31523504854E+03  0.13273877767E+04  0.16806619984E+04  0.10100000352E+00 0.  1.
</event>
<event>
 5   0  0.9179618E-05  0.2174276E+04  0.7818609E-02  0.8529212E-01
       -2   -1    0    0    0  501  0.00000000000E+00  0.00000000000E+00  0.72992466469E+03  0.72992466469E+03  0.25500000920E-02 0. -1.
        2   -1    0    0  501    0  0.00000000000E+00  0.00000000000E+00 -0.16191657028E+04  0.16191657028E+04  0.25500000920E-02 0.  1.
    10030    2    1    2    0    0  0.00000000000E+00  0.00000000000E+00 -0.88924103813E+03  0.23490903675E+04  0.21742759555E+04 0.  0.
        3    1    3    3  502    0  0.26726586718E+03  0.36668331084E+03  0.62272690010E+03  0.77050405354E+03  0.10100000352E+00 0. -1.
       -3    1    3    3    0  502 -0.26726586718E+03 -0.36668331084E+03 -0.15119679382E+04  0.15785863140E+04  0.10100000352E+00 0.  1.
</event>
<event>
 5   0  0.9254673E-05  0.2092003E+04  0.7818609E-02  0.8564774E-01
        2   -1    0    0  501    0  0.00000000000E+00  0.00000000000E+00  0.11291307382E+04  0.11291307382E+04  0.25500000920E-02 0.  1.
       -2   -1    0    0    0  501  0.00000000000E+00  0.00000000000E+00 -0.96899250149E+03  0.96899250150E+03  0.25500000920E-02 0. -1.
    10030    2    1    2    0    0  0.00000000000E+00  0.00000000000E+00  0.16013823674E+03  0.20981232397E+04  0.20920030770E+04 0.  0.
        2    1    3    3  502    0  0.30850285325E+03 -0.12921617018E+03 -0.91391475407E+03  0.97319628381E+03  0.25500000920E-02 0. -1.
       -2    1    3    3    0  502 -0.30850285325E+03  0.12921617018E+03  0.10740529908E+04  0.11249269559E+04  0.25500000920E-02 0.  1.
</event>
<event>
 5   0  0.4133418E-05  0.2130260E+04  0.7818609E-02  0.8548030E-01
       -1   -1    0    0    0  501  0.00000000000E+00  0.00000000000E+00  0.14598642299E+04  0.14598642299E+04  0.50400001928E-02 0. -1.
        1   -1    0    0  501    0  0.00000000000E+00  0.00000000000E+00 -0.77712803084E+03  0.77712803086E+03  0.50400001928E-02 0.  1.
    10030    2    1    2    0    0  0.00000000000E+00  0.00000000000E+00  0.68273619904E+03  0.22369922607E+04  0.21302595281E+04 0.  0.
        4    1    3    3  502    0  0.95620871473E+03 -0.46920908525E+03  0.33848660832E+03  0.11176166913E+04  0.12699999809E+01 0. -1.
       -4    1    3    3    0  502 -0.95620871473E+03  0.46920908525E+03  0.34424959071E+03  0.11193755694E+04  0.12699999809E+01 0.  1.
</event>
<event>
 5   0  0.9457742E-05  0.2356128E+04  0.7818609E-02  0.8456114E-01
       -2   -1    0    0    0  501  0.00000000000E+00  0.00000000000E+00  0.77275828465E+03  0.77275828465E+03  0.25500000920E-02 0. -1.
        2   -1    0    0  501    0  0.00000000000E+00  0.00000000000E+00 -0.17959498820E+04  0.17959498820E+04  0.25500000920E-02 0.  1.
    10030    2    1    2    0    0  0.00000000000E+00  0.00000000000E+00 -0.10231915974E+04  0.25687081667E+04  0.23561283073E+04 0.  0.
        1    1    3    3  502    0 -0.88906565257E+03  0.41324398053E+03  0.20050243827E+03  0.10007045267E+04  0.50400001928E-02 0. -1.
       -1    1    3    3    0  502  0.88906565257E+03 -0.41324398053E+03 -0.12236940356E+04  0.15680036399E+04  0.50400001928E-02 0.  1.
</event>
<event>
 5   0  0.9254673E-05  0.2160504E+04  0.7818609E-02  0.8535049E-01
       -2   -1    0    0    0  501  0.00000000000E+00  0.00000000000E+00  0.14650454680E+04  0.14650454680E+04  0.25500000920E-02 0. -1.
        2   -1    0    0  501    0  0.00000000000E+00  0.00000000000E+00 -0.79652430494E+03  0.79652430495E+03  0.25500000920E-02 0.  1.
    10030    2    1    2    0    0  0.00000000000E+00  0.00000000000E+00  0.66852116310E+03  0.22615697730E+04  0.21605039441E+04 0.  0.
        2    1    3    3  502    0 -0.23332412228E+02 -0.84222215831E+03 -0.37342829630E+03  0.92159169804E+03  0.25500000920E-02 0.  1.
       -2    1    3    3    0  502  0.23332412228E+02  0.84222215831E+03  0.10419494594E+04  0.13399780750E+04  0.25500000920E-02 0. -1.
</event>
<event>
 5   0  0.9457742E-05  0.2194486E+04  0.7818609E-02  0.8520727E-01
        2   -1    0    0  501    0  0.00000000000E+00  0.00000000000E+00  0.13840079865E+04  0.13840079865E+04  0.25500000920E-02 0.  1.
       -2   -1    0    0    0  501  0.00000000000E+00  0.00000000000E+00 -0.86989520607E+03  0.86989520608E+03  0.25500000920E-02 0. -1.
    10030    2    1    2    0    0  0.00000000000E+00  0.00000000000E+00  0.51411278046E+03  0.22539031926E+04  0.21944857372E+04 0.  0.
        1    1    3    3  502    0 -0.84041900542E+03 -0.22851202435E+03  0.94252470324E+03  0.12833061467E+04  0.50400001928E-02 0.  1.
       -1    1    3    3    0  502  0.84041900542E+03  0.22851202435E+03 -0.42841192277E+03  0.97059704591E+03  0.50400001928E-02 0. -1.
</event>
<event>
 5   0  0.9179618E-05  0.2224377E+04  0.7818609E-02  0.8508350E-01
       -2   -1    0    0    0  501  0.00000000000E+00  0.00000000000E+00  0.70338731195E+03  0.70338731196E+03  0.25500000920E-02 0. -1.
        2   -1    0    0  501    0  0.00000000000E+00  0.00000000000E+00 -0.17585799354E+04  0.17585799354E+04  0.25500000920E-02 0.  1.
    10030    2    1    2    0    0  0.00000000000E+00  0.00000000000E+00 -0.10551926235E+04  0.24619672474E+04  0.22243765991E+04 0.  0.
        3    1    3    3  502    0  0.40332329272E+03  0.41780193838E+02  0.61866129071E+03  0.73970065964E+03  0.10100000352E+00 0. -1.
       -3    1    3    3    0  502 -0.40332329272E+03 -0.41780193838E+02 -0.16738539142E+04  0.17222665878E+04  0.10100000352E+00 0.  1.
</event>
<event>
 5   0  0.4174030E-05  0.2189776E+04  0.7818609E-02  0.8522695E-01
       -1   -1    0    0    0  501  0.00000000000E+00  0.00000000000E+00  0.12322974251E+04  0.12322974251E+04  0.50400001928E-02 0.  1.
        1   -1    0    0  501    0  0.00000000000E+00  0.00000000000E+00 -0.97280105357E+03  0.97280105358E+03  0.50400001928E-02 0. -1.
    10030    2    1    2    0    0  0.00000000000E+00  0.00000000000E+00  0.25949637156E+03  0.22050984787E+04  0.21897764575E+04 0.  0.
        2    1    3    3  502    0 -0.16900708875E+03  0.25359442621E+03 -0.92923106984E+03  0.97792837683E+03  0.25500000920E-02 0. -1.
       -2    1    3    3    0  502  0.16900708875E+03 -0.25359442621E+03  0.11887274414E+04  0.12271701019E+04  0.25500000920E-02 0.  1.
</event>
<event>
 5   0  0.9457742E-05  0.2214797E+04  0.7818609E-02  0.8512295E-01
        2   -1    0    0  501    0  0.00000000000E+00  0.00000000000E+00  0.88970135705E+03  0.88970135706E+03  0.25500000920E-02 0.  1.
       -2   -1    0    0    0  501  0.00000000000E+00  0.00000000000E+00 -0.13783624745E+04  0.13783624745E+04  0.25500000920E-02 0. -1.
    10030    2    1    2    0    0  0.00000000000E+00  0.00000000000E+00 -0.48866111746E+03  0.22680638316E+04  0.22147965722E+04 0.  0.
        1    1    3    3  502    0 -0.56389143183E+03 -0.52954577470E+03  0.56715360990E+03  0.95919523124E+03  0.50400001928E-02 0.  1.
       -1    1    3    3    0  502  0.56389143183E+03  0.52954577470E+03 -0.10558147274E+04  0.13088686003E+04  0.50400001928E-02 0. -1.
</event>
<event>
 5   0  0.9442578E-05  0.2220575E+04  0.7818609E-02  0.8509913E-01
        2   -1    0    0  501    0  0.00000000000E+00  0.00000000000E+00  0.23574323293E+04  0.23574323293E+04  0.25500000920E-02 0. -1.
       -2   -1    0    0    0  501  0.00000000000E+00  0.00000000000E+00 -0.52291570724E+03  0.52291570725E+03  0.25500000920E-02 0.  1.
    10030    2    1    2    0    0  0.00000000000E+00  0.00000000000E+00  0.18345166221E+04  0.28803480366E+04  0.22205750550E+04 0.  0.
        4    1    3    3  502    0  0.45248925408E+03 -0.90044137482E+03  0.31274619690E+03  0.10551554346E+04  0.12699999809E+01 0.  1.
       -4    1    3    3    0  502 -0.45248925408E+03  0.90044137482E+03  0.15217704252E+04  0.18251926020E+04  0.12699999809E+01 0. -1.
</event>
<event>
 5   0  0.4063293E-05  0.2198503E+04  0.7818609E-02  0.8519051E-01
        1   -1    0    0  501    0  0.00000000000E+00  0.00000000000E+00  0.78505978016E+03  0.78505978018E+03  0.50400001928E-02 0. -1.
       -1   -1    0    0    0  501  0.00000000000E+00  0.00000000000E+00 -0.15391869813E+04  0.15391869813E+04  0.50400001928E-02 0.  1.
    10030    2    1    2    0    0  0.00000000000E+00  0.00000000000E+00 -0.75412720116E+03  0.23242467615E+04  0.21985029390E+04 0.  0.
        1    1    3    3  502    0  0.10007155138E+04  0.35138074894E+03 -0.71657082368E+02  0.10630309063E+04  0.50400001928E-02 0. -1.
       -1    1    3    3    0  502 -0.10007155138E+04 -0.35138074894E+03 -0.68247011879E+03  0.12612158552E+04  0.50400001928E-02 0.  1.
</event>
<event>
 5   0  0.4174030E-05  0.2180296E+04  0.7818609E-02  0.8526674E-01
        1   -1    0    0  501    0  0.00000000000E+00  0.00000000000E+00  0.16345848766E+04  0.16345848766E+04  0.50400001928E-02 0.  1.
       -1   -1    0    0    0  501  0.00000000000E+00  0.00000000000E+00 -0.72704858816E+03  0.72704858818E+03  0.50400001928E-02 0. -1.
    10030    2    1    2    0    0  0.00000000000E+00  0.00000000000E+00  0.90753628843E+03  0.23616334648E+04  0.21802959678E+04 0.  0.
        2    1    3    3  502    0 -0.81795358566E+03 -0.73899590179E+02  0.12302691406E+04  0.14792130935E+04  0.25500000920E-02 0.  1.
       -2    1    3    3    0  502  0.81795358566E+03  0.73899590179E+02 -0.32273285218E+03  0.88242037126E+03  0.25500000920E-02 0. -1.
</event>
<event>
 5   0  0.4174075E-05  0.2186026E+04  0.7818609E-02  0.8524267E-01
        1   -1    0    0  501    0  0.00000000000E+00  0.00000000000E+00  0.22529252436E+04  0.22529252436E+04  0.50400001928E-02 0.  1.
       -1   -1    0    0    0  501  0.00000000000E+00  0.00000000000E+00 -0.53027842370E+03  0.53027842373E+03  0.50400001928E-02 0. -1.
    10030    2    1    2    0    0  0.00000000000E+00  0.00000000000E+00  0.17226468199E+04  0.27832036673E+04  0.21860262093E+04 0.  0.
        5    1    3    3  502    0  0.44758937120E+03  0.59966228294E+03 -0.15301352605E+03  0.76378421557E+03  0.46999998093E+01 0. -1.
       -5    1    3    3    0  502 -0.44758937120E+03 -0.59966228294E+03  0.18756603459E+04  0.20194194518E+04  0.46999998093E+01 0.  1.
</event>
<event>
 5   0  0.3283125E-05  0.1875880E+04  0.7818609E-02  0.8666956E-01
        3   -1    0    0  501    0  0.00000000000E+00  0.00000000000E+00  0.82194524391E+03  0.82194525011E+03  0.10100000352E+00 0. -1.
       -3   -1    0    0    0  501  0.00000000000E+00  0.00000000000E+00 -0.10703041047E+04  0.10703041094E+04  0.10100000352E+00 0.  1.
    10030    2    1    2    0    0  0.00000000000E+00  0.00000000000E+00 -0.24835886076E+03  0.18922493595E+04  0.18758799308E+04 0.  0.
        4    1    3    3  502    0  0.49991346766E+03 -0.79341152695E+03 -0.10629224774E+03  0.94377697634E+03  0.12699999809E+01 0.  1.
       -4    1    3    3    0  502 -0.49991346766E+03  0.79341152695E+03 -0.14206661302E+03  0.94847238319E+03  0.12699999809E+01 0. -1.
</event>
<event>
 5   0  0.4188865E-05  0.2139112E+04  0.7818609E-02  0.8544207E-01
        1   -1    0    0  501    0  0.00000000000E+00  0.00000000000E+00  0.13623095544E+04  0.13623095544E+04  0.50400001928E-02 0. -1.
       -1   -1    0    0    0  501  0.00000000000E+00  0.00000000000E+00 -0.83971377152E+03  0.83971377154E+03  0.50400001928E-02 0.  1.
    10030    2    1    2    0    0  0.00000000000E+00  0.00000000000E+00  0.52259578291E+03  0.22020233260E+04  0.21391120531E+04 0.  0.
        3    1    3    3  502    0  0.76393645492E+03  0.71470594522E+03  0.49043491036E+03  0.11553916681E+04  0.10100000352E+00 0. -1.
       -3    1    3    3    0  502 -0.76393645492E+03 -0.71470594522E+03  0.32160872552E+02  0.10466316578E+04  0.10100000352E+00 0.  1.
</event>
<event>
 5   0  0.9442578E-05  0.2192899E+04  0.7818609E-02  0.8521390E-01
       -2   -1    0    0    0  501  0.00000000000E+00  0.00000000000E+00  0.83311888573E+03  0.83311888574E+03  0.25500000920E-02 0.  1.
        2   -1    0    0  501    0  0.00000000000E+00  0.00000000000E+00 -0.14430125763E+04  0.14430125763E+04  0.25500000920E-02 0. -1.
    10030    2    1    2    0    0  0.00000000000E+00  0.00000000000E+00 -0.60989369053E+03  0.22761314620E+04  0.21928985655E+04 0.  0.
        4    1    3    3  502    0  0.42067693574E+03  0.75177520757E+03  0.39907818267E+03  0.94942090548E+03  0.12699999809E+01 0.  1.
       -4    1    3    3    0  502 -0.42067693574E+03 -0.75177520757E+03 -0.10089718732E+04  0.13267105565E+04  0.12699999809E+01 0. -1.
</event>
<event>
 5   0  0.4063293E-05  0.2236780E+04  0.7818609E-02  0.8503274E-01
        1   -1    0    0  501    0  0.00000000000E+00  0.00000000000E+00  0.80881730238E+03  0.80881730240E+03  0.50400001928E-02 0. -1.
       -1   -1    0    0    0  501  0.00000000000E+00  0.00000000000E+00 -0.15464505427E+04  0.15464505427E+04  0.50400001928E-02 0.  1.
    10030    2    1    2    0    0  0.00000000000E+00  0.00000000000E+00 -0.73763324035E+03  0.23552678451E+04  0.22367797891E+04 0.  0.
        1    1    3    3  502    0  0.34543365045E+03  0.10004467051E+04  0.11681029830E+02  0.10584679793E+04  0.50400001928E-02 0. -1.
       -1    1    3    3    0  502 -0.34543365045E+03 -0.10004467051E+04 -0.74931427018E+03  0.12967998659E+04  0.50400001928E-02 0.  1.
</event>
<event>
 5   0  0.9938176E-05  0.2207110E+04  0.7818609E-02  0.8515474E-01
        2   -1    0    0  501    0  0.00000000000E+00  0.00000000000E+00  0.16738498930E+04  0.16738498930E+04  0.25500000920E-02 0. -1.
       -2   -1    0    0    0  501  0.00000000000E+00  0.00000000000E+00 -0.72756466394E+03  0.72756466394E+03  0.25500000920E-02 0.  1.
    10030    2    1    2    0    0  0.00000000000E+00  0.00000000000E+00  0.94628522901E+03  0.24014145569E+04  0.22071103596E+04 0.  0.
        5    1    3    3  502    0  0.46567842257E+02 -0.54595036355E+03 -0.56909185749E+03  0.79001138957E+03  0.46999998093E+01 0.  1.
       -5    1    3    3    0  502 -0.46567842257E+02  0.54595036355E+03  0.15153770865E+04  0.16114031673E+04  0.46999998093E+01 0. -1.
</event>
<event>
 5   0  0.9938176E-05  0.2197312E+04  0.7818609E-02  0.8519548E-01
        2   -1    0    0  501    0  0.00000000000E+00  0.00000000000E+00  0.13687956062E+04  0.13687956062E+04  0.25500000920E-02 0.  1.
       -2   -1    0    0    0  501  0.00000000000E+00  0.00000000000E+00 -0.88182966953E+03  0.88182966954E+03  0.25500000920E-02 0. -1.
    10030    2    1    2    0    0  0.00000000000E+00  0.00000000000E+00  0.48696593670E+03  0.22506252758E+04  0.21973116093E+04 0.  0.
        5    1    3    3  502    0  0.23985502956E+02  0.10675273123E+04  0.50827553280E+03  0.11826055869E+04  0.46999998093E+01 0.  1.
       -5    1    3    3    0  502 -0.23985502956E+02 -0.10675273123E+04 -0.21309596104E+02  0.10680196889E+04  0.46999998093E+01 0. -1.
</event>
<event>
 5   0  0.9938176E-05  0.2049714E+04  0.7818609E-02  0.8583724E-01
       -2   -1    0    0    0  501  0.00000000000E+00  0.00000000000E+00  0.65577600609E+03  0.65577600609E+03  0.25500000920E-02 0. -1.
        2   -1    0    0  501    0  0.00000000000E+00  0.00000000000E+00 -0.16016621065E+04  0.16016621065E+04  0.25500000920E-02 0.  1.
    10030    2    1    2    0    0  0.00000000000E+00  0.00000000000E+00 -0.94588610043E+03  0.22574381126E+04  0.20497137159E+04 0.  0.
        5    1    3    3  502    0  0.50919585694E+03 -0.75458865164E+03  0.45537005075E+02  0.91147142728E+03  0.46999998093E+01 0. -1.
       -5    1    3    3    0  502 -0.50919585694E+03  0.75458865164E+03 -0.99142310550E+03  0.13459666853E+04  0.46999998093E+01 0.  1.
</event>
<event>
 5   0  0.9254673E-05  0.2154368E+04  0.7818609E-02  0.8537665E-01
        2   -1    0    0  501    0  0.00000000000E+00  0.00000000000E+00  0.10590993198E+04  0.10590993198E+04  0.25500000920E-02 0. -1.
       -2   -1    0    0    0  501  0.00000000000E+00  0.00000000000E+00 -0.10955771724E+04  0.10955771724E+04  0.25500000920E-02 0.  1.
    10030    2    1    2    0    0  0.00000000000E+00  0.00000000000E+00 -0.36477852631E+02  0.21546764922E+04  0.21543676920E+04 0.  0.
        2    1    3    3  502    0 -0.95271471539E+03  0.29210906282E+03 -0.42735990804E+03  0.10842645086E+04  0.25500000920E-02 0.  1.
       -2    1    3    3    0  502  0.95271471539E+03 -0.29210906282E+03  0.39088205541E+03  0.10704119837E+04  0.25500000920E-02 0. -1.
</event>
<event>
 5   0  0.4133418E-05  0.2208889E+04  0.7818609E-02  0.8514738E-01
        1   -1    0    0  501    0  0.00000000000E+00  0.00000000000E+00  0.13632980254E+04  0.13632980254E+04  0.50400001928E-02 0. -1.
       -1   -1    0    0    0  501  0.00000000000E+00  0.00000000000E+00 -0.89474008119E+03  0.89474008121E+03  0.50400001928E-02 0.  1.
    10030    2    1    2    0    0  0.00000000000E+00  0.00000000000E+00  0.46855794416E+03  0.22580381066E+04  0.22088887577E+04 0.  0.
        4    1    3    3  502    0  0.75655100751E+03  0.45253459412E+03  0.91439366238E+03  0.12701473806E+04  0.12699999809E+01 0. -1.
       -4    1    3    3    0  502 -0.75655100751E+03 -0.45253459412E+03 -0.44583571822E+03  0.98789072593E+03  0.12699999809E+01 0.  1.
</event>
<event>
 5   0  0.9457742E-05  0.2164076E+04  0.7818609E-02  0.8533531E-01
        2   -1    0    0  501    0  0.00000000000E+00  0.00000000000E+00  0.11798085181E+04  0.11798085181E+04  0.25500000920E-02 0.  1.
       -2   -1    0    0    0  501  0.00000000000E+00  0.00000000000E+00 -0.99236940856E+03  0.99236940856E+03  0.25500000920E-02 0. -1.
    10030    2    1    2    0    0  0.00000000000E+00  0.00000000000E+00  0.18743910953E+03  0.21721779267E+04  0.21640756746E+04 0.  0.
        1    1    3    3  502    0 -0.28780323745E+03 -0.53930552957E+03 -0.80244155369E+03  0.10087584472E+04  0.50400001928E-02 0. -1.
       -1    1    3    3    0  502  0.28780323745E+03  0.53930552957E+03  0.98988066322E+03  0.11634194794E+04  0.50400001928E-02 0.  1.
</event>
<event>
 5   0  0.9938176E-05  0.2202570E+04  0.7818609E-02  0.8517359E-01
        2   -1    0    0  501    0  0.00000000000E+00  0.00000000000E+00  0.13784506193E+04  0.13784506193E+04  0.25500000920E-02 0. -1.
       -2   -1    0    0    0  501  0.00000000000E+00  0.00000000000E+00 -0.87984905548E+03  0.87984905548E+03  0.25500000920E-02 0.  1.
    10030    2    1    2    0    0  0.00000000000E+00  0.00000000000E+00  0.49860156384E+03  0.22582996748E+04  0.22025698404E+04 0.  0.
        5    1    3    3  502    0 -0.43413536933E+02  0.90739503992E+03 -0.38899071008E+03  0.98822383911E+03  0.46999998093E+01 0.  1.
       -5    1    3    3    0  502  0.43413536933E+02 -0.90739503992E+03  0.88759227392E+03  0.12700758357E+04  0.46999998093E+01 0. -1.
</event>
<event>
 5   0  0.9442578E-05  0.2152660E+04  0.7818609E-02  0.8538394E-01
       -2   -1    0    0    0  501  0.00000000000E+00  0.00000000000E+00  0.60702320526E+03  0.60702320526E+03  0.25500000920E-02 0. -1.
        2   -1    0    0  501    0  0.00000000000E+00  0.00000000000E+00 -0.19084713022E+04  0.19084713022E+04  0.25500000920E-02 0.  1.
    10030    2    1    2    0    0  0.00000000000E+00  0.00000000000E+00 -0.13014480969E+04  0.25154945074E+04  0.21526600911E+04 0.  0.
        4    1    3    3  502    0  0.25815659897E+03  0.86326467081E+03  0.37248302381E+02  0.90180916517E+03  0.12699999809E+01 0. -1.
       -4    1    3    3    0  502 -0.25815659897E+03 -0.86326467081E+03 -0.13386963993E+04  0.16136853423E+04  0.12699999809E+01 0.  1.
</event>
<event>
 5   0  0.9179618E-05  0.2227221E+04  0.7818609E-02  0.8507183E-01
        2   -1    0    0  501    0  0.00000000000E+00  0.00000000000E+00  0.85569546034E+03  0.85569546034E+03  0.25500000920E-02 0.  1.
       -2   -1    0    0    0  501  0.00000000000E+00  0.00000000000E+00 -0.14492636540E+04  0.14492636540E+04  0.25500000920E-02 0. -1.
    10030    2    1    2    0    0  0.00000000000E+00  0.00000000000E+00 -0.59356819362E+03  0.23049591143E+04  0.22272209855E+04 0.  0.
        3    1    3    3  502    0  0.68331444791E+03 -0.16855328598E+03  0.59635602029E+03  0.92248000416E+03  0.10100000352E+00 0.  1.
       -3    1    3    3    0  502 -0.68331444791E+03  0.16855328598E+03 -0.11899242139E+04  0.13824791101E+04  0.10100000352E+00 0. -1.
</event>
<event>
 5   0  0.9938176E-05  0.2207658E+04  0.7818609E-02  0.8515247E-01
       -2   -1    0    0    0  501  0.00000000000E+00  0.00000000000E+00  0.18069760469E+04  0.18069760469E+04  0.25500000920E-02 0.  1.
        2   -1    0    0  501    0  0.00000000000E+00  0.00000000000E+00 -0.67429718982E+03  0.67429718982E+03  0.25500000920E-02 0. -1.
    10030    2    1    2    0    0  0.00000000000E+00  0.00000000000E+00  0.11326788570E+04  0.24812732367E+04  0.22076583707E+04 0.  0.
        5    1    3    3  502    0 -0.98626152712E+03 -0.49329416493E+03  0.62100779429E+03  0.12655922343E+04  0.46999998093E+01 0.  1.
       -5    1    3    3    0  502  0.98626152712E+03  0.49329416493E+03  0.51167106276E+03  0.12156810024E+04  0.46999998093E+01 0. -1.
</event>
<event>
 5   0  0.4133418E-05  0.2221812E+04  0.7818609E-02  0.8509404E-01
       -1   -1    0    0    0  501  0.00000000000E+00  0.00000000000E+00  0.61576800398E+03  0.61576800400E+03  0.50400001928E-02 0. -1.
        1   -1    0    0  501    0  0.00000000000E+00  0.00000000000E+00 -0.20041829237E+04  0.20041829237E+04  0.50400001928E-02 0.  1.
    10030    2    1    2    0    0  0.00000000000E+00  0.00000000000E+00 -0.13884149197E+04  0.26199509277E+04  0.22218116199E+04 0.  0.
        4    1    3    3  502    0 -0.86119415905E+03  0.57059469367E+03 -0.11759149646E+04  0.15652511942E+04  0.12699999809E+01 0.  1.
       -4    1    3    3    0  502  0.86119415905E+03 -0.57059469367E+03 -0.21249995509E+03  0.10546997335E+04  0.12699999809E+01 0. -1.
</event>
<event>
 5   0  0.4188865E-05  0.2140699E+04  0.7818609E-02  0.8543524E-01
       -1   -1    0    0    0  501  0.00000000000E+00  0.00000000000E+00  0.88076641201E+03  0.88076641202E+03  0.50400001928E-02 0. -1.
        1   -1    0    0  501    0  0.00000000000E+00  0.00000000000E+00 -0.13007395794E+04  0.13007395794E+04  0.50400001928E-02 0.  1.
    10030    2    1    2    0    0  0.00000000000E+00  0.00000000000E+00 -0.41997316738E+03  0.21815059914E+04  0.21406987012E+04 0.  0.
        3    1    3    3  502    0  0.67618821582E+03  0.59001664117E+03  0.38448390003E+03  0.97630836299E+03  0.10100000352E+00 0. -1.
       -3    1    3    3    0  502 -0.67618821582E+03 -0.59001664117E+03 -0.80445706741E+03  0.12051976284E+04  0.10100000352E+00 0.  1.
</event>
<event>
 5   0  0.4174075E-05  0.2169034E+04  0.7818609E-02  0.8531428E-01
        1   -1    0    0  501    0  0.00000000000E+00  0.00000000000E+00  0.17975761827E+04  0.17975761827E+04  0.50400001928E-02 0.  1.
       -1   -1    0    0    0  501  0.00000000000E+00  0.00000000000E+00 -0.65431294405E+03  0.65431294407E+03  0.50400001928E-02 0. -1.
    10030    2    1    2    0    0  0.00000000000E+00  0.00000000000E+00  0.11432632387E+04  0.24518891268E+04  0.21690342222E+04 0.  0.
        5    1    3    3  502    0  0.37778330190E+03  0.94144232773E+03  0.10052147133E+04  0.14281150477E+04  0.46999998093E+01 0.  1.
       -5    1    3    3    0  502 -0.37778330190E+03 -0.94144232773E+03  0.13804852533E+03  0.10237740791E+04  0.46999998093E+01 0. -1.
</event>
<event>
 5   0  0.9457742E-05  0.2198597E+04  0.7818609E-02  0.8519012E-01
        2   -1    0    0  501    0  0.00000000000E+00  0.00000000000E+00  0.17826772090E+04  0.17826772090E+04  0.25500000920E-02 0.  1.
       -2   -1    0    0    0  501  0.00000000000E+00  0.00000000000E+00 -0.67788925601E+03  0.67788925602E+03  0.25500000920E-02 0. -1.
    10030    2    1    2    0    0  0.00000000000E+00  0.00000000000E+00  0.11047879529E+04  0.24605664650E+04  0.21985974865E+04 0.  0.
        1    1    3    3  502    0  0.16095409767E+03 -0.40521627992E+03 -0.57698104625E+03  0.72319678015E+03  0.50400001928E-02 0. -1.
       -1    1    3    3    0  502 -0.16095409767E+03  0.40521627992E+03  0.16817689992E+04  0.17373696848E+04  0.50400001928E-02 0.  1.
</event>
<event>
 5   0  0.9938176E-05  0.2206316E+04  0.7818609E-02  0.8515804E-01
       -2   -1    0    0    0  501  0.00000000000E+00  0.00000000000E+00  0.45830047333E+03  0.45830047334E+03  0.25500000920E-02 0.  1.
        2   -1    0    0  501    0  0.00000000000E+00  0.00000000000E+00 -0.26553696306E+04  0.26553696306E+04  0.25500000920E-02 0. -1.
    10030    2    1    2    0    0  0.00000000000E+00  0.00000000000E+00 -0.21970691572E+04  0.31136701039E+04  0.22063156244E+04 0.  0.
        5    1    3    3  502    0  0.19790932434E+02  0.90644775705E+03 -0.19853765564E+04  0.21826088468E+04  0.46999998093E+01 0. -1.
       -5    1    3    3    0  502 -0.19790932434E+02 -0.90644775705E+03 -0.21169260080E+03  0.93106125711E+03  0.46999998093E+01 0.  1.
</event>
<event>
 5   0  0.4174075E-05  0.2288502E+04  0.7818609E-02  0.8482468E-01
       -1   -1    0    0    0  501  0.00000000000E+00  0.00000000000E+00  0.10328468517E+04  0.10328468517E+04  0.50400001928E-02 0.  1.
        1   -1    0    0  501    0  0.00000000000E+00  0.00000000000E+00 -0.12676717885E+04  0.12676717885E+04  0.50400001928E-02 0. -1.
    10030    2    1    2    0    0  0.00000000000E+00  0.00000000000E+00 -0.23482493680E+03  0.23005186403E+04  0.22885024062E+04 0.  0.
        5    1    3    3  502    0  0.76038759471E+02 -0.10454439204E+04 -0.57868327405E+03  0.11973434367E+04  0.46999998093E+01 0. -1.
       -5    1    3    3    0  502 -0.76038759471E+02  0.10454439204E+04  0.34385833725E+03  0.11031752036E+04  0.46999998093E+01 0.  1.
</event>
<event>
 5   0  0.4063293E-05  0.1707718E+04  0.7818609E-02  0.8756975E-01
       -1   -1    0    0    0  501  0.00000000000E+00  0.00000000000E+00  0.36513775622E+03  0.36513775626E+03  0.50400001928E-02 0. -1.
        1   -1    0    0  501    0  0.00000000000E+00  0.00000000000E+00 -0.19967119377E+04  0.19967119377E+04  0.50400001928E-02 0.  1.
    10030    2    1    2    0    0  0.00000000000E+00  0.00000000000E+00 -0.16315741815E+04  0.23618496940E+04  0.17077176779E+04 0.  0.
        1    1    3    3  502    0 -0.20493165261E+03  0.42506235074E+03 -0.17999862767E+04  0.18608131503E+04  0.50400001928E-02 0.  1.
       -1    1    3    3    0  502  0.20493165261E+03 -0.42506235074E+03  0.16841209516E+03  0.50103654366E+03  0.50400001928E-02 0. -1.
</event>
<event>
 5   0  0.9442578E-05  0.2209673E+04  0.7818609E-02  0.8514413E-01
       -2   -1    0    0    0  501  0.00000000000E+00  0.00000000000E+00  0.15274915730E+04  0.15274915730E+04  0.25500000920E-02 0. -1.
        2   -1    0    0  501    0  0.00000000000E+00  0.00000000000E+00 -0.79912957224E+03  0.79912957225E+03  0.25500000920E-02 0.  1.
    10030    2    1    2    0    0  0.00000000000E+00  0.00000000000E+00  0.72836200072E+03  0.23266211452E+04  0.22096729960E+04 0.  0.
        4    1    3    3  502    0  0.57658736485E+03  0.44594493025E+03  0.12383896452E+04  0.14369865679E+04  0.12699999809E+01 0. -1.
       -4    1    3    3    0  502 -0.57658736485E+03 -0.44594493025E+03 -0.51002764447E+03  0.88963457731E+03  0.12699999809E+01 0.  1.
</event>
<event>
 5   0  0.4063293E-05  0.2209796E+04  0.7818609E-02  0.8514362E-01
       -1   -1    0    0    0  501  0.00000000000E+00  0.00000000000E+00  0.10911434578E+04  0.10911434578E+04  0.50400001928E-02 0.  1.
        1   -1    0    0  501    0  0.00000000000E+00  0.00000000000E+00 -0.11188264031E+04  0.11188264031E+04  0.50400001928E-02 0. -1.
    10030    2    1    2    0    0  0.00000000000E+00  0.00000000000E+00 -0.27682945256E+02  0.22099698609E+04  0.22097964704E+04 0.  0.
        1    1    3    3  502    0 -0.86881176715E+03  0.67457403497E+03  0.90646841782E+02  0.11036760690E+04  0.50400001928E-02 0.  1.
       -1    1    3    3    0  502  0.86881176715E+03 -0.67457403497E+03 -0.11832978704E+03  0.11062937919E+04  0.50400001928E-02 0. -1.
</event>
<event>
 5   0  0.9442578E-05  0.2123715E+04  0.7818609E-02  0.8550868E-01
        2   -1    0    0  501    0  0.00000000000E+00  0.00000000000E+00  0.13196930937E+04  0.13196930937E+04  0.25500000920E-02 0.  1.
       -2   -1    0    0    0  501  0.00000000000E+00  0.00000000000E+00 -0.85439647742E+03  0.85439647743E+03  0.25500000920E-02 0. -1.
    10030    2    1    2    0    0  0.00000000000E+00  0.00000000000E+00  0.46529661625E+03  0.21740895711E+04  0.21237147930E+04 0.  0.
        4    1    3    3  502    0 -0.74431331902E+03  0.45523845992E+03  0.85222749734E+03  0.12196465440E+04  0.12699999809E+01 0.  1.
       -4    1    3    3    0  502  0.74431331902E+03 -0.45523845992E+03 -0.38693088109E+03  0.95444302706E+03  0.12699999809E+01 0. -1.
</event>
<event>
 5   0  0.9457742E-05  0.2202595E+04  0.7818609E-02  0.8517349E-01
       -2   -1    0    0    0  501  0.00000000000E+00  0.00000000000E+00  0.40957814447E+03  0.40957814448E+03  0.25500000920E-02 0. -1.
        2   -1    0    0  501    0  0.00000000000E+00  0.00000000000E+00 -0.29612335706E+04  0.29612335706E+04  0.25500000920E-02 0.  1.
    10030    2    1    2    0    0  0.00000000000E+00  0.00000000000E+00 -0.25516554261E+04  0.33708117150E+04  0.22025953339E+04 0.  0.
        1    1    3    3  502    0 -0.74416976605E+03  0.41669167091E+03 -0.23420941841E+04  0.24925540629E+04  0.50400001928E-02 0.  1.
       -1    1    3    3    0  502  0.74416976605E+03 -0.41669167091E+03 -0.20956124195E+03  0.87825765210E+03  0.50400001928E-02 0. -1.
</event>
<event>
 5   0  0.4174030E-05  0.2187468E+04  0.7818609E-02  0.8523662E-01
       -1   -1    0    0    0  501  0.00000000000E+00  0.00000000000E+00  0.59845100187E+03  0.59845100189E+03  0.50400001928E-02 0.  1.
        1   -1    0    0  501    0  0.00000000000E+00  0.00000000000E+00 -0.19989175235E+04  0.19989175235E+04  0.50400001928E-02 0. -1.
    10030    2    1    2    0    0  0.00000000000E+00  0.00000000000E+00 -0.14004665216E+04  0.25973685254E+04  0.21874681206E+04 0.  0.
        2    1    3    3  502    0 -0.51030004354E+03 -0.81717431445E+03 -0.85453799135E+02  0.96720336353E+03  0.25500000920E-02 0.  1.
       -2    1    3    3    0  502  0.51030004354E+03  0.81717431445E+03 -0.13150127225E+04  0.16301651618E+04  0.25500000920E-02 0. -1.
</event>
<event>
 5   0  0.4063293E-05  0.2185700E+04  0.7818609E-02  0.8524404E-01
       -1   -1    0    0    0  501  0.00000000000E+00  0.00000000000E+00  0.13092666584E+04  0.13092666584E+04  0.50400001928E-02 0.  1.
        1   -1    0    0  501    0  0.00000000000E+00  0.00000000000E+00 -0.91220614258E+03  0.91220614260E+03  0.50400001928E-02 0. -1.
    10030    2    1    2    0    0  0.00000000000E+00  0.00000000000E+00  0.39706051578E+03  0.22214728010E+04  0.21856999685E+04 0.  0.
        1    1    3    3  502    0 -0.32974828637E+03 -0.76004243390E+03 -0.52582104572E+03  0.98126765250E+03  0.50400001928E-02 0. -1.
       -1    1    3    3    0  502  0.32974828637E+03  0.76004243390E+03  0.92288156151E+03  0.12402051485E+04  0.50400001928E-02 0.  1.
</event>
<event>
 5   0  0.3283125E-05  0.2180280E+04  0.7818609E-02  0.8526681E-01
       -3   -1    0    0    0  501  0.00000000000E+00  0.00000000000E+00  0.72486093501E+03  0.72486094205E+03  0.10100000352E+00 0.  1.
        3   -1    0    0  501    0  0.00000000000E+00  0.00000000000E+00 -0.16394934093E+04  0.16394934124E+04  0.10100000352E+00 0. -1.
    10030    2    1    2    0    0  0.00000000000E+00  0.00000000000E+00 -0.91463247432E+03  0.23643543545E+04  0.21802795579E+04 0.  0.
        2    1    3    3  502    0 -0.55386591250E+03 -0.76181756094E+02  0.55755557842E+03  0.78958174499E+03  0.25500000920E-02 0.  1.
       -2    1    3    3    0  502  0.55386591250E+03  0.76181756094E+02 -0.14721880527E+04  0.15747726095E+04  0.25500000920E-02 0. -1.
</event>
<event>
 5   0  0.9442578E-05  0.2286197E+04  0.7818609E-02  0.8483383E-01
        2   -1    0    0  501    0  0.00000000000E+00  0.00000000000E+00  0.14086393153E+04  0.14086393153E+04  0.25500000920E-02 0. -1.
       -2   -1    0    0    0  501  0.00000000000E+00  0.00000000000E+00 -0.92761444717E+03  0.92761444718E+03  0.25500000920E-02 0.  1.
    10030    2    1    2    0    0  0.00000000000E+00  0.00000000000E+00  0.48102486810E+03  0.23362537625E+04  0.22861969991E+04 0.  0.
        4    1    3    3  502    0  0.35351318968E+03  0.58150017775E+03 -0.69805174566E+03  0.97488044627E+03  0.12699999809E+01 0.  1.
       -4    1    3    3    0  502 -0.35351318968E+03 -0.58150017775E+03  0.11790766138E+04  0.13613733162E+04  0.12699999809E+01 0. -1.
</event>
<event>
 5   0  0.4133418E-05  0.2211506E+04  0.7818609E-02  0.8513654E-01
        1   -1    0    0  501    0  0.00000000000E+00  0.00000000000E+00  0.10274503220E+04  0.10274503220E+04  0.50400001928E-02 0. -1.
       -1   -1    0    0    0  501  0.00000000000E+00  0.00000000000E+00 -0.11900227237E+04  0.11900227238E+04  0.50400001928E-02 0.  1.
    10030    2    1    2    0    0  0.00000000000E+00  0.00000000000E+00 -0.16257240177E+03  0.22174730457E+04  0.22115055783E+04 0.  0.
        4    1    3    3  502    0 -0.47105597461E+02  0.78194654366E+01  0.10264153169E+04  0.10275262026E+04  0.12699999809E+01 0. -1.
       -4    1    3    3    0  502  0.47105597461E+02 -0.78194654366E+01 -0.11889877187E+04  0.11899468431E+04  0.12699999809E+01 0.  1.
</event>
<event>
 5   0  0.9442578E-05  0.2165681E+04  0.7818609E-02  0.8532850E-01
       -2   -1    0    0    0  501  0.00000000000E+00  0.00000000000E+00  0.61904338047E+03  0.61904338047E+03  0.25500000920E-02 0. -1.
        2   -1    0    0  501    0  0.00000000000E+00  0.00000000000E+00 -0.18941226342E+04  0.18941226342E+04  0.25500000920E-02 0.  1.
    10030    2    1    2    0    0  0.00000000000E+00  0.00000000000E+00 -0.12750792537E+04  0.25131660146E+04  0.21656814895E+04 0.  0.
        4    1    3    3  502    0 -0.67095808382E+03  0.38041002290E+03 -0.15195170179E+04  0.17040628264E+04  0.12699999809E+01 0.  1.
       -4    1    3    3    0  502  0.67095808382E+03 -0.38041002290E+03  0.24443776419E+03  0.80910318825E+03  0.12699999809E+01 0. -1.
</event>
<event>
 5   0  0.4174030E-05  0.2045458E+04  0.7818609E-02  0.8585657E-01
        1   -1    0    0  501    0  0.00000000000E+00  0.00000000000E+00  0.11466074438E+04  0.11466074438E+04  0.50400001928E-02 0.  1.
       -1   -1    0    0    0  501  0.00000000000E+00  0.00000000000E+00 -0.91223462148E+03  0.91223462149E+03  0.50400001928E-02 0. -1.
    10030    2    1    2    0    0  0.00000000000E+00  0.00000000000E+00  0.23437282228E+03  0.20588420653E+04  0.20454583911E+04 0.  0.
        2    1    3    3  502    0 -0.47017283435E+03  0.49251168158E+03 -0.65092190703E+03  0.94198173003E+03  0.25500000920E-02 0. -1.
       -2    1    3    3    0  502  0.47017283435E+03 -0.49251168158E+03  0.88529472932E+03  0.11168603352E+04  0.25500000920E-02 0.  1.
</event>
<event>
 5   0  0.9457742E-05  0.2203713E+04  0.7818609E-02  0.8516884E-01
       -2   -1    0    0    0  501  0.00000000000E+00  0.00000000000E+00  0.12132897380E+04  0.12132897380E+04  0.25500000920E-02 0. -1.
        2   -1    0    0  501    0  0.00000000000E+00  0.00000000000E+00 -0.10006581493E+04  0.10006581493E+04  0.25500000920E-02 0.  1.
    10030    2    1    2    0    0  0.00000000000E+00  0.00000000000E+00  0.21263158868E+03  0.22139478873E+04  0.22037134694E+04 0.  0.
        1    1    3    3  502    0  0.76759992003E+03  0.73706032837E+01  0.90044510151E+03  0.11832435691E+04  0.50400001928E-02 0. -1.
       -1    1    3    3    0  502 -0.76759992003E+03 -0.73706032837E+01 -0.68781351284E+03  0.10307043182E+04  0.50400001928E-02 0.  1.
</event>
<event>
 5   0  0.4188865E-05  0.2236245E+04  0.7818609E-02  0.8503492E-01
        1   -1    0    0  501    0  0.00000000000E+00  0.00000000000E+00  0.13270185591E+04  0.13270185591E+04  0.50400001928E-02 0. -1.
       -1   -1    0    0    0  501  0.00000000000E+00  0.00000000000E+00 -0.94211035576E+03  0.94211035578E+03  0.50400001928E-02 0.  1.
    10030    2    1    2    0    0  0.00000000000E+00  0.00000000000E+00  0.38490820330E+03  0.22691289149E+04  0.22362450016E+04 0.  0.
        3    1    3    3  502    0 -0.35114805538E+03  0.10604701286E+04  0.24107600803E+03  0.11428121028E+04  0.10100000352E+00 0.  1.
       -3    1    3    3    0  502  0.35114805538E+03 -0.10604701286E+04  0.14383219527E+03  0.11263168120E+04  0.10100000352E+00 0. -1.
</event>
<event>
 5   0  0.4063293E-05  0.2218625E+04  0.7818609E-02  0.8510716E-01
       -1   -1    0    0    0  501  0.00000000000E+00  0.00000000000E+00  0.10121048641E+04  0.10121048641E+04  0.50400001928E-02 0.  1.
        1   -1    0    0  501    0  0.00000000000E+00  0.00000000000E+00 -0.12158569624E+04  0.12158569624E+04  0.50400001928E-02 0. -1.
    10030    2    1    2    0    0  0.00000000000E+00  0.00000000000E+00 -0.20375209831E+03  0.22279618265E+04  0.22186254715E+04 0.  0.
        1    1    3    3  502    0  0.14309984329E+03 -0.36887455513E+03 -0.11425907822E+04  0.12091566062E+04  0.50400001928E-02 0. -1.
       -1    1    3    3    0  502 -0.14309984329E+03  0.36887455513E+03  0.93883868392E+03  0.10188052204E+04  0.50400001928E-02 0.  1.
</event>
<event>
 5   0  0.4188865E-05  0.2197110E+04  0.7818609E-02  0.8519632E-01
       -1   -1    0    0    0  501  0.00000000000E+00  0.00000000000E+00  0.13935873607E+04  0.13935873607E+04  0.50400001928E-02 0. -1.
        1   -1    0    0  501    0  0.00000000000E+00  0.00000000000E+00 -0.86598290091E+03  0.86598290092E+03  0.50400001928E-02 0.  1.
    10030    2    1    2    0    0  0.00000000000E+00  0.00000000000E+00  0.52760445981E+03  0.22595702616E+04  0.21971097609E+04 0.  0.
        3    1    3    3  502    0  0.84724819176E+03  0.41414800272E+03  0.84326920636E+03  0.12650893372E+04  0.10100000352E+00 0. -1.
       -3    1    3    3    0  502 -0.84724819176E+03 -0.41414800272E+03 -0.31566474655E+03  0.99448092441E+03  0.10100000352E+00 0.  1.
</event>
<event>
 5   0  0.9179618E-05  0.2234134E+04  0.7818609E-02  0.8504354E-01
        2   -1    0    0  501    0  0.00000000000E+00  0.00000000000E+00  0.87436100881E+03  0.87436100882E+03  0.25500000920E-02 0.  1.
       -2   -1    0    0    0  501  0.00000000000E+00  0.00000000000E+00 -0.14271429599E+04  0.14271429599E+04  0.25500000920E-02 0. -1.
    10030    2    1    2    0    0  0.00000000000E+00  0.00000000000E+00 -0.55278195107E+03  0.23015039687E+04  0.22341335306E+04 0.  0.
        3    1    3    3  502    0 -0.62995177544E+03  0.90167193870E+03 -0.47716981873E+03  0.11989756338E+04  0.10100000352E+00 0. -1.
       -3    1    3    3    0  502  0.62995177544E+03 -0.90167193870E+03 -0.75612132338E+02  0.11025283349E+04  0.10100000352E+00 0.  1.
</event>
<event>
 5   0  0.9254673E-05  0.2130704E+04  0.7818609E-02  0.8547837E-01
        2   -1    0    0  501    0  0.00000000000E+00  0.00000000000E+00  0.41333589410E+03  0.41333589411E+03  0.25500000920E-02 0. -1.
       -2   -1    0    0    0  501  0.00000000000E+00  0.00000000000E+00 -0.27458895517E+04  0.27458895517E+04  0.25500000920E-02 0.  1.
    10030    2    1    2    0    0  0.00000000000E+00  0.00000000000E+00 -0.23325536576E+04  0.31592254458E+04  0.21307038396E+04 0.  0.
        2    1    3    3  502    0 -0.17075659857E+02 -0.57134870188E+03  0.16671878391E+03  0.59542091852E+03  0.25500000920E-02 0. -1.
       -2    1    3    3    0  502  0.17075659857E+02  0.57134870188E+03 -0.24992724415E+04  0.25638045273E+04  0.25500000920E-02 0.  1.
</event>
<event>
 5   0  0.4133418E-05  0.2240879E+04  0.7818609E-02  0.8501603E-01
       -1   -1    0    0    0  501  0.00000000000E+00  0.00000000000E+00  0.75936951706E+03  0.75936951708E+03  0.50400001928E-02 0. -1.
        1   -1    0    0  501    0  0.00000000000E+00  0.00000000000E+00 -0.16531936525E+04  0.16531936525E+04  0.50400001928E-02 0.  1.
    10030    2    1    2    0    0  0.00000000000E+00  0.00000000000E+00 -0.89382413543E+03  0.24125631696E+04  0.22408791717E+04 0.  0.
        4    1    3    3  502    0 -0.88446049501E+03  0.57261309806E+02 -0.11848714986E+04  0.14796862188E+04  0.12699999809E+01 0.  1.
       -4    1    3    3    0  502  0.88446049501E+03 -0.57261309806E+02  0.29104736320E+03  0.93287695081E+03  0.12699999809E+01 0. -1.
</event>
<event>
 5   0  0.9457742E-05  0.2207860E+04  0.7818609E-02  0.8515164E-01
       -2   -1    0    0    0  501  0.00000000000E+00  0.00000000000E+00  0.96431136606E+03  0.96431136606E+03  0.25500000920E-02 0.  1.
        2   -1    0    0  501    0  0.00000000000E+00  0.00000000000E+00 -0.12637640022E+04  0.12637640022E+04  0.25500000920E-02 0. -1.
    10030    2    1    2    0    0  0.00000000000E+00  0.00000000000E+00 -0.29945263618E+03  0.22280753683E+04  0.22078604950E+04 0.  0.
        1    1    3    3  502    0  0.48994689575E+03 -0.54500808464E+03 -0.98286392287E+03  0.12260111190E+04  0.50400001928E-02 0. -1.
       -1    1    3    3    0  502 -0.48994689575E+03  0.54500808464E+03  0.68341128669E+03  0.10020642493E+04  0.50400001928E-02 0.  1.
</event>
<event>
 5   0  0.9938176E-05  0.1793569E+04  0.7818609E-02  0.8709727E-01
        2   -1    0    0  501    0  0.00000000000E+00  0.00000000000E+00  0.11129913925E+04  0.11129913925E+04  0.25500000920E-02 0. -1.
       -2   -1    0    0    0  501  0.00000000000E+00  0.00000000000E+00 -0.72257712027E+03  0.72257712027E+03  0.25500000920E-02 0.  1.
    10030    2    1    2    0    0  0.00000000000E+00  0.00000000000E+00  0.39041427225E+03  0.18355685128E+04  0.17935686385E+04 0.  0.
        5    1    3    3  502    0  0.10895274576E+03  0.56114302581E+03 -0.51194939905E+03  0.76737635708E+03  0.46999998093E+01 0.  1.
       -5    1    3    3    0  502 -0.10895274576E+03 -0.56114302581E+03  0.90236367129E+03  0.10681921557E+04  0.46999998093E+01 0. -1.
</event>
<event>
 5   0  0.4133418E-05  0.2172366E+04  0.7818609E-02  0.8530019E-01
        1   -1    0    0  501    0  0.00000000000E+00  0.00000000000E+00  0.12789901930E+04  0.12789901930E+04  0.50400001928E-02 0.  1.
       -1   -1    0    0    0  501  0.00000000000E+00  0.00000000000E+00 -0.92244098662E+03  0.92244098664E+03  0.50400001928E-02 0. -1.
    10030    2    1    2    0    0  0.00000000000E+00  0.00000000000E+00  0.35654920634E+03  0.22014311796E+04  0.21723655084E+04 0.  0.
        4    1    3    3  502    0 -0.15700481651E+03 -0.63614241421E+03 -0.69960923471E+03  0.95853136504E+03  0.12699999809E+01 0. -1.
       -4    1    3    3    0  502  0.15700481651E+03  0.63614241421E+03  0.10561584411E+04  0.12428998146E+04  0.12699999809E+01 0.  1.
</event>
<event>
 5   0  0.9457742E-05  0.2185860E+04  0.7818609E-02  0.8524337E-01
        2   -1    0    0  501    0  0.00000000000E+00  0.00000000000E+00  0.20139845092E+04  0.20139845092E+04  0.25500000920E-02 0.  1.
       -2   -1    0    0    0  501  0.00000000000E+00  0.00000000000E+00 -0.59310062267E+03  0.59310062268E+03  0.25500000920E-02 0. -1.
    10030    2    1    2    0    0  0.00000000000E+00  0.00000000000E+00  0.14208838865E+04  0.26070851319E+04  0.21858595256E+04 0.  0.
        1    1    3    3  502    0  0.76713930201E+03  0.69891328176E+02  0.16351597142E+04  0.18075217280E+04  0.50400001928E-02 0.  1.
       -1    1    3    3    0  502 -0.76713930201E+03 -0.69891328176E+02 -0.21427582764E+03  0.79956340385E+03  0.50400001928E-02 0. -1.
</event>
<event>
 5   0  0.4063293E-05  0.2206058E+04  0.7818609E-02  0.8515911E-01
        1   -1    0    0  501    0  0.00000000000E+00  0.00000000000E+00  0.68064151590E+03  0.68064151592E+03  0.50400001928E-02 0. -1.
       -1   -1    0    0    0  501  0.00000000000E+00  0.00000000000E+00 -0.17875393890E+04  0.17875393890E+04  0.50400001928E-02 0.  1.
    10030    2    1    2    0    0  0.00000000000E+00  0.00000000000E+00 -0.11068978731E+04  0.24681809049E+04  0.22060584938E+04 0.  0.
        1    1    3    3  502    0 -0.10122166552E+03  0.93649524685E+03 -0.11955814009E+04  0.15220657211E+04  0.50400001928E-02 0.  1.
       -1    1    3    3    0  502  0.10122166552E+03 -0.93649524685E+03  0.88683527865E+02  0.94611518384E+03  0.50400001928E-02 0. -1.
</event>
<event>
 5   0  0.9457742E-05  0.2194986E+04  0.7818609E-02  0.8520518E-01
        2   -1    0    0  501    0  0.00000000000E+00  0.00000000000E+00  0.12598634111E+04  0.12598634111E+04  0.25500000920E-02 0. -1.
       -2   -1    0    0    0  501  0.00000000000E+00  0.00000000000E+00 -0.95604901272E+03  0.95604901272E+03  0.25500000920E-02 0.  1.
    10030    2    1    2    0    0  0.00000000000E+00  0.00000000000E+00  0.30381439834E+03  0.22159124238E+04  0.21949862599E+04 0.  0.
        1    1    3    3  502    0  0.63084189184E+03 -0.86915523526E+03  0.38011283726E+03  0.11392445236E+04  0.50400001928E-02 0. -1.
       -1    1    3    3    0  502 -0.63084189184E+03  0.86915523526E+03 -0.76298438914E+02  0.10766679002E+04  0.50400001928E-02 0.  1.
</event>
<event>
 5   0  0.4133418E-05  0.1608310E+04  0.7818609E-02  0.8815459E-01
        1   -1    0    0  501    0  0.00000000000E+00  0.00000000000E+00  0.26880364842E+04  0.26880364842E+04  0.50400001928E-02 0.  1.
       -1   -1    0    0    0  501  0.00000000000E+00  0.00000000000E+00 -0.24057170934E+03  0.24057170939E+03  0.50400001928E-02 0. -1.
    10030    2    1    2    0    0  0.00000000000E+00  0.00000000000E+00  0.24474647748E+04  0.29286081936E+04  0.16083103330E+04 0.  0.
        4    1    3    3  502    0 -0.39115678050E+02 -0.63067400637E+03  0.21294178210E+04  0.22211937349E+04  0.12699999809E+01 0.  1.
       -4    1    3    3    0  502  0.39115678050E+02  0.63067400637E+03  0.31804695380E+03  0.70741445865E+03  0.12699999809E+01 0. -1.
</event>
<event>
 5   0  0.9254673E-05  0.2181777E+04  0.7818609E-02  0.8526052E-01
        2   -1    0    0  501    0  0.00000000000E+00  0.00000000000E+00  0.12851824800E+04  0.12851824800E+04  0.25500000920E-02 0.  1.
       -2   -1    0    0    0  501  0.00000000000E+00  0.00000000000E+00 -0.92596755941E+03  0.92596755941E+03  0.25500000920E-02 0. -1.
    10030    2    1    2    0    0  0.00000000000E+00  0.00000000000E+00  0.35921492055E+03  0.22111500394E+04  0.21817766012E+04 0.  0.
        2    1    3    3  502    0 -0.45292113079E+03  0.41851614723E+03  0.10915800682E+04  0.12537305777E+04  0.25500000920E-02 0.  1.
       -2    1    3    3    0  502  0.45292113079E+03 -0.41851614723E+03 -0.73236514760E+03  0.95741946170E+03  0.25500000920E-02 0. -1.
</event>
<event>
 5   0  0.9254673E-05  0.2122810E+04  0.7818609E-02  0.8551261E-01
        2   -1    0    0  501    0  0.00000000000E+00  0.00000000000E+00  0.10800278637E+04  0.10800278637E+04  0.25500000920E-02 0.  1.
       -2   -1    0    0    0  501  0.00000000000E+00  0.00000000000E+00 -0.10431031473E+04  0.10431031473E+04  0.25500000920E-02 0. -1.
    10030    2    1    2    0    0  0.00000000000E+00  0.00000000000E+00  0.36924716393E+02  0.21231310110E+04  0.21228098961E+04 0.  0.
        2    1    3    3  502    0  0.94990590615E+03 -0.24105363376E+03 -0.38921723412E+03  0.10544752914E+04  0.25500000920E-02 0. -1.
       -2    1    3    3    0  502 -0.94990590615E+03  0.24105363376E+03  0.42614195051E+03  0.10686557195E+04  0.25500000920E-02 0.  1.
</event>
<event>
 5   0  0.4133418E-05  0.2076228E+04  0.7818609E-02  0.8571788E-01
        1   -1    0    0  501    0  0.00000000000E+00  0.00000000000E+00  0.12537375569E+04  0.12537375569E+04  0.50400001928E-02 0. -1.
       -1   -1    0    0    0  501  0.00000000000E+00  0.00000000000E+00 -0.85957451441E+03  0.85957451442E+03  0.50400001928E-02 0.  1.
    10030    2    1    2    0    0  0.00000000000E+00  0.00000000000E+00  0.39416304248E+03  0.21133120713E+04  0.20762281683E+04 0.  0.
        4    1    3    3  502    0 -0.55121630102E+03 -0.57255672387E+03 -0.48269326623E+03  0.92986827815E+03  0.12699999809E+01 0.  1.
       -4    1    3    3    0  502  0.55121630102E+03  0.57255672387E+03  0.87685630871E+03  0.11834437932E+04  0.12699999809E+01 0. -1.
</event>
<event>
 5   0  0.4174075E-05  0.2170069E+04  0.7818609E-02  0.8530990E-01
        1   -1    0    0  501    0  0.00000000000E+00  0.00000000000E+00  0.12054179607E+04  0.12054179607E+04  0.50400001928E-02 0. -1.
       -1   -1    0    0    0  501  0.00000000000E+00  0.00000000000E+00 -0.97667383680E+03  0.97667383681E+03  0.50400001928E-02 0.  1.
    10030    2    1    2    0    0  0.00000000000E+00  0.00000000000E+00  0.22874412387E+03  0.21820917975E+04  0.21700692935E+04 0.  0.
        5    1    3    3  502    0 -0.76949283880E+03  0.51521555558E+03  0.68293526069E+03  0.11506471909E+04  0.46999998093E+01 0. -1.
       -5    1    3    3    0  502  0.76949283880E+03 -0.51521555558E+03 -0.45419113682E+03  0.10314446066E+04  0.46999998093E+01 0.  1.
</event>
<event>
 5   0  0.4174030E-05  0.2184581E+04  0.7818609E-02  0.8524873E-01
       -1   -1    0    0    0  501  0.00000000000E+00  0.00000000000E+00  0.16352598414E+04  0.16352598414E+04  0.50400001928E-02 0. -1.
        1   -1    0    0  501    0  0.00000000000E+00  0.00000000000E+00 -0.72960793737E+03  0.72960793738E+03  0.50400001928E-02 0.  1.
    10030    2    1    2    0    0  0.00000000000E+00  0.00000000000E+00  0.90565190405E+03  0.23648677788E+04  0.21845810216E+04 0.  0.
        2    1    3    3  502    0  0.42867302182E+02 -0.79898335750E+03 -0.35210146380E+03  0.87417815803E+03  0.25500000920E-02 0.  1.
       -2    1    3    3    0  502 -0.42867302182E+02  0.79898335750E+03  0.12577533679E+04  0.14906896208E+04  0.25500000920E-02 0. -1.
</event>
<event>
 5   0  0.9179618E-05  0.2220660E+04  0.7818609E-02  0.8509878E-01
       -2   -1    0    0    0  501  0.00000000000E+00  0.00000000000E+00  0.15203550264E+04  0.15203550264E+04  0.25500000920E-02 0.  1.
        2   -1    0    0  501    0  0.00000000000E+00  0.00000000000E+00 -0.81088505668E+03  0.81088505668E+03  0.25500000920E-02 0. -1.
    10030    2    1    2    0    0  0.00000000000E+00  0.00000000000E+00  0.70946996974E+03  0.23312400831E+04  0.22206604169E+04 0.  0.
        3    1    3    3  502    0  0.94185209457E+03 -0.21472923988E+03  0.92938593146E+03  0.13405044701E+04  0.10100000352E+00 0.  1.
       -3    1    3    3    0  502 -0.94185209457E+03  0.21472923988E+03 -0.21991596172E+03  0.99073561303E+03  0.10100000352E+00 0. -1.
</event>
<event>
 5   0  0.4174030E-05  0.2257804E+04  0.7818609E-02  0.8494747E-01
       -1   -1    0    0    0  501  0.00000000000E+00  0.00000000000E+00  0.20554685088E+04  0.20554685088E+04  0.50400001928E-02 0. -1.
        1   -1    0    0  501    0  0.00000000000E+00  0.00000000000E+00 -0.62001416364E+03  0.62001416366E+03  0.50400001928E-02 0.  1.
    10030    2    1    2    0    0  0.00000000000E+00  0.00000000000E+00  0.14354543451E+04  0.26754826724E+04  0.22578038784E+04 0.  0.
        2    1    3    3  502    0  0.85244697591E+03  0.64367426617E+03  0.11505940513E+04  0.15699837829E+04  0.25500000920E-02 0. -1.
       -2    1    3    3    0  502 -0.85244697591E+03 -0.64367426617E+03  0.28486029378E+03  0.11054988895E+04  0.25500000920E-02 0.  1.
</event>
<event>
 5   0  0.4063293E-05  0.1780273E+04  0.7818609E-02  0.8716861E-01
       -1   -1    0    0    0  501  0.00000000000E+00  0.00000000000E+00  0.57819483428E+03  0.57819483430E+03  0.50400001928E-02 0.  1.
        1   -1    0    0  501    0  0.00000000000E+00  0.00000000000E+00 -0.13703735942E+04  0.13703735942E+04  0.50400001928E-02 0. -1.
    10030    2    1    2    0    0  0.00000000000E+00  0.00000000000E+00 -0.79217875987E+03  0.19485684285E+04  0.17802729377E+04 0.  0.
        1    1    3    3  502    0  0.78110395985E+03 -0.23264003581E+03 -0.43470502141E+01  0.81502372925E+03  0.50400001928E-02 0.  1.
       -1    1    3    3    0  502 -0.78110395985E+03  0.23264003581E+03 -0.78783170965E+03  0.11335446992E+04  0.50400001928E-02 0. -1.
</event>
<event>
 5   0  0.9457742E-05  0.2213777E+04  0.7818609E-02  0.8512716E-01
        2   -1    0    0  501    0  0.00000000000E+00  0.00000000000E+00  0.16545316868E+04  0.16545316868E+04  0.25500000920E-02 0.  1.
       -2   -1    0    0    0  501  0.00000000000E+00  0.00000000000E+00 -0.74051279056E+03  0.74051279056E+03  0.25500000920E-02 0. -1.
    10030    2    1    2    0    0  0.00000000000E+00  0.00000000000E+00  0.91401889620E+03  0.23950444773E+04  0.22137767516E+04 0.  0.
        1    1    3    3  502    0  0.14486084402E+03 -0.20527899632E+03 -0.70925584819E+03  0.75244135232E+03  0.50400001928E-02 0. -1.
       -1    1    3    3    0  502 -0.14486084402E+03  0.20527899632E+03  0.16232747444E+04  0.16426031250E+04  0.50400001928E-02 0.  1.
</event>
<event>
 5   0  0.4174075E-05  0.2214516E+04  0.7818609E-02  0.8512410E-01
       -1   -1    0    0    0  501  0.00000000000E+00  0.00000000000E+00  0.19849995997E+04  0.19849995997E+04  0.50400001928E-02 0.  1.
        1   -1    0    0  501    0  0.00000000000E+00  0.00000000000E+00 -0.61764284088E+03  0.61764284090E+03  0.50400001928E-02 0. -1.
    10030    2    1    2    0    0  0.00000000000E+00  0.00000000000E+00  0.13673567588E+04  0.26026424406E+04  0.22145164636E+04 0.  0.
        5    1    3    3  502    0 -0.22317710972E+03  0.80993941463E+03 -0.16397071595E+03  0.85598969816E+03  0.46999998093E+01 0. -1.
       -5    1    3    3    0  502  0.22317710972E+03 -0.80993941463E+03  0.15313274747E+04  0.17466527424E+04  0.46999998093E+01 0.  1.
</event>
<event>
 5   0  0.4174075E-05  0.2182207E+04  0.7818609E-02  0.8525871E-01
       -1   -1    0    0    0  501  0.00000000000E+00  0.00000000000E+00  0.86815897308E+03  0.86815897310E+03  0.50400001928E-02 0. -1.
        1   -1    0    0  501    0  0.00000000000E+00  0.00000000000E+00 -0.13713005924E+04  0.13713005924E+04  0.50400001928E-02 0.  1.
    10030    2    1    2    0    0  0.00000000000E+00  0.00000000000E+00 -0.50314161934E+03  0.22394595655E+04  0.21822070609E+04 0.  0.
        5    1    3    3  502    0 -0.51617804589E+03  0.63962126303E+03 -0.98798345091E+03  0.12851803470E+04  0.46999998093E+01 0.  1.
       -5    1    3    3    0  502  0.51617804589E+03 -0.63962126303E+03  0.48484183157E+03  0.95427921847E+03  0.46999998093E+01 0. -1.
</event>
<event>
 5   0  0.9254673E-05  0.2193993E+04  0.7818609E-02  0.8520933E-01
       -2   -1    0    0    0  501  0.00000000000E+00  0.00000000000E+00  0.97964037683E+03  0.97964037684E+03  0.25500000920E-02 0. -1.
        2   -1    0    0  501    0  0.00000000000E+00  0.00000000000E+00 -0.12284110935E+04  0.12284110935E+04  0.25500000920E-02 0.  1.
    10030    2    1    2    0    0  0.00000000000E+00  0.00000000000E+00 -0.24877071665E+03  0.22080514703E+04  0.21939928045E+04 0.  0.
        2    1    3    3  502    0 -0.56223063433E+03 -0.42212236818E+02  0.82266306904E+03  0.99732626772E+03  0.25500000920E-02 0. -1.
       -2    1    3    3    0  502  0.56223063433E+03  0.42212236818E+02 -0.10714337857E+04  0.12107252026E+04  0.25500000920E-02 0.  1.
</event>
<event>
 5   0  0.9254673E-05  0.2183441E+04  0.7818609E-02  0.8525352E-01
        2   -1    0    0  501    0  0.00000000000E+00  0.00000000000E+00  0.10492584957E+04  0.10492584957E+04  0.25500000920E-02 0.  1.
       -2   -1    0    0    0  501  0.00000000000E+00  0.00000000000E+00 -0.11359008119E+04  0.11359008119E+04  0.25500000920E-02 0. -1.
    10030    2    1    2    0    0  0.00000000000E+00  0.00000000000E+00 -0.86642316205E+02  0.21851593076E+04  0.21834409332E+04 0.  0.
        2    1    3    3  502    0 -0.21591962694E+03 -0.61728553211E+02 -0.11125354441E+04  0.11349743671E+04  0.25500000920E-02 0. -1.
       -2    1    3    3    0  502  0.21591962694E+03  0.61728553211E+02  0.10258931279E+04  0.10501849406E+04  0.25500000920E-02 0.  1.
</event>
<event>
 5   0  0.4188865E-05  0.2210173E+04  0.7818609E-02  0.8514206E-01
       -1   -1    0    0    0  501  0.00000000000E+00  0.00000000000E+00  0.69299896026E+03  0.69299896028E+03  0.50400001928E-02 0.  1.
        1   -1    0    0  501    0  0.00000000000E+00  0.00000000000E+00 -0.17622198135E+04  0.17622198135E+04  0.50400001928E-02 0. -1.
    10030    2    1    2    0    0  0.00000000000E+00  0.00000000000E+00 -0.10692208532E+04  0.24552187738E+04  0.22101732950E+04 0.  0.
        3    1    3    3  502    0  0.61057285512E+03 -0.82250578112E+03 -0.74031860207E+02  0.10270324717E+04  0.10100000352E+00 0. -1.
       -3    1    3    3    0  502 -0.61057285512E+03  0.82250578112E+03 -0.99518899302E+03  0.14281863021E+04  0.10100000352E+00 0.  1.
</event>
<event>
 5   0  0.9938176E-05  0.2188241E+04  0.7818609E-02  0.8523338E-01
       -2   -1    0    0    0  501  0.00000000000E+00  0.00000000000E+00  0.12692247960E+04  0.12692247960E+04  0.25500000920E-02 0.  1.
        2   -1    0    0  501    0  0.00000000000E+00  0.00000000000E+00 -0.94317418668E+03  0.94317418668E+03  0.25500000920E-02 0. -1.
    10030    2    1    2    0    0  0.00000000000E+00  0.00000000000E+00  0.32605060930E+03  0.22123989827E+04  0.21882413621E+04 0.  0.
        5    1    3    3  502    0  0.33759377346E+03 -0.72664062212E+03  0.91630204048E+03  0.12172130746E+04  0.46999998093E+01 0.  1.
       -5    1    3    3    0  502 -0.33759377346E+03  0.72664062212E+03 -0.59025143118E+03  0.99518590806E+03  0.46999998093E+01 0. -1.
</event>
<event>
 5   0  0.4133418E-05  0.2138261E+04  0.7818609E-02  0.8544574E-01
        1   -1    0    0  501    0  0.00000000000E+00  0.00000000000E+00  0.15713209781E+04  0.15713209781E+04  0.50400001928E-02 0. -1.
       -1   -1    0    0    0  501  0.00000000000E+00  0.00000000000E+00 -0.72743888428E+03  0.72743888430E+03  0.50400001928E-02 0.  1.
    10030    2    1    2    0    0  0.00000000000E+00  0.00000000000E+00  0.84388209383E+03  0.22987598624E+04  0.21382609562E+04 0.  0.
        4    1    3    3  502    0  0.12642003307E+03  0.93286936385E+02 -0.71495963166E+03  0.73202005783E+03  0.12699999809E+01 0.  1.
       -4    1    3    3    0  502 -0.12642003307E+03 -0.93286936385E+02  0.15588417255E+04  0.15667398046E+04  0.12699999809E+01 0. -1.
</event>
<event>
 5   0  0.9254673E-05  0.2230589E+04  0.7818609E-02  0.8505803E-01
       -2   -1    0    0    0  501  0.00000000000E+00  0.00000000000E+00  0.14410658458E+04  0.14410658458E+04  0.25500000920E-02 0. -1.
        2   -1    0    0  501    0  0.00000000000E+00  0.00000000000E+00 -0.86316789251E+03  0.86316789251E+03  0.25500000920E-02 0.  1.
    10030    2    1    2    0    0  0.00000000000E+00  0.00000000000E+00  0.57789795326E+03  0.23042337383E+04  0.22305889528E+04 0.  0.
        2    1    3    3  502    0 -0.10704836631E+04  0.14417591109E+03  0.57589653841E+03  0.12240828359E+04  0.25500000920E-02 0. -1.
       -2    1    3    3    0  502  0.10704836631E+04 -0.14417591109E+03  0.20014148514E+01  0.10801509024E+04  0.25500000920E-02 0.  1.
</event>
<event>
 5   0  0.4188865E-05  0.2196080E+04  0.7818609E-02  0.8520061E-01
       -1   -1    0    0    0  501  0.00000000000E+00  0.00000000000E+00  0.11388905715E+04  0.11388905715E+04  0.50400001928E-02 0. -1.
        1   -1    0    0  501    0  0.00000000000E+00  0.00000000000E+00 -0.10586548166E+04  0.10586548166E+04  0.50400001928E-02 0.  1.
    10030    2    1    2    0    0  0.00000000000E+00  0.00000000000E+00  0.80235754896E+02  0.21975453881E+04  0.21960801344E+04 0.  0.
        3    1    3    3  502    0 -0.17779642893E+03  0.10547617699E+04  0.28839230131E+03  0.11078375743E+04  0.10100000352E+00 0. -1.
       -3    1    3    3    0  502  0.17779642893E+03 -0.10547617699E+04 -0.20815654641E+03  0.10897078138E+04  0.10100000352E+00 0.  1.
</event>
<event>
 5   0  0.4174075E-05  0.2193447E+04  0.7818609E-02  0.8521161E-01
       -1   -1    0    0    0  501  0.00000000000E+00  0.00000000000E+00  0.68837675970E+03  0.68837675971E+03  0.50400001928E-02 0.  1.
        1   -1    0    0  501    0  0.00000000000E+00  0.00000000000E+00 -0.17473026721E+04  0.17473026721E+04  0.50400001928E-02 0. -1.
    10030    2    1    2    0    0  0.00000000000E+00  0.00000000000E+00 -0.10589259124E+04  0.24356794318E+04  0.21934471059E+04 0.  0.
        5    1    3    3  502    0  0.33265474466E+03  0.10183981720E+04 -0.26907506366E+03  0.11046345531E+04  0.46999998093E+01 0.  1.
       -5    1    3    3    0  502 -0.33265474466E+03 -0.10183981720E+04 -0.78985084870E+03  0.13310448787E+04  0.46999998093E+01 0. -1.
</event>
<event>
 5   0  0.4174030E-05  0.2360249E+04  0.7818609E-02  0.8454537E-01
       -1   -1    0    0    0  501  0.00000000000E+00  0.00000000000E+00  0.63051426797E+03  0.63051426799E+03  0.50400001928E-02 0. -1.
        1   -1    0    0  501    0  0.00000000000E+00  0.00000000000E+00 -0.22088228184E+04  0.22088228184E+04  0.50400001928E-02 0.  1.
    10030    2    1    2    0    0  0.00000000000E+00  0.00000000000E+00 -0.15783085504E+04  0.28393370864E+04  0.23602493957E+04 0.  0.
        2    1    3    3  502    0 -0.82081238076E+03  0.58916671828E+02  0.22840775657E+03  0.85403409879E+03  0.25500000920E-02 0. -1.
       -2    1    3    3    0  502  0.82081238076E+03 -0.58916671828E+02 -0.18067163070E+04  0.19853029876E+04  0.25500000920E-02 0.  1.
</event>
<event>
 5   0  0.4174075E-05  0.2184323E+04  0.7818609E-02  0.8524982E-01
       -1   -1    0    0    0  501  0.00000000000E+00  0.00000000000E+00  0.11406409648E+04  0.11406409648E+04  0.50400001928E-02 0. -1.
        1   -1    0    0  501    0  0.00000000000E+00  0.00000000000E+00 -0.10457424712E+04  0.10457424712E+04  0.50400001928E-02 0.  1.
    10030    2    1    2    0    0  0.00000000000E+00  0.00000000000E+00  0.94898493554E+02  0.21863834360E+04  0.21843229627E+04 0.  0.
        5    1    3    3  502    0 -0.79966154313E+03 -0.23680069229E+03 -0.65838362048E+03  0.10625555200E+04  0.46999998093E+01 0.  1.
       -5    1    3    3    0  502  0.79966154313E+03  0.23680069229E+03  0.75328211404E+03  0.11238279160E+04  0.46999998093E+01 0. -1.
</event>
<event>
 5   0  0.9254673E-05  0.2241543E+04  0.7818609E-02  0.8501333E-01
       -2   -1    0    0    0  501  0.00000000000E+00  0.00000000000E+00  0.79227121810E+03  0.79227121810E+03  0.25500000920E-02 0.  1.
        2   -1    0    0  501    0  0.00000000000E+00  0.00000000000E+00 -0.15854776496E+04  0.15854776496E+04  0.25500000920E-02 0. -1.
    10030    2    1    2    0    0  0.00000000000E+00  0.00000000000E+00 -0.79320643150E+03  0.23777488677E+04  0.22415426016E+04 0.  0.
        2    1    3    3  502    0  0.19206029429E+03 -0.45943889418E+03 -0.14616853086E+04  0.15441810760E+04  0.25500000920E-02 0. -1.
       -2    1    3    3    0  502 -0.19206029429E+03  0.45943889418E+03  0.66847887713E+03  0.83356779166E+03  0.25500000920E-02 0.  1.
</event>
<event>
 5   0  0.9254673E-05  0.2247231E+04  0.7818609E-02  0.8499023E-01
       -2   -1    0    0    0  501  0.00000000000E+00  0.00000000000E+00  0.64207905526E+03  0.64207905527E+03  0.25500000920E-02 0. -1.
        2   -1    0    0  501    0  0.00000000000E+00  0.00000000000E+00 -0.19662876623E+04  0.19662876623E+04  0.25500000920E-02 0.  1.
    10030    2    1    2    0    0  0.00000000000E+00  0.00000000000E+00 -0.13242086070E+04  0.26083667176E+04  0.22472312961E+04 0.  0.
        2    1    3    3  502    0  0.21695062281E+03 -0.21006435067E+03  0.59409397902E+03  0.66643998985E+03  0.25500000920E-02 0. -1.
       -2    1    3    3    0  502 -0.21695062281E+03  0.21006435067E+03 -0.19183025860E+04  0.19419267277E+04  0.25500000920E-02 0.  1.
</event>
<event>
 5   0  0.4133418E-05  0.2319304E+04  0.7818609E-02  0.8470349E-01
        1   -1    0    0  501    0  0.00000000000E+00  0.00000000000E+00  0.11151374640E+04  0.11151374640E+04  0.50400001928E-02 0.  1.
       -1   -1    0    0    0  501  0.00000000000E+00  0.00000000000E+00 -0.12059433862E+04  0.12059433862E+04  0.50400001928E-02 0. -1.
    10030    2    1    2    0    0  0.00000000000E+00  0.00000000000E+00 -0.90805922155E+02  0.23210808502E+04  0.23193039037E+04 0.  0.
        4    1    3    3  502    0  0.39080682375E+03  0.43106226809E+03 -0.10492898353E+04  0.11998147457E+04  0.12699999809E+01 0. -1.
       -4    1    3    3    0  502 -0.39080682375E+03 -0.43106226809E+03  0.95848391318E+03  0.11212661045E+04  0.12699999809E+01 0.  1.
</event>
<event>
 5   0  0.9442578E-05  0.2027961E+04  0.7818609E-02  0.8593659E-01
        2   -1    0    0  501    0  0.00000000000E+00  0.00000000000E+00  0.98672575670E+03  0.98672575671E+03  0.25500000920E-02 0.  1.
       -2   -1    0    0    0  501  0.00000000000E+00  0.00000000000E+00 -0.10419876490E+04  0.10419876490E+04  0.25500000920E-02 0. -1.
    10030    2    1    2    0    0  0.00000000000E+00  0.00000000000E+00 -0.55261892309E+02  0.20287134057E+04  0.20279606026E+04 0.  0.
        4    1    3    3  502    0  0.54418268299E+03  0.40835232022E+03 -0.77975312705E+03  0.10348444144E+04  0.12699999809E+01 0. -1.
       -4    1    3    3    0  502 -0.54418268299E+03 -0.40835232022E+03  0.72449123474E+03  0.99386899137E+03  0.12699999809E+01 0.  1.
</event>
<event>
 5   0  0.3283125E-05  0.2193587E+04  0.7818609E-02  0.8521102E-01
       -3   -1    0    0    0  501  0.00000000000E+00  0.00000000000E+00  0.63072524244E+03  0.63072525053E+03  0.10100000352E+00 0. -1.
        3   -1    0    0  501    0  0.00000000000E+00  0.00000000000E+00 -0.19072587560E+04  0.19072587587E+04  0.10100000352E+00 0.  1.
    10030    2    1    2    0    0  0.00000000000E+00  0.00000000000E+00 -0.12765335136E+04  0.25379840092E+04  0.21935872492E+04 0.  0.
        4    1    3    3  502    0  0.46480005871E+03  0.96350512908E+03 -0.35824986128E+03  0.11281514988E+04  0.12699999809E+01 0. -1.
       -4    1    3    3    0  502 -0.46480005871E+03 -0.96350512908E+03 -0.91828365227E+03  0.14098325104E+04  0.12699999809E+01 0.  1.
</event>
<event>
 5   0  0.4174075E-05  0.2178874E+04  0.7818609E-02  0.8527273E-01
        1   -1    0    0  501    0  0.00000000000E+00  0.00000000000E+00  0.93572002800E+03  0.93572002801E+03  0.50400001928E-02 0. -1.
       -1   -1    0    0    0  501  0.00000000000E+00  0.00000000000E+00 -0.12684064349E+04  0.12684064350E+04  0.50400001928E-02 0.  1.
    10030    2    1    2    0    0  0.00000000000E+00  0.00000000000E+00 -0.33268640695E+03  0.22041264630E+04  0.21788743010E+04 0.  0.
        5    1    3    3  502    0  0.21251889360E+03 -0.51841610741E+00 -0.12472239891E+04  0.12652091993E+04  0.46999998093E+01 0.  1.
       -5    1    3    3    0  502 -0.21251889360E+03  0.51841610741E+00  0.91453758216E+03  0.93891726370E+03  0.46999998093E+01 0. -1.
</event>
<event>
 5   0  0.4188865E-05  0.2202986E+04  0.7818609E-02  0.8517186E-01
        1   -1    0    0  501    0  0.00000000000E+00  0.00000000000E+00  0.92058314972E+03  0.92058314974E+03  0.50400001928E-02 0.  1.
       -1   -1    0    0    0  501  0.00000000000E+00  0.00000000000E+00 -0.13179547023E+04  0.13179547023E+04  0.50400001928E-02 0. -1.
    10030    2    1    2    0    0  0.00000000000E+00  0.00000000000E+00 -0.39737155256E+03  0.22385378520E+04  0.22029860563E+04 0.  0.
        3    1    3    3  502    0  0.90850977059E+03  0.62208519994E+03 -0.22928623889E+03  0.11247009330E+04  0.10100000352E+00 0.  1.
       -3    1    3    3    0  502 -0.90850977059E+03 -0.62208519994E+03 -0.16808531367E+03  0.11138369190E+04  0.10100000352E+00 0. -1.
</event>
<event>
 5   0  0.9254673E-05  0.2200129E+04  0.7818609E-02  0.8518374E-01
        2   -1    0    0  501    0  0.00000000000E+00  0.00000000000E+00  0.12309418779E+04  0.12309418779E+04  0.25500000920E-02 0.  1.
       -2   -1    0    0    0  501  0.00000000000E+00  0.00000000000E+00 -0.98310229114E+03  0.98310229114E+03  0.25500000920E-02 0. -1.
    10030    2    1    2    0    0  0.00000000000E+00  0.00000000000E+00  0.24783958673E+03  0.22140441690E+04  0.22001288875E+04 0.  0.
        2    1    3    3  502    0 -0.54443487311E+03 -0.80912497595E+03  0.63610768102E+03  0.11643562769E+04  0.25500000920E-02 0.  1.
       -2    1    3    3    0  502  0.54443487311E+03  0.80912497595E+03 -0.38826809428E+03  0.10496878921E+04  0.25500000920E-02 0. -1.
</event>
<event>
 5   0  0.4063293E-05  0.2130079E+04  0.7818609E-02  0.8548108E-01
       -1   -1    0    0    0  501  0.00000000000E+00  0.00000000000E+00  0.68152343841E+03  0.68152343843E+03  0.50400001928E-02 0.  1.
        1   -1    0    0  501    0  0.00000000000E+00  0.00000000000E+00 -0.16643732359E+04  0.16643732359E+04  0.50400001928E-02 0. -1.
    10030    2    1    2    0    0  0.00000000000E+00  0.00000000000E+00 -0.98284979747E+03  0.23458966743E+04  0.21300792197E+04 0.  0.
        1    1    3    3  502    0  0.30845863072E+03 -0.10056492538E+04 -0.30769194237E+03  0.10959705653E+04  0.50400001928E-02 0. -1.
       -1    1    3    3    0  502 -0.30845863072E+03  0.10056492538E+04 -0.67515785510E+03  0.12499261090E+04  0.50400001928E-02 0.  1.
</event>
<event>
 5   0  0.9254673E-05  0.2191980E+04  0.7818609E-02  0.8521774E-01
        2   -1    0    0  501    0  0.00000000000E+00  0.00000000000E+00  0.27485155831E+04  0.27485155831E+04  0.25500000920E-02 0.  1.
       -2   -1    0    0    0  501  0.00000000000E+00  0.00000000000E+00 -0.43703386253E+03  0.43703386253E+03  0.25500000920E-02 0. -1.
    10030    2    1    2    0    0  0.00000000000E+00  0.00000000000E+00  0.23114817206E+04  0.31855494456E+04  0.21919802750E+04 0.  0.
        2    1    3    3  502    0  0.27658170721E+03  0.63672503071E+03 -0.76785312885E+02  0.69843553015E+03  0.25500000920E-02 0. -1.
       -2    1    3    3    0  502 -0.27658170721E+03 -0.63672503071E+03  0.23882670335E+04  0.24871139155E+04  0.25500000920E-02 0.  1.
</event>
<event>
 5   0  0.9254673E-05  0.2151526E+04  0.7818609E-02  0.8538879E-01
       -2   -1    0    0    0  501  0.00000000000E+00  0.00000000000E+00  0.52636038639E+03  0.52636038639E+03  0.25500000920E-02 0.  1.
        2   -1    0    0  501    0  0.00000000000E+00  0.00000000000E+00 -0.21986188249E+04  0.21986188249E+04  0.25500000920E-02 0. -1.
    10030    2    1    2    0    0  0.00000000000E+00  0.00000000000E+00 -0.16722584385E+04  0.27249792113E+04  0.21515258346E+04 0.  0.
        2    1    3    3  502    0 -0.10237029289E+04 -0.21736712751E+03 -0.11516198518E+04  0.15560991093E+04  0.25500000920E-02 0.  1.
       -2    1    3    3    0  502  0.10237029289E+04  0.21736712751E+03 -0.52063858669E+03  0.11688801020E+04  0.25500000920E-02 0. -1.
</event>
<event>
 5   0  0.4188865E-05  0.2204382E+04  0.7818609E-02  0.8516606E-01
        1   -1    0    0  501    0  0.00000000000E+00  0.00000000000E+00  0.16979068710E+04  0.16979068711E+04  0.50400001928E-02 0. -1.
       -1   -1    0    0    0  501  0.00000000000E+00  0.00000000000E+00 -0.71548392709E+03  0.71548392711E+03  0.50400001928E-02 0.  1.
    10030    2    1    2    0    0  0.00000000000E+00  0.00000000000E+00  0.98242294395E+03  0.24133907982E+04  0.22043820685E+04 0.  0.
        3    1    3    3  502    0  0.39820836214E+03  0.10024905966E+04  0.24331919536E+03  0.11057854841E+04  0.10100000352E+00 0. -1.
       -3    1    3    3    0  502 -0.39820836214E+03 -0.10024905966E+04  0.73910374859E+03  0.13076053140E+04  0.10100000352E+00 0.  1.
</event>
<event>
 5   0  0.4063293E-05  0.2187347E+04  0.7818609E-02  0.8523713E-01
       -1   -1    0    0    0  501  0.00000000000E+00  0.00000000000E+00  0.12668046415E+04  0.12668046415E+04  0.50400001928E-02 0.  1.
        1   -1    0    0  501    0  0.00000000000E+00  0.00000000000E+00 -0.94420374847E+03  0.94420374849E+03  0.50400001928E-02 0. -1.
    10030    2    1    2    0    0  0.00000000000E+00  0.00000000000E+00  0.32260089304E+03  0.22110083900E+04  0.21873469694E+04 0.  0.
        1    1    3    3  502    0  0.33177056161E+03 -0.10099980094E+04  0.42089364132E+03  0.11433805761E+04  0.50400001928E-02 0.  1.
       -1    1    3    3    0  502 -0.33177056161E+03  0.10099980094E+04 -0.98292748272E+02  0.10676278139E+04  0.50400001928E-02 0. -1.
</event>
<event>
 5   0  0.4188865E-05  0.2331992E+04  0.7818609E-02  0.8465413E-01
       -1   -1    0    0    0  501  0.00000000000E+00  0.00000000000E+00  0.15886840427E+04  0.15886840427E+04  0.50400001928E-02 0. -1.
        1   -1    0    0  501    0  0.00000000000E+00  0.00000000000E+00 -0.85576922806E+03  0.85576922808E+03  0.50400001928E-02 0.  1.
    10030    2    1    2    0    0  0.00000000000E+00  0.00000000000E+00  0.73291481464E+03  0.24444532708E+04  0.23319922100E+04 0.  0.
        3    1    3    3  502    0 -0.53340707760E+02  0.28411588993E+03 -0.81761033568E+03  0.86721032121E+03  0.10100000352E+00 0.  1.
       -3    1    3    3    0  502  0.53340707760E+02 -0.28411588993E+03  0.15505251503E+04  0.15772429496E+04  0.10100000352E+00 0. -1.
</event>
<event>
 5   0  0.3283125E-05  0.2231458E+04  0.7818609E-02  0.8505448E-01
        3   -1    0    0  501    0  0.00000000000E+00  0.00000000000E+00  0.20040891931E+04  0.20040891957E+04  0.10100000352E+00 0. -1.
       -3   -1    0    0    0  501  0.00000000000E+00  0.00000000000E+00 -0.62115547679E+03  0.62115548500E+03  0.10100000352E+00 0.  1.
    10030    2    1    2    0    0  0.00000000000E+00  0.00000000000E+00  0.13829337163E+04  0.26252446807E+04  0.22314578126E+04 0.  0.
        2    1    3    3  502    0 -0.28909794274E+03 -0.10684952416E+04  0.85613615420E+03  0.13993672915E+04  0.25500000920E-02 0.  1.
       -2    1    3    3    0  502  0.28909794274E+03  0.10684952416E+04  0.52679756213E+03  0.12258773892E+04  0.25500000920E-02 0. -1.
</event>
<event>
 5   0  0.4133418E-05  0.2190578E+04  0.7818609E-02  0.8522360E-01
        1   -1    0    0  501    0  0.00000000000E+00  0.00000000000E+00  0.10534668415E+04  0.10534668415E+04  0.50400001928E-02 0.  1.
       -1   -1    0    0    0  501  0.00000000000E+00  0.00000000000E+00 -0.11387719319E+04  0.11387719320E+04  0.50400001928E-02 0. -1.
    10030    2    1    2    0    0  0.00000000000E+00  0.00000000000E+00 -0.85305090434E+02  0.21922387735E+04  0.21905784354E+04 0.  0.
        4    1    3    3  502    0 -0.49375269200E+01 -0.22094146686E+03 -0.11162271911E+04  0.11378946639E+04  0.12699999809E+01 0. -1.
       -4    1    3    3    0  502  0.49375269200E+01  0.22094146686E+03  0.10309221007E+04  0.10543441096E+04  0.12699999809E+01 0.  1.
</event>
<event>
 5   0  0.4133418E-05  0.2095557E+04  0.7818609E-02  0.8563203E-01
        1   -1    0    0  501    0  0.00000000000E+00  0.00000000000E+00  0.69330423977E+03  0.69330423979E+03  0.50400001928E-02 0. -1.
       -1   -1    0    0    0  501  0.00000000000E+00  0.00000000000E+00 -0.15834887450E+04  0.15834887450E+04  0.50400001928E-02 0.  1.
    10030    2    1    2    0    0  0.00000000000E+00  0.00000000000E+00 -0.89018450525E+03  0.22767929848E+04  0.20955566903E+04 0.  0.
        4    1    3    3  502    0  0.29679427121E+03  0.14638610711E+03 -0.15252156838E+04  0.15607050416E+04  0.12699999809E+01 0.  1.
       -4    1    3    3    0  502 -0.29679427121E+03 -0.14638610711E+03  0.63503117857E+03  0.71608794322E+03  0.12699999809E+01 0. -1.
</event>
<event>
 5   0  0.9457742E-05  0.2185077E+04  0.7818609E-02  0.8524665E-01
        2   -1    0    0  501    0  0.00000000000E+00  0.00000000000E+00  0.13680616729E+04  0.13680616729E+04  0.25500000920E-02 0. -1.
       -2   -1    0    0    0  501  0.00000000000E+00  0.00000000000E+00 -0.87250471133E+03  0.87250471133E+03  0.25500000920E-02 0.  1.
    10030    2    1    2    0    0  0.00000000000E+00  0.00000000000E+00  0.49555696160E+03  0.22405663843E+04  0.21850768911E+04 0.  0.
        1    1    3    3  502    0 -0.95724824116E+03  0.39233896078E+03  0.60796245508E+03  0.11999468331E+04  0.50400001928E-02 0. -1.
       -1    1    3    3    0  502  0.95724824116E+03 -0.39233896078E+03 -0.11240549349E+03  0.10406195512E+04  0.50400001928E-02 0.  1.
</event>
<event>
 5   0  0.9179618E-05  0.2210087E+04  0.7818609E-02  0.8514241E-01
        2   -1    0    0  501    0  0.00000000000E+00  0.00000000000E+00  0.17704918531E+04  0.17704918531E+04  0.25500000920E-02 0. -1.
       -2   -1    0    0    0  501  0.00000000000E+00  0.00000000000E+00 -0.68970740294E+03  0.68970740295E+03  0.25500000920E-02 0.  1.
    10030    2    1    2    0    0  0.00000000000E+00  0.00000000000E+00  0.10807844502E+04  0.24601992561E+04  0.22100871820E+04 0.  0.
        3    1    3    3  502    0 -0.40419870416E+03 -0.69929269668E+03  0.13798824597E+04  0.15988941431E+04  0.10100000352E+00 0. -1.
       -3    1    3    3    0  502  0.40419870416E+03  0.69929269668E+03 -0.29909800955E+03  0.86130511295E+03  0.10100000352E+00 0.  1.
</event>
<event>
 5   0  0.4174075E-05  0.2137559E+04  0.7818609E-02  0.8544876E-01
       -1   -1    0    0    0  501  0.00000000000E+00  0.00000000000E+00  0.62552946906E+03  0.62552946908E+03  0.50400001928E-02 0. -1.
        1   -1    0    0  501    0  0.00000000000E+00  0.00000000000E+00 -0.18261162023E+04  0.18261162023E+04  0.50400001928E-02 0.  1.
    10030    2    1    2    0    0  0.00000000000E+00  0.00000000000E+00 -0.12005867332E+04  0.24516456714E+04  0.21375588867E+04 0.  0.
        5    1    3    3  502    0 -0.11859081607E+03  0.85047959793E+03 -0.13300988317E+04  0.15832132895E+04  0.46999998093E+01 0. -1.
       -5    1    3    3    0  502  0.11859081607E+03 -0.85047959793E+03  0.12951209846E+03  0.86843238182E+03  0.46999998093E+01 0.  1.
</event>
<event>
 5   0  0.9254673E-05  0.2368426E+04  0.7818609E-02  0.8451420E-01
        2   -1    0    0  501    0  0.00000000000E+00  0.00000000000E+00  0.12962257409E+04  0.12962257409E+04  0.25500000920E-02 0.  1.
       -2   -1    0    0    0  501  0.00000000000E+00  0.00000000000E+00 -0.10818796024E+04  0.10818796024E+04  0.25500000920E-02 0. -1.
    10030    2    1    2    0    0  0.00000000000E+00  0.00000000000E+00  0.21434613856E+03  0.23781053433E+04  0.23684257972E+04 0.  0.
        2    1    3    3  502    0  0.42305839616E+03 -0.98192583707E+03  0.61837405268E+03  0.12351288293E+04  0.25500000920E-02 0.  1.
       -2    1    3    3    0  502 -0.42305839616E+03  0.98192583707E+03 -0.40402791412E+03  0.11429765140E+04  0.25500000920E-02 0. -1.
</event>
<event>
 5   0  0.9442578E-05  0.2203812E+04  0.7818609E-02  0.8516843E-01
       -2   -1    0    0    0  501  0.00000000000E+00  0.00000000000E+00  0.10333010818E+04  0.10333010818E+04  0.25500000920E-02 0.  1.
        2   -1    0    0  501    0  0.00000000000E+00  0.00000000000E+00 -0.11750655658E+04  0.11750655658E+04  0.25500000920E-02 0. -1.
    10030    2    1    2    0    0  0.00000000000E+00  0.00000000000E+00 -0.14176448404E+03  0.22083666477E+04  0.22038117164E+04 0.  0.
        4    1    3    3  502    0 -0.77001553176E+03  0.11958921417E+03 -0.85157489673E+03  0.11542993186E+04  0.12699999809E+01 0. -1.
       -4    1    3    3    0  502  0.77001553176E+03 -0.11958921417E+03  0.70981041269E+03  0.10540673290E+04  0.12699999809E+01 0.  1.
</event>
<event>
 5   0  0.4133418E-05  0.2218324E+04  0.7818609E-02  0.8510840E-01
        1   -1    0    0  501    0  0.00000000000E+00  0.00000000000E+00  0.20617117485E+04  0.20617117485E+04  0.50400001928E-02 0. -1.
       -1   -1    0    0    0  501  0.00000000000E+00  0.00000000000E+00 -0.59670814405E+03  0.59670814408E+03  0.50400001928E-02 0.  1.
    10030    2    1    2    0    0  0.00000000000E+00  0.00000000000E+00  0.14650036045E+04  0.26584198926E+04  0.22183238637E+04 0.  0.
        4    1    3    3  502    0 -0.55552444453E+03  0.36808519406E+03 -0.33004925050E+03  0.74365868462E+03  0.12699999809E+01 0.  1.
       -4    1    3    3    0  502  0.55552444453E+03 -0.36808519406E+03  0.17950528550E+04  0.19147612080E+04  0.12699999809E+01 0. -1.
</event>
<event>
 5   0  0.9938176E-05  0.2196549E+04  0.7818609E-02  0.8519866E-01
        2   -1    0    0  501    0  0.00000000000E+00  0.00000000000E+00  0.21920023416E+04  0.21920023416E+04  0.25500000920E-02 0.  1.
       -2   -1    0    0    0  501  0.00000000000E+00  0.00000000000E+00 -0.55027623562E+03  0.55027623563E+03  0.25500000920E-02 0. -1.
    10030    2    1    2    0    0  0.00000000000E+00  0.00000000000E+00  0.16417261059E+04  0.27422785772E+04  0.21965489268E+04 0.  0.
        5    1    3    3  502    0  0.77785198751E+03  0.28230047309E+03 -0.80649530702E+02  0.83142871515E+03  0.46999998093E+01 0. -1.
       -5    1    3    3    0  502 -0.77785198751E+03 -0.28230047309E+03  0.17223756366E+04  0.19108498620E+04  0.46999998093E+01 0.  1.
</event>
<event>
 5   0  0.9179618E-05  0.2158941E+04  0.7818609E-02  0.8535715E-01
        2   -1    0    0  501    0  0.00000000000E+00  0.00000000000E+00  0.13161487432E+04  0.13161487432E+04  0.25500000920E-02 0.  1.
       -2   -1    0    0    0  501  0.00000000000E+00  0.00000000000E+00 -0.88535329722E+03  0.88535329723E+03  0.25500000920E-02 0. -1.
    10030    2    1    2    0    0  0.00000000000E+00  0.00000000000E+00  0.43079544594E+03  0.22015020404E+04  0.21589410640E+04 0.  0.
        3    1    3    3  502    0 -0.76852978694E+03 -0.63088553706E+03 -0.21312725857E+03  0.10168961760E+04  0.10100000352E+00 0. -1.
       -3    1    3    3    0  502  0.76852978694E+03  0.63088553706E+03  0.64392270451E+03  0.11846058644E+04  0.10100000352E+00 0.  1.
</event>
<event>
 5   0  0.4133418E-05  0.2167953E+04  0.7818609E-02  0.8531886E-01
        1   -1    0    0  501    0  0.00000000000E+00  0.00000000000E+00  0.13223861728E+04  0.13223861728E+04  0.50400001928E-02 0.  1.
       -1   -1    0    0    0  501  0.00000000000E+00  0.00000000000E+00 -0.88854921626E+03  0.88854921628E+03  0.50400001928E-02 0. -1.
    10030    2    1    2    0    0  0.00000000000E+00  0.00000000000E+00  0.43383695653E+03  0.22109353891E+04  0.21679531337E+04 0.  0.
        4    1    3    3  502    0  0.32839961239E+03 -0.86870043273E+03  0.78703400911E+03  0.12173376243E+04  0.12699999809E+01 0.  1.
       -4    1    3    3    0  502 -0.32839961239E+03  0.86870043273E+03 -0.35319705258E+03  0.99359776474E+03  0.12699999809E+01 0. -1.
</event>
<event>
 5   0  0.4188865E-05  0.2198485E+04  0.7818609E-02  0.8519059E-01
        1   -1    0    0  501    0  0.00000000000E+00  0.00000000000E+00  0.11589819470E+04  0.11589819470E+04  0.50400001928E-02 0.  1.
       -1   -1    0    0    0  501  0.00000000000E+00  0.00000000000E+00 -0.10425822502E+04  0.10425822502E+04  0.50400001928E-02 0. -1.
    10030    2    1    2    0    0  0.00000000000E+00  0.00000000000E+00  0.11639969684E+03  0.22015641972E+04  0.21984849386E+04 0.  0.
        3    1    3    3  502    0 -0.60839417599E+03  0.23982294393E+03  0.94299580285E+03  0.11475624655E+04  0.10100000352E+00 0.  1.
       -3    1    3    3    0  502  0.60839417599E+03 -0.23982294393E+03 -0.82659610601E+03  0.10540017317E+04  0.10100000352E+00 0. -1.
</event>
<event>
 5   0  0.9442578E-05  0.2191681E+04  0.7818609E-02  0.8521898E-01
        2   -1    0    0  501    0  0.00000000000E+00  0.00000000000E+00  0.64091468539E+03  0.64091468539E+03  0.25500000920E-02 0.  1.
       -2   -1    0    0    0  501  0.00000000000E+00  0.00000000000E+00 -0.18736767563E+04  0.18736767563E+04  0.25500000920E-02 0. -1.
    10030    2    1    2    0    0  0.00000000000E+00  0.00000000000E+00 -0.12327620709E+04  0.25145914417E+04  0.21916814995E+04 0.  0.
        4    1    3    3  502    0 -0.86290119104E+03  0.60504408305E+03 -0.27182041503E+03  0.10883771216E+04  0.12699999809E+01 0.  1.
       -4    1    3    3    0  502  0.86290119104E+03 -0.60504408305E+03 -0.96094165591E+03  0.14262143201E+04  0.12699999809E+01 0. -1.
</event>
<event>
 5   0  0.9179618E-05  0.2190964E+04  0.7818609E-02  0.8522198E-01
       -2   -1    0    0    0  501  0.00000000000E+00  0.00000000000E+00  0.66129666518E+03  0.66129666519E+03  0.25500000920E-02 0.  1.
        2   -1    0    0  501    0  0.00000000000E+00  0.00000000000E+00 -0.18147396252E+04  0.18147396252E+04  0.25500000920E-02 0. -1.
    10030    2    1    2    0    0  0.00000000000E+00  0.00000000000E+00 -0.11534429600E+04  0.24760362904E+04  0.21909644108E+04 0.  0.
        3    1    3    3  502    0  0.19203090698E+03 -0.92034813261E+03 -0.12121670708E+04  0.15340357141E+04  0.10100000352E+00 0.  1.
       -3    1    3    3    0  502 -0.19203090698E+03  0.92034813261E+03  0.58724110724E+02  0.94200057633E+03  0.10100000352E+00 0. -1.
</event>
<event>
 5   0  0.9254673E-05  0.2233489E+04  0.7818609E-02  0.8504617E-01
       -2   -1    0    0    0  501  0.00000000000E+00  0.00000000000E+00  0.13384796631E+04  0.13384796631E+04  0.25500000920E-02 0.  1.
        2   -1    0    0  501    0  0.00000000000E+00  0.00000000000E+00 -0.93174264320E+03  0.93174264320E+03  0.25500000920E-02 0. -1.
    10030    2    1    2    0    0  0.00000000000E+00  0.00000000000E+00  0.40673701991E+03  0.22702223063E+04  0.22334892694E+04 0.  0.
        2    1    3    3  502    0  0.58580871015E+02  0.10399097709E+04  0.61282682525E+03  0.12084704248E+04  0.25500000920E-02 0.  1.
       -2    1    3    3    0  502 -0.58580871015E+02 -0.10399097709E+04 -0.20608980533E+03  0.10617518815E+04  0.25500000920E-02 0. -1.
</event>
<event>
 5   0  0.9254673E-05  0.2129354E+04  0.7818609E-02  0.8548422E-01
       -2   -1    0    0    0  501  0.00000000000E+00  0.00000000000E+00  0.96162300585E+03  0.96162300585E+03  0.25500000920E-02 0. -1.
        2   -1    0    0  501    0  0.00000000000E+00  0.00000000000E+00 -0.11787748829E+04  0.11787748829E+04  0.25500000920E-02 0.  1.
    10030    2    1    2    0    0  0.00000000000E+00  0.00000000000E+00 -0.21715187702E+03  0.21403978887E+04  0.21293539359E+04 0.  0.
        2    1    3    3  502    0 -0.30900486201E+03  0.58480138074E+03 -0.94720540568E+03  0.11552812386E+04  0.25500000920E-02 0.  1.
       -2    1    3    3    0  502  0.30900486201E+03 -0.58480138074E+03  0.73005352866E+03  0.98511665014E+03  0.25500000920E-02 0. -1.
</event>
<event>
 5   0  0.9442578E-05  0.2178505E+04  0.7818609E-02  0.8527428E-01
       -2   -1    0    0    0  501  0.00000000000E+00  0.00000000000E+00  0.10573471374E+04  0.10573471374E+04  0.25500000920E-02 0. -1.
        2   -1    0    0  501    0  0.00000000000E+00  0.00000000000E+00 -0.11221204674E+04  0.11221204674E+04  0.25500000920E-02 0.  1.
    10030    2    1    2    0    0  0.00000000000E+00  0.00000000000E+00 -0.64773329973E+02  0.21794676048E+04  0.21785048671E+04 0.  0.
        4    1    3    3  502    0  0.82980618563E+03  0.61490292006E+03 -0.37863980969E+03  0.11000243748E+04  0.12699999809E+01 0.  1.
       -4    1    3    3    0  502 -0.82980618563E+03 -0.61490292006E+03  0.31386647972E+03  0.10794432300E+04  0.12699999809E+01 0. -1.
</event>
<event>
 5   0  0.9938176E-05  0.2164941E+04  0.7818609E-02  0.8533164E-01
        2   -1    0    0  501    0  0.00000000000E+00  0.00000000000E+00  0.13538231296E+04  0.13538231296E+04  0.25500000920E-02 0.  1.
       -2   -1    0    0    0  501  0.00000000000E+00  0.00000000000E+00 -0.86550612388E+03  0.86550612388E+03  0.25500000920E-02 0. -1.
    10030    2    1    2    0    0  0.00000000000E+00  0.00000000000E+00  0.48831700576E+03  0.22193292535E+04  0.21649408392E+04 0.  0.
        5    1    3    3  502    0  0.93967207841E+03 -0.44330614845E+03  0.55545858053E+03  0.11781597009E+04  0.46999998093E+01 0.  1.
       -5    1    3    3    0  502 -0.93967207841E+03  0.44330614845E+03 -0.67141574773E+02  0.10411695526E+04  0.46999998093E+01 0. -1.
</event>
<event>
 5   0  0.9938176E-05  0.2309962E+04  0.7818609E-02  0.8474003E-01
        2   -1    0    0  501    0  0.00000000000E+00  0.00000000000E+00  0.21267914024E+04  0.21267914024E+04  0.25500000920E-02 0.  1.
       -2   -1    0    0    0  501  0.00000000000E+00  0.00000000000E+00 -0.62722726815E+03  0.62722726815E+03  0.25500000920E-02 0. -1.
    10030    2    1    2    0    0  0.00000000000E+00  0.00000000000E+00  0.14995641343E+04  0.27540186706E+04  0.23099623904E+04 0.  0.
        5    1    3    3  502    0  0.10023696217E+04  0.36216198946E+03  0.12803646865E+04  0.16659117581E+04  0.46999998093E+01 0.  1.
       -5    1    3    3    0  502 -0.10023696217E+04 -0.36216198946E+03  0.21919944775E+03  0.10881069125E+04  0.46999998093E+01 0. -1.
</event>
<event>
 5   0  0.9179618E-05  0.1714120E+04  0.7818609E-02  0.8753352E-01
        2   -1    0    0  501    0  0.00000000000E+00  0.00000000000E+00  0.19608444221E+04  0.19608444221E+04  0.25500000920E-02 0.  1.
       -2   -1    0    0    0  501  0.00000000000E+00  0.00000000000E+00 -0.37460991326E+03  0.37460991326E+03  0.25500000920E-02 0. -1.
    10030    2    1    2    0    0  0.00000000000E+00  0.00000000000E+00  0.15862345089E+04  0.23354543354E+04  0.17141199012E+04 0.  0.
        3    1    3    3  502    0 -0.38423647493E+02 -0.45682595909E+03 -0.19351539943E+03  0.49760883593E+03  0.10100000352E+00 0. -1.
       -3    1    3    3    0  502  0.38423647493E+02  0.45682595909E+03  0.17797499083E+04  0.18378454995E+04  0.10100000352E+00 0.  1.
</event>
<event>
 5   0  0.4063293E-05  0.2255123E+04  0.7818609E-02  0.8495828E-01
       -1   -1    0    0    0  501  0.00000000000E+00  0.00000000000E+00  0.82993665130E+03  0.82993665131E+03  0.50400001928E-02 0. -1.
        1   -1    0    0  501    0  0.00000000000E+00  0.00000000000E+00 -0.15319186518E+04  0.15319186518E+04  0.50400001928E-02 0.  1.
    10030    2    1    2    0    0  0.00000000000E+00  0.00000000000E+00 -0.70198200046E+03  0.23618553031E+04  0.22551234431E+04 0.  0.
        1    1    3    3  502    0 -0.32588573647E+03 -0.10641925709E+04 -0.16163556669E+03  0.11246481217E+04  0.50400001928E-02 0. -1.
       -1    1    3    3    0  502  0.32588573647E+03  0.10641925709E+04 -0.54034643377E+03  0.12372071814E+04  0.50400001928E-02 0.  1.
</event>
<event>
 5   0  0.4063293E-05  0.2190271E+04  0.7818609E-02  0.8522488E-01
       -1   -1    0    0    0  501  0.00000000000E+00  0.00000000000E+00  0.11458029640E+04  0.11458029640E+04  0.50400001928E-02 0. -1.
        1   -1    0    0  501    0  0.00000000000E+00  0.00000000000E+00 -0.10467086337E+04  0.10467086337E+04  0.50400001928E-02 0.  1.
    10030    2    1    2    0    0  0.00000000000E+00  0.00000000000E+00  0.99094330299E+02  0.21925115977E+04  0.21902710836E+04 0.  0.
        1    1    3    3  502    0  0.74409536493E+03  0.36260022111E+03 -0.66823934874E+03  0.10638142036E+04  0.50400001928E-02 0.  1.
       -1    1    3    3    0  502 -0.74409536493E+03 -0.36260022111E+03  0.76733367904E+03  0.11286973941E+04  0.50400001928E-02 0. -1.
</event>
<event>
 5   0  0.9254673E-05  0.2162800E+04  0.7818609E-02  0.8534073E-01
       -2   -1    0    0    0  501  0.00000000000E+00  0.00000000000E+00  0.75233549323E+03  0.75233549323E+03  0.25500000920E-02 0.  1.
        2   -1    0    0  501    0  0.00000000000E+00  0.00000000000E+00 -0.15543948086E+04  0.15543948086E+04  0.25500000920E-02 0. -1.
    10030    2    1    2    0    0  0.00000000000E+00  0.00000000000E+00 -0.80205931541E+03  0.23067303019E+04  0.21628003930E+04 0.  0.
        2    1    3    3  502    0  0.89308911139E+03 -0.57532914948E+03 -0.61650030714E+03  0.12282851541E+04  0.25500000920E-02 0. -1.
       -2    1    3    3    0  502 -0.89308911139E+03  0.57532914948E+03 -0.18555900826E+03  0.10784451477E+04  0.25500000920E-02 0.  1.
</event>
<event>
 5   0  0.9442578E-05  0.2227580E+04  0.7818609E-02  0.8507036E-01
        2   -1    0    0  501    0  0.00000000000E+00  0.00000000000E+00  0.77679798441E+03  0.77679798441E+03  0.25500000920E-02 0.  1.
       -2   -1    0    0    0  501  0.00000000000E+00  0.00000000000E+00 -0.15969759179E+04  0.15969759179E+04  0.25500000920E-02 0. -1.
    10030    2    1    2    0    0  0.00000000000E+00  0.00000000000E+00 -0.82017793353E+03  0.23737739023E+04  0.22275795602E+04 0.  0.
        4    1    3    3  502    0 -0.24305341950E+03 -0.71530741519E+03  0.46202710216E+03  0.88555650243E+03  0.12699999809E+01 0.  1.
       -4    1    3    3    0  502  0.24305341950E+03  0.71530741519E+03 -0.12822050357E+04  0.14882173999E+04  0.12699999809E+01 0. -1.
</event>
<event>
 5   0  0.4174075E-05  0.2217117E+04  0.7818609E-02  0.8511337E-01
       -1   -1    0    0    0  501  0.00000000000E+00  0.00000000000E+00  0.74714166889E+03  0.74714166891E+03  0.50400001928E-02 0.  1.
        1   -1    0    0  501    0  0.00000000000E+00  0.00000000000E+00 -0.16448050134E+04  0.16448050134E+04  0.50400001928E-02 0. -1.
    10030    2    1    2    0    0  0.00000000000E+00  0.00000000000E+00 -0.89766334450E+03  0.23919466823E+04  0.22171173742E+04 0.  0.
        5    1    3    3  502    0  0.39325807348E+03 -0.48884854316E+02 -0.15657656753E+04  0.16151426814E+04  0.46999998093E+01 0. -1.
       -5    1    3    3    0  502 -0.39325807348E+03  0.48884854316E+02  0.66810233083E+03  0.77680400089E+03  0.46999998093E+01 0.  1.
</event>
<event>
 5   0  0.3283125E-05  0.2209423E+04  0.7818609E-02  0.8514516E-01
       -3   -1    0    0    0  501  0.00000000000E+00  0.00000000000E+00  0.17367577111E+04  0.17367577140E+04  0.10100000352E+00 0.  1.
        3   -1    0    0  501    0  0.00000000000E+00  0.00000000000E+00 -0.70268155840E+03  0.70268156566E+03  0.10100000352E+00 0. -1.
    10030    2    1    2    0    0  0.00000000000E+00  0.00000000000E+00  0.10340761527E+04  0.24394392797E+04  0.22094231170E+04 0.  0.
        5    1    3    3  502    0  0.70224243638E+03 -0.79303323456E+03  0.86324097492E+03  0.13664747423E+04  0.46999998093E+01 0. -1.
       -5    1    3    3    0  502 -0.70224243638E+03  0.79303323456E+03  0.17083517779E+03  0.10729645374E+04  0.46999998093E+01 0.  1.
</event>
<event>
 5   0  0.9457742E-05  0.2228467E+04  0.7818609E-02  0.8506672E-01
       -2   -1    0    0    0  501  0.00000000000E+00  0.00000000000E+00  0.76871030750E+03  0.76871030750E+03  0.25500000920E-02 0.  1.
        2   -1    0    0  501    0  0.00000000000E+00  0.00000000000E+00 -0.16150641478E+04  0.16150641478E+04  0.25500000920E-02 0. -1.
    10030    2    1    2    0    0  0.00000000000E+00  0.00000000000E+00 -0.84635384028E+03  0.23837744553E+04  0.22284671482E+04 0.  0.
        1    1    3    3  502    0  0.88163506867E+03 -0.36853900940E+03 -0.10361910129E+04  0.14095365234E+04  0.50400001928E-02 0. -1.
       -1    1    3    3    0  502 -0.88163506867E+03  0.36853900940E+03  0.18983717257E+03  0.97423793185E+03  0.50400001928E-02 0.  1.
</event>
<event>
 5   0  0.4174075E-05  0.2181014E+04  0.7818609E-02  0.8526372E-01
        1   -1    0    0  501    0  0.00000000000E+00  0.00000000000E+00  0.11838628182E+04  0.11838628182E+04  0.50400001928E-02 0.  1.
       -1   -1    0    0    0  501  0.00000000000E+00  0.00000000000E+00 -0.10045125765E+04  0.10045125765E+04  0.50400001928E-02 0. -1.
    10030    2    1    2    0    0  0.00000000000E+00  0.00000000000E+00  0.17935024169E+03  0.21883753947E+04  0.21810136082E+04 0.  0.
        5    1    3    3  502    0 -0.49420975622E+03 -0.63432190009E+03 -0.64940839294E+03  0.10336154541E+04  0.46999998093E+01 0. -1.
       -5    1    3    3    0  502  0.49420975622E+03  0.63432190009E+03  0.82875863463E+03  0.11547599407E+04  0.46999998093E+01 0.  1.
</event>
<event>
 5   0  0.4133418E-05  0.2178538E+04  0.7818609E-02  0.8527414E-01
        1   -1    0    0  501    0  0.00000000000E+00  0.00000000000E+00  0.27920096448E+04  0.27920096448E+04  0.50400001928E-02 0. -1.
       -1   -1    0    0    0  501  0.00000000000E+00  0.00000000000E+00 -0.42496534900E+03  0.42496534903E+03  0.50400001928E-02 0.  1.
    10030    2    1    2    0    0  0.00000000000E+00  0.00000000000E+00  0.23670442958E+04  0.32169749938E+04  0.21785383661E+04 0.  0.
        4    1    3    3  502    0  0.96929056101E+03 -0.48819192247E+03  0.10461826573E+04  0.15074333518E+04  0.12699999809E+01 0.  1.
       -4    1    3    3    0  502 -0.96929056101E+03  0.48819192247E+03  0.13208616385E+04  0.17095416420E+04  0.12699999809E+01 0. -1.
</event>
<event>
 5   0  0.4063293E-05  0.2633500E+04  0.7818609E-02  0.8356910E-01
        1   -1    0    0  501    0  0.00000000000E+00  0.00000000000E+00  0.14138805658E+04  0.14138805658E+04  0.50400001928E-02 0.  1.
       -1   -1    0    0    0  501  0.00000000000E+00  0.00000000000E+00 -0.12262924061E+04  0.12262924061E+04  0.50400001928E-02 0. -1.
    10030    2    1    2    0    0  0.00000000000E+00  0.00000000000E+00  0.18758815968E+03  0.26401729719E+04  0.26335003330E+04 0.  0.
        1    1    3    3  502    0 -0.18926936339E+03 -0.84933131425E+03  0.10845512897E+04  0.13904812380E+04  0.50400001928E-02 0.  1.
       -1    1    3    3    0  502  0.18926936339E+03  0.84933131425E+03 -0.89696313000E+03  0.12496917339E+04  0.50400001928E-02 0. -1.
</event>
<event>
 5   0  0.4063293E-05  0.2248714E+04  0.7818609E-02  0.8498421E-01
        1   -1    0    0  501    0  0.00000000000E+00  0.00000000000E+00  0.18467542302E+04  0.18467542302E+04  0.50400001928E-02 0.  1.
       -1   -1    0    0    0  501  0.00000000000E+00  0.00000000000E+00 -0.68454089108E+03  0.68454089110E+03  0.50400001928E-02 0. -1.
    10030    2    1    2    0    0  0.00000000000E+00  0.00000000000E+00  0.11622133391E+04  0.25312951213E+04  0.22487141093E+04 0.  0.
        1    1    3    3  502    0 -0.87921152181E+02 -0.33267317680E+01 -0.68065984547E+03  0.68632282594E+03  0.50400001928E-02 0. -1.
       -1    1    3    3    0  502  0.87921152181E+02  0.33267317680E+01  0.18428731845E+04  0.18449722953E+04  0.50400001928E-02 0.  1.
</event>
<event>
 5   0  0.4063293E-05  0.2120490E+04  0.7818609E-02  0.8552271E-01
        1   -1    0    0  501    0  0.00000000000E+00  0.00000000000E+00  0.87334672977E+03  0.87334672979E+03  0.50400001928E-02 0. -1.
       -1   -1    0    0    0  501  0.00000000000E+00  0.00000000000E+00 -0.12871402652E+04  0.12871402652E+04  0.50400001928E-02 0.  1.
    10030    2    1    2    0    0  0.00000000000E+00  0.00000000000E+00 -0.41379353543E+03  0.21604869950E+04  0.21204902654E+04 0.  0.
        1    1    3    3  502    0  0.64870013121E+03  0.73835362610E+03 -0.61206810764E+03  0.11578451131E+04  0.50400001928E-02 0.  1.
       -1    1    3    3    0  502 -0.64870013121E+03 -0.73835362610E+03  0.19827457222E+03  0.10026418819E+04  0.50400001928E-02 0. -1.
</event>
<event>
 5   0  0.4174030E-05  0.2215239E+04  0.7818609E-02  0.8512112E-01
        1   -1    0    0  501    0  0.00000000000E+00  0.00000000000E+00  0.10694859842E+04  0.10694859842E+04  0.50400001928E-02 0.  1.
       -1   -1    0    0    0  501  0.00000000000E+00  0.00000000000E+00 -0.11471126220E+04  0.11471126220E+04  0.50400001928E-02 0. -1.
    10030    2    1    2    0    0  0.00000000000E+00  0.00000000000E+00 -0.77626637830E+02  0.22165986062E+04  0.22152389230E+04 0.  0.
        2    1    3    3  502    0  0.41218898254E+03 -0.93226305308E+03  0.39481939569E+03  0.10931132204E+04  0.25500000920E-02 0.  1.
       -2    1    3    3    0  502 -0.41218898254E+03  0.93226305308E+03 -0.47244603352E+03  0.11234853858E+04  0.25500000920E-02 0. -1.
</event>
<event>
 5   0  0.4174075E-05  0.2194985E+04  0.7818609E-02  0.8520518E-01
       -1   -1    0    0    0  501  0.00000000000E+00  0.00000000000E+00  0.12832899177E+04  0.12832899177E+04  0.50400001928E-02 0. -1.
        1   -1    0    0  501    0  0.00000000000E+00  0.00000000000E+00 -0.93859562397E+03  0.93859562398E+03  0.50400001928E-02 0.  1.
    10030    2    1    2    0    0  0.00000000000E+00  0.00000000000E+00  0.34469429375E+03  0.22218855417E+04  0.21949854679E+04 0.  0.
        5    1    3    3  502    0  0.29926956435E+02 -0.60600012479E+03  0.10980690570E+04  0.12545555061E+04  0.46999998093E+01 0. -1.
       -5    1    3    3    0  502 -0.29926956435E+02  0.60600012479E+03 -0.75337476322E+03  0.96733003562E+03  0.46999998093E+01 0.  1.
</event>
<event>
 5   0  0.9179618E-05  0.2356036E+04  0.7818609E-02  0.8456149E-01
       -2   -1    0    0    0  501  0.00000000000E+00  0.00000000000E+00  0.78637937146E+03  0.78637937147E+03  0.25500000920E-02 0. -1.
        2   -1    0    0  501    0  0.00000000000E+00  0.00000000000E+00 -0.17647029972E+04  0.17647029972E+04  0.25500000920E-02 0.  1.
    10030    2    1    2    0    0  0.00000000000E+00  0.00000000000E+00 -0.97832362573E+03  0.25510823687E+04  0.23560356820E+04 0.  0.
        3    1    3    3  502    0  0.25968883155E+03  0.40375425348E+03 -0.16539850067E+04  0.17222433623E+04  0.10100000352E+00 0.  1.
       -3    1    3    3    0  502 -0.25968883155E+03 -0.40375425348E+03  0.67566138099E+03  0.82883900633E+03  0.10100000352E+00 0. -1.
</event>
<event>
 5   0  0.4188865E-05  0.2205799E+04  0.7818609E-02  0.8516018E-01
       -1   -1    0    0    0  501  0.00000000000E+00  0.00000000000E+00  0.16511724354E+04  0.16511724354E+04  0.50400001928E-02 0.  1.
        1   -1    0    0  501    0  0.00000000000E+00  0.00000000000E+00 -0.73668088794E+03  0.73668088795E+03  0.50400001928E-02 0. -1.
    10030    2    1    2    0    0  0.00000000000E+00  0.00000000000E+00  0.91449154743E+03  0.23878533233E+04  0.22057988810E+04 0.  0.
        3    1    3    3  502    0  0.86594299252E+02  0.10978867788E+04  0.52159253698E+03  0.12185699555E+04  0.10100000352E+00 0.  1.
       -3    1    3    3    0  502 -0.86594299252E+02 -0.10978867788E+04  0.39289901045E+03  0.11692833678E+04  0.10100000352E+00 0. -1.
</event>
<event>
 5   0  0.4174030E-05  0.2193179E+04  0.7818609E-02  0.8521272E-01
        1   -1    0    0  501    0  0.00000000000E+00  0.00000000000E+00  0.24181875599E+04  0.24181875599E+04  0.50400001928E-02 0. -1.
       -1   -1    0    0    0  501  0.00000000000E+00  0.00000000000E+00 -0.49727683985E+03  0.49727683988E+03  0.50400001928E-02 0.  1.
    10030    2    1    2    0    0  0.00000000000E+00  0.00000000000E+00  0.19209107200E+04  0.29154643998E+04  0.21931791245E+04 0.  0.
        2    1    3    3  502    0 -0.34216931494E+03  0.48741544658E+03 -0.26358132693E+03  0.65125169755E+03  0.25500000920E-02 0.  1.
       -2    1    3    3    0  502  0.34216931494E+03 -0.48741544658E+03  0.21844920470E+04  0.22642127022E+04  0.25500000920E-02 0. -1.
</event>
<event>
 5   0  0.9938176E-05  0.2206088E+04  0.7818609E-02  0.8515898E-01
        2   -1    0    0  501    0  0.00000000000E+00  0.00000000000E+00  0.20515774842E+04  0.20515774842E+04  0.25500000920E-02 0.  1.
       -2   -1    0    0    0  501  0.00000000000E+00  0.00000000000E+00 -0.59305872828E+03  0.59305872829E+03  0.25500000920E-02 0. -1.
    10030    2    1    2    0    0  0.00000000000E+00  0.00000000000E+00  0.14585187559E+04  0.26446362125E+04  0.22060878802E+04 0.  0.
        5    1    3    3  502    0 -0.20455720798E+03 -0.86113050351E+03  0.15183641940E+04  0.17575099747E+04  0.46999998093E+01 0. -1.
       -5    1    3    3    0  502  0.20455720798E+03  0.86113050351E+03 -0.59845438073E+02  0.88712623784E+03  0.46999998093E+01 0.  1.
</event>
<event>
 5   0  0.9179618E-05  0.2173049E+04  0.7818609E-02  0.8529730E-01
        2   -1    0    0  501    0  0.00000000000E+00  0.00000000000E+00  0.13513180192E+04  0.13513180192E+04  0.25500000920E-02 0.  1.
       -2   -1    0    0    0  501  0.00000000000E+00  0.00000000000E+00 -0.87361820231E+03  0.87361820232E+03  0.25500000920E-02 0. -1.
    10030    2    1    2    0    0  0.00000000000E+00  0.00000000000E+00  0.47769981685E+03  0.22249362215E+04  0.21730494874E+04 0.  0.
        3    1    3    3  502    0  0.83284286815E+02 -0.51911382489E+03  0.12124063291E+04  0.13214933041E+04  0.10100000352E+00 0.  1.
       -3    1    3    3    0  502 -0.83284286815E+02  0.51911382489E+03 -0.73470651228E+03  0.90344291740E+03  0.10100000352E+00 0. -1.
</event>
<event>
 5   0  0.4063293E-05  0.2231772E+04  0.7818609E-02  0.8505319E-01
       -1   -1    0    0    0  501  0.00000000000E+00  0.00000000000E+00  0.10611184290E+04  0.10611184290E+04  0.50400001928E-02 0. -1.
        1   -1    0    0  501    0  0.00000000000E+00  0.00000000000E+00 -0.11734799105E+04  0.11734799105E+04  0.50400001928E-02 0.  1.
    10030    2    1    2    0    0  0.00000000000E+00  0.00000000000E+00 -0.11236148147E+03  0.22345983395E+04  0.22317716363E+04 0.  0.
        1    1    3    3  502    0 -0.21544922910E+03  0.10870929827E+04  0.74413117926E+02  0.11107325671E+04  0.50400001928E-02 0. -1.
       -1    1    3    3    0  502  0.21544922910E+03 -0.10870929827E+04 -0.18677459939E+03  0.11238657724E+04  0.50400001928E-02 0.  1.
</event>
<event>
 5   0  0.9442578E-05  0.2216750E+04  0.7818609E-02  0.8511489E-01
       -2   -1    0    0    0  501  0.00000000000E+00  0.00000000000E+00  0.10909059607E+04  0.10909059607E+04  0.25500000920E-02 0.  1.
        2   -1    0    0  501    0  0.00000000000E+00  0.00000000000E+00 -0.11261235242E+04  0.11261235242E+04  0.25500000920E-02 0. -1.
    10030    2    1    2    0    0  0.00000000000E+00  0.00000000000E+00 -0.35217563525E+02  0.22170294850E+04  0.22167497514E+04 0.  0.
        4    1    3    3  502    0  0.56882658198E+03 -0.44014606894E+03  0.82582498285E+03  0.10951167781E+04  0.12699999809E+01 0.  1.
       -4    1    3    3    0  502 -0.56882658198E+03  0.44014606894E+03 -0.86104254638E+03  0.11219127069E+04  0.12699999809E+01 0. -1.
</event>
<event>
 5   0  0.9457742E-05  0.2204369E+04  0.7818609E-02  0.8516612E-01
       -2   -1    0    0    0  501  0.00000000000E+00  0.00000000000E+00  0.47127191384E+03  0.47127191385E+03  0.25500000920E-02 0.  1.
        2   -1    0    0  501    0  0.00000000000E+00  0.00000000000E+00 -0.25777265684E+04  0.25777265684E+04  0.25500000920E-02 0. -1.
    10030    2    1    2    0    0  0.00000000000E+00  0.00000000000E+00 -0.21064546546E+04  0.30489984823E+04  0.22043685112E+04 0.  0.
        1    1    3    3  502    0  0.61717603577E+03  0.17906313447E+03  0.18533236101E+03  0.66881832310E+03  0.50400001928E-02 0.  1.
       -1    1    3    3    0  502 -0.61717603577E+03 -0.17906313447E+03 -0.22917870156E+04  0.23801801592E+04  0.50400001928E-02 0. -1.
</event>
<event>
 5   0  0.9179618E-05  0.2212482E+04  0.7818609E-02  0.8513251E-01
       -2   -1    0    0    0  501  0.00000000000E+00  0.00000000000E+00  0.78186356685E+03  0.78186356685E+03  0.25500000920E-02 0.  1.
        2   -1    0    0  501    0  0.00000000000E+00  0.00000000000E+00 -0.15651955229E+04  0.15651955229E+04  0.25500000920E-02 0. -1.
    10030    2    1    2    0    0  0.00000000000E+00  0.00000000000E+00 -0.78333195601E+03  0.23470590897E+04  0.22124821846E+04 0.  0.
        3    1    3    3  502    0 -0.47122952693E+03  0.23047831589E+03 -0.14248648647E+04  0.15183601068E+04  0.10100000352E+00 0. -1.
       -3    1    3    3    0  502  0.47122952693E+03 -0.23047831589E+03  0.64153290867E+03  0.82869898290E+03  0.10100000352E+00 0.  1.
</event>
<event>
 5   0  0.4174075E-05  0.1953733E+04  0.7818609E-02  0.8628563E-01
       -1   -1    0    0    0  501  0.00000000000E+00  0.00000000000E+00  0.98113084552E+03  0.98113084553E+03  0.50400001928E-02 0.  1.
        1   -1    0    0  501    0  0.00000000000E+00  0.00000000000E+00 -0.97262019263E+03  0.97262019264E+03  0.50400001928E-02 0. -1.
    10030    2    1    2    0    0  0.00000000000E+00  0.00000000000E+00  0.85106528932E+01  0.19537510382E+04  0.19537325016E+04 0.  0.
        5    1    3    3  502    0 -0.43803124535E+03 -0.86739407826E+03 -0.95754237483E+02  0.97643987162E+03  0.46999998093E+01 0.  1.
       -5    1    3    3    0  502  0.43803124535E+03  0.86739407826E+03  0.10426489038E+03  0.97731116655E+03  0.46999998093E+01 0. -1.
</event>
<event>
 5   0  0.4174030E-05  0.2201311E+04  0.7818609E-02  0.8517883E-01
       -1   -1    0    0    0  501  0.00000000000E+00  0.00000000000E+00  0.11205031183E+04  0.11205031183E+04  0.50400001928E-02 0.  1.
        1   -1    0    0  501    0  0.00000000000E+00  0.00000000000E+00 -0.10811589798E+04  0.10811589798E+04  0.50400001928E-02 0. -1.
    10030    2    1    2    0    0  0.00000000000E+00  0.00000000000E+00  0.39344138537E+02  0.22016620982E+04  0.22013105263E+04 0.  0.
        2    1    3    3  502    0 -0.73320225498E+03 -0.41521772201E+03  0.72791700667E+03  0.11134875266E+04  0.25500000920E-02 0.  1.
       -2    1    3    3    0  502  0.73320225498E+03  0.41521772201E+03 -0.68857286813E+03  0.10881745715E+04  0.25500000920E-02 0. -1.
</event>
<event>
 5   0  0.4063293E-05  0.2255609E+04  0.7818609E-02  0.8495632E-01
       -1   -1    0    0    0  501  0.00000000000E+00  0.00000000000E+00  0.10359445704E+04  0.10359445704E+04  0.50400001928E-02 0.  1.
        1   -1    0    0  501    0  0.00000000000E+00  0.00000000000E+00 -0.12278098435E+04  0.12278098435E+04  0.50400001928E-02 0. -1.
    10030    2    1    2    0    0  0.00000000000E+00  0.00000000000E+00 -0.19186527312E+03  0.22637544140E+04  0.22556089563E+04 0.  0.
        1    1    3    3  502    0 -0.41322683417E+03 -0.39482863922E+02 -0.11483507669E+04  0.12210752626E+04  0.50400001928E-02 0. -1.
       -1    1    3    3    0  502  0.41322683417E+03  0.39482863922E+02  0.95648549375E+03  0.10426791514E+04  0.50400001928E-02 0.  1.
</event>
<event>
 5   0  0.9254673E-05  0.1884120E+04  0.7818609E-02  0.8662801E-01
       -2   -1    0    0    0  501  0.00000000000E+00  0.00000000000E+00  0.13948667574E+04  0.13948667574E+04  0.25500000920E-02 0.  1.
        2   -1    0    0  501    0  0.00000000000E+00  0.00000000000E+00 -0.63624511711E+03  0.63624511712E+03  0.25500000920E-02 0. -1.
    10030    2    1    2    0    0  0.00000000000E+00  0.00000000000E+00  0.75862164027E+03  0.20311118745E+04  0.18841201272E+04 0.  0.
        2    1    3    3  502    0 -0.81256565877E+03  0.18692588748E+03  0.85200942896E+03  0.11921091830E+04  0.25500000920E-02 0.  1.
       -2    1    3    3    0  502  0.81256565877E+03 -0.18692588748E+03 -0.93387788686E+02  0.83900269148E+03  0.25500000920E-02 0. -1.
</event>
<event>
 5   0  0.9442578E-05  0.2195476E+04  0.7818609E-02  0.8520313E-01
       -2   -1    0    0    0  501  0.00000000000E+00  0.00000000000E+00  0.13710589287E+04  0.13710589287E+04  0.25500000920E-02 0.  1.
        2   -1    0    0  501    0  0.00000000000E+00  0.00000000000E+00 -0.87890377202E+03  0.87890377202E+03  0.25500000920E-02 0. -1.
    10030    2    1    2    0    0  0.00000000000E+00  0.00000000000E+00  0.49215515664E+03  0.22499627007E+04  0.21954761343E+04 0.  0.
        4    1    3    3  502    0  0.51022937916E+03 -0.46738703762E+03  0.11194258292E+04  0.13160168929E+04  0.12699999809E+01 0.  1.
       -4    1    3    3    0  502 -0.51022937916E+03  0.46738703762E+03 -0.62727067260E+03  0.93394580779E+03  0.12699999809E+01 0. -1.
</event>
<event>
 5   0  0.4174030E-05  0.2150434E+04  0.7818609E-02  0.8539347E-01
       -1   -1    0    0    0  501  0.00000000000E+00  0.00000000000E+00  0.10520266798E+04  0.10520266799E+04  0.50400001928E-02 0. -1.
        1   -1    0    0  501    0  0.00000000000E+00  0.00000000000E+00 -0.10989183071E+04  0.10989183071E+04  0.50400001928E-02 0.  1.
    10030    2    1    2    0    0  0.00000000000E+00  0.00000000000E+00 -0.46891627260E+02  0.21509449870E+04  0.21504337963E+04 0.  0.
        2    1    3    3  502    0  0.70279133041E+02  0.46465378590E+03  0.94386684490E+03  0.10543846159E+04  0.25500000920E-02 0. -1.
       -2    1    3    3    0  502 -0.70279133041E+02 -0.46465378590E+03 -0.99075847216E+03  0.10965603711E+04  0.25500000920E-02 0.  1.
</event>
<event>
 5   0  0.4174075E-05  0.2203760E+04  0.7818609E-02  0.8516865E-01
       -1   -1    0    0    0  501  0.00000000000E+00  0.00000000000E+00  0.43038267379E+03  0.43038267382E+03  0.50400001928E-02 0. -1.
        1   -1    0    0  501    0  0.00000000000E+00  0.00000000000E+00 -0.28210694131E+04  0.28210694131E+04  0.50400001928E-02 0.  1.
    10030    2    1    2    0    0  0.00000000000E+00  0.00000000000E+00 -0.23906867393E+04  0.32514520869E+04  0.22037598753E+04 0.  0.
        5    1    3    3  502    0 -0.36250801986E+02  0.10053956565E+04 -0.53225678930E+03  0.11381800941E+04  0.46999998093E+01 0. -1.
       -5    1    3    3    0  502  0.36250801986E+02 -0.10053956565E+04 -0.18584299500E+04  0.21132719929E+04  0.46999998093E+01 0.  1.
</event>
<event>
 5   0  0.4174030E-05  0.2202890E+04  0.7818609E-02  0.8517226E-01
       -1   -1    0    0    0  501  0.00000000000E+00  0.00000000000E+00  0.44749077087E+03  0.44749077090E+03  0.50400001928E-02 0.  1.
        1   -1    0    0  501    0  0.00000000000E+00  0.00000000000E+00 -0.27110751396E+04  0.27110751396E+04  0.50400001928E-02 0. -1.
    10030    2    1    2    0    0  0.00000000000E+00  0.00000000000E+00 -0.22635843688E+04  0.31585659105E+04  0.22028900147E+04 0.  0.
        2    1    3    3  502    0 -0.20663387983E+03 -0.11276374120E+02 -0.26829507462E+04  0.26909198099E+04  0.25500000920E-02 0. -1.
       -2    1    3    3    0  502  0.20663387983E+03  0.11276374120E+02  0.41936637743E+03  0.46764610063E+03  0.25500000920E-02 0.  1.
</event>
<event>
 5   0  0.3283125E-05  0.2219686E+04  0.7818609E-02  0.8510279E-01
        3   -1    0    0  501    0  0.00000000000E+00  0.00000000000E+00  0.60980350347E+03  0.60980351183E+03  0.10100000352E+00 0. -1.
       -3   -1    0    0    0  501  0.00000000000E+00  0.00000000000E+00 -0.20199155021E+04  0.20199155047E+04  0.10100000352E+00 0.  1.
    10030    2    1    2    0    0  0.00000000000E+00  0.00000000000E+00 -0.14101119987E+04  0.26297190165E+04  0.22196860717E+04 0.  0.
        3    1    3    3  502    0 -0.90380549004E+03 -0.47069954392E+03 -0.12259704889E+04  0.15941850816E+04  0.10100000352E+00 0. -1.
       -3    1    3    3    0  502  0.90380549004E+03  0.47069954392E+03 -0.18414150972E+03  0.10355339349E+04  0.10100000352E+00 0.  1.
</event>
<event>
 5   0  0.9254673E-05  0.2158789E+04  0.7818609E-02  0.8535780E-01
        2   -1    0    0  501    0  0.00000000000E+00  0.00000000000E+00  0.14696774326E+04  0.14696774326E+04  0.25500000920E-02 0.  1.
       -2   -1    0    0    0  501  0.00000000000E+00  0.00000000000E+00 -0.79275358203E+03  0.79275358204E+03  0.25500000920E-02 0. -1.
    10030    2    1    2    0    0  0.00000000000E+00  0.00000000000E+00  0.67692385053E+03  0.22624310146E+04  0.21587885947E+04 0.  0.
        2    1    3    3  502    0  0.67795824123E+03 -0.80305445149E+03  0.80540371275E+02  0.10540448664E+04  0.25500000920E-02 0. -1.
       -2    1    3    3    0  502 -0.67795824123E+03  0.80305445149E+03  0.59638347926E+03  0.12083861482E+04  0.25500000920E-02 0.  1.
</event>
<event>
 5   0  0.9179618E-05  0.2191128E+04  0.7818609E-02  0.8522130E-01
       -2   -1    0    0    0  501  0.00000000000E+00  0.00000000000E+00  0.22349757547E+04  0.22349757547E+04  0.25500000920E-02 0.  1.
        2   -1    0    0  501    0  0.00000000000E+00  0.00000000000E+00 -0.53703535558E+03  0.53703535558E+03  0.25500000920E-02 0. -1.
    10030    2    1    2    0    0  0.00000000000E+00  0.00000000000E+00  0.16979403991E+04  0.27720111103E+04  0.21911284756E+04 0.  0.
        3    1    3    3  502    0 -0.30949512293E+01  0.74451011355E+03 -0.16781361861E+03  0.76319480390E+03  0.10100000352E+00 0. -1.
       -3    1    3    3    0  502  0.30949512293E+01 -0.74451011355E+03  0.18657540177E+04  0.20088163064E+04  0.10100000352E+00 0.  1.
</event>
<event>
 5   0  0.9254673E-05  0.2197449E+04  0.7818609E-02  0.8519491E-01
       -2   -1    0    0    0  501  0.00000000000E+00  0.00000000000E+00  0.69778151125E+03  0.69778151126E+03  0.25500000920E-02 0.  1.
        2   -1    0    0  501    0  0.00000000000E+00  0.00000000000E+00 -0.17300480260E+04  0.17300480260E+04  0.25500000920E-02 0. -1.
    10030    2    1    2    0    0  0.00000000000E+00  0.00000000000E+00 -0.10322665147E+04  0.24278295372E+04  0.21974489993E+04 0.  0.
        2    1    3    3  502    0  0.71339503691E+03  0.38469157905E+03  0.30344315339E+03  0.86544661131E+03  0.25500000920E-02 0.  1.
       -2    1    3    3    0  502 -0.71339503691E+03 -0.38469157905E+03 -0.13357096681E+04  0.15623829259E+04  0.25500000920E-02 0. -1.
</event>
<event>
 5   0  0.4188865E-05  0.2183743E+04  0.7818609E-02  0.8525225E-01
       -1   -1    0    0    0  501  0.00000000000E+00  0.00000000000E+00  0.19245127582E+04  0.19245127582E+04  0.50400001928E-02 0. -1.
        1   -1    0    0  501    0  0.00000000000E+00  0.00000000000E+00 -0.61947275785E+03  0.61947275787E+03  0.50400001928E-02 0.  1.
    10030    2    1    2    0    0  0.00000000000E+00  0.00000000000E+00  0.13050400003E+04  0.25439855161E+04  0.21837428657E+04 0.  0.
        3    1    3    3  502    0 -0.12001948243E+03 -0.26088134791E+03  0.18797324049E+04  0.19015408695E+04  0.10100000352E+00 0. -1.
       -3    1    3    3    0  502  0.12001948243E+03  0.26088134791E+03 -0.57469240460E+03  0.64244464661E+03  0.10100000352E+00 0.  1.
</event>
<event>
 5   0  0.4174075E-05  0.2220428E+04  0.7818609E-02  0.8509973E-01
        1   -1    0    0  501    0  0.00000000000E+00  0.00000000000E+00  0.11166833843E+04  0.11166833844E+04  0.50400001928E-02 0.  1.
       -1   -1    0    0    0  501  0.00000000000E+00  0.00000000000E+00 -0.11037819403E+04  0.11037819403E+04  0.50400001928E-02 0. -1.
    10030    2    1    2    0    0  0.00000000000E+00  0.00000000000E+00  0.12901444068E+02  0.22204653246E+04  0.22204278441E+04 0.  0.
        5    1    3    3  502    0 -0.17597171509E+03  0.41413440863E+03  0.10213961813E+04  0.11161297425E+04  0.46999998093E+01 0.  1.
       -5    1    3    3    0  502  0.17597171509E+03 -0.41413440863E+03 -0.10084947372E+04  0.11043355821E+04  0.46999998093E+01 0. -1.
</event>
<event>
 5   0  0.9938176E-05  0.2223691E+04  0.7818609E-02  0.8508632E-01
        2   -1    0    0  501    0  0.00000000000E+00  0.00000000000E+00  0.81715946028E+03  0.81715946029E+03  0.25500000920E-02 0. -1.
       -2   -1    0    0    0  501  0.00000000000E+00  0.00000000000E+00 -0.15128012905E+04  0.15128012905E+04  0.25500000920E-02 0.  1.
    10030    2    1    2    0    0  0.00000000000E+00  0.00000000000E+00 -0.69564183019E+03  0.23299607508E+04  0.22236905235E+04 0.  0.
        5    1    3    3  502    0 -0.78288791665E+03 -0.16987014559E+03  0.46000306964E+03  0.92379341331E+03  0.46999998093E+01 0.  1.
       -5    1    3    3    0  502  0.78288791665E+03  0.16987014559E+03 -0.11556448998E+04  0.14061673374E+04  0.46999998093E+01 0. -1.
</event>
<event>
 5   0  0.4174075E-05  0.1943739E+04  0.7818609E-02  0.8633386E-01
       -1   -1    0    0    0  501  0.00000000000E+00  0.00000000000E+00  0.73420968783E+03  0.73420968784E+03  0.50400001928E-02 0.  1.
        1   -1    0    0  501    0  0.00000000000E+00  0.00000000000E+00 -0.12864584312E+04  0.12864584312E+04  0.50400001928E-02 0. -1.
    10030    2    1    2    0    0  0.00000000000E+00  0.00000000000E+00 -0.55224874340E+03  0.20206681191E+04  0.19437389158E+04 0.  0.
        5    1    3    3  502    0  0.39384588818E+03  0.77598147391E+03 -0.72597021026E+03  0.11332769598E+04  0.46999998093E+01 0. -1.
       -5    1    3    3    0  502 -0.39384588818E+03 -0.77598147391E+03  0.17372146685E+03  0.88739115926E+03  0.46999998093E+01 0.  1.
</event>
<event>
 5   0  0.4174030E-05  0.2115513E+04  0.7818609E-02  0.8554440E-01
       -1   -1    0    0    0  501  0.00000000000E+00  0.00000000000E+00  0.70352453658E+03  0.70352453660E+03  0.50400001928E-02 0.  1.
        1   -1    0    0  501    0  0.00000000000E+00  0.00000000000E+00 -0.15903479729E+04  0.15903479729E+04  0.50400001928E-02 0. -1.
    10030    2    1    2    0    0  0.00000000000E+00  0.00000000000E+00 -0.88682343634E+03  0.22938725095E+04  0.21155130070E+04 0.  0.
        2    1    3    3  502    0  0.94258835366E+03  0.41755635668E+03 -0.18676505925E+03  0.10477152776E+04  0.25500000920E-02 0.  1.
       -2    1    3    3    0  502 -0.94258835366E+03 -0.41755635668E+03 -0.70005837709E+03  0.12461572320E+04  0.25500000920E-02 0. -1.
</event>
<event>
 5   0  0.9938176E-05  0.1823544E+04  0.7818609E-02  0.8693878E-01
       -2   -1    0    0    0  501  0.00000000000E+00  0.00000000000E+00  0.96847659154E+03  0.96847659154E+03  0.25500000920E-02 0.  1.
        2   -1    0    0  501    0  0.00000000000E+00  0.00000000000E+00 -0.85838774066E+03  0.85838774066E+03  0.25500000920E-02 0. -1.
    10030    2    1    2    0    0  0.00000000000E+00  0.00000000000E+00  0.11008885088E+03  0.18268643322E+04  0.18235442778E+04 0.  0.
        5    1    3    3  502    0 -0.76352288093E+03 -0.19394194057E+03 -0.40484001165E+03  0.88571902489E+03  0.46999998093E+01 0. -1.
       -5    1    3    3    0  502  0.76352288093E+03  0.19394194057E+03  0.51492886253E+03  0.94114530732E+03  0.46999998093E+01 0.  1.
</event>
<event>
 5   0  0.4063293E-05  0.2070734E+04  0.7818609E-02  0.8574246E-01
       -1   -1    0    0    0  501  0.00000000000E+00  0.00000000000E+00  0.11405655909E+04  0.11405655909E+04  0.50400001928E-02 0. -1.
        1   -1    0    0  501    0  0.00000000000E+00  0.00000000000E+00 -0.93987094059E+03  0.93987094060E+03  0.50400001928E-02 0.  1.
    10030    2    1    2    0    0  0.00000000000E+00  0.00000000000E+00  0.20069465032E+03  0.20804365315E+04  0.20707336427E+04 0.  0.
        1    1    3    3  502    0 -0.94975190944E+02  0.10260910668E+04 -0.62879040423E+00  0.10304773456E+04  0.50400001928E-02 0. -1.
       -1    1    3    3    0  502  0.94975190944E+02 -0.10260910668E+04  0.20132344072E+03  0.10499591859E+04  0.50400001928E-02 0.  1.
</event>
<event>
 5   0  0.9179618E-05  0.2211845E+04  0.7818609E-02  0.8513514E-01
       -2   -1    0    0    0  501  0.00000000000E+00  0.00000000000E+00  0.13024664677E+04  0.13024664677E+04  0.25500000920E-02 0.  1.
        2   -1    0    0  501    0  0.00000000000E+00  0.00000000000E+00 -0.93903718814E+03  0.93903718814E+03  0.25500000920E-02 0. -1.
    10030    2    1    2    0    0  0.00000000000E+00  0.00000000000E+00  0.36342927956E+03  0.22415036558E+04  0.22118448856E+04 0.  0.
        3    1    3    3  502    0  0.87510407404E+03 -0.64434620377E+03 -0.26158431555E+02  0.10870480415E+04  0.10100000352E+00 0. -1.
       -3    1    3    3    0  502 -0.87510407404E+03  0.64434620377E+03  0.38958771112E+03  0.11544556144E+04  0.10100000352E+00 0.  1.
</event>
<event>
 5   0  0.9457742E-05  0.2167542E+04  0.7818609E-02  0.8532060E-01
       -2   -1    0    0    0  501  0.00000000000E+00  0.00000000000E+00  0.76311977624E+03  0.76311977625E+03  0.25500000920E-02 0.  1.
        2   -1    0    0  501    0  0.00000000000E+00  0.00000000000E+00 -0.15391553012E+04  0.15391553012E+04  0.25500000920E-02 0. -1.
    10030    2    1    2    0    0  0.00000000000E+00  0.00000000000E+00 -0.77603552499E+03  0.23022750775E+04  0.21675422479E+04 0.  0.
        1    1    3    3  502    0 -0.32326597774E+03  0.10296222482E+04 -0.28213703743E+03  0.11154479702E+04  0.50400001928E-02 0.  1.
       -1    1    3    3    0  502  0.32326597774E+03 -0.10296222482E+04 -0.49389848757E+03  0.11868271072E+04  0.50400001928E-02 0. -1.
</event>
<event>
 5   0  0.9179618E-05  0.2188007E+04  0.7818609E-02  0.8523436E-01
       -2   -1    0    0    0  501  0.00000000000E+00  0.00000000000E+00  0.11601728738E+04  0.11601728738E+04  0.25500000920E-02 0. -1.
        2   -1    0    0  501    0  0.00000000000E+00  0.00000000000E+00 -0.10316082093E+04  0.10316082093E+04  0.25500000920E-02 0.  1.
    10030    2    1    2    0    0  0.00000000000E+00  0.00000000000E+00  0.12856466455E+03  0.21917810831E+04  0.21880071854E+04 0.  0.
        3    1    3    3  502    0  0.85954882082E+03 -0.24401602750E+02 -0.61321566629E+03  0.10561501206E+04  0.10100000352E+00 0.  1.
       -3    1    3    3    0  502 -0.85954882082E+03  0.24401602750E+02  0.74178033084E+03  0.11356309625E+04  0.10100000352E+00 0. -1.
</event>
<event>
 5   0  0.4174030E-05  0.2211235E+04  0.7818609E-02  0.8513766E-01
       -1   -1    0    0    0  501  0.00000000000E+00  0.00000000000E+00  0.10732887273E+04  0.10732887273E+04  0.50400001928E-02 0. -1.
        1   -1    0    0  501    0  0.00000000000E+00  0.00000000000E+00 -0.11389202317E+04  0.11389202317E+04  0.50400001928E-02 0.  1.
    10030    2    1    2    0    0  0.00000000000E+00  0.00000000000E+00 -0.65631504344E+02  0.22122089590E+04  0.22112351716E+04 0.  0.
        2    1    3    3  502    0  0.56457687387E+03  0.10160539554E+02 -0.98378154705E+03  0.11343175990E+04  0.25500000920E-02 0.  1.
       -2    1    3    3    0  502 -0.56457687387E+03 -0.10160539554E+02  0.91815004271E+03  0.10778913600E+04  0.25500000920E-02 0. -1.
</event>
<event>
 5   0  0.9442578E-05  0.2197613E+04  0.7818609E-02  0.8519422E-01
        2   -1    0    0  501    0  0.00000000000E+00  0.00000000000E+00  0.12204303651E+04  0.12204303651E+04  0.25500000920E-02 0. -1.
       -2   -1    0    0    0  501  0.00000000000E+00  0.00000000000E+00 -0.98930360979E+03  0.98930360980E+03  0.25500000920E-02 0.  1.
    10030    2    1    2    0    0  0.00000000000E+00  0.00000000000E+00  0.23112675530E+03  0.22097339749E+04  0.21976134016E+04 0.  0.
        4    1    3    3  502    0 -0.24122968338E+02  0.48042747394E+03 -0.87780337301E+03  0.10009659584E+04  0.12699999809E+01 0.  1.
       -4    1    3    3    0  502  0.24122968338E+02 -0.48042747394E+03  0.11089301283E+04  0.12087680165E+04  0.12699999809E+01 0. -1.
</event>
<event>
 5   0  0.4174075E-05  0.1787132E+04  0.7818609E-02  0.8713173E-01
       -1   -1    0    0    0  501  0.00000000000E+00  0.00000000000E+00  0.25994722248E+04  0.25994722248E+04  0.50400001928E-02 0.  1.
        1   -1    0    0  501    0  0.00000000000E+00  0.00000000000E+00 -0.30716240168E+03  0.30716240173E+03  0.50400001928E-02 0. -1.
    10030    2    1    2    0    0  0.00000000000E+00  0.00000000000E+00  0.22923098232E+04  0.29066346266E+04  0.17871319277E+04 0.  0.
        5    1    3    3  502    0  0.67378238093E+03  0.31569408049E+03  0.19508529916E+04  0.20879403570E+04  0.46999998093E+01 0.  1.
       -5    1    3    3    0  502 -0.67378238093E+03 -0.31569408049E+03  0.34145683154E+03  0.81869426962E+03  0.46999998093E+01 0. -1.
</event>
<event>
 5   0  0.4174030E-05  0.2204391E+04  0.7818609E-02  0.8516603E-01
        1   -1    0    0  501    0  0.00000000000E+00  0.00000000000E+00  0.18055601707E+04  0.18055601707E+04  0.50400001928E-02 0. -1.
       -1   -1    0    0    0  501  0.00000000000E+00  0.00000000000E+00 -0.67283009696E+03  0.67283009698E+03  0.50400001928E-02 0.  1.
    10030    2    1    2    0    0  0.00000000000E+00  0.00000000000E+00  0.11327300738E+04  0.24783902677E+04  0.22043912763E+04 0.  0.
        2    1    3    3  502    0  0.72441714342E+03 -0.79134296445E+03  0.28231294553E+03  0.11093712112E+04  0.25500000920E-02 0.  1.
       -2    1    3    3    0  502 -0.72441714342E+03  0.79134296445E+03  0.85041712825E+03  0.13690190565E+04  0.25500000920E-02 0. -1.
</event>
<event>
 5   0  0.3283125E-05  0.2186325E+04  0.7818609E-02  0.8524142E-01
       -3   -1    0    0    0  501  0.00000000000E+00  0.00000000000E+00  0.13672523103E+04  0.13672523140E+04  0.10100000352E+00 0.  1.
        3   -1    0    0  501    0  0.00000000000E+00  0.00000000000E+00 -0.87401894522E+03  0.87401895106E+03  0.10100000352E+00 0. -1.
    10030    2    1    2    0    0  0.00000000000E+00  0.00000000000E+00  0.49323336504E+03  0.22412712651E+04  0.21863251659E+04 0.  0.
        1    1    3    3  502    0  0.63443592014E+03  0.36107498395E+02 -0.66522731358E+03  0.91996742712E+03  0.50400001928E-02 0. -1.
       -1    1    3    3    0  502 -0.63443592014E+03 -0.36107498395E+02  0.11584606786E+04  0.13213038379E+04  0.50400001928E-02 0.  1.
</event>
<event>
 5   0  0.4174030E-05  0.2211239E+04  0.7818609E-02  0.8513765E-01
        1   -1    0    0  501    0  0.00000000000E+00  0.00000000000E+00  0.17340094246E+04  0.17340094246E+04  0.50400001928E-02 0. -1.
       -1   -1    0    0    0  501  0.00000000000E+00  0.00000000000E+00 -0.70495277438E+03  0.70495277440E+03  0.50400001928E-02 0.  1.
    10030    2    1    2    0    0  0.00000000000E+00  0.00000000000E+00  0.10290566503E+04  0.24389621990E+04  0.22112392496E+04 0.  0.
        2    1    3    3  502    0 -0.72085123880E+03 -0.34550889178E+03  0.13569887610E+04  0.15749353638E+04  0.25500000920E-02 0. -1.
       -2    1    3    3    0  502  0.72085123880E+03  0.34550889178E+03 -0.32793211070E+03  0.86402683524E+03  0.25500000920E-02 0.  1.
</event>
<event>
 5   0  0.4188865E-05  0.2195103E+04  0.7818609E-02  0.8520469E-01
        1   -1    0    0  501    0  0.00000000000E+00  0.00000000000E+00  0.74303515321E+03  0.74303515323E+03  0.50400001928E-02 0. -1.
       -1   -1    0    0    0  501  0.00000000000E+00  0.00000000000E+00 -0.16212148577E+04  0.16212148577E+04  0.50400001928E-02 0.  1.
    10030    2    1    2    0    0  0.00000000000E+00  0.00000000000E+00 -0.87817970444E+03  0.23642500109E+04  0.21951033052E+04 0.  0.
        3    1    3    3  502    0 -0.12452142206E+03  0.45982699645E+03  0.62587502360E+03  0.78655324460E+03  0.10100000352E+00 0. -1.
       -3    1    3    3    0  502  0.12452142206E+03 -0.45982699645E+03 -0.15040547280E+04  0.15776967663E+04  0.10100000352E+00 0.  1.
</event>
<event>
 5   0  0.4174075E-05  0.2207904E+04  0.7818609E-02  0.8515145E-01
        1   -1    0    0  501    0  0.00000000000E+00  0.00000000000E+00  0.11698993403E+04  0.11698993403E+04  0.50400001928E-02 0. -1.
       -1   -1    0    0    0  501  0.00000000000E+00  0.00000000000E+00 -0.10417223581E+04  0.10417223581E+04  0.50400001928E-02 0.  1.
    10030    2    1    2    0    0  0.00000000000E+00  0.00000000000E+00  0.12817698222E+03  0.22116216984E+04  0.22079042547E+04 0.  0.
        5    1    3    3  502    0 -0.27404425801E+03 -0.10630722288E+04 -0.52147355422E+02  0.10990742721E+04  0.46999998093E+01 0. -1.
       -5    1    3    3    0  502  0.27404425801E+03  0.10630722288E+04  0.18032433764E+03  0.11125474263E+04  0.46999998093E+01 0.  1.
</event>
<event>
 5   0  0.9938176E-05  0.2172535E+04  0.7818609E-02  0.8529947E-01
        2   -1    0    0  501    0  0.00000000000E+00  0.00000000000E+00  0.17242485729E+04  0.17242485729E+04  0.25500000920E-02 0. -1.
       -2   -1    0    0    0  501  0.00000000000E+00  0.00000000000E+00 -0.68434305443E+03  0.68434305443E+03  0.25500000920E-02 0.  1.
    10030    2    1    2    0    0  0.00000000000E+00  0.00000000000E+00  0.10399055185E+04  0.24085916274E+04  0.21725354174E+04 0.  0.
        5    1    3    3  502    0 -0.69933906585E+03  0.55471710988E+03  0.12062174086E+04  0.15005894601E+04  0.46999998093E+01 0. -1.
       -5    1    3    3    0  502  0.69933906585E+03 -0.55471710988E+03 -0.16631189006E+03  0.90800216728E+03  0.46999998093E+01 0.  1.
</event>
<event>
 5   0  0.4063293E-05  0.2196046E+04  0.7818609E-02  0.8520076E-01
        1   -1    0    0  501    0  0.00000000000E+00  0.00000000000E+00  0.24449998585E+04  0.24449998585E+04  0.50400001928E-02 0.  1.
       -1   -1    0    0    0  501  0.00000000000E+00  0.00000000000E+00 -0.49311015100E+03  0.49311015103E+03  0.50400001928E-02 0. -1.
    10030    2    1    2    0    0  0.00000000000E+00  0.00000000000E+00  0.19518897075E+04  0.29381100095E+04  0.21960457640E+04 0.  0.
        1    1    3    3  502    0  0.55856743889E+03 -0.88910636768E+02  0.22351098161E+04  0.23055625290E+04  0.50400001928E-02 0.  1.
       -1    1    3    3    0  502 -0.55856743889E+03  0.88910636768E+02 -0.28322010863E+03  0.63254748049E+03  0.50400001928E-02 0. -1.
</event>
<event>
 5   0  0.4174075E-05  0.2402532E+04  0.7818609E-02  0.8438556E-01
        1   -1    0    0  501    0  0.00000000000E+00  0.00000000000E+00  0.18704965045E+04  0.18704965045E+04  0.50400001928E-02 0. -1.
       -1   -1    0    0    0  501  0.00000000000E+00  0.00000000000E+00 -0.77147452672E+03  0.77147452674E+03  0.50400001928E-02 0.  1.
    10030    2    1    2    0    0  0.00000000000E+00  0.00000000000E+00  0.10990219778E+04  0.26419710313E+04  0.24025323354E+04 0.  0.
        5    1    3    3  502    0  0.84492601338E+02 -0.20994709840E+03 -0.74781006118E+03  0.78131860429E+03  0.46999998093E+01 0.  1.
       -5    1    3    3    0  502 -0.84492601338E+02  0.20994709840E+03  0.18468320390E+04  0.18606524270E+04  0.46999998093E+01 0. -1.
</event>
<event>
 5   0  0.4133418E-05  0.2201691E+04  0.7818609E-02  0.8517725E-01
        1   -1    0    0  501    0  0.00000000000E+00  0.00000000000E+00  0.14984622242E+04  0.14984622242E+04  0.50400001928E-02 0.  1.
       -1   -1    0    0    0  501  0.00000000000E+00  0.00000000000E+00 -0.80873603393E+03  0.80873603395E+03  0.50400001928E-02 0. -1.
    10030    2    1    2    0    0  0.00000000000E+00  0.00000000000E+00  0.68972619031E+03  0.23071982582E+04  0.22016906197E+04 0.  0.
        4    1    3    3  502    0 -0.37329899760E+03 -0.11862887597E+03  0.14229666538E+04  0.14758931745E+04  0.12699999809E+01 0.  1.
       -4    1    3    3    0  502  0.37329899760E+03  0.11862887597E+03 -0.73324046354E+03  0.83130508364E+03  0.12699999809E+01 0. -1.
</event>
<event>
 5   0  0.4174030E-05  0.1834527E+04  0.7818609E-02  0.8688151E-01
        1   -1    0    0  501    0  0.00000000000E+00  0.00000000000E+00  0.14374533426E+04  0.14374533426E+04  0.50400001928E-02 0. -1.
       -1   -1    0    0    0  501  0.00000000000E+00  0.00000000000E+00 -0.58532178706E+03  0.58532178709E+03  0.50400001928E-02 0.  1.
    10030    2    1    2    0    0  0.00000000000E+00  0.00000000000E+00  0.85213155552E+03  0.20227751297E+04  0.18345274698E+04 0.  0.
        2    1    3    3  502    0 -0.20087458866E+03 -0.35359974878E+03  0.13326190327E+04  0.13932899444E+04  0.25500000920E-02 0. -1.
       -2    1    3    3    0  502  0.20087458866E+03  0.35359974878E+03 -0.48048747723E+03  0.62948518528E+03  0.25500000920E-02 0.  1.
</event>
<event>
 5   0  0.9254673E-05  0.2207255E+04  0.7818609E-02  0.8515415E-01
       -2   -1    0    0    0  501  0.00000000000E+00  0.00000000000E+00  0.88222684856E+03  0.88222684856E+03  0.25500000920E-02 0.  1.
        2   -1    0    0  501    0  0.00000000000E+00  0.00000000000E+00 -0.13805898115E+04  0.13805898116E+04  0.25500000920E-02 0. -1.
    10030    2    1    2    0    0  0.00000000000E+00  0.00000000000E+00 -0.49836296299E+03  0.22628166601E+04  0.22072547643E+04 0.  0.
        2    1    3    3  502    0 -0.80335869756E+03  0.75221225725E+03 -0.33362558408E+03  0.11500063075E+04  0.25500000920E-02 0. -1.
       -2    1    3    3    0  502  0.80335869756E+03 -0.75221225725E+03 -0.16473737891E+03  0.11128103526E+04  0.25500000920E-02 0.  1.
</event>
<event>
 5   0  0.9179618E-05  0.2187221E+04  0.7818609E-02  0.8523766E-01
        2   -1    0    0  501    0  0.00000000000E+00  0.00000000000E+00  0.77857713489E+03  0.77857713489E+03  0.25500000920E-02 0. -1.
       -2   -1    0    0    0  501  0.00000000000E+00  0.00000000000E+00 -0.15361149567E+04  0.15361149567E+04  0.25500000920E-02 0.  1.
    10030    2    1    2    0    0  0.00000000000E+00  0.00000000000E+00 -0.75753782179E+03  0.23146920916E+04  0.21872210513E+04 0.  0.
        3    1    3    3  502    0  0.72026755310E+03 -0.20283813501E+03  0.46524186887E+03  0.88112352358E+03  0.10100000352E+00 0. -1.
       -3    1    3    3    0  502 -0.72026755310E+03  0.20283813501E+03 -0.12227796907E+04  0.14335685680E+04  0.10100000352E+00 0.  1.
</event>
<event>
 5   0  0.9442578E-05  0.2197670E+04  0.7818609E-02  0.8519399E-01
       -2   -1    0    0    0  501  0.00000000000E+00  0.00000000000E+00  0.81669150515E+03  0.81669150515E+03  0.25500000920E-02 0.  1.
        2   -1    0    0  501    0  0.00000000000E+00  0.00000000000E+00 -0.14784504060E+04  0.14784504060E+04  0.25500000920E-02 0. -1.
    10030    2    1    2    0    0  0.00000000000E+00  0.00000000000E+00 -0.66175890089E+03  0.22951419112E+04  0.21976695724E+04 0.  0.
        4    1    3    3  502    0  0.85628952096E+03 -0.68599196010E+03 -0.26804828344E+03  0.11294548279E+04  0.12699999809E+01 0.  1.
       -4    1    3    3    0  502 -0.85628952096E+03  0.68599196010E+03 -0.39371061745E+03  0.11656870833E+04  0.12699999809E+01 0. -1.
</event>
<event>
 5   0  0.4174075E-05  0.2204315E+04  0.7818609E-02  0.8516634E-01
       -1   -1    0    0    0  501  0.00000000000E+00  0.00000000000E+00  0.77278254715E+03  0.77278254717E+03  0.50400001928E-02 0. -1.
        1   -1    0    0  501    0  0.00000000000E+00  0.00000000000E+00 -0.15719182512E+04  0.15719182512E+04  0.50400001928E-02 0.  1.
    10030    2    1    2    0    0  0.00000000000E+00  0.00000000000E+00 -0.79913570404E+03  0.23447007984E+04  0.22043148506E+04 0.  0.
        5    1    3    3  502    0 -0.79867555826E+03  0.64782047045E+03  0.22133883557E+02  0.10286233558E+04  0.46999998093E+01 0. -1.
       -5    1    3    3    0  502  0.79867555826E+03 -0.64782047045E+03 -0.82126958760E+03  0.13160774426E+04  0.46999998093E+01 0.  1.
</event>
<event>
 5   0  0.9457742E-05  0.2210709E+04  0.7818609E-02  0.8513984E-01
        2   -1    0    0  501    0  0.00000000000E+00  0.00000000000E+00  0.15088792542E+04  0.15088792542E+04  0.25500000920E-02 0. -1.
       -2   -1    0    0    0  501  0.00000000000E+00  0.00000000000E+00 -0.80974543518E+03  0.80974543518E+03  0.25500000920E-02 0.  1.
    10030    2    1    2    0    0  0.00000000000E+00  0.00000000000E+00  0.69913381900E+03  0.23186246894E+04  0.22107085636E+04 0.  0.
        1    1    3    3  502    0  0.37479811654E+02  0.50392433581E+03 -0.68151155692E+03  0.84841173656E+03  0.50400001928E-02 0.  1.
       -1    1    3    3    0  502 -0.37479811654E+02 -0.50392433581E+03  0.13806453759E+04  0.14702129528E+04  0.50400001928E-02 0. -1.
</event>
<event>
 5   0  0.9938176E-05  0.2119658E+04  0.7818609E-02  0.8552633E-01
       -2   -1    0    0    0  501  0.00000000000E+00  0.00000000000E+00  0.48788865180E+03  0.48788865181E+03  0.25500000920E-02 0.  1.
        2   -1    0    0  501    0  0.00000000000E+00  0.00000000000E+00 -0.23022416102E+04  0.23022416102E+04  0.25500000920E-02 0. -1.
    10030    2    1    2    0    0  0.00000000000E+00  0.00000000000E+00 -0.18143529584E+04  0.27901302620E+04  0.21196580435E+04 0.  0.
        5    1    3    3  502    0 -0.20999997740E+03  0.10008519848E+04 -0.12734110996E+04  0.16332184804E+04  0.46999998093E+01 0. -1.
       -5    1    3    3    0  502  0.20999997740E+03 -0.10008519848E+04 -0.54094185875E+03  0.11569117816E+04  0.46999998093E+01 0.  1.
</event>
<event>
 5   0  0.4133418E-05  0.2184575E+04  0.7818609E-02  0.8524876E-01
       -1   -1    0    0    0  501  0.00000000000E+00  0.00000000000E+00  0.10818644592E+04  0.10818644592E+04  0.50400001928E-02 0.  1.
        1   -1    0    0  501    0  0.00000000000E+00  0.00000000000E+00 -0.11028113788E+04  0.11028113788E+04  0.50400001928E-02 0. -1.
    10030    2    1    2    0    0  0.00000000000E+00  0.00000000000E+00 -0.20946919622E+02  0.21846758380E+04  0.21845754149E+04 0.  0.
        4    1    3    3  502    0  0.28086555889E+03 -0.10301808374E+04  0.21960841626E+03  0.10901318679E+04  0.12699999809E+01 0. -1.
       -4    1    3    3    0  502 -0.28086555889E+03  0.10301808374E+04 -0.24055533588E+03  0.10945439701E+04  0.12699999809E+01 0.  1.
</event>
<event>
 5   0  0.4174030E-05  0.2198414E+04  0.7818609E-02  0.8519089E-01
       -1   -1    0    0    0  501  0.00000000000E+00  0.00000000000E+00  0.74162194405E+03  0.74162194407E+03  0.50400001928E-02 0. -1.
        1   -1    0    0  501    0  0.00000000000E+00  0.00000000000E+00 -0.16292068770E+04  0.16292068770E+04  0.50400001928E-02 0.  1.
    10030    2    1    2    0    0  0.00000000000E+00  0.00000000000E+00 -0.88758493297E+03  0.23708288211E+04  0.21984135839E+04 0.  0.
        2    1    3    3  502    0 -0.37066104152E+03 -0.43424294748E+03 -0.14567674012E+04  0.15646494197E+04  0.25500000920E-02 0.  1.
       -2    1    3    3    0  502  0.37066104152E+03  0.43424294748E+03  0.56918246826E+03  0.80617940145E+03  0.25500000920E-02 0. -1.
</event>
<event>
 5   0  0.4174030E-05  0.2170353E+04  0.7818609E-02  0.8530870E-01
       -1   -1    0    0    0  501  0.00000000000E+00  0.00000000000E+00  0.66381791435E+03  0.66381791437E+03  0.50400001928E-02 0. -1.
        1   -1    0    0  501    0  0.00000000000E+00  0.00000000000E+00 -0.17739930387E+04  0.17739930387E+04  0.50400001928E-02 0.  1.
    10030    2    1    2    0    0  0.00000000000E+00  0.00000000000E+00 -0.11101751244E+04  0.24378109531E+04  0.21703532976E+04 0.  0.
        2    1    3    3  502    0  0.31271495283E+02  0.44656410200E+03 -0.16654474186E+04  0.17245615407E+04  0.25500000920E-02 0.  1.
       -2    1    3    3    0  502 -0.31271495283E+02 -0.44656410200E+03  0.55527229419E+03  0.71324941242E+03  0.25500000920E-02 0. -1.
</event>
<event>
 5   0  0.4188865E-05  0.2162197E+04  0.7818609E-02  0.8534329E-01
       -1   -1    0    0    0  501  0.00000000000E+00  0.00000000000E+00  0.66743810451E+03  0.66743810453E+03  0.50400001928E-02 0. -1.
        1   -1    0    0  501    0  0.00000000000E+00  0.00000000000E+00 -0.17511349855E+04  0.17511349855E+04  0.50400001928E-02 0.  1.
    10030    2    1    2    0    0  0.00000000000E+00  0.00000000000E+00 -0.10836968810E+04  0.24185730901E+04  0.21621972301E+04 0.  0.
        3    1    3    3  502    0 -0.48520190364E+03 -0.55663703563E+03 -0.14251014155E+04  0.16050482022E+04  0.10100000352E+00 0.  1.
       -3    1    3    3    0  502  0.48520190364E+03  0.55663703563E+03  0.34140453451E+03  0.81352488783E+03  0.10100000352E+00 0. -1.
</event>
<event>
 5   0  0.4174030E-05  0.2205465E+04  0.7818609E-02  0.8516157E-01
       -1   -1    0    0    0  501  0.00000000000E+00  0.00000000000E+00  0.76491368053E+03  0.76491368055E+03  0.50400001928E-02 0.  1.
        1   -1    0    0  501    0  0.00000000000E+00  0.00000000000E+00 -0.15897462842E+04  0.15897462842E+04  0.50400001928E-02 0. -1.
    10030    2    1    2    0    0  0.00000000000E+00  0.00000000000E+00 -0.82483260367E+03  0.23546599648E+04  0.22054647414E+04 0.  0.
        2    1    3    3  502    0 -0.28962266845E+03  0.70548104606E+03 -0.12628124137E+04  0.14752220133E+04  0.25500000920E-02 0. -1.
       -2    1    3    3    0  502  0.28962266845E+03 -0.70548104606E+03  0.43797981002E+03  0.87943795143E+03  0.25500000920E-02 0.  1.
</event>
<event>
 5   0  0.9254673E-05  0.2185242E+04  0.7818609E-02  0.8524596E-01
       -2   -1    0    0    0  501  0.00000000000E+00  0.00000000000E+00  0.79479931856E+03  0.79479931856E+03  0.25500000920E-02 0.  1.
        2   -1    0    0  501    0  0.00000000000E+00  0.00000000000E+00 -0.15020407031E+04  0.15020407031E+04  0.25500000920E-02 0. -1.
    10030    2    1    2    0    0  0.00000000000E+00  0.00000000000E+00 -0.70724138450E+03  0.22968400216E+04  0.21852422541E+04 0.  0.
        2    1    3    3  502    0 -0.47757594587E+03 -0.11212183573E+03 -0.13797841158E+04  0.14643955396E+04  0.25500000920E-02 0. -1.
       -2    1    3    3    0  502  0.47757594587E+03  0.11212183573E+03  0.67254273134E+03  0.83244448200E+03  0.25500000920E-02 0.  1.
</event>
<event>
 5   0  0.9254673E-05  0.2145267E+04  0.7818609E-02  0.8541561E-01
        2   -1    0    0  501    0  0.00000000000E+00  0.00000000000E+00  0.15063990222E+04  0.15063990222E+04  0.25500000920E-02 0.  1.
       -2   -1    0    0    0  501  0.00000000000E+00  0.00000000000E+00 -0.76377003898E+03  0.76377003898E+03  0.25500000920E-02 0. -1.
    10030    2    1    2    0    0  0.00000000000E+00  0.00000000000E+00  0.74262898318E+03  0.22701690611E+04  0.21452668271E+04 0.  0.
        2    1    3    3  502    0 -0.10132728842E+04  0.25742514623E+02 -0.56424066738E-01  0.10135998314E+04  0.25500000920E-02 0. -1.
       -2    1    3    3    0  502  0.10132728842E+04 -0.25742514623E+02  0.74268540724E+03  0.12565692297E+04  0.25500000920E-02 0.  1.
</event>
<event>
 5   0  0.9179618E-05  0.2183360E+04  0.7818609E-02  0.8525386E-01
       -2   -1    0    0    0  501  0.00000000000E+00  0.00000000000E+00  0.95268344741E+03  0.95268344741E+03  0.25500000920E-02 0.  1.
        2   -1    0    0  501    0  0.00000000000E+00  0.00000000000E+00 -0.12509561725E+04  0.12509561725E+04  0.25500000920E-02 0. -1.
    10030    2    1    2    0    0  0.00000000000E+00  0.00000000000E+00 -0.29827272510E+03  0.22036396199E+04  0.21833600152E+04 0.  0.
        3    1    3    3  502    0  0.95551927467E+03 -0.48485100755E+03 -0.36004535886E+03  0.11303673095E+04  0.10100000352E+00 0.  1.
       -3    1    3    3    0  502 -0.95551927467E+03  0.48485100755E+03  0.61772633759E+02  0.10732723104E+04  0.10100000352E+00 0. -1.
</event>
<event>
 5   0  0.4063293E-05  0.2192901E+04  0.7818609E-02  0.8521389E-01
        1   -1    0    0  501    0  0.00000000000E+00  0.00000000000E+00  0.18450439806E+04  0.18450439806E+04  0.50400001928E-02 0. -1.
       -1   -1    0    0    0  501  0.00000000000E+00  0.00000000000E+00 -0.65158529162E+03  0.65158529164E+03  0.50400001928E-02 0.  1.
    10030    2    1    2    0    0  0.00000000000E+00  0.00000000000E+00  0.11934586890E+04  0.24966292722E+04  0.21929008370E+04 0.  0.
        1    1    3    3  502    0 -0.57463915277E+03 -0.27963441320E+03  0.16110845304E+04  0.17332048134E+04  0.50400001928E-02 0. -1.
       -1    1    3    3    0  502  0.57463915277E+03  0.27963441320E+03 -0.41762584144E+03  0.76342445887E+03  0.50400001928E-02 0.  1.
</event>
<event>
 5   0  0.4174030E-05  0.2111090E+04  0.7818609E-02  0.8556374E-01
        1   -1    0    0  501    0  0.00000000000E+00  0.00000000000E+00  0.81767323768E+03  0.81767323770E+03  0.50400001928E-02 0. -1.
       -1   -1    0    0    0  501  0.00000000000E+00  0.00000000000E+00 -0.13626173635E+04  0.13626173635E+04  0.50400001928E-02 0.  1.
    10030    2    1    2    0    0  0.00000000000E+00  0.00000000000E+00 -0.54494412583E+03  0.21802906012E+04  0.21110904778E+04 0.  0.
        2    1    3    3  502    0  0.65598826677E+03  0.82680844213E+03 -0.28856968551E+03  0.10941687573E+04  0.25500000920E-02 0.  1.
       -2    1    3    3    0  502 -0.65598826677E+03 -0.82680844213E+03 -0.25637444032E+03  0.10861218439E+04  0.25500000920E-02 0. -1.
</event>
<event>
 5   0  0.4174030E-05  0.2195998E+04  0.7818609E-02  0.8520096E-01
       -1   -1    0    0    0  501  0.00000000000E+00  0.00000000000E+00  0.60134612856E+03  0.60134612859E+03  0.50400001928E-02 0.  1.
        1   -1    0    0  501    0  0.00000000000E+00  0.00000000000E+00 -0.20048379633E+04  0.20048379634E+04  0.50400001928E-02 0. -1.
    10030    2    1    2    0    0  0.00000000000E+00  0.00000000000E+00 -0.14034918348E+04  0.26061840919E+04  0.21959977666E+04 0.  0.
        2    1    3    3  502    0 -0.28509912735E+03  0.49387139295E+03 -0.18153118750E+04  0.19027736778E+04  0.25500000920E-02 0. -1.
       -2    1    3    3    0  502  0.28509912735E+03 -0.49387139295E+03  0.41182004025E+03  0.70341041416E+03  0.25500000920E-02 0.  1.
</event>
<event>
 5   0  0.9179618E-05  0.2244618E+04  0.7818609E-02  0.8500083E-01
       -2   -1    0    0    0  501  0.00000000000E+00  0.00000000000E+00  0.39693136989E+03  0.39693136990E+03  0.25500000920E-02 0. -1.
        2   -1    0    0  501    0  0.00000000000E+00  0.00000000000E+00 -0.31732864481E+04  0.31732864481E+04  0.25500000920E-02 0.  1.
    10030    2    1    2    0    0  0.00000000000E+00  0.00000000000E+00 -0.27763550782E+04  0.35702178180E+04  0.22446175059E+04 0.  0.
        3    1    3    3  502    0 -0.55058518002E+03 -0.97048482600E+03 -0.15803145805E+04  0.19345229442E+04  0.10100000352E+00 0.  1.
       -3    1    3    3    0  502  0.55058518002E+03  0.97048482600E+03 -0.11960404977E+04  0.16356948738E+04  0.10100000352E+00 0. -1.
</event>
<event>
 5   0  0.9254673E-05  0.2184548E+04  0.7818609E-02  0.8524887E-01
        2   -1    0    0  501    0  0.00000000000E+00  0.00000000000E+00  0.92791330350E+03  0.92791330350E+03  0.25500000920E-02 0.  1.
       -2   -1    0    0    0  501  0.00000000000E+00  0.00000000000E+00 -0.12857472279E+04  0.12857472279E+04  0.25500000920E-02 0. -1.
    10030    2    1    2    0    0  0.00000000000E+00  0.00000000000E+00 -0.35783392443E+03  0.22136605314E+04  0.21845475117E+04 0.  0.
        2    1    3    3  502    0 -0.61876174308E+03  0.51358112064E+03 -0.92797748979E+03  0.12279144448E+04  0.25500000920E-02 0. -1.
       -2    1    3    3    0  502  0.61876174308E+03 -0.51358112064E+03  0.57014356537E+03  0.98574608663E+03  0.25500000920E-02 0.  1.
</event>
<event>
 5   0  0.9254673E-05  0.2201006E+04  0.7818609E-02  0.8518009E-01
        2   -1    0    0  501    0  0.00000000000E+00  0.00000000000E+00  0.97314965428E+03  0.97314965428E+03  0.25500000920E-02 0. -1.
       -2   -1    0    0    0  501  0.00000000000E+00  0.00000000000E+00 -0.12445231725E+04  0.12445231725E+04  0.25500000920E-02 0.  1.
    10030    2    1    2    0    0  0.00000000000E+00  0.00000000000E+00 -0.27137351826E+03  0.22176728268E+04  0.22010064017E+04 0.  0.
        2    1    3    3  502    0  0.63790856141E+03 -0.78963895234E+03  0.29256139302E+03  0.10564322867E+04  0.25500000920E-02 0. -1.
       -2    1    3    3    0  502 -0.63790856141E+03  0.78963895234E+03 -0.56393491128E+03  0.11612405401E+04  0.25500000920E-02 0.  1.
</event>
<event>
 5   0  0.4133418E-05  0.2345752E+04  0.7818609E-02  0.8460097E-01
        1   -1    0    0  501    0  0.00000000000E+00  0.00000000000E+00  0.17259739799E+04  0.17259739799E+04  0.50400001928E-02 0.  1.
       -1   -1    0    0    0  501  0.00000000000E+00  0.00000000000E+00 -0.79702105776E+03  0.79702105777E+03  0.50400001928E-02 0. -1.
    10030    2    1    2    0    0  0.00000000000E+00  0.00000000000E+00  0.92895292214E+03  0.25229950377E+04  0.23457515701E+04 0.  0.
        4    1    3    3  502    0  0.11600623739E+04  0.11107311661E+03  0.32197379432E+03  0.12090288193E+04  0.12699999809E+01 0.  1.
       -4    1    3    3    0  502 -0.11600623739E+04 -0.11107311661E+03  0.60697912782E+03  0.13139662184E+04  0.12699999809E+01 0. -1.
</event>
<event>
 5   0  0.3283125E-05  0.2210962E+04  0.7818609E-02  0.8513879E-01
        3   -1    0    0  501    0  0.00000000000E+00  0.00000000000E+00  0.49184306741E+03  0.49184307778E+03  0.10100000352E+00 0.  1.
       -3   -1    0    0    0  501  0.00000000000E+00  0.00000000000E+00 -0.24847107995E+04  0.24847108016E+04  0.10100000352E+00 0. -1.
    10030    2    1    2    0    0  0.00000000000E+00  0.00000000000E+00 -0.19928677321E+04  0.29765538794E+04  0.22109616005E+04 0.  0.
        2    1    3    3  502    0 -0.52114034334E+03 -0.82560831175E+03 -0.16945133897E+04  0.19556564038E+04  0.25500000920E-02 0. -1.
       -2    1    3    3    0  502  0.52114034334E+03  0.82560831175E+03 -0.29835434236E+03  0.10208974755E+04  0.25500000920E-02 0.  1.
</event>
<event>
 5   0  0.9457742E-05  0.2187054E+04  0.7818609E-02  0.8523836E-01
        2   -1    0    0  501    0  0.00000000000E+00  0.00000000000E+00  0.12284462689E+04  0.12284462689E+04  0.25500000920E-02 0. -1.
       -2   -1    0    0    0  501  0.00000000000E+00  0.00000000000E+00 -0.97342560204E+03  0.97342560205E+03  0.25500000920E-02 0.  1.
    10030    2    1    2    0    0  0.00000000000E+00  0.00000000000E+00  0.25502066685E+03  0.22018718709E+04  0.21870537706E+04 0.  0.
        1    1    3    3  502    0 -0.58659680608E+03  0.89402435453E+03  0.35802823528E+03  0.11276345049E+04  0.50400001928E-02 0. -1.
       -1    1    3    3    0  502  0.58659680608E+03 -0.89402435453E+03 -0.10300756843E+03  0.10742373660E+04  0.50400001928E-02 0.  1.
</event>
<event>
 5   0  0.9179618E-05  0.2210099E+04  0.7818609E-02  0.8514236E-01
        2   -1    0    0  501    0  0.00000000000E+00  0.00000000000E+00  0.74010053940E+03  0.74010053941E+03  0.25500000920E-02 0.  1.
       -2   -1    0    0    0  501  0.00000000000E+00  0.00000000000E+00 -0.16499576306E+04  0.16499576306E+04  0.25500000920E-02 0. -1.
    10030    2    1    2    0    0  0.00000000000E+00  0.00000000000E+00 -0.90985709116E+03  0.23900581700E+04  0.22100991221E+04 0.  0.
        3    1    3    3  502    0  0.79649548440E+02 -0.10983398325E+04 -0.35557803530E+03  0.11572079276E+04  0.10100000352E+00 0.  1.
       -3    1    3    3    0  502 -0.79649548440E+02  0.10983398325E+04 -0.55427905586E+03  0.12328502424E+04  0.10100000352E+00 0. -1.
</event>
<event>
 5   0  0.4174030E-05  0.2195025E+04  0.7818609E-02  0.8520502E-01
       -1   -1    0    0    0  501  0.00000000000E+00  0.00000000000E+00  0.12090125745E+04  0.12090125745E+04  0.50400001928E-02 0.  1.
        1   -1    0    0  501    0  0.00000000000E+00  0.00000000000E+00 -0.99629497504E+03  0.99629497505E+03  0.50400001928E-02 0. -1.
    10030    2    1    2    0    0  0.00000000000E+00  0.00000000000E+00  0.21271759944E+03  0.22053075495E+04  0.21950245126E+04 0.  0.
        2    1    3    3  502    0 -0.89318593278E+03 -0.55966163633E+02 -0.53192825675E+03  0.10410864481E+04  0.25500000920E-02 0. -1.
       -2    1    3    3    0  502  0.89318593278E+03  0.55966163633E+02  0.74464585619E+03  0.11642211015E+04  0.25500000920E-02 0.  1.
</event>
<event>
 5   0  0.9179618E-05  0.2176824E+04  0.7818609E-02  0.8528137E-01
       -2   -1    0    0    0  501  0.00000000000E+00  0.00000000000E+00  0.12932525086E+04  0.12932525086E+04  0.25500000920E-02 0. -1.
        2   -1    0    0  501    0  0.00000000000E+00  0.00000000000E+00 -0.91601675333E+03  0.91601675334E+03  0.25500000920E-02 0.  1.
    10030    2    1    2    0    0  0.00000000000E+00  0.00000000000E+00  0.37723575523E+03  0.22092692619E+04  0.21768242595E+04 0.  0.
        3    1    3    3  502    0 -0.83605772717E+02 -0.33190880495E+02  0.12894734971E+04  0.12926072372E+04  0.10100000352E+00 0. -1.
       -3    1    3    3    0  502  0.83605772717E+02  0.33190880495E+02 -0.91223774182E+03  0.91666202473E+03  0.10100000352E+00 0.  1.
</event>
<event>
 5   0  0.9254673E-05  0.2173049E+04  0.7818609E-02  0.8529730E-01
       -2   -1    0    0    0  501  0.00000000000E+00  0.00000000000E+00  0.11112357381E+04  0.11112357381E+04  0.25500000920E-02 0.  1.
        2   -1    0    0  501    0  0.00000000000E+00  0.00000000000E+00 -0.10623622967E+04  0.10623622967E+04  0.25500000920E-02 0. -1.
    10030    2    1    2    0    0  0.00000000000E+00  0.00000000000E+00  0.48873441459E+02  0.21735980348E+04  0.21730485047E+04 0.  0.
        2    1    3    3  502    0 -0.16890436610E+03 -0.74335830704E+03 -0.74998429014E+03  0.10693861290E+04  0.25500000920E-02 0. -1.
       -2    1    3    3    0  502  0.16890436610E+03  0.74335830704E+03  0.79885773160E+03  0.11042119058E+04  0.25500000920E-02 0.  1.
</event>
<event>
 5   0  0.9938176E-05  0.2177347E+04  0.7818609E-02  0.8527916E-01
        2   -1    0    0  501    0  0.00000000000E+00  0.00000000000E+00  0.17122233446E+04  0.17122233446E+04  0.25500000920E-02 0.  1.
       -2   -1    0    0    0  501  0.00000000000E+00  0.00000000000E+00 -0.69220546531E+03  0.69220546532E+03  0.25500000920E-02 0. -1.
    10030    2    1    2    0    0  0.00000000000E+00  0.00000000000E+00  0.10200178793E+04  0.24044288099E+04  0.21773473374E+04 0.  0.
        5    1    3    3  502    0  0.81755287775E+03  0.22940799146E+03  0.12623618201E+04  0.15213810139E+04  0.46999998093E+01 0.  1.
       -5    1    3    3    0  502 -0.81755287775E+03 -0.22940799146E+03 -0.24234394082E+03  0.88304779606E+03  0.46999998093E+01 0. -1.
</event>
<event>
 5   0  0.4174075E-05  0.2367283E+04  0.7818609E-02  0.8451855E-01
        1   -1    0    0  501    0  0.00000000000E+00  0.00000000000E+00  0.12821325980E+04  0.12821325980E+04  0.50400001928E-02 0.  1.
       -1   -1    0    0    0  501  0.00000000000E+00  0.00000000000E+00 -0.10927163203E+04  0.10927163203E+04  0.50400001928E-02 0. -1.
    10030    2    1    2    0    0  0.00000000000E+00  0.00000000000E+00  0.18941627769E+03  0.23748489184E+04  0.23672830120E+04 0.  0.
        5    1    3    3  502    0 -0.81776999296E+03 -0.82562481365E+03 -0.13091292398E+03  0.11694290821E+04  0.46999998093E+01 0. -1.
       -5    1    3    3    0  502  0.81776999296E+03  0.82562481365E+03  0.32032920166E+03  0.12054198363E+04  0.46999998093E+01 0.  1.
</event>
<event>
 5   0  0.4174075E-05  0.2188487E+04  0.7818609E-02  0.8523235E-01
        1   -1    0    0  501    0  0.00000000000E+00  0.00000000000E+00  0.13601865967E+04  0.13601865967E+04  0.50400001928E-02 0.  1.
       -1   -1    0    0    0  501  0.00000000000E+00  0.00000000000E+00 -0.88029774667E+03  0.88029774669E+03  0.50400001928E-02 0. -1.
    10030    2    1    2    0    0  0.00000000000E+00  0.00000000000E+00  0.47988884999E+03  0.22404843434E+04  0.21884873279E+04 0.  0.
        5    1    3    3  502    0 -0.87672797010E+03  0.41325274422E+02 -0.42902366769E+03  0.97695604266E+03  0.46999998093E+01 0. -1.
       -5    1    3    3    0  502  0.87672797010E+03 -0.41325274422E+02  0.90891251768E+03  0.12635283007E+04  0.46999998093E+01 0.  1.
</event>
<event>
 5   0  0.9457742E-05  0.2149033E+04  0.7818609E-02  0.8539946E-01
       -2   -1    0    0    0  501  0.00000000000E+00  0.00000000000E+00  0.18946966389E+04  0.18946966389E+04  0.25500000920E-02 0. -1.
        2   -1    0    0  501    0  0.00000000000E+00  0.00000000000E+00 -0.60937760158E+03  0.60937760159E+03  0.25500000920E-02 0.  1.
    10030    2    1    2    0    0  0.00000000000E+00  0.00000000000E+00  0.12853190373E+04  0.25040742405E+04  0.21490329858E+04 0.  0.
        1    1    3    3  502    0  0.49892138215E+03 -0.12903160768E+03 -0.45598809627E+03  0.68811107048E+03  0.50400001928E-02 0.  1.
       -1    1    3    3    0  502 -0.49892138215E+03  0.12903160768E+03  0.17413071336E+04  0.18159631700E+04  0.50400001928E-02 0. -1.
</event>
<event>
 5   0  0.4133418E-05  0.2188654E+04  0.7818609E-02  0.8523165E-01
       -1   -1    0    0    0  501  0.00000000000E+00  0.00000000000E+00  0.81004470624E+03  0.81004470626E+03  0.50400001928E-02 0. -1.
        1   -1    0    0  501    0  0.00000000000E+00  0.00000000000E+00 -0.14783770406E+04  0.14783770406E+04  0.50400001928E-02 0.  1.
    10030    2    1    2    0    0  0.00000000000E+00  0.00000000000E+00 -0.66833233433E+03  0.22884217468E+04  0.21886539202E+04 0.  0.
        4    1    3    3  502    0  0.84656809647E+03 -0.55716126214E+03 -0.76583372328E+03  0.12702791499E+04  0.12699999809E+01 0.  1.
       -4    1    3    3    0  502 -0.84656809647E+03  0.55716126214E+03  0.97501388950E+02  0.10181425970E+04  0.12699999809E+01 0. -1.
</event>
<event>
 5   0  0.9254673E-05  0.2180502E+04  0.7818609E-02  0.8526588E-01
       -2   -1    0    0    0  501  0.00000000000E+00  0.00000000000E+00  0.56050380590E+03  0.56050380591E+03  0.25500000920E-02 0.  1.
        2   -1    0    0  501    0  0.00000000000E+00  0.00000000000E+00 -0.21206770355E+04  0.21206770355E+04  0.25500000920E-02 0. -1.
    10030    2    1    2    0    0  0.00000000000E+00  0.00000000000E+00 -0.15601732296E+04  0.26811808414E+04  0.21805022811E+04 0.  0.
        2    1    3    3  502    0  0.26931319178E+03  0.95138497291E+03 -0.13448869265E+04  0.16692464788E+04  0.25500000920E-02 0. -1.
       -2    1    3    3    0  502 -0.26931319178E+03 -0.95138497291E+03 -0.21528630312E+03  0.10119343626E+04  0.25500000920E-02 0.  1.
</event>
<event>
 5   0  0.4063293E-05  0.1951765E+04  0.7818609E-02  0.8629510E-01
       -1   -1    0    0    0  501  0.00000000000E+00  0.00000000000E+00  0.14133189045E+04  0.14133189045E+04  0.50400001928E-02 0.  1.
        1   -1    0    0  501    0  0.00000000000E+00  0.00000000000E+00 -0.67383704739E+03  0.67383704741E+03  0.50400001928E-02 0. -1.
    10030    2    1    2    0    0  0.00000000000E+00  0.00000000000E+00  0.73948185713E+03  0.20871559519E+04  0.19517649835E+04 0.  0.
        1    1    3    3  502    0  0.68456127050E+02 -0.72833722504E+03  0.10604447651E+04  0.12882951737E+04  0.50400001928E-02 0.  1.
       -1    1    3    3    0  502 -0.68456127050E+02  0.72833722504E+03 -0.32096290796E+03  0.79886077825E+03  0.50400001928E-02 0. -1.
</event>
<event>
 5   0  0.9442578E-05  0.2190729E+04  0.7818609E-02  0.8522297E-01
       -2   -1    0    0    0  501  0.00000000000E+00  0.00000000000E+00  0.11962396656E+04  0.11962396656E+04  0.25500000920E-02 0. -1.
        2   -1    0    0  501    0  0.00000000000E+00  0.00000000000E+00 -0.10029961276E+04  0.10029961276E+04  0.25500000920E-02 0.  1.
    10030    2    1    2    0    0  0.00000000000E+00  0.00000000000E+00  0.19324353800E+03  0.21992357932E+04  0.21907293327E+04 0.  0.
        4    1    3    3  502    0 -0.21579843113E+03 -0.12404117279E+03  0.11674722010E+04  0.11937119118E+04  0.12699999809E+01 0. -1.
       -4    1    3    3    0  502  0.21579843113E+03  0.12404117279E+03 -0.97422866297E+03  0.10055238814E+04  0.12699999809E+01 0.  1.
</event>
<event>
 5   0  0.4133418E-05  0.2254182E+04  0.7818609E-02  0.8496209E-01
       -1   -1    0    0    0  501  0.00000000000E+00  0.00000000000E+00  0.95311623031E+03  0.95311623032E+03  0.50400001928E-02 0.  1.
        1   -1    0    0  501    0  0.00000000000E+00  0.00000000000E+00 -0.13328215817E+04  0.13328215817E+04  0.50400001928E-02 0. -1.
    10030    2    1    2    0    0  0.00000000000E+00  0.00000000000E+00 -0.37970535137E+03  0.22859378120E+04  0.22541817865E+04 0.  0.
        4    1    3    3  502    0 -0.50543136296E+03  0.37447431178E+03  0.75854447566E+03  0.98543554193E+03  0.12699999809E+01 0.  1.
       -4    1    3    3    0  502  0.50543136296E+03 -0.37447431178E+03 -0.11382498270E+04  0.13005022701E+04  0.12699999809E+01 0. -1.
</event>
<event>
 5   0  0.3283125E-05  0.2093971E+04  0.7818609E-02  0.8563904E-01
       -4   -1    0    0    0  501  0.00000000000E+00  0.00000000000E+00  0.11361889533E+04  0.11361896631E+04  0.12699999809E+01 0.  1.
        4   -1    0    0  501    0  0.00000000000E+00  0.00000000000E+00 -0.96478389690E+03  0.96478473278E+03  0.12699999809E+01 0. -1.
    10030    2    1    2    0    0  0.00000000000E+00  0.00000000000E+00  0.17140505639E+03  0.21009743958E+04  0.20939708018E+04 0.  0.
        4    1    3    3  502    0 -0.18785433043E+03 -0.55216162521E+03  0.95809619232E+03  0.11216602144E+04  0.12699999809E+01 0.  1.
       -4    1    3    3    0  502  0.18785433043E+03  0.55216162521E+03 -0.78669113594E+03  0.97931418150E+03  0.12699999809E+01 0. -1.
</event>
<event>
 5   0  0.4133418E-05  0.2236316E+04  0.7818609E-02  0.8503463E-01
       -1   -1    0    0    0  501  0.00000000000E+00  0.00000000000E+00  0.10820062269E+04  0.10820062269E+04  0.50400001928E-02 0. -1.
        1   -1    0    0  501    0  0.00000000000E+00  0.00000000000E+00 -0.11555176274E+04  0.11555176274E+04  0.50400001928E-02 0.  1.
    10030    2    1    2    0    0  0.00000000000E+00  0.00000000000E+00 -0.73511400501E+02  0.22375238543E+04  0.22363159599E+04 0.  0.
        4    1    3    3  502    0  0.32501510015E+03 -0.29256757447E+03 -0.10664106913E+04  0.11525901164E+04  0.12699999809E+01 0.  1.
       -4    1    3    3    0  502 -0.32501510015E+03  0.29256757447E+03  0.99289929084E+03  0.10849337379E+04  0.12699999809E+01 0. -1.
</event>
<event>
 5   0  0.4174075E-05  0.2201919E+04  0.7818609E-02  0.8517630E-01
        1   -1    0    0  501    0  0.00000000000E+00  0.00000000000E+00  0.85531644834E+03  0.85531644835E+03  0.50400001928E-02 0.  1.
       -1   -1    0    0    0  501  0.00000000000E+00  0.00000000000E+00 -0.14171505769E+04  0.14171505769E+04  0.50400001928E-02 0. -1.
    10030    2    1    2    0    0  0.00000000000E+00  0.00000000000E+00 -0.56183412858E+03  0.22724670253E+04  0.22019193430E+04 0.  0.
        5    1    3    3  502    0  0.62510979014E+03  0.41865992124E+03  0.54860860578E+03  0.93114546217E+03  0.46999998093E+01 0.  1.
       -5    1    3    3    0  502 -0.62510979014E+03 -0.41865992124E+03 -0.11104427344E+04  0.13413215631E+04  0.46999998093E+01 0. -1.
</event>
<event>
 5   0  0.9457742E-05  0.2180854E+04  0.7818609E-02  0.8526440E-01
        2   -1    0    0  501    0  0.00000000000E+00  0.00000000000E+00  0.91453116574E+03  0.91453116575E+03  0.25500000920E-02 0.  1.
       -2   -1    0    0    0  501  0.00000000000E+00  0.00000000000E+00 -0.13001534385E+04  0.13001534385E+04  0.25500000920E-02 0. -1.
    10030    2    1    2    0    0  0.00000000000E+00  0.00000000000E+00 -0.38562227277E+03  0.22146846043E+04  0.21808538142E+04 0.  0.
        1    1    3    3  502    0  0.25168704500E+03  0.90242317992E+03 -0.75942430397E+03  0.12060013424E+04  0.50400001928E-02 0. -1.
       -1    1    3    3    0  502 -0.25168704500E+03 -0.90242317992E+03  0.37380203120E+03  0.10086832619E+04  0.50400001928E-02 0.  1.
</event>
<event>
 5   0  0.4188865E-05  0.2166249E+04  0.7818609E-02  0.8532609E-01
        1   -1    0    0  501    0  0.00000000000E+00  0.00000000000E+00  0.17683525201E+04  0.17683525201E+04  0.50400001928E-02 0.  1.
       -1   -1    0    0    0  501  0.00000000000E+00  0.00000000000E+00 -0.66341905321E+03  0.66341905322E+03  0.50400001928E-02 0. -1.
    10030    2    1    2    0    0  0.00000000000E+00  0.00000000000E+00  0.11049334669E+04  0.24317715733E+04  0.21662490666E+04 0.  0.
        3    1    3    3  502    0 -0.64303291274E+03  0.12752055301E+03 -0.41542637626E+03  0.77610044621E+03  0.10100000352E+00 0. -1.
       -3    1    3    3    0  502  0.64303291274E+03 -0.12752055301E+03  0.15203598431E+04  0.16556711271E+04  0.10100000352E+00 0.  1.
</event>
<event>
 5   0  0.9457742E-05  0.2274771E+04  0.7818609E-02  0.8487936E-01
       -2   -1    0    0    0  501  0.00000000000E+00  0.00000000000E+00  0.74269762400E+03  0.74269762401E+03  0.25500000920E-02 0. -1.
        2   -1    0    0  501    0  0.00000000000E+00  0.00000000000E+00 -0.17418198518E+04  0.17418198518E+04  0.25500000920E-02 0.  1.
    10030    2    1    2    0    0  0.00000000000E+00  0.00000000000E+00 -0.99912222777E+03  0.24845174758E+04  0.22747707272E+04 0.  0.
        1    1    3    3  502    0  0.51037172239E+03  0.10133870328E+04 -0.58565084116E+03  0.12768788043E+04  0.50400001928E-02 0. -1.
       -1    1    3    3    0  502 -0.51037172239E+03 -0.10133870328E+04 -0.41347138661E+03  0.12076386714E+04  0.50400001928E-02 0.  1.
</event>
<event>
 5   0  0.4188865E-05  0.2196377E+04  0.7818609E-02  0.8519937E-01
        1   -1    0    0  501    0  0.00000000000E+00  0.00000000000E+00  0.10281393429E+04  0.10281393429E+04  0.50400001928E-02 0. -1.
       -1   -1    0    0    0  501  0.00000000000E+00  0.00000000000E+00 -0.11730105275E+04  0.11730105275E+04  0.50400001928E-02 0.  1.
    10030    2    1    2    0    0  0.00000000000E+00  0.00000000000E+00 -0.14487118464E+03  0.22011498704E+04  0.21963772654E+04 0.  0.
        3    1    3    3  502    0 -0.63165923200E+03 -0.69022780369E+03 -0.64867236096E+03  0.11385006142E+04  0.10100000352E+00 0.  1.
       -3    1    3    3    0  502  0.63165923200E+03  0.69022780369E+03  0.50380117632E+03  0.10626492563E+04  0.10100000352E+00 0. -1.
</event>
<event>
 5   0  0.4174075E-05  0.2217388E+04  0.7818609E-02  0.8511225E-01
        1   -1    0    0  501    0  0.00000000000E+00  0.00000000000E+00  0.21056493814E+04  0.21056493814E+04  0.50400001928E-02 0.  1.
       -1   -1    0    0    0  501  0.00000000000E+00  0.00000000000E+00 -0.58376413478E+03  0.58376413480E+03  0.50400001928E-02 0. -1.
    10030    2    1    2    0    0  0.00000000000E+00  0.00000000000E+00  0.15218852466E+04  0.26894135162E+04  0.22173881837E+04 0.  0.
        5    1    3    3  502    0  0.26663711836E+03 -0.33677340658E+03 -0.47872474776E+03  0.64320382024E+03  0.46999998093E+01 0. -1.
       -5    1    3    3    0  502 -0.26663711836E+03  0.33677340658E+03  0.20006099944E+04  0.20462096960E+04  0.46999998093E+01 0.  1.
</event>
<event>
 5   0  0.9442578E-05  0.2214420E+04  0.7818609E-02  0.8512450E-01
        2   -1    0    0  501    0  0.00000000000E+00  0.00000000000E+00  0.88965088666E+03  0.88965088667E+03  0.25500000920E-02 0. -1.
       -2   -1    0    0    0  501  0.00000000000E+00  0.00000000000E+00 -0.13779715151E+04  0.13779715151E+04  0.25500000920E-02 0.  1.
    10030    2    1    2    0    0  0.00000000000E+00  0.00000000000E+00 -0.48832062841E+03  0.22676224017E+04  0.22144196352E+04 0.  0.
        4    1    3    3  502    0  0.28462460481E+03 -0.28079759530E+03  0.81314476295E+03  0.90612608041E+03  0.12699999809E+01 0. -1.
       -4    1    3    3    0  502 -0.28462460481E+03  0.28079759530E+03 -0.13014653914E+04  0.13614963213E+04  0.12699999809E+01 0.  1.
</event>
<event>
 5   0  0.9254673E-05  0.2195079E+04  0.7818609E-02  0.8520479E-01
       -2   -1    0    0    0  501  0.00000000000E+00  0.00000000000E+00  0.81864042332E+03  0.81864042333E+03  0.25500000920E-02 0.  1.
        2   -1    0    0  501    0  0.00000000000E+00  0.00000000000E+00 -0.14714553203E+04  0.14714553203E+04  0.25500000920E-02 0. -1.
    10030    2    1    2    0    0  0.00000000000E+00  0.00000000000E+00 -0.65281489701E+03  0.22900957437E+04  0.21950788654E+04 0.  0.
        2    1    3    3  502    0  0.72329431024E+03 -0.24443674491E+01 -0.11876288790E+04  0.13905477297E+04  0.25500000920E-02 0. -1.
       -2    1    3    3    0  502 -0.72329431024E+03  0.24443674491E+01  0.53481398201E+03  0.89954801401E+03  0.25500000920E-02 0.  1.
</event>
<event>
 5   0  0.4133418E-05  0.2195361E+04  0.7818609E-02  0.8520361E-01
       -1   -1    0    0    0  501  0.00000000000E+00  0.00000000000E+00  0.10505656146E+04  0.10505656146E+04  0.50400001928E-02 0. -1.
        1   -1    0    0  501    0  0.00000000000E+00  0.00000000000E+00 -0.11469085478E+04  0.11469085478E+04  0.50400001928E-02 0.  1.
    10030    2    1    2    0    0  0.00000000000E+00  0.00000000000E+00 -0.96342933172E+02  0.21974741625E+04  0.21953611853E+04 0.  0.
        4    1    3    3  502    0  0.49575130394E+03 -0.78307677984E+03  0.54054635635E+03  0.10729261739E+04  0.12699999809E+01 0. -1.
       -4    1    3    3    0  502 -0.49575130394E+03  0.78307677984E+03 -0.63688928953E+03  0.11245479885E+04  0.12699999809E+01 0.  1.
</event>
<event>
 5   0  0.9938176E-05  0.2109572E+04  0.7818609E-02  0.8557038E-01
       -2   -1    0    0    0  501  0.00000000000E+00  0.00000000000E+00  0.67138200477E+03  0.67138200478E+03  0.25500000920E-02 0. -1.
        2   -1    0    0  501    0  0.00000000000E+00  0.00000000000E+00 -0.16571394861E+04  0.16571394861E+04  0.25500000920E-02 0.  1.
    10030    2    1    2    0    0  0.00000000000E+00  0.00000000000E+00 -0.98575748132E+03  0.23285214909E+04  0.21095721181E+04 0.  0.
        5    1    3    3  502    0  0.70132697755E+03  0.68548561637E+03 -0.92151477339E+03  0.13457197432E+04  0.46999998093E+01 0.  1.
       -5    1    3    3    0  502 -0.70132697755E+03 -0.68548561637E+03 -0.64242707926E+02  0.98280174766E+03  0.46999998093E+01 0. -1.
</event>
<event>
 5   0  0.4063293E-05  0.2213907E+04  0.7818609E-02  0.8512662E-01
        1   -1    0    0  501    0  0.00000000000E+00  0.00000000000E+00  0.22898695966E+04  0.22898695966E+04  0.50400001928E-02 0.  1.
       -1   -1    0    0    0  501  0.00000000000E+00  0.00000000000E+00 -0.53511599402E+03  0.53511599404E+03  0.50400001928E-02 0. -1.
    10030    2    1    2    0    0  0.00000000000E+00  0.00000000000E+00  0.17547536025E+04  0.28249855906E+04  0.22139068141E+04 0.  0.
        1    1    3    3  502    0  0.38848307139E+03  0.50846361843E+03 -0.27520857114E+03  0.69655875968E+03  0.50400001928E-02 0. -1.
       -1    1    3    3    0  502 -0.38848307139E+03 -0.50846361843E+03  0.20299621737E+04  0.21284268309E+04  0.50400001928E-02 0.  1.
</event>
<event>
 5   0  0.9442578E-05  0.2192760E+04  0.7818609E-02  0.8521448E-01
       -2   -1    0    0    0  501  0.00000000000E+00  0.00000000000E+00  0.52558508784E+03  0.52558508784E+03  0.25500000920E-02 0.  1.
        2   -1    0    0  501    0  0.00000000000E+00  0.00000000000E+00 -0.22870682473E+04  0.22870682473E+04  0.25500000920E-02 0. -1.
    10030    2    1    2    0    0  0.00000000000E+00  0.00000000000E+00 -0.17614831595E+04  0.28126533352E+04  0.21927598735E+04 0.  0.
        4    1    3    3  502    0  0.52167025823E+03 -0.74421972734E+03 -0.16673249284E+04  0.18989409919E+04  0.12699999809E+01 0. -1.
       -4    1    3    3    0  502 -0.52167025823E+03  0.74421972734E+03 -0.94158231080E+02  0.91371234328E+03  0.12699999809E+01 0.  1.
</event>
<event>
 5   0  0.4174030E-05  0.2130787E+04  0.7818609E-02  0.8547801E-01
       -1   -1    0    0    0  501  0.00000000000E+00  0.00000000000E+00  0.68439236488E+03  0.68439236489E+03  0.50400001928E-02 0. -1.
        1   -1    0    0  501    0  0.00000000000E+00  0.00000000000E+00 -0.16584981764E+04  0.16584981764E+04  0.50400001928E-02 0.  1.
    10030    2    1    2    0    0  0.00000000000E+00  0.00000000000E+00 -0.97410581154E+03  0.23428905413E+04  0.21307871683E+04 0.  0.
        2    1    3    3  502    0  0.45154814411E+03 -0.96102035311E+03 -0.39114884312E+03  0.11315711480E+04  0.25500000920E-02 0. -1.
       -2    1    3    3    0  502 -0.45154814411E+03  0.96102035311E+03 -0.58295696842E+03  0.12113193933E+04  0.25500000920E-02 0.  1.
</event>
<event>
 5   0  0.4174030E-05  0.2224073E+04  0.7818609E-02  0.8508475E-01
       -1   -1    0    0    0  501  0.00000000000E+00  0.00000000000E+00  0.11917636671E+04  0.11917636671E+04  0.50400001928E-02 0.  1.
        1   -1    0    0  501    0  0.00000000000E+00  0.00000000000E+00 -0.10376432689E+04  0.10376432689E+04  0.50400001928E-02 0. -1.
    10030    2    1    2    0    0  0.00000000000E+00  0.00000000000E+00  0.15412039825E+03  0.22294069360E+04  0.22240733327E+04 0.  0.
        2    1    3    3  502    0 -0.11417349364E+03 -0.10941935162E+04  0.23971612082E+03  0.11259479811E+04  0.25500000920E-02 0.  1.
       -2    1    3    3    0  502  0.11417349364E+03  0.10941935162E+04 -0.85595722561E+02  0.11034589549E+04  0.25500000920E-02 0. -1.
</event>
<event>
 5   0  0.9254673E-05  0.1898553E+04  0.7818609E-02  0.8655577E-01
        2   -1    0    0  501    0  0.00000000000E+00  0.00000000000E+00  0.65095248956E+03  0.65095248957E+03  0.25500000920E-02 0.  1.
       -2   -1    0    0    0  501  0.00000000000E+00  0.00000000000E+00 -0.13843184433E+04  0.13843184433E+04  0.25500000920E-02 0. -1.
    10030    2    1    2    0    0  0.00000000000E+00  0.00000000000E+00 -0.73336595372E+03  0.20352709328E+04  0.18985526456E+04 0.  0.
        2    1    3    3  502    0 -0.53007794902E+02  0.18214293947E+03  0.63042616187E+03  0.65834870873E+03  0.25500000920E-02 0.  1.
       -2    1    3    3    0  502  0.53007794902E+02 -0.18214293947E+03 -0.13637921156E+04  0.13769222241E+04  0.25500000920E-02 0. -1.
</event>
<event>
 5   0  0.4174075E-05  0.2038729E+04  0.7818609E-02  0.8588725E-01
       -1   -1    0    0    0  501  0.00000000000E+00  0.00000000000E+00  0.37953978220E+03  0.37953978223E+03  0.50400001928E-02 0.  1.
        1   -1    0    0  501    0  0.00000000000E+00  0.00000000000E+00 -0.27377992916E+04  0.27377992916E+04  0.50400001928E-02 0. -1.
    10030    2    1    2    0    0  0.00000000000E+00  0.00000000000E+00 -0.23582595094E+04  0.31173390739E+04  0.20387287676E+04 0.  0.
        5    1    3    3  502    0  0.82858192252E+03 -0.22999258483E+03 -0.20161237835E+04  0.21918535060E+04  0.46999998093E+01 0. -1.
       -5    1    3    3    0  502 -0.82858192252E+03  0.22999258483E+03 -0.34213572597E+03  0.92548556790E+03  0.46999998093E+01 0.  1.
</event>
<event>
 5   0  0.4063293E-05  0.2189472E+04  0.7818609E-02  0.8522823E-01
       -1   -1    0    0    0  501  0.00000000000E+00  0.00000000000E+00  0.14537659679E+04  0.14537659679E+04  0.50400001928E-02 0. -1.
        1   -1    0    0  501    0  0.00000000000E+00  0.00000000000E+00 -0.82437387855E+03  0.82437387856E+03  0.50400001928E-02 0.  1.
    10030    2    1    2    0    0  0.00000000000E+00  0.00000000000E+00  0.62939208939E+03  0.22781398465E+04  0.21894717989E+04 0.  0.
        1    1    3    3  502    0  0.81888474254E+03 -0.72650518165E+03  0.32306470772E+03  0.11413819720E+04  0.50400001928E-02 0. -1.
       -1    1    3    3    0  502 -0.81888474254E+03  0.72650518165E+03  0.30632738167E+03  0.11367578745E+04  0.50400001928E-02 0.  1.
</event>
<event>
 5   0  0.4174075E-05  0.2186315E+04  0.7818609E-02  0.8524146E-01
       -1   -1    0    0    0  501  0.00000000000E+00  0.00000000000E+00  0.64124012459E+03  0.64124012461E+03  0.50400001928E-02 0. -1.
        1   -1    0    0  501    0  0.00000000000E+00  0.00000000000E+00 -0.18635657742E+04  0.18635657742E+04  0.50400001928E-02 0.  1.
    10030    2    1    2    0    0  0.00000000000E+00  0.00000000000E+00 -0.12223256496E+04  0.25048058988E+04  0.21863148440E+04 0.  0.
        5    1    3    3  502    0  0.41119994639E+02 -0.62870767646E+03  0.41228259579E+03  0.75296960442E+03  0.46999998093E+01 0. -1.
       -5    1    3    3    0  502 -0.41119994639E+02  0.62870767646E+03 -0.16346082454E+04  0.17518362944E+04  0.46999998093E+01 0.  1.
</event>
<event>
 5   0  0.9254673E-05  0.2220221E+04  0.7818609E-02  0.8510059E-01
        2   -1    0    0  501    0  0.00000000000E+00  0.00000000000E+00  0.19661235714E+04  0.19661235714E+04  0.25500000920E-02 0.  1.
       -2   -1    0    0    0  501  0.00000000000E+00  0.00000000000E+00 -0.62678912697E+03  0.62678912697E+03  0.25500000920E-02 0. -1.
    10030    2    1    2    0    0  0.00000000000E+00  0.00000000000E+00  0.13393344444E+04  0.25929126983E+04  0.22202205988E+04 0.  0.
        2    1    3    3  502    0  0.37159650510E+03 -0.89679831647E+03  0.40739092857E+02  0.97159191882E+03  0.25500000920E-02 0.  1.
       -2    1    3    3    0  502 -0.37159650510E+03  0.89679831647E+03  0.12985953515E+04  0.16213207795E+04  0.25500000920E-02 0. -1.
</event>
<event>
 5   0  0.9254673E-05  0.2198153E+04  0.7818609E-02  0.8519197E-01
       -2   -1    0    0    0  501  0.00000000000E+00  0.00000000000E+00  0.71892647466E+03  0.71892647466E+03  0.25500000920E-02 0. -1.
        2   -1    0    0  501    0  0.00000000000E+00  0.00000000000E+00 -0.16802404404E+04  0.16802404404E+04  0.25500000920E-02 0.  1.
    10030    2    1    2    0    0  0.00000000000E+00  0.00000000000E+00 -0.96131396574E+03  0.23991669151E+04  0.21981531670E+04 0.  0.
        2    1    3    3  502    0  0.57713361189E+03 -0.92695729094E+03 -0.61713718774E+03  0.12542692429E+04  0.25500000920E-02 0.  1.
       -2    1    3    3    0  502 -0.57713361189E+03  0.92695729094E+03 -0.34417677801E+03  0.11448976722E+04  0.25500000920E-02 0. -1.
</event>
<event>
 5   0  0.4063293E-05  0.2198654E+04  0.7818609E-02  0.8518988E-01
       -1   -1    0    0    0  501  0.00000000000E+00  0.00000000000E+00  0.93789143572E+03  0.93789143573E+03  0.50400001928E-02 0.  1.
        1   -1    0    0  501    0  0.00000000000E+00  0.00000000000E+00 -0.12885503572E+04  0.12885503572E+04  0.50400001928E-02 0. -1.
    10030    2    1    2    0    0  0.00000000000E+00  0.00000000000E+00 -0.35065892149E+03  0.22264417929E+04  0.21986544472E+04 0.  0.
        1    1    3    3  502    0 -0.44249178416E+03 -0.78211716808E+03 -0.81658951737E+03  0.12142177249E+04  0.50400001928E-02 0. -1.
       -1    1    3    3    0  502  0.44249178416E+03  0.78211716808E+03  0.46593059588E+03  0.10122240680E+04  0.50400001928E-02 0.  1.
</event>
<event>
 5   0  0.9179618E-05  0.2253576E+04  0.7818609E-02  0.8496454E-01
        2   -1    0    0  501    0  0.00000000000E+00  0.00000000000E+00  0.16325424316E+04  0.16325424316E+04  0.25500000920E-02 0. -1.
       -2   -1    0    0    0  501  0.00000000000E+00  0.00000000000E+00 -0.77771435612E+03  0.77771435613E+03  0.25500000920E-02 0.  1.
    10030    2    1    2    0    0  0.00000000000E+00  0.00000000000E+00  0.85482807547E+03  0.24102567877E+04  0.22535764341E+04 0.  0.
        3    1    3    3  502    0  0.25115449801E+03 -0.67071421893E+03 -0.50295949208E+03  0.87515964613E+03  0.10100000352E+00 0.  1.
       -3    1    3    3    0  502 -0.25115449801E+03  0.67071421893E+03  0.13577875675E+04  0.15350971416E+04  0.10100000352E+00 0. -1.
</event>
<event>
 5   0  0.9179618E-05  0.2293686E+04  0.7818609E-02  0.8480415E-01
        2   -1    0    0  501    0  0.00000000000E+00  0.00000000000E+00  0.19592498136E+04  0.19592498136E+04  0.25500000920E-02 0. -1.
       -2   -1    0    0    0  501  0.00000000000E+00  0.00000000000E+00 -0.67130254638E+03  0.67130254638E+03  0.25500000920E-02 0.  1.
    10030    2    1    2    0    0  0.00000000000E+00  0.00000000000E+00  0.12879472672E+04  0.26305523599E+04  0.22936864553E+04 0.  0.
        3    1    3    3  502    0 -0.10227674775E+04 -0.10853936475E+03  0.62098155480E+02  0.10303835683E+04  0.10100000352E+00 0.  1.
       -3    1    3    3    0  502  0.10227674775E+04  0.10853936475E+03  0.12258491117E+04  0.16001687916E+04  0.10100000352E+00 0. -1.
</event>
<event>
 5   0  0.9442578E-05  0.2194784E+04  0.7818609E-02  0.8520602E-01
       -2   -1    0    0    0  501  0.00000000000E+00  0.00000000000E+00  0.82765903248E+03  0.82765903249E+03  0.25500000920E-02 0. -1.
        2   -1    0    0  501    0  0.00000000000E+00  0.00000000000E+00 -0.14550301352E+04  0.14550301352E+04  0.25500000920E-02 0.  1.
    10030    2    1    2    0    0  0.00000000000E+00  0.00000000000E+00 -0.62737110270E+03  0.22826891677E+04  0.21947836649E+04 0.  0.
        4    1    3    3  502    0  0.57849426158E+03  0.87915946493E+03  0.97191956758E+01  0.10524604749E+04  0.12699999809E+01 0.  1.
       -4    1    3    3    0  502 -0.57849426158E+03 -0.87915946493E+03 -0.63709029838E+03  0.12302286928E+04  0.12699999809E+01 0. -1.
</event>
<event>
 5   0  0.4133418E-05  0.2160260E+04  0.7818609E-02  0.8535153E-01
       -1   -1    0    0    0  501  0.00000000000E+00  0.00000000000E+00  0.15128838440E+04  0.15128838440E+04  0.50400001928E-02 0.  1.
        1   -1    0    0  501    0  0.00000000000E+00  0.00000000000E+00 -0.77116386078E+03  0.77116386080E+03  0.50400001928E-02 0. -1.
    10030    2    1    2    0    0  0.00000000000E+00  0.00000000000E+00  0.74171998321E+03  0.22840477048E+04  0.21602604899E+04 0.  0.
        4    1    3    3  502    0 -0.13983802739E+03 -0.53067549643E+03 -0.61277673446E+03  0.82259838050E+03  0.12699999809E+01 0. -1.
       -4    1    3    3    0  502  0.13983802739E+03  0.53067549643E+03  0.13544967177E+04  0.14614493243E+04  0.12699999809E+01 0.  1.
</event>
<event>
 5   0  0.4133418E-05  0.2197111E+04  0.7818609E-02  0.8519631E-01
        1   -1    0    0  501    0  0.00000000000E+00  0.00000000000E+00  0.16163793435E+04  0.16163793435E+04  0.50400001928E-02 0. -1.
       -1   -1    0    0    0  501  0.00000000000E+00  0.00000000000E+00 -0.74662217704E+03  0.74662217705E+03  0.50400001928E-02 0.  1.
    10030    2    1    2    0    0  0.00000000000E+00  0.00000000000E+00  0.86975716646E+03  0.23630015206E+04  0.21971114349E+04 0.  0.
        4    1    3    3  502    0 -0.63900070178E+03  0.34158133341E+03  0.13229499156E+04  0.15083758803E+04  0.12699999809E+01 0. -1.
       -4    1    3    3    0  502  0.63900070178E+03 -0.34158133341E+03 -0.45319274913E+03  0.85462564025E+03  0.12699999809E+01 0.  1.
</event>
<event>
 5   0  0.9938176E-05  0.2213053E+04  0.7818609E-02  0.8513015E-01
        2   -1    0    0  501    0  0.00000000000E+00  0.00000000000E+00  0.17072838534E+04  0.17072838534E+04  0.25500000920E-02 0. -1.
       -2   -1    0    0    0  501  0.00000000000E+00  0.00000000000E+00 -0.71716324730E+03  0.71716324731E+03  0.25500000920E-02 0.  1.
    10030    2    1    2    0    0  0.00000000000E+00  0.00000000000E+00  0.99012060605E+03  0.24244471007E+04  0.22130533047E+04 0.  0.
        5    1    3    3  502    0  0.10806530222E+04 -0.19377911863E+03  0.64613837880E+03  0.12739223665E+04  0.46999998093E+01 0.  1.
       -5    1    3    3    0  502 -0.10806530222E+04  0.19377911863E+03  0.34398222725E+03  0.11505247342E+04  0.46999998093E+01 0. -1.
</event>
<event>
 5   0  0.4133418E-05  0.2146238E+04  0.7818609E-02  0.8541144E-01
        1   -1    0    0  501    0  0.00000000000E+00  0.00000000000E+00  0.15840247558E+04  0.15840247558E+04  0.50400001928E-02 0. -1.
       -1   -1    0    0    0  501  0.00000000000E+00  0.00000000000E+00 -0.72699885293E+03  0.72699885295E+03  0.50400001928E-02 0.  1.
    10030    2    1    2    0    0  0.00000000000E+00  0.00000000000E+00  0.85702590286E+03  0.23110236088E+04  0.21462378065E+04 0.  0.
        4    1    3    3  502    0  0.53653109215E+03  0.29330221060E+03 -0.52106366849E+03  0.80336838319E+03  0.12699999809E+01 0.  1.
       -4    1    3    3    0  502 -0.53653109215E+03 -0.29330221060E+03  0.13780895714E+04  0.15076552256E+04  0.12699999809E+01 0. -1.
</event>
<event>
 5   0  0.9179618E-05  0.2185103E+04  0.7818609E-02  0.8524654E-01
       -2   -1    0    0    0  501  0.00000000000E+00  0.00000000000E+00  0.91871045567E+03  0.91871045568E+03  0.25500000920E-02 0. -1.
        2   -1    0    0  501    0  0.00000000000E+00  0.00000000000E+00 -0.12992866616E+04  0.12992866616E+04  0.25500000920E-02 0.  1.
    10030    2    1    2    0    0  0.00000000000E+00  0.00000000000E+00 -0.38057620595E+03  0.22179971173E+04  0.21851025065E+04 0.  0.
        3    1    3    3  502    0  0.79204674283E+03 -0.36552338389E+03 -0.85800762439E+03  0.12235695651E+04  0.10100000352E+00 0.  1.
       -3    1    3    3    0  502 -0.79204674283E+03  0.36552338389E+03  0.47743141844E+03  0.99442755217E+03  0.10100000352E+00 0. -1.
</event>
<event>
 5   0  0.9179618E-05  0.2207543E+04  0.7818609E-02  0.8515295E-01
       -2   -1    0    0    0  501  0.00000000000E+00  0.00000000000E+00  0.22152863218E+04  0.22152863218E+04  0.25500000920E-02 0. -1.
        2   -1    0    0  501    0  0.00000000000E+00  0.00000000000E+00 -0.54995681731E+03  0.54995681732E+03  0.25500000920E-02 0.  1.
    10030    2    1    2    0    0  0.00000000000E+00  0.00000000000E+00  0.16653295045E+04  0.27652431391E+04  0.22075432634E+04 0.  0.
        3    1    3    3  502    0 -0.61886211111E+03 -0.37315412856E+02 -0.31123680651E+03  0.69372264813E+03  0.10100000352E+00 0.  1.
       -3    1    3    3    0  502  0.61886211111E+03  0.37315412856E+02  0.19765663110E+04  0.20715204910E+04  0.10100000352E+00 0. -1.
</event>
<event>
 5   0  0.4133418E-05  0.2248736E+04  0.7818609E-02  0.8498413E-01
        1   -1    0    0  501    0  0.00000000000E+00  0.00000000000E+00  0.54356222674E+03  0.54356222676E+03  0.50400001928E-02 0. -1.
       -1   -1    0    0    0  501  0.00000000000E+00  0.00000000000E+00 -0.23257740773E+04  0.23257740773E+04  0.50400001928E-02 0.  1.
    10030    2    1    2    0    0  0.00000000000E+00  0.00000000000E+00 -0.17822118506E+04  0.28693363041E+04  0.22487355882E+04 0.  0.
        4    1    3    3  502    0  0.93910197658E+02 -0.26676011019E+03 -0.22796494058E+04  0.22971249657E+04  0.12699999809E+01 0.  1.
       -4    1    3    3    0  502 -0.93910197658E+02  0.26676011019E+03  0.49743755520E+03  0.57221133844E+03  0.12699999809E+01 0. -1.
</event>
<event>
 5   0  0.4188865E-05  0.2181596E+04  0.7818609E-02  0.8526128E-01
        1   -1    0    0  501    0  0.00000000000E+00  0.00000000000E+00  0.15413868086E+04  0.15413868086E+04  0.50400001928E-02 0. -1.
       -1   -1    0    0    0  501  0.00000000000E+00  0.00000000000E+00 -0.77192816044E+03  0.77192816046E+03  0.50400001928E-02 0.  1.
    10030    2    1    2    0    0  0.00000000000E+00  0.00000000000E+00  0.76945864819E+03  0.23133149691E+04  0.21815956397E+04 0.  0.
        3    1    3    3  502    0 -0.19701846894E+02  0.72531738861E+03  0.12483782660E+04  0.14439258229E+04  0.10100000352E+00 0. -1.
       -3    1    3    3    0  502  0.19701846894E+02 -0.72531738861E+03 -0.47891961777E+03  0.86938914617E+03  0.10100000352E+00 0.  1.
</event>
<event>
 5   0  0.4133418E-05  0.2176109E+04  0.7818609E-02  0.8528438E-01
        1   -1    0    0  501    0  0.00000000000E+00  0.00000000000E+00  0.11093218153E+04  0.11093218154E+04  0.50400001928E-02 0. -1.
       -1   -1    0    0    0  501  0.00000000000E+00  0.00000000000E+00 -0.10671946587E+04  0.10671946587E+04  0.50400001928E-02 0.  1.
    10030    2    1    2    0    0  0.00000000000E+00  0.00000000000E+00  0.42127156646E+02  0.21765164741E+04  0.21761087437E+04 0.  0.
        4    1    3    3  502    0 -0.70307403831E+03 -0.67013686948E+01  0.85158214853E+03  0.11043331835E+04  0.12699999809E+01 0. -1.
       -4    1    3    3    0  502  0.70307403831E+03  0.67013686948E+01 -0.80945499189E+03  0.10721832905E+04  0.12699999809E+01 0.  1.
</event>
<event>
 5   0  0.9938176E-05  0.2206570E+04  0.7818609E-02  0.8515699E-01
        2   -1    0    0  501    0  0.00000000000E+00  0.00000000000E+00  0.22001176938E+04  0.22001176938E+04  0.25500000920E-02 0. -1.
       -2   -1    0    0    0  501  0.00000000000E+00  0.00000000000E+00 -0.55326026083E+03  0.55326026083E+03  0.25500000920E-02 0.  1.
    10030    2    1    2    0    0  0.00000000000E+00  0.00000000000E+00  0.16468574330E+04  0.27533779546E+04  0.22065699075E+04 0.  0.
        5    1    3    3  502    0 -0.92449165031E+03  0.51863238209E+03  0.44177199644E+03  0.11484114881E+04  0.46999998093E+01 0. -1.
       -5    1    3    3    0  502  0.92449165031E+03 -0.51863238209E+03  0.12050854365E+04  0.16049664665E+04  0.46999998093E+01 0.  1.
</event>
<event>
 5   0  0.4133418E-05  0.2207390E+04  0.7818609E-02  0.8515359E-01
       -1   -1    0    0    0  501  0.00000000000E+00  0.00000000000E+00  0.67464507275E+03  0.67464507277E+03  0.50400001928E-02 0.  1.
        1   -1    0    0  501    0  0.00000000000E+00  0.00000000000E+00 -0.18056047544E+04  0.18056047544E+04  0.50400001928E-02 0. -1.
    10030    2    1    2    0    0  0.00000000000E+00  0.00000000000E+00 -0.11309596816E+04  0.24802498272E+04  0.22073897263E+04 0.  0.
        4    1    3    3  502    0  0.31533701729E+03  0.25931932069E+03 -0.17176380719E+04  0.17654931615E+04  0.12699999809E+01 0. -1.
       -4    1    3    3    0  502 -0.31533701729E+03 -0.25931932069E+03  0.58667839026E+03  0.71475666562E+03  0.12699999809E+01 0.  1.
</event>
<event>
 5   0  0.3283125E-05  0.1695575E+04  0.7818609E-02  0.8763892E-01
       -3   -1    0    0    0  501  0.00000000000E+00  0.00000000000E+00  0.11144884475E+04  0.11144884521E+04  0.10100000352E+00 0. -1.
        3   -1    0    0  501    0  0.00000000000E+00  0.00000000000E+00 -0.64490881330E+03  0.64490882121E+03  0.10100000352E+00 0.  1.
    10030    2    1    2    0    0  0.00000000000E+00  0.00000000000E+00  0.46957963422E+03  0.17593972733E+04  0.16955747499E+04 0.  0.
        5    1    3    3  502    0 -0.29459066839E+03 -0.50300712626E+03  0.87352612694E+03  0.10501760878E+04  0.46999998093E+01 0. -1.
       -5    1    3    3    0  502  0.29459066839E+03  0.50300712626E+03 -0.40394649272E+03  0.70922118549E+03  0.46999998093E+01 0.  1.
</event>
<event>
 5   0  0.4174030E-05  0.2199056E+04  0.7818609E-02  0.8518821E-01
        1   -1    0    0  501    0  0.00000000000E+00  0.00000000000E+00  0.21044425844E+04  0.21044425844E+04  0.50400001928E-02 0. -1.
       -1   -1    0    0    0  501  0.00000000000E+00  0.00000000000E+00 -0.57448052180E+03  0.57448052183E+03  0.50400001928E-02 0.  1.
    10030    2    1    2    0    0  0.00000000000E+00  0.00000000000E+00  0.15299620626E+04  0.26789231063E+04  0.21990555009E+04 0.  0.
        2    1    3    3  502    0  0.36187451054E+02  0.79400930239E+03 -0.16054275309E+03  0.81088487436E+03  0.25500000920E-02 0.  1.
       -2    1    3    3    0  502 -0.36187451054E+02 -0.79400930239E+03  0.16905048157E+04  0.18680382319E+04  0.25500000920E-02 0. -1.
</event>
<event>
 5   0  0.4174075E-05  0.2219112E+04  0.7818609E-02  0.8510515E-01
       -1   -1    0    0    0  501  0.00000000000E+00  0.00000000000E+00  0.11224368507E+04  0.11224368507E+04  0.50400001928E-02 0. -1.
        1   -1    0    0  501    0  0.00000000000E+00  0.00000000000E+00 -0.10968225833E+04  0.10968225833E+04  0.50400001928E-02 0.  1.
    10030    2    1    2    0    0  0.00000000000E+00  0.00000000000E+00  0.25614267434E+02  0.22192594340E+04  0.22191116116E+04 0.  0.
        5    1    3    3  502    0 -0.20445533567E+02  0.68122625542E+03 -0.86281087707E+03  0.10995235016E+04  0.46999998093E+01 0.  1.
       -5    1    3    3    0  502  0.20445533567E+02 -0.68122625542E+03  0.88842514450E+03  0.11197359324E+04  0.46999998093E+01 0. -1.
</event>
<event>
 5   0  0.9254673E-05  0.2152628E+04  0.7818609E-02  0.8538408E-01
       -2   -1    0    0    0  501  0.00000000000E+00  0.00000000000E+00  0.61916965016E+03  0.61916965017E+03  0.25500000920E-02 0.  1.
        2   -1    0    0  501    0  0.00000000000E+00  0.00000000000E+00 -0.18709768605E+04  0.18709768605E+04  0.25500000920E-02 0. -1.
    10030    2    1    2    0    0  0.00000000000E+00  0.00000000000E+00 -0.12518072103E+04  0.24901465106E+04  0.21526282430E+04 0.  0.
        2    1    3    3  502    0  0.73674764158E+03  0.50599738414E+03 -0.13196149221E+04  0.15938048760E+04  0.25500000920E-02 0. -1.
       -2    1    3    3    0  502 -0.73674764158E+03 -0.50599738414E+03  0.67807711832E+02  0.89634163460E+03  0.25500000920E-02 0.  1.
</event>
<event>
 5   0  0.9442578E-05  0.2180625E+04  0.7818609E-02  0.8526536E-01
        2   -1    0    0  501    0  0.00000000000E+00  0.00000000000E+00  0.84986323084E+03  0.84986323084E+03  0.25500000920E-02 0.  1.
       -2   -1    0    0    0  501  0.00000000000E+00  0.00000000000E+00 -0.13987918060E+04  0.13987918060E+04  0.25500000920E-02 0. -1.
    10030    2    1    2    0    0  0.00000000000E+00  0.00000000000E+00 -0.54892857520E+03  0.22486550369E+04  0.21806253448E+04 0.  0.
        4    1    3    3  502    0  0.44155943702E+03 -0.95646571783E+03 -0.56426322211E+03  0.11950715470E+04  0.12699999809E+01 0. -1.
       -4    1    3    3    0  502 -0.44155943702E+03  0.95646571783E+03  0.15334646914E+02  0.10535834899E+04  0.12699999809E+01 0.  1.
</event>
<event>
 5   0  0.9179618E-05  0.2189565E+04  0.7818609E-02  0.8522784E-01
        2   -1    0    0  501    0  0.00000000000E+00  0.00000000000E+00  0.94930807025E+03  0.94930807025E+03  0.25500000920E-02 0.  1.
       -2   -1    0    0    0  501  0.00000000000E+00  0.00000000000E+00 -0.12625494847E+04  0.12625494847E+04  0.25500000920E-02 0. -1.
    10030    2    1    2    0    0  0.00000000000E+00  0.00000000000E+00 -0.31324141441E+03  0.22118575549E+04  0.21895647192E+04 0.  0.
        3    1    3    3  502    0  0.68206633696E+03  0.51189155040E+03  0.53688258807E+03  0.10077154216E+04  0.10100000352E+00 0.  1.
       -3    1    3    3    0  502 -0.68206633696E+03 -0.51189155040E+03 -0.85012400248E+03  0.12041421333E+04  0.10100000352E+00 0. -1.
</event>
<event>
 5   0  0.4063293E-05  0.2202814E+04  0.7818609E-02  0.8517258E-01
        1   -1    0    0  501    0  0.00000000000E+00  0.00000000000E+00  0.10416701725E+04  0.10416701725E+04  0.50400001928E-02 0. -1.
       -1   -1    0    0    0  501  0.00000000000E+00  0.00000000000E+00 -0.11645690422E+04  0.11645690422E+04  0.50400001928E-02 0.  1.
    10030    2    1    2    0    0  0.00000000000E+00  0.00000000000E+00 -0.12289886974E+03  0.22062392147E+04  0.22028135056E+04 0.  0.
        1    1    3    3  502    0  0.27408636838E+03 -0.34211082687E+03  0.95053453855E+03  0.10467468960E+04  0.50400001928E-02 0. -1.
       -1    1    3    3    0  502 -0.27408636838E+03  0.34211082687E+03 -0.10734334083E+04  0.11594923187E+04  0.50400001928E-02 0.  1.
</event>
<event>
 5   0  0.4188865E-05  0.2195806E+04  0.7818609E-02  0.8520176E-01
       -1   -1    0    0    0  501  0.00000000000E+00  0.00000000000E+00  0.12088092377E+04  0.12088092377E+04  0.50400001928E-02 0. -1.
        1   -1    0    0  501    0  0.00000000000E+00  0.00000000000E+00 -0.99717258436E+03  0.99717258437E+03  0.50400001928E-02 0.  1.
    10030    2    1    2    0    0  0.00000000000E+00  0.00000000000E+00  0.21163665330E+03  0.22059818220E+04  0.21958063954E+04 0.  0.
        3    1    3    3  502    0 -0.20062404900E+03 -0.33426192556E+03  0.11369323181E+04  0.12019135368E+04  0.10100000352E+00 0. -1.
       -3    1    3    3    0  502  0.20062404900E+03  0.33426192556E+03 -0.92529566478E+03  0.10040682852E+04  0.10100000352E+00 0.  1.
</event>
<event>
 5   0  0.4174075E-05  0.2198293E+04  0.7818609E-02  0.8519139E-01
        1   -1    0    0  501    0  0.00000000000E+00  0.00000000000E+00  0.11951550918E+04  0.11951550918E+04  0.50400001928E-02 0. -1.
       -1   -1    0    0    0  501  0.00000000000E+00  0.00000000000E+00 -0.10108503190E+04  0.10108503190E+04  0.50400001928E-02 0.  1.
    10030    2    1    2    0    0  0.00000000000E+00  0.00000000000E+00  0.18430477281E+03  0.22060054108E+04  0.21982928884E+04 0.  0.
        5    1    3    3  502    0  0.40144901856E+02  0.62783374753E+03 -0.81229432567E+03  0.10274390440E+04  0.46999998093E+01 0.  1.
       -5    1    3    3    0  502 -0.40144901856E+02 -0.62783374753E+03  0.99659909848E+03  0.11785663667E+04  0.46999998093E+01 0. -1.
</event>
<event>
 5   0  0.4174075E-05  0.2204447E+04  0.7818609E-02  0.8516580E-01
        1   -1    0    0  501    0  0.00000000000E+00  0.00000000000E+00  0.11527728984E+04  0.11527728984E+04  0.50400001928E-02 0.  1.
       -1   -1    0    0    0  501  0.00000000000E+00  0.00000000000E+00 -0.10538904316E+04  0.10538904316E+04  0.50400001928E-02 0. -1.
    10030    2    1    2    0    0  0.00000000000E+00  0.00000000000E+00  0.98882466868E+02  0.22066633300E+04  0.22044467128E+04 0.  0.
        5    1    3    3  502    0 -0.87231762662E+03 -0.53991560140E+03 -0.35398676692E+03  0.10852537120E+04  0.46999998093E+01 0. -1.
       -5    1    3    3    0  502  0.87231762662E+03  0.53991560140E+03  0.45286923378E+03  0.11214096180E+04  0.46999998093E+01 0.  1.
</event>
<event>
 5   0  0.9254673E-05  0.2198483E+04  0.7818609E-02  0.8519060E-01
        2   -1    0    0  501    0  0.00000000000E+00  0.00000000000E+00  0.16480458291E+04  0.16480458291E+04  0.25500000920E-02 0.  1.
       -2   -1    0    0    0  501  0.00000000000E+00  0.00000000000E+00 -0.73319050026E+03  0.73319050026E+03  0.25500000920E-02 0. -1.
    10030    2    1    2    0    0  0.00000000000E+00  0.00000000000E+00  0.91485532885E+03  0.23812363294E+04  0.21984827003E+04 0.  0.
        2    1    3    3  502    0  0.13098795650E+03  0.38408478004E+03  0.15639429643E+04  0.16157340619E+04  0.25500000920E-02 0.  1.
       -2    1    3    3    0  502 -0.13098795650E+03 -0.38408478004E+03 -0.64908763548E+03  0.76550226750E+03  0.25500000920E-02 0. -1.
</event>
<event>
 5   0  0.9254673E-05  0.2208928E+04  0.7818609E-02  0.8514721E-01
       -2   -1    0    0    0  501  0.00000000000E+00  0.00000000000E+00  0.85603907696E+03  0.85603907697E+03  0.25500000920E-02 0.  1.
        2   -1    0    0  501    0  0.00000000000E+00  0.00000000000E+00 -0.14249830605E+04  0.14249830605E+04  0.25500000920E-02 0. -1.
    10030    2    1    2    0    0  0.00000000000E+00  0.00000000000E+00 -0.56894398355E+03  0.22810221375E+04  0.22089284133E+04 0.  0.
        2    1    3    3  502    0  0.26300040725E+03  0.58146015301E+03  0.64637836632E+03  0.90833370311E+03  0.25500000920E-02 0.  1.
       -2    1    3    3    0  502 -0.26300040725E+03 -0.58146015301E+03 -0.12153223499E+04  0.13726884344E+04  0.25500000920E-02 0. -1.
</event>
<event>
 5   0  0.4188865E-05  0.2203571E+04  0.7818609E-02  0.8516943E-01
        1   -1    0    0  501    0  0.00000000000E+00  0.00000000000E+00  0.14354407489E+04  0.14354407489E+04  0.50400001928E-02 0.  1.
       -1   -1    0    0    0  501  0.00000000000E+00  0.00000000000E+00 -0.84568552436E+03  0.84568552438E+03  0.50400001928E-02 0. -1.
    10030    2    1    2    0    0  0.00000000000E+00  0.00000000000E+00  0.58975522450E+03  0.22811262732E+04  0.22035711583E+04 0.  0.
        3    1    3    3  502    0  0.10519511622E+04 -0.51535039586E+02 -0.40043381856E+02  0.10539737144E+04  0.10100000352E+00 0.  1.
       -3    1    3    3    0  502 -0.10519511622E+04  0.51535039586E+02  0.62979860635E+03  0.12271525589E+04  0.10100000352E+00 0. -1.
</event>
<event>
 5   0  0.4063293E-05  0.2205956E+04  0.7818609E-02  0.8515953E-01
       -1   -1    0    0    0  501  0.00000000000E+00  0.00000000000E+00  0.21446505156E+04  0.21446505156E+04  0.50400001928E-02 0.  1.
        1   -1    0    0  501    0  0.00000000000E+00  0.00000000000E+00 -0.56725323470E+03  0.56725323472E+03  0.50400001928E-02 0. -1.
    10030    2    1    2    0    0  0.00000000000E+00  0.00000000000E+00  0.15773972809E+04  0.27119037503E+04  0.22059555229E+04 0.  0.
        1    1    3    3  502    0 -0.54119872902E+03 -0.78813391366E+03  0.14648540625E+04  0.17492422801E+04  0.50400001928E-02 0.  1.
       -1    1    3    3    0  502  0.54119872902E+03  0.78813391366E+03  0.11254321840E+03  0.96266147019E+03  0.50400001928E-02 0. -1.
</event>
<event>
 5   0  0.9457742E-05  0.2198402E+04  0.7818609E-02  0.8519094E-01
        2   -1    0    0  501    0  0.00000000000E+00  0.00000000000E+00  0.19722786938E+04  0.19722786938E+04  0.25500000920E-02 0. -1.
       -2   -1    0    0    0  501  0.00000000000E+00  0.00000000000E+00 -0.61261248317E+03  0.61261248318E+03  0.25500000920E-02 0.  1.
    10030    2    1    2    0    0  0.00000000000E+00  0.00000000000E+00  0.13596662106E+04  0.25848911770E+04  0.21984017359E+04 0.  0.
        1    1    3    3  502    0 -0.49767752162E+03 -0.97747780479E+03  0.76377579521E+03  0.13365998802E+04  0.50400001928E-02 0. -1.
       -1    1    3    3    0  502  0.49767752162E+03  0.97747780479E+03  0.59589041542E+03  0.12482912968E+04  0.50400001928E-02 0.  1.
</event>
<event>
 5   0  0.9938176E-05  0.2230856E+04  0.7818609E-02  0.8505694E-01
       -2   -1    0    0    0  501  0.00000000000E+00  0.00000000000E+00  0.10805761472E+04  0.10805761472E+04  0.25500000920E-02 0.  1.
        2   -1    0    0  501    0  0.00000000000E+00  0.00000000000E+00 -0.11514040640E+04  0.11514040640E+04  0.25500000920E-02 0. -1.
    10030    2    1    2    0    0  0.00000000000E+00  0.00000000000E+00 -0.70827916854E+02  0.22319802112E+04  0.22308561293E+04 0.  0.
        5    1    3    3  502    0 -0.41134818956E+02 -0.40227552449E+03  0.10046482055E+04  0.10829855852E+04  0.46999998093E+01 0.  1.
       -5    1    3    3    0  502  0.41134818956E+02  0.40227552449E+03 -0.10754761223E+04  0.11489946260E+04  0.46999998093E+01 0. -1.
</event>
<event>
 5   0  0.4174030E-05  0.2189823E+04  0.7818609E-02  0.8522676E-01
        1   -1    0    0  501    0  0.00000000000E+00  0.00000000000E+00  0.13884129267E+04  0.13884129267E+04  0.50400001928E-02 0. -1.
       -1   -1    0    0    0  501  0.00000000000E+00  0.00000000000E+00 -0.86345426585E+03  0.86345426586E+03  0.50400001928E-02 0.  1.
    10030    2    1    2    0    0  0.00000000000E+00  0.00000000000E+00  0.52495866081E+03  0.22518671925E+04  0.21898228826E+04 0.  0.
        2    1    3    3  502    0  0.27313366708E+03 -0.84892442399E+03  0.91573907452E+03  0.12782224886E+04  0.25500000920E-02 0. -1.
       -2    1    3    3    0  502 -0.27313366708E+03  0.84892442399E+03 -0.39078041371E+03  0.97364470393E+03  0.25500000920E-02 0.  1.
</event>
<event>
 5   0  0.4174030E-05  0.1979484E+04  0.7818609E-02  0.8616273E-01
       -1   -1    0    0    0  501  0.00000000000E+00  0.00000000000E+00  0.10106811242E+04  0.10106811242E+04  0.50400001928E-02 0. -1.
        1   -1    0    0  501    0  0.00000000000E+00  0.00000000000E+00 -0.96923635535E+03  0.96923635536E+03  0.50400001928E-02 0.  1.
    10030    2    1    2    0    0  0.00000000000E+00  0.00000000000E+00  0.41444768827E+02  0.19799174795E+04  0.19794836592E+04 0.  0.
        2    1    3    3  502    0  0.64735628369E+03  0.73360189371E+03 -0.12879948312E+03  0.98682886224E+03  0.25500000920E-02 0.  1.
       -2    1    3    3    0  502 -0.64735628369E+03 -0.73360189371E+03  0.17024425194E+03  0.99308861731E+03  0.25500000920E-02 0. -1.
</event>
<event>
 5   0  0.4188865E-05  0.2191445E+04  0.7818609E-02  0.8521997E-01
        1   -1    0    0  501    0  0.00000000000E+00  0.00000000000E+00  0.20822967660E+04  0.20822967660E+04  0.50400001928E-02 0.  1.
       -1   -1    0    0    0  501  0.00000000000E+00  0.00000000000E+00 -0.57657844319E+03  0.57657844322E+03  0.50400001928E-02 0. -1.
    10030    2    1    2    0    0  0.00000000000E+00  0.00000000000E+00  0.15057183228E+04  0.26588752092E+04  0.21914446629E+04 0.  0.
        3    1    3    3  502    0  0.10126629436E+04 -0.39425057123E+03  0.92310032368E+03  0.14258450014E+04  0.10100000352E+00 0. -1.
       -3    1    3    3    0  502 -0.10126629436E+04  0.39425057123E+03  0.58261799909E+03  0.12330302078E+04  0.10100000352E+00 0.  1.
</event>
<event>
 5   0  0.9179618E-05  0.2124581E+04  0.7818609E-02  0.8550492E-01
        2   -1    0    0  501    0  0.00000000000E+00  0.00000000000E+00  0.19716809285E+04  0.19716809286E+04  0.25500000920E-02 0.  1.
       -2   -1    0    0    0  501  0.00000000000E+00  0.00000000000E+00 -0.57233438083E+03  0.57233438083E+03  0.25500000920E-02 0. -1.
    10030    2    1    2    0    0  0.00000000000E+00  0.00000000000E+00  0.13993465477E+04  0.25440153094E+04  0.21245806960E+04 0.  0.
        3    1    3    3  502    0  0.69235576334E+03 -0.33219074653E+03 -0.17923099349E+03  0.78856258745E+03  0.10100000352E+00 0. -1.
       -3    1    3    3    0  502 -0.69235576334E+03  0.33219074653E+03  0.15785775412E+04  0.17554527219E+04  0.10100000352E+00 0.  1.
</event>
<event>
 5   0  0.4174075E-05  0.1981944E+04  0.7818609E-02  0.8615109E-01
        1   -1    0    0  501    0  0.00000000000E+00  0.00000000000E+00  0.12247874877E+04  0.12247874877E+04  0.50400001928E-02 0.  1.
       -1   -1    0    0    0  501  0.00000000000E+00  0.00000000000E+00 -0.80179289726E+03  0.80179289727E+03  0.50400001928E-02 0. -1.
    10030    2    1    2    0    0  0.00000000000E+00  0.00000000000E+00  0.42299459044E+03  0.20265803850E+04  0.19819444072E+04 0.  0.
        5    1    3    3  502    0 -0.41733784009E+03 -0.38494954154E+03 -0.61898063376E+03  0.83995008023E+03  0.46999998093E+01 0. -1.
       -5    1    3    3    0  502  0.41733784009E+03  0.38494954154E+03  0.10419752242E+04  0.11866303048E+04  0.46999998093E+01 0.  1.
</event>
<event>
 5   0  0.4133418E-05  0.2112290E+04  0.7818609E-02  0.8555849E-01
       -1   -1    0    0    0  501  0.00000000000E+00  0.00000000000E+00  0.74133656926E+03  0.74133656928E+03  0.50400001928E-02 0.  1.
        1   -1    0    0  501    0  0.00000000000E+00  0.00000000000E+00 -0.15046369368E+04  0.15046369368E+04  0.50400001928E-02 0. -1.
    10030    2    1    2    0    0  0.00000000000E+00  0.00000000000E+00 -0.76330036755E+03  0.22459735061E+04  0.21122901171E+04 0.  0.
        4    1    3    3  502    0 -0.41846338772E+03 -0.86411651869E+03 -0.84953549498E+03  0.12819988826E+04  0.12699999809E+01 0. -1.
       -4    1    3    3    0  502  0.41846338772E+03  0.86411651869E+03  0.86235127426E+02  0.96397462355E+03  0.12699999809E+01 0.  1.
</event>
<event>
 5   0  0.9179618E-05  0.2181526E+04  0.7818609E-02  0.8526157E-01
       -2   -1    0    0    0  501  0.00000000000E+00  0.00000000000E+00  0.46777875791E+03  0.46777875792E+03  0.25500000920E-02 0.  1.
        2   -1    0    0  501    0  0.00000000000E+00  0.00000000000E+00 -0.25434341101E+04  0.25434341101E+04  0.25500000920E-02 0. -1.
    10030    2    1    2    0    0  0.00000000000E+00  0.00000000000E+00 -0.20756553522E+04  0.30112128680E+04  0.21815264829E+04 0.  0.
        3    1    3    3  502    0  0.50688435781E+03 -0.90572269468E+03 -0.15008004655E+04  0.18247376247E+04  0.10100000352E+00 0. -1.
       -3    1    3    3    0  502 -0.50688435781E+03  0.90572269468E+03 -0.57485488671E+03  0.11864752432E+04  0.10100000352E+00 0.  1.
</event>
<event>
 5   0  0.9938176E-05  0.2187274E+04  0.7818609E-02  0.8523744E-01
        2   -1    0    0  501    0  0.00000000000E+00  0.00000000000E+00  0.19197967670E+04  0.19197967670E+04  0.25500000920E-02 0. -1.
       -2   -1    0    0    0  501  0.00000000000E+00  0.00000000000E+00 -0.62300414519E+03  0.62300414519E+03  0.25500000920E-02 0.  1.
    10030    2    1    2    0    0  0.00000000000E+00  0.00000000000E+00  0.12967926219E+04  0.25428009122E+04  0.21872735026E+04 0.  0.
        5    1    3    3  502    0 -0.94601410333E+03  0.50225347980E+03  0.90525798708E+03  0.14023962902E+04  0.46999998093E+01 0.  1.
       -5    1    3    3    0  502  0.94601410333E+03 -0.50225347980E+03  0.39153463478E+03  0.11404046220E+04  0.46999998093E+01 0. -1.
</event>
<event>
 5   0  0.9938176E-05  0.2213915E+04  0.7818609E-02  0.8512659E-01
        2   -1    0    0  501    0  0.00000000000E+00  0.00000000000E+00  0.15539290289E+04  0.15539290289E+04  0.25500000920E-02 0. -1.
       -2   -1    0    0    0  501  0.00000000000E+00  0.00000000000E+00 -0.78855253255E+03  0.78855253255E+03  0.25500000920E-02 0.  1.
    10030    2    1    2    0    0  0.00000000000E+00  0.00000000000E+00  0.76537649639E+03  0.23424815615E+04  0.22139147871E+04 0.  0.
        5    1    3    3  502    0  0.48029916831E+03  0.23673056406E+03  0.14077651893E+04  0.15061718259E+04  0.46999998093E+01 0. -1.
       -5    1    3    3    0  502 -0.48029916831E+03 -0.23673056406E+03 -0.64238869290E+03  0.83630973557E+03  0.46999998093E+01 0.  1.
</event>
<event>
 5   0  0.9938176E-05  0.2229205E+04  0.7818609E-02  0.8506370E-01
       -2   -1    0    0    0  501  0.00000000000E+00  0.00000000000E+00  0.10500573421E+04  0.10500573421E+04  0.25500000920E-02 0.  1.
        2   -1    0    0  501    0  0.00000000000E+00  0.00000000000E+00 -0.11831150714E+04  0.11831150714E+04  0.25500000920E-02 0. -1.
    10030    2    1    2    0    0  0.00000000000E+00  0.00000000000E+00 -0.13305772934E+03  0.22331724135E+04  0.22292049410E+04 0.  0.
        5    1    3    3  502    0 -0.23969799786E+03  0.75006478834E+03  0.72371236826E+03  0.10695017526E+04  0.46999998093E+01 0.  1.
       -5    1    3    3    0  502  0.23969799786E+03 -0.75006478834E+03 -0.85677009760E+03  0.11636706609E+04  0.46999998093E+01 0. -1.
</event>
<event>
 5   0  0.9254673E-05  0.2220764E+04  0.7818609E-02  0.8509835E-01
        2   -1    0    0  501    0  0.00000000000E+00  0.00000000000E+00  0.14410636916E+04  0.14410636916E+04  0.25500000920E-02 0.  1.
       -2   -1    0    0    0  501  0.00000000000E+00  0.00000000000E+00 -0.85558209825E+03  0.85558209825E+03  0.25500000920E-02 0. -1.
    10030    2    1    2    0    0  0.00000000000E+00  0.00000000000E+00  0.58548159334E+03  0.22966457898E+04  0.22207641000E+04 0.  0.
        2    1    3    3  502    0 -0.45968006217E+03 -0.52109410523E+03 -0.60293776368E+03  0.91998846349E+03  0.25500000920E-02 0. -1.
       -2    1    3    3    0  502  0.45968006217E+03  0.52109410523E+03  0.11884193570E+04  0.13766573264E+04  0.25500000920E-02 0.  1.
</event>
<event>
 5   0  0.9442578E-05  0.2175319E+04  0.7818609E-02  0.8528771E-01
       -2   -1    0    0    0  501  0.00000000000E+00  0.00000000000E+00  0.83009527531E+03  0.83009527532E+03  0.25500000920E-02 0. -1.
        2   -1    0    0  501    0  0.00000000000E+00  0.00000000000E+00 -0.14251418983E+04  0.14251418983E+04  0.25500000920E-02 0.  1.
    10030    2    1    2    0    0  0.00000000000E+00  0.00000000000E+00 -0.59504662300E+03  0.22552371736E+04  0.21753193388E+04 0.  0.
        4    1    3    3  502    0 -0.68118571794E+03  0.56906148505E+03  0.35418616129E+03  0.95566437930E+03  0.12699999809E+01 0. -1.
       -4    1    3    3    0  502  0.68118571794E+03 -0.56906148505E+03 -0.94923278429E+03  0.12995727943E+04  0.12699999809E+01 0.  1.
</event>
<event>
 5   0  0.9179618E-05  0.2108073E+04  0.7818609E-02  0.8557696E-01
        2   -1    0    0  501    0  0.00000000000E+00  0.00000000000E+00  0.75652440713E+03  0.75652440713E+03  0.25500000920E-02 0.  1.
       -2   -1    0    0    0  501  0.00000000000E+00  0.00000000000E+00 -0.14685482582E+04  0.14685482582E+04  0.25500000920E-02 0. -1.
    10030    2    1    2    0    0  0.00000000000E+00  0.00000000000E+00 -0.71202385102E+03  0.22250726653E+04  0.21080726746E+04 0.  0.
        3    1    3    3  502    0  0.64985725514E+03 -0.23961563533E+02  0.51954755532E+03  0.83235706342E+03  0.10100000352E+00 0.  1.
       -3    1    3    3    0  502 -0.64985725514E+03  0.23961563533E+02 -0.12315714063E+04  0.13927156019E+04  0.10100000352E+00 0. -1.
</event>
<event>
 5   0  0.9938176E-05  0.2179962E+04  0.7818609E-02  0.8526815E-01
        2   -1    0    0  501    0  0.00000000000E+00  0.00000000000E+00  0.16871254230E+04  0.16871254230E+04  0.25500000920E-02 0.  1.
       -2   -1    0    0    0  501  0.00000000000E+00  0.00000000000E+00 -0.70419113390E+03  0.70419113390E+03  0.25500000920E-02 0. -1.
    10030    2    1    2    0    0  0.00000000000E+00  0.00000000000E+00  0.98293428906E+03  0.23913165569E+04  0.21799621691E+04 0.  0.
        5    1    3    3  502    0 -0.34598591634E+03 -0.97383151973E+03  0.11149896082E+03  0.10394749595E+04  0.46999998093E+01 0. -1.
       -5    1    3    3    0  502  0.34598591634E+03  0.97383151973E+03  0.87143532824E+03  0.13518415974E+04  0.46999998093E+01 0.  1.
</event>
<event>
 5   0  0.9457742E-05  0.2181595E+04  0.7818609E-02  0.8526128E-01
       -2   -1    0    0    0  501  0.00000000000E+00  0.00000000000E+00  0.10716027732E+04  0.10716027732E+04  0.25500000920E-02 0.  1.
        2   -1    0    0  501    0  0.00000000000E+00  0.00000000000E+00 -0.11103360949E+04  0.11103360949E+04  0.25500000920E-02 0. -1.
    10030    2    1    2    0    0  0.00000000000E+00  0.00000000000E+00 -0.38733321703E+02  0.21819388682E+04  0.21815950482E+04 0.  0.
        1    1    3    3  502    0 -0.13820768875E+02  0.44211513050E+03 -0.10166107773E+04  0.11086723027E+04  0.50400001928E-02 0. -1.
       -1    1    3    3    0  502  0.13820768875E+02 -0.44211513050E+03  0.97787745560E+03  0.10732665654E+04  0.50400001928E-02 0.  1.
</event>
<event>
 5   0  0.3283125E-05  0.2181995E+04  0.7818609E-02  0.8525960E-01
        3   -1    0    0  501    0  0.00000000000E+00  0.00000000000E+00  0.88473232756E+03  0.88473233332E+03  0.10100000352E+00 0.  1.
       -3   -1    0    0    0  501  0.00000000000E+00  0.00000000000E+00 -0.13453504652E+04  0.13453504690E+04  0.10100000352E+00 0. -1.
    10030    2    1    2    0    0  0.00000000000E+00  0.00000000000E+00 -0.46061813764E+03  0.22300828023E+04  0.21819945546E+04 0.  0.
        1    1    3    3  502    0 -0.75158358639E+03 -0.57128235485E+03 -0.78920037220E+03  0.12304790302E+04  0.50400001928E-02 0. -1.
       -1    1    3    3    0  502  0.75158358639E+03  0.57128235485E+03  0.32858223456E+03  0.99960377209E+03  0.50400001928E-02 0.  1.
</event>
<event>
 5   0  0.9457742E-05  0.2063108E+04  0.7818609E-02  0.8577671E-01
        2   -1    0    0  501    0  0.00000000000E+00  0.00000000000E+00  0.21727214583E+04  0.21727214583E+04  0.25500000920E-02 0. -1.
       -2   -1    0    0    0  501  0.00000000000E+00  0.00000000000E+00 -0.48975633363E+03  0.48975633363E+03  0.25500000920E-02 0.  1.
    10030    2    1    2    0    0  0.00000000000E+00  0.00000000000E+00  0.16829651247E+04  0.26624777920E+04  0.20631084270E+04 0.  0.
        1    1    3    3  502    0 -0.75339715870E+03  0.34120411164E+03  0.45873922758E+02  0.82833081638E+03  0.50400001928E-02 0.  1.
       -1    1    3    3    0  502  0.75339715870E+03 -0.34120411164E+03  0.16370912020E+04  0.18341469756E+04  0.50400001928E-02 0. -1.
</event>
<event>
 5   0  0.4174030E-05  0.2218613E+04  0.7818609E-02  0.8510721E-01
        1   -1    0    0  501    0  0.00000000000E+00  0.00000000000E+00  0.17007091857E+04  0.17007091857E+04  0.50400001928E-02 0.  1.
       -1   -1    0    0    0  501  0.00000000000E+00  0.00000000000E+00 -0.72355770900E+03  0.72355770901E+03  0.50400001928E-02 0. -1.
    10030    2    1    2    0    0  0.00000000000E+00  0.00000000000E+00  0.97715147674E+03  0.24242668948E+04  0.22186132986E+04 0.  0.
        2    1    3    3  502    0 -0.10795936285E+04 -0.25365280398E+02  0.21129073419E+03  0.11003679269E+04  0.25500000920E-02 0.  1.
       -2    1    3    3    0  502  0.10795936285E+04  0.25365280398E+02  0.76586074255E+03  0.13238989679E+04  0.25500000920E-02 0. -1.
</event>
<event>
 5   0  0.9179618E-05  0.2177238E+04  0.7818609E-02  0.8527962E-01
       -2   -1    0    0    0  501  0.00000000000E+00  0.00000000000E+00  0.97047671688E+03  0.97047671689E+03  0.25500000920E-02 0.  1.
        2   -1    0    0  501    0  0.00000000000E+00  0.00000000000E+00 -0.12211431581E+04  0.12211431581E+04  0.25500000920E-02 0. -1.
    10030    2    1    2    0    0  0.00000000000E+00  0.00000000000E+00 -0.25066644119E+03  0.21916198750E+04  0.21772377021E+04 0.  0.
        3    1    3    3  502    0 -0.14683479390E+03  0.43657379945E+03  0.86755656208E+03  0.98224820574E+03  0.10100000352E+00 0.  1.
       -3    1    3    3    0  502  0.14683479390E+03 -0.43657379945E+03 -0.11182230033E+04  0.12093716692E+04  0.10100000352E+00 0. -1.
</event>
<event>
 5   0  0.4133418E-05  0.2207575E+04  0.7818609E-02  0.8515282E-01
        1   -1    0    0  501    0  0.00000000000E+00  0.00000000000E+00  0.16974829653E+04  0.16974829653E+04  0.50400001928E-02 0. -1.
       -1   -1    0    0    0  501  0.00000000000E+00  0.00000000000E+00 -0.71773717525E+03  0.71773717527E+03  0.50400001928E-02 0.  1.
    10030    2    1    2    0    0  0.00000000000E+00  0.00000000000E+00  0.97974579004E+03  0.24152201406E+04  0.22075748038E+04 0.  0.
        4    1    3    3  502    0 -0.10077517038E+04 -0.32470487744E+03  0.83122720738E+03  0.13460821064E+04  0.12699999809E+01 0. -1.
       -4    1    3    3    0  502  0.10077517038E+04  0.32470487744E+03  0.14851858266E+03  0.10691380342E+04  0.12699999809E+01 0.  1.
</event>
<event>
 5   0  0.4063293E-05  0.2183760E+04  0.7818609E-02  0.8525218E-01
        1   -1    0    0  501    0  0.00000000000E+00  0.00000000000E+00  0.19889004467E+04  0.19889004467E+04  0.50400001928E-02 0.  1.
       -1   -1    0    0    0  501  0.00000000000E+00  0.00000000000E+00 -0.59942764763E+03  0.59942764765E+03  0.50400001928E-02 0. -1.
    10030    2    1    2    0    0  0.00000000000E+00  0.00000000000E+00  0.13894727990E+04  0.25883280943E+04  0.21837599833E+04 0.  0.
        1    1    3    3  502    0 -0.23509150888E+03  0.10065225972E+04  0.27762150759E+03  0.10702473815E+04  0.50400001928E-02 0. -1.
       -1    1    3    3    0  502  0.23509150888E+03 -0.10065225972E+04  0.11118512915E+04  0.15180807128E+04  0.50400001928E-02 0.  1.
</event>
<event>
 5   0  0.4174075E-05  0.2198765E+04  0.7818609E-02  0.8518942E-01
        1   -1    0    0  501    0  0.00000000000E+00  0.00000000000E+00  0.15463514339E+04  0.15463514339E+04  0.50400001928E-02 0.  1.
       -1   -1    0    0    0  501  0.00000000000E+00  0.00000000000E+00 -0.78160912314E+03  0.78160912316E+03  0.50400001928E-02 0. -1.
    10030    2    1    2    0    0  0.00000000000E+00  0.00000000000E+00  0.76474231077E+03  0.23279605571E+04  0.21987654612E+04 0.  0.
        5    1    3    3  502    0 -0.63247455471E+03 -0.29029543572E+02 -0.56918876532E+03  0.85138987387E+03  0.46999998093E+01 0. -1.
       -5    1    3    3    0  502  0.63247455471E+03  0.29029543572E+02  0.13339310761E+04  0.14765706832E+04  0.46999998093E+01 0.  1.
</event>
<event>
 5   0  0.9442578E-05  0.2212544E+04  0.7818609E-02  0.8513225E-01
        2   -1    0    0  501    0  0.00000000000E+00  0.00000000000E+00  0.28879275217E+04  0.28879275217E+04  0.25500000920E-02 0.  1.
       -2   -1    0    0    0  501  0.00000000000E+00  0.00000000000E+00 -0.42377704820E+03  0.42377704821E+03  0.25500000920E-02 0. -1.
    10030    2    1    2    0    0  0.00000000000E+00  0.00000000000E+00  0.24641504735E+04  0.33117045699E+04  0.22125436950E+04 0.  0.
        4    1    3    3  502    0  0.40937737042E+03  0.65480704985E+03  0.24177279220E+04  0.25380646213E+04  0.12699999809E+01 0.  1.
       -4    1    3    3    0  502 -0.40937737042E+03 -0.65480704985E+03  0.46422551478E+02  0.77363994864E+03  0.12699999809E+01 0. -1.
</event>
<event>
 5   0  0.4174030E-05  0.2046895E+04  0.7818609E-02  0.8585004E-01
       -1   -1    0    0    0  501  0.00000000000E+00  0.00000000000E+00  0.83597747697E+03  0.83597747698E+03  0.50400001928E-02 0. -1.
        1   -1    0    0  501    0  0.00000000000E+00  0.00000000000E+00 -0.12529585968E+04  0.12529585969E+04  0.50400001928E-02 0.  1.
    10030    2    1    2    0    0  0.00000000000E+00  0.00000000000E+00 -0.41698111987E+03  0.20889360738E+04  0.20468953726E+04 0.  0.
        2    1    3    3  502    0 -0.96138323811E+01 -0.10338520791E+03  0.83058843200E+03  0.83705320641E+03  0.25500000920E-02 0. -1.
       -2    1    3    3    0  502  0.96138323811E+01  0.10338520791E+03 -0.12475695519E+04  0.12518828674E+04  0.25500000920E-02 0.  1.
</event>
<event>
 5   0  0.9254673E-05  0.2217670E+04  0.7818609E-02  0.8511109E-01
        2   -1    0    0  501    0  0.00000000000E+00  0.00000000000E+00  0.97884200725E+03  0.97884200725E+03  0.25500000920E-02 0. -1.
       -2   -1    0    0    0  501  0.00000000000E+00  0.00000000000E+00 -0.12560911291E+04  0.12560911291E+04  0.25500000920E-02 0.  1.
    10030    2    1    2    0    0  0.00000000000E+00  0.00000000000E+00 -0.27724912181E+03  0.22349331363E+04  0.22176697338E+04 0.  0.
        2    1    3    3  502    0  0.10173689520E+04  0.42911852879E+03 -0.36184541154E+02  0.11047586240E+04  0.25500000920E-02 0. -1.
       -2    1    3    3    0  502 -0.10173689520E+04 -0.42911852879E+03 -0.24106458065E+03  0.11301745123E+04  0.25500000920E-02 0.  1.
</event>
<event>
 5   0  0.9457742E-05  0.2189570E+04  0.7818609E-02  0.8522782E-01
        2   -1    0    0  501    0  0.00000000000E+00  0.00000000000E+00  0.18849149261E+04  0.18849149261E+04  0.25500000920E-02 0. -1.
       -2   -1    0    0    0  501  0.00000000000E+00  0.00000000000E+00 -0.63586638387E+03  0.63586638387E+03  0.25500000920E-02 0.  1.
    10030    2    1    2    0    0  0.00000000000E+00  0.00000000000E+00  0.12490485422E+04  0.25207813099E+04  0.21895698554E+04 0.  0.
        1    1    3    3  502    0  0.76615880066E+03  0.54399873013E+03  0.12713074244E+04  0.15808720675E+04  0.50400001928E-02 0. -1.
       -1    1    3    3    0  502 -0.76615880066E+03 -0.54399873013E+03 -0.22258882257E+02  0.93990924247E+03  0.50400001928E-02 0.  1.
</event>
<event>
 5   0  0.9938176E-05  0.2202586E+04  0.7818609E-02  0.8517352E-01
       -2   -1    0    0    0  501  0.00000000000E+00  0.00000000000E+00  0.77219260128E+03  0.77219260129E+03  0.25500000920E-02 0. -1.
        2   -1    0    0  501    0  0.00000000000E+00  0.00000000000E+00 -0.15706528918E+04  0.15706528918E+04  0.25500000920E-02 0.  1.
    10030    2    1    2    0    0  0.00000000000E+00  0.00000000000E+00 -0.79846029052E+03  0.23428454931E+04  0.22025862455E+04 0.  0.
        5    1    3    3  502    0  0.34004470866E+03 -0.84398998941E+03 -0.10591186245E+04  0.13963179641E+04  0.46999998093E+01 0.  1.
       -5    1    3    3    0  502 -0.34004470866E+03  0.84398998941E+03  0.26065833396E+03  0.94652752901E+03  0.46999998093E+01 0. -1.
</event>
<event>
 5   0  0.4174030E-05  0.2190668E+04  0.7818609E-02  0.8522322E-01
        1   -1    0    0  501    0  0.00000000000E+00  0.00000000000E+00  0.17330715863E+04  0.17330715863E+04  0.50400001928E-02 0. -1.
       -1   -1    0    0    0  501  0.00000000000E+00  0.00000000000E+00 -0.69227183538E+03  0.69227183539E+03  0.50400001928E-02 0.  1.
    10030    2    1    2    0    0  0.00000000000E+00  0.00000000000E+00  0.10407997509E+04  0.24253434217E+04  0.21906680697E+04 0.  0.
        2    1    3    3  502    0 -0.87132169772E+03  0.63281678923E+03  0.29870363151E+03  0.11175340931E+04  0.25500000920E-02 0.  1.
       -2    1    3    3    0  502  0.87132169772E+03 -0.63281678923E+03  0.74209611942E+03  0.13078093287E+04  0.25500000920E-02 0. -1.
</event>
<event>
 5   0  0.4133418E-05  0.2339613E+04  0.7818609E-02  0.8462464E-01
        1   -1    0    0  501    0  0.00000000000E+00  0.00000000000E+00  0.15865280505E+04  0.15865280505E+04  0.50400001928E-02 0.  1.
       -1   -1    0    0    0  501  0.00000000000E+00  0.00000000000E+00 -0.86254200167E+03  0.86254200168E+03  0.50400001928E-02 0. -1.
    10030    2    1    2    0    0  0.00000000000E+00  0.00000000000E+00  0.72398604884E+03  0.24490700522E+04  0.23396128572E+04 0.  0.
        4    1    3    3  502    0 -0.30558926389E+03  0.31328373327E+03  0.14976039643E+04  0.15602406041E+04  0.12699999809E+01 0.  1.
       -4    1    3    3    0  502  0.30558926389E+03 -0.31328373327E+03 -0.77361791550E+03  0.88882944811E+03  0.12699999809E+01 0. -1.
</event>
<event>
 5   0  0.9442578E-05  0.2205777E+04  0.7818609E-02  0.8516027E-01
        2   -1    0    0  501    0  0.00000000000E+00  0.00000000000E+00  0.14368841939E+04  0.14368841939E+04  0.25500000920E-02 0.  1.
       -2   -1    0    0    0  501  0.00000000000E+00  0.00000000000E+00 -0.84652842944E+03  0.84652842945E+03  0.25500000920E-02 0. -1.
    10030    2    1    2    0    0  0.00000000000E+00  0.00000000000E+00  0.59035576443E+03  0.22834126233E+04  0.22057772507E+04 0.  0.
        4    1    3    3  502    0 -0.97545668241E+03 -0.39418129634E+03 -0.47325210956E+02  0.10531552222E+04  0.12699999809E+01 0. -1.
       -4    1    3    3    0  502  0.97545668241E+03  0.39418129634E+03  0.63768097539E+03  0.12302574011E+04  0.12699999809E+01 0.  1.
</event>
<event>
 5   0  0.9179618E-05  0.2293143E+04  0.7818609E-02  0.8480630E-01
       -2   -1    0    0    0  501  0.00000000000E+00  0.00000000000E+00  0.27325565836E+04  0.27325565836E+04  0.25500000920E-02 0. -1.
        2   -1    0    0  501    0  0.00000000000E+00  0.00000000000E+00 -0.48109757451E+03  0.48109757452E+03  0.25500000920E-02 0.  1.
    10030    2    1    2    0    0  0.00000000000E+00  0.00000000000E+00  0.22514590090E+04  0.32136541581E+04  0.22931431221E+04 0.  0.
        3    1    3    3  502    0  0.10051121957E+03 -0.10352772010E+04  0.18017960500E+04  0.20804736009E+04  0.10100000352E+00 0. -1.
       -3    1    3    3    0  502 -0.10051121957E+03  0.10352772010E+04  0.44966295909E+03  0.11331805572E+04  0.10100000352E+00 0.  1.
</event>
<event>
 5   0  0.4063293E-05  0.2153239E+04  0.7818609E-02  0.8538147E-01
       -1   -1    0    0    0  501  0.00000000000E+00  0.00000000000E+00  0.54069933458E+03  0.54069933461E+03  0.50400001928E-02 0.  1.
        1   -1    0    0  501    0  0.00000000000E+00  0.00000000000E+00 -0.21437226787E+04  0.21437226787E+04  0.50400001928E-02 0. -1.
    10030    2    1    2    0    0  0.00000000000E+00  0.00000000000E+00 -0.16030233441E+04  0.26844220133E+04  0.21532388868E+04 0.  0.
        1    1    3    3  502    0  0.36646457244E+02 -0.10396298097E+04 -0.45571223088E+03  0.11357141988E+04  0.50400001928E-02 0.  1.
       -1    1    3    3    0  502 -0.36646457244E+02  0.10396298097E+04 -0.11473111132E+04  0.15487078145E+04  0.50400001928E-02 0. -1.
</event>
<event>
 5   0  0.4188865E-05  0.2055448E+04  0.7818609E-02  0.8581127E-01
        1   -1    0    0  501    0  0.00000000000E+00  0.00000000000E+00  0.10348432523E+04  0.10348432523E+04  0.50400001928E-02 0.  1.
       -1   -1    0    0    0  501  0.00000000000E+00  0.00000000000E+00 -0.10206539017E+04  0.10206539018E+04  0.50400001928E-02 0. -1.
    10030    2    1    2    0    0  0.00000000000E+00  0.00000000000E+00  0.14189350565E+02  0.20554971541E+04  0.20554481781E+04 0.  0.
        3    1    3    3  502    0 -0.43313139628E+03 -0.89812444694E+03 -0.24188206727E+03  0.10260298599E+04  0.10100000352E+00 0. -1.
       -3    1    3    3    0  502  0.43313139628E+03  0.89812444694E+03  0.25607141784E+03  0.10294672942E+04  0.10100000352E+00 0.  1.
</event>
<event>
 5   0  0.4174030E-05  0.2193227E+04  0.7818609E-02  0.8521253E-01
        1   -1    0    0  501    0  0.00000000000E+00  0.00000000000E+00  0.14431236934E+04  0.14431236935E+04  0.50400001928E-02 0.  1.
       -1   -1    0    0    0  501  0.00000000000E+00  0.00000000000E+00 -0.83330422104E+03  0.83330422105E+03  0.50400001928E-02 0. -1.
    10030    2    1    2    0    0  0.00000000000E+00  0.00000000000E+00  0.60981947241E+03  0.22764279145E+04  0.21932269060E+04 0.  0.
        2    1    3    3  502    0  0.72543107707E+03  0.64797917911E+03  0.83051290199E+03  0.12790148336E+04  0.25500000920E-02 0.  1.
       -2    1    3    3    0  502 -0.72543107707E+03 -0.64797917911E+03 -0.22069342958E+03  0.99741308093E+03  0.25500000920E-02 0. -1.
</event>
<event>
 5   0  0.4174030E-05  0.2224283E+04  0.7818609E-02  0.8508388E-01
       -1   -1    0    0    0  501  0.00000000000E+00  0.00000000000E+00  0.99583820631E+03  0.99583820632E+03  0.50400001928E-02 0.  1.
        1   -1    0    0  501    0  0.00000000000E+00  0.00000000000E+00 -0.12420279251E+04  0.12420279251E+04  0.50400001928E-02 0. -1.
    10030    2    1    2    0    0  0.00000000000E+00  0.00000000000E+00 -0.24618971879E+03  0.22378661314E+04  0.22242831305E+04 0.  0.
        2    1    3    3  502    0 -0.10253547890E+04 -0.10948846051E+03  0.29600466850E+03  0.10728275398E+04  0.25500000920E-02 0.  1.
       -2    1    3    3    0  502  0.10253547890E+04  0.10948846051E+03 -0.54219438729E+03  0.11650385916E+04  0.25500000920E-02 0. -1.
</event>
<event>
 5   0  0.9938176E-05  0.2212531E+04  0.7818609E-02  0.8513230E-01
        2   -1    0    0  501    0  0.00000000000E+00  0.00000000000E+00  0.98584897320E+03  0.98584897321E+03  0.25500000920E-02 0. -1.
       -2   -1    0    0    0  501  0.00000000000E+00  0.00000000000E+00 -0.12413906192E+04  0.12413906192E+04  0.25500000920E-02 0.  1.
    10030    2    1    2    0    0  0.00000000000E+00  0.00000000000E+00 -0.25554164595E+03  0.22272395924E+04  0.22125312809E+04 0.  0.
        5    1    3    3  502    0 -0.58365394875E+03  0.79109830159E+03  0.38286171650E+03  0.10550325297E+04  0.46999998093E+01 0. -1.
       -5    1    3    3    0  502  0.58365394875E+03 -0.79109830159E+03 -0.63840336245E+03  0.11722070627E+04  0.46999998093E+01 0.  1.
</event>
<event>
 5   0  0.4174075E-05  0.2193810E+04  0.7818609E-02  0.8521009E-01
       -1   -1    0    0    0  501  0.00000000000E+00  0.00000000000E+00  0.19365397941E+04  0.19365397941E+04  0.50400001928E-02 0. -1.
        1   -1    0    0  501    0  0.00000000000E+00  0.00000000000E+00 -0.62131492448E+03  0.62131492450E+03  0.50400001928E-02 0.  1.
    10030    2    1    2    0    0  0.00000000000E+00  0.00000000000E+00  0.13152248697E+04  0.25578547186E+04  0.21938104530E+04 0.  0.
        5    1    3    3  502    0  0.13552726183E+03  0.10215047745E+04  0.10959496117E+04  0.15043162182E+04  0.46999998093E+01 0.  1.
       -5    1    3    3    0  502 -0.13552726183E+03 -0.10215047745E+04  0.21927525799E+03  0.10535385004E+04  0.46999998093E+01 0. -1.
</event>
<event>
 5   0  0.4188865E-05  0.2239100E+04  0.7818609E-02  0.8502328E-01
        1   -1    0    0  501    0  0.00000000000E+00  0.00000000000E+00  0.20223743517E+04  0.20223743517E+04  0.50400001928E-02 0. -1.
       -1   -1    0    0    0  501  0.00000000000E+00  0.00000000000E+00 -0.61976293784E+03  0.61976293786E+03  0.50400001928E-02 0.  1.
    10030    2    1    2    0    0  0.00000000000E+00  0.00000000000E+00  0.14026114139E+04  0.26421372896E+04  0.22391004173E+04 0.  0.
        3    1    3    3  502    0 -0.75191126139E+03 -0.55998477616E+02  0.16778479717E+04  0.18394782415E+04  0.10100000352E+00 0. -1.
       -3    1    3    3    0  502  0.75191126139E+03  0.55998477616E+02 -0.27523655785E+03  0.80265904809E+03  0.10100000352E+00 0.  1.
</event>
<event>
 5   0  0.4174075E-05  0.2192091E+04  0.7818609E-02  0.8521727E-01
       -1   -1    0    0    0  501  0.00000000000E+00  0.00000000000E+00  0.89525862829E+03  0.89525862831E+03  0.50400001928E-02 0.  1.
        1   -1    0    0  501    0  0.00000000000E+00  0.00000000000E+00 -0.13418648233E+04  0.13418648233E+04  0.50400001928E-02 0. -1.
    10030    2    1    2    0    0  0.00000000000E+00  0.00000000000E+00 -0.44660619497E+03  0.22371234516E+04  0.21920912947E+04 0.  0.
        5    1    3    3  502    0  0.85841420830E+03  0.49016580368E+03  0.25987471626E+03  0.10221029431E+04  0.46999998093E+01 0.  1.
       -5    1    3    3    0  502 -0.85841420830E+03 -0.49016580368E+03 -0.70648091123E+03  0.12150205085E+04  0.46999998093E+01 0. -1.
</event>
<event>
 5   0  0.4063293E-05  0.2146878E+04  0.7818609E-02  0.8540870E-01
       -1   -1    0    0    0  501  0.00000000000E+00  0.00000000000E+00  0.90704066437E+03  0.90704066438E+03  0.50400001928E-02 0. -1.
        1   -1    0    0  501    0  0.00000000000E+00  0.00000000000E+00 -0.12703632313E+04  0.12703632313E+04  0.50400001928E-02 0.  1.
    10030    2    1    2    0    0  0.00000000000E+00  0.00000000000E+00 -0.36332256690E+03  0.21774038957E+04  0.21468778347E+04 0.  0.
        1    1    3    3  502    0  0.56254001887E+03  0.19242207114E+03 -0.10881219152E+04  0.12399543655E+04  0.50400001928E-02 0.  1.
       -1    1    3    3    0  502 -0.56254001887E+03 -0.19242207114E+03  0.72479934826E+03  0.93744953014E+03  0.50400001928E-02 0. -1.
</event>
<event>
 5   0  0.9254673E-05  0.2274133E+04  0.7818609E-02  0.8488190E-01
       -2   -1    0    0    0  501  0.00000000000E+00  0.00000000000E+00  0.82910419148E+03  0.82910419148E+03  0.25500000920E-02 0. -1.
        2   -1    0    0  501    0  0.00000000000E+00  0.00000000000E+00 -0.15594181654E+04  0.15594181654E+04  0.25500000920E-02 0.  1.
    10030    2    1    2    0    0  0.00000000000E+00  0.00000000000E+00 -0.73031397393E+03  0.23885223569E+04  0.22741329224E+04 0.  0.
        2    1    3    3  502    0 -0.55378037277E+03 -0.16418094529E+03 -0.13938573393E+04  0.15087963303E+04  0.25500000920E-02 0.  1.
       -2    1    3    3    0  502  0.55378037277E+03  0.16418094529E+03  0.66354336539E+03  0.87972602656E+03  0.25500000920E-02 0. -1.
</event>
<event>
 5   0  0.9457742E-05  0.2148670E+04  0.7818609E-02  0.8540102E-01
        2   -1    0    0  501    0  0.00000000000E+00  0.00000000000E+00  0.17958960467E+04  0.17958960467E+04  0.25500000920E-02 0. -1.
       -2   -1    0    0    0  501  0.00000000000E+00  0.00000000000E+00 -0.64268540807E+03  0.64268540807E+03  0.25500000920E-02 0.  1.
    10030    2    1    2    0    0  0.00000000000E+00  0.00000000000E+00  0.11532106387E+04  0.24385814548E+04  0.21486704574E+04 0.  0.
        1    1    3    3  502    0 -0.96658353927E+03  0.46894577076E+03  0.57488063422E+03  0.12184751199E+04  0.50400001928E-02 0.  1.
       -1    1    3    3    0  502  0.96658353927E+03 -0.46894577076E+03  0.57833000444E+03  0.12201063349E+04  0.50400001928E-02 0. -1.
</event>
<event>
 5   0  0.4174075E-05  0.2210977E+04  0.7818609E-02  0.8513873E-01
       -1   -1    0    0    0  501  0.00000000000E+00  0.00000000000E+00  0.73302363742E+03  0.73302363744E+03  0.50400001928E-02 0. -1.
        1   -1    0    0  501    0  0.00000000000E+00  0.00000000000E+00 -0.16672110149E+04  0.16672110149E+04  0.50400001928E-02 0.  1.
    10030    2    1    2    0    0  0.00000000000E+00  0.00000000000E+00 -0.93418737748E+03  0.24002346523E+04  0.22109772342E+04 0.  0.
        5    1    3    3  502    0 -0.47476097920E+03  0.55728483481E+03 -0.13663200557E+04  0.15501022415E+04  0.46999998093E+01 0.  1.
       -5    1    3    3    0  502  0.47476097920E+03 -0.55728483481E+03  0.43213267818E+03  0.85013241088E+03  0.46999998093E+01 0. -1.
</event>
<event>
 5   0  0.4174030E-05  0.2223706E+04  0.7818609E-02  0.8508626E-01
        1   -1    0    0  501    0  0.00000000000E+00  0.00000000000E+00  0.17618325889E+04  0.17618325889E+04  0.50400001928E-02 0.  1.
       -1   -1    0    0    0  501  0.00000000000E+00  0.00000000000E+00 -0.70166530231E+03  0.70166530233E+03  0.50400001928E-02 0. -1.
    10030    2    1    2    0    0  0.00000000000E+00  0.00000000000E+00  0.10601672866E+04  0.24634978912E+04  0.22237057324E+04 0.  0.
        2    1    3    3  502    0  0.33184732312E+03 -0.13812338442E+03  0.16956898304E+04  0.17333680268E+04  0.25500000920E-02 0.  1.
       -2    1    3    3    0  502 -0.33184732312E+03  0.13812338442E+03 -0.63552254387E+03  0.73012986444E+03  0.25500000920E-02 0. -1.
</event>
<event>
 5   0  0.4188865E-05  0.2128931E+04  0.7818609E-02  0.8548605E-01
        1   -1    0    0  501    0  0.00000000000E+00  0.00000000000E+00  0.11712752805E+04  0.11712752805E+04  0.50400001928E-02 0.  1.
       -1   -1    0    0    0  501  0.00000000000E+00  0.00000000000E+00 -0.96739625321E+03  0.96739625322E+03  0.50400001928E-02 0. -1.
    10030    2    1    2    0    0  0.00000000000E+00  0.00000000000E+00  0.20387902726E+03  0.21386715337E+04  0.21289314858E+04 0.  0.
        3    1    3    3  502    0 -0.28072639546E+03  0.86399785705E+03 -0.45538485809E+03  0.10162061726E+04  0.10100000352E+00 0. -1.
       -3    1    3    3    0  502  0.28072639546E+03 -0.86399785705E+03  0.65926388535E+03  0.11224653611E+04  0.10100000352E+00 0.  1.
</event>
<event>
 5   0  0.9254673E-05  0.2202171E+04  0.7818609E-02  0.8517525E-01
        2   -1    0    0  501    0  0.00000000000E+00  0.00000000000E+00  0.25301371836E+04  0.25301371836E+04  0.25500000920E-02 0.  1.
       -2   -1    0    0    0  501  0.00000000000E+00  0.00000000000E+00 -0.47917937001E+03  0.47917937002E+03  0.25500000920E-02 0. -1.
    10030    2    1    2    0    0  0.00000000000E+00  0.00000000000E+00  0.20509578136E+04  0.30093165536E+04  0.22021712392E+04 0.  0.
        2    1    3    3  502    0  0.64192095353E+03  0.59825646804E+02  0.22452469689E+04  0.23359742228E+04  0.25500000920E-02 0.  1.
       -2    1    3    3    0  502 -0.64192095353E+03 -0.59825646804E+02 -0.19428915524E+03  0.67334233080E+03  0.25500000920E-02 0. -1.
</event>
<event>
 5   0  0.9457742E-05  0.2211926E+04  0.7818609E-02  0.8513481E-01
       -2   -1    0    0    0  501  0.00000000000E+00  0.00000000000E+00  0.11465328389E+04  0.11465328389E+04  0.25500000920E-02 0.  1.
        2   -1    0    0  501    0  0.00000000000E+00  0.00000000000E+00 -0.10668284685E+04  0.10668284685E+04  0.25500000920E-02 0. -1.
    10030    2    1    2    0    0  0.00000000000E+00  0.00000000000E+00  0.79704370397E+02  0.22133613075E+04  0.22119257426E+04 0.  0.
        1    1    3    3  502    0  0.95951943893E+03 -0.52845448226E+03 -0.11260213223E+03  0.11011906891E+04  0.50400001928E-02 0. -1.
       -1    1    3    3    0  502 -0.95951943893E+03  0.52845448226E+03  0.19230650263E+03  0.11121706184E+04  0.50400001928E-02 0.  1.
</event>
<event>
 5   0  0.4063293E-05  0.2350060E+04  0.7818609E-02  0.8458441E-01
        1   -1    0    0  501    0  0.00000000000E+00  0.00000000000E+00  0.98549516987E+03  0.98549516988E+03  0.50400001928E-02 0.  1.
       -1   -1    0    0    0  501  0.00000000000E+00  0.00000000000E+00 -0.14010167762E+04  0.14010167762E+04  0.50400001928E-02 0. -1.
    10030    2    1    2    0    0  0.00000000000E+00  0.00000000000E+00 -0.41552160631E+03  0.23865119461E+04  0.23500598000E+04 0.  0.
        1    1    3    3  502    0 -0.27388599490E+03  0.44789458151E+03 -0.12752906355E+04  0.13791262811E+04  0.50400001928E-02 0. -1.
       -1    1    3    3    0  502  0.27388599490E+03 -0.44789458151E+03  0.85976902918E+03  0.10073856649E+04  0.50400001928E-02 0.  1.
</event>
<event>
 5   0  0.9254673E-05  0.2183715E+04  0.7818609E-02  0.8525237E-01
        2   -1    0    0  501    0  0.00000000000E+00  0.00000000000E+00  0.99828137797E+03  0.99828137798E+03  0.25500000920E-02 0.  1.
       -2   -1    0    0    0  501  0.00000000000E+00  0.00000000000E+00 -0.11942056073E+04  0.11942056073E+04  0.25500000920E-02 0. -1.
    10030    2    1    2    0    0  0.00000000000E+00  0.00000000000E+00 -0.19592422928E+03  0.21924869852E+04  0.21837153837E+04 0.  0.
        2    1    3    3  502    0 -0.11900149879E+03 -0.35641961956E+03  0.93131767893E+03  0.10042653638E+04  0.25500000920E-02 0.  1.
       -2    1    3    3    0  502  0.11900149879E+03  0.35641961956E+03 -0.11272419082E+04  0.11882216214E+04  0.25500000920E-02 0. -1.
</event>
<event>
 5   0  0.4133418E-05  0.2198614E+04  0.7818609E-02  0.8519005E-01
       -1   -1    0    0    0  501  0.00000000000E+00  0.00000000000E+00  0.69693337877E+03  0.69693337879E+03  0.50400001928E-02 0. -1.
        1   -1    0    0  501    0  0.00000000000E+00  0.00000000000E+00 -0.17339905736E+04  0.17339905736E+04  0.50400001928E-02 0.  1.
    10030    2    1    2    0    0  0.00000000000E+00  0.00000000000E+00 -0.10370571948E+04  0.24309239524E+04  0.21986140264E+04 0.  0.
        4    1    3    3  502    0  0.75010405316E+03 -0.52517708790E+03  0.15402590585E+03  0.92854329829E+03  0.12699999809E+01 0. -1.
       -4    1    3    3    0  502 -0.75010405316E+03  0.52517708790E+03 -0.11910831007E+04  0.15023806541E+04  0.12699999809E+01 0.  1.
</event>
<event>
 5   0  0.4188865E-05  0.2192928E+04  0.7818609E-02  0.8521377E-01
        1   -1    0    0  501    0  0.00000000000E+00  0.00000000000E+00  0.12537990350E+04  0.12537990350E+04  0.50400001928E-02 0.  1.
       -1   -1    0    0    0  501  0.00000000000E+00  0.00000000000E+00 -0.95887219769E+03  0.95887219771E+03  0.50400001928E-02 0. -1.
    10030    2    1    2    0    0  0.00000000000E+00  0.00000000000E+00  0.29492683730E+03  0.22126712327E+04  0.21929277564E+04 0.  0.
        3    1    3    3  502    0 -0.91859752363E+02  0.24600372255E+03  0.12216026990E+04  0.12495075870E+04  0.10100000352E+00 0.  1.
       -3    1    3    3    0  502  0.91859752363E+02 -0.24600372255E+03 -0.92667586168E+03  0.96316364572E+03  0.10100000352E+00 0. -1.
</event>
<event>
 5   0  0.9938176E-05  0.2188164E+04  0.7818609E-02  0.8523371E-01
       -2   -1    0    0    0  501  0.00000000000E+00  0.00000000000E+00  0.10706827935E+04  0.10706827935E+04  0.25500000920E-02 0. -1.
        2   -1    0    0  501    0  0.00000000000E+00  0.00000000000E+00 -0.11179921502E+04  0.11179921502E+04  0.25500000920E-02 0.  1.
    10030    2    1    2    0    0  0.00000000000E+00  0.00000000000E+00 -0.47309356763E+02  0.21886749437E+04  0.21881635757E+04 0.  0.
        5    1    3    3  502    0  0.56724104108E+03  0.30417277338E+03 -0.90857008152E+03  0.11134653824E+04  0.46999998093E+01 0.  1.
       -5    1    3    3    0  502 -0.56724104108E+03 -0.30417277338E+03  0.86126072476E+03  0.10752095613E+04  0.46999998093E+01 0. -1.
</event>
<event>
 5   0  0.9254673E-05  0.2194414E+04  0.7818609E-02  0.8520757E-01
        2   -1    0    0  501    0  0.00000000000E+00  0.00000000000E+00  0.12770622740E+04  0.12770622740E+04  0.25500000920E-02 0. -1.
       -2   -1    0    0    0  501  0.00000000000E+00  0.00000000000E+00 -0.94268140434E+03  0.94268140434E+03  0.25500000920E-02 0.  1.
    10030    2    1    2    0    0  0.00000000000E+00  0.00000000000E+00  0.33438086968E+03  0.22197436784E+04  0.21944136874E+04 0.  0.
        2    1    3    3  502    0  0.28277967693E+03  0.40452638420E+03 -0.82404780168E+03  0.96055229981E+03  0.25500000920E-02 0.  1.
       -2    1    3    3    0  502 -0.28277967693E+03 -0.40452638420E+03  0.11584286714E+04  0.12591913786E+04  0.25500000920E-02 0. -1.
</event>
<event>
 5   0  0.3283125E-05  0.2156654E+04  0.7818609E-02  0.8536689E-01
        3   -1    0    0  501    0  0.00000000000E+00  0.00000000000E+00  0.20677463184E+04  0.20677463209E+04  0.10100000352E+00 0. -1.
       -3   -1    0    0    0  501  0.00000000000E+00  0.00000000000E+00 -0.56234635501E+03  0.56234636408E+03  0.10100000352E+00 0.  1.
    10030    2    1    2    0    0  0.00000000000E+00  0.00000000000E+00  0.15053999634E+04  0.26300926850E+04  0.21566544651E+04 0.  0.
        4    1    3    3  502    0 -0.71263457906E+03  0.30623303360E+03  0.16662542231E+04  0.18379421817E+04  0.12699999809E+01 0. -1.
       -4    1    3    3    0  502  0.71263457906E+03 -0.30623303360E+03 -0.16085425972E+03  0.79215050332E+03  0.12699999809E+01 0.  1.
</event>
<event>
 5   0  0.4174075E-05  0.2216537E+04  0.7818609E-02  0.8511577E-01
        1   -1    0    0  501    0  0.00000000000E+00  0.00000000000E+00  0.98970717481E+03  0.98970717483E+03  0.50400001928E-02 0. -1.
       -1   -1    0    0    0  501  0.00000000000E+00  0.00000000000E+00 -0.12410322650E+04  0.12410322650E+04  0.50400001928E-02 0.  1.
    10030    2    1    2    0    0  0.00000000000E+00  0.00000000000E+00 -0.25132509015E+03  0.22307394398E+04  0.22165365206E+04 0.  0.
        5    1    3    3  502    0 -0.22621448937E+03 -0.89813110094E+03 -0.73818709460E+03  0.11843794773E+04  0.46999998093E+01 0.  1.
       -5    1    3    3    0  502  0.22621448937E+03  0.89813110094E+03  0.48686200445E+03  0.10463599625E+04  0.46999998093E+01 0. -1.
</event>
<event>
 5   0  0.4174030E-05  0.2229302E+04  0.7818609E-02  0.8506330E-01
       -1   -1    0    0    0  501  0.00000000000E+00  0.00000000000E+00  0.10123322871E+04  0.10123322871E+04  0.50400001928E-02 0.  1.
        1   -1    0    0  501    0  0.00000000000E+00  0.00000000000E+00 -0.12273108839E+04  0.12273108839E+04  0.50400001928E-02 0. -1.
    10030    2    1    2    0    0  0.00000000000E+00  0.00000000000E+00 -0.21497859681E+03  0.22396431710E+04  0.22293016253E+04 0.  0.
        2    1    3    3  502    0  0.18484440300E+03  0.36648633701E+03 -0.11486203865E+04  0.12197575500E+04  0.25500000920E-02 0. -1.
       -2    1    3    3    0  502 -0.18484440300E+03 -0.36648633701E+03  0.93364178967E+03  0.10198856210E+04  0.25500000920E-02 0.  1.
</event>
<event>
 5   0  0.4063293E-05  0.2199878E+04  0.7818609E-02  0.8518479E-01
        1   -1    0    0  501    0  0.00000000000E+00  0.00000000000E+00  0.13905162416E+04  0.13905162417E+04  0.50400001928E-02 0. -1.
       -1   -1    0    0    0  501  0.00000000000E+00  0.00000000000E+00 -0.87008406141E+03  0.87008406142E+03  0.50400001928E-02 0.  1.
    10030    2    1    2    0    0  0.00000000000E+00  0.00000000000E+00  0.52043218023E+03  0.22606003031E+04  0.21998781957E+04 0.  0.
        1    1    3    3  502    0 -0.92447697250E+02  0.10760012784E+04  0.45792380587E+02  0.10809358307E+04  0.50400001928E-02 0.  1.
       -1    1    3    3    0  502  0.92447697250E+02 -0.10760012784E+04  0.47463979965E+03  0.11796644724E+04  0.50400001928E-02 0. -1.
</event>
<event>
 5   0  0.9254673E-05  0.2190025E+04  0.7818609E-02  0.8522591E-01
        2   -1    0    0  501    0  0.00000000000E+00  0.00000000000E+00  0.15933209581E+04  0.15933209581E+04  0.25500000920E-02 0.  1.
       -2   -1    0    0    0  501  0.00000000000E+00  0.00000000000E+00 -0.75254937653E+03  0.75254937653E+03  0.25500000920E-02 0. -1.
    10030    2    1    2    0    0  0.00000000000E+00  0.00000000000E+00  0.84077158161E+03  0.23458703347E+04  0.21900252909E+04 0.  0.
        2    1    3    3  502    0  0.82203506362E+03  0.55979744885E+03 -0.70409356809E+02  0.99703174829E+03  0.25500000920E-02 0. -1.
       -2    1    3    3    0  502 -0.82203506362E+03 -0.55979744885E+03  0.91118093842E+03  0.13488385864E+04  0.25500000920E-02 0.  1.
</event>
<event>
 5   0  0.4063293E-05  0.2218770E+04  0.7818609E-02  0.8510656E-01
       -1   -1    0    0    0  501  0.00000000000E+00  0.00000000000E+00  0.11500925228E+04  0.11500925229E+04  0.50400001928E-02 0. -1.
        1   -1    0    0  501    0  0.00000000000E+00  0.00000000000E+00 -0.10701181608E+04  0.10701181608E+04  0.50400001928E-02 0.  1.
    10030    2    1    2    0    0  0.00000000000E+00  0.00000000000E+00  0.79974362046E+02  0.22202106837E+04  0.22187698351E+04 0.  0.
        1    1    3    3  502    0  0.30813357092E+02 -0.36314990408E+03 -0.10085041086E+04  0.10723375648E+04  0.50400001928E-02 0.  1.
       -1    1    3    3    0  502 -0.30813357092E+02  0.36314990408E+03  0.10884784707E+04  0.11478731188E+04  0.50400001928E-02 0. -1.
</event>
<event>
 5   0  0.3283125E-05  0.1698138E+04  0.7818609E-02  0.8762427E-01
        4   -1    0    0  501    0  0.00000000000E+00  0.00000000000E+00  0.11462927401E+04  0.11462934436E+04  0.12699999809E+01 0. -1.
       -4   -1    0    0    0  501  0.00000000000E+00  0.00000000000E+00 -0.62891128603E+03  0.62891256832E+03  0.12699999809E+01 0.  1.
    10030    2    1    2    0    0  0.00000000000E+00  0.00000000000E+00  0.51738145408E+03  0.17752060120E+04  0.16981380438E+04 0.  0.
        2    1    3    3  502    0  0.10158518131E+03  0.28953209816E+01  0.11399128615E+04  0.11444340364E+04  0.25500000920E-02 0. -1.
       -2    1    3    3    0  502 -0.10158518131E+03 -0.28953209816E+01 -0.62253140739E+03  0.63077197555E+03  0.25500000920E-02 0.  1.
</event>
<event>
 5   0  0.4188865E-05  0.2109709E+04  0.7818609E-02  0.8556979E-01
        1   -1    0    0  501    0  0.00000000000E+00  0.00000000000E+00  0.17505402422E+04  0.17505402422E+04  0.50400001928E-02 0. -1.
       -1   -1    0    0    0  501  0.00000000000E+00  0.00000000000E+00 -0.63564243543E+03  0.63564243545E+03  0.50400001928E-02 0.  1.
    10030    2    1    2    0    0  0.00000000000E+00  0.00000000000E+00  0.11148978068E+04  0.23861826777E+04  0.21097086651E+04 0.  0.
        3    1    3    3  502    0 -0.77303044603E+02 -0.74206733248E+03 -0.28598109879E+03  0.79901494711E+03  0.10100000352E+00 0.  1.
       -3    1    3    3    0  502  0.77303044603E+02  0.74206733248E+03  0.14008789056E+04  0.15871677306E+04  0.10100000352E+00 0. -1.
</event>
<event>
 5   0  0.3283125E-05  0.2188762E+04  0.7818609E-02  0.8523120E-01
        3   -1    0    0  501    0  0.00000000000E+00  0.00000000000E+00  0.88727290799E+03  0.88727291374E+03  0.10100000352E+00 0.  1.
       -3   -1    0    0    0  501  0.00000000000E+00  0.00000000000E+00 -0.13498323304E+04  0.13498323341E+04  0.10100000352E+00 0. -1.
    10030    2    1    2    0    0  0.00000000000E+00  0.00000000000E+00 -0.46255942238E+03  0.22371052479E+04  0.21887619036E+04 0.  0.
        2    1    3    3  502    0  0.56489643658E+02  0.10038423289E+04 -0.67300484628E+03  0.12098867816E+04  0.25500000920E-02 0. -1.
       -2    1    3    3    0  502 -0.56489643658E+02 -0.10038423289E+04  0.21044542390E+03  0.10272184663E+04  0.25500000920E-02 0.  1.
</event>
<event>
 5   0  0.4174075E-05  0.2177300E+04  0.7818609E-02  0.8527936E-01
       -1   -1    0    0    0  501  0.00000000000E+00  0.00000000000E+00  0.84003227668E+03  0.84003227669E+03  0.50400001928E-02 0. -1.
        1   -1    0    0  501    0  0.00000000000E+00  0.00000000000E+00 -0.14108488359E+04  0.14108488359E+04  0.50400001928E-02 0.  1.
    10030    2    1    2    0    0  0.00000000000E+00  0.00000000000E+00 -0.57081655919E+03  0.22508811126E+04  0.21772997586E+04 0.  0.
        5    1    3    3  502    0  0.52278290937E+03  0.12309212454E+03 -0.12643430606E+04  0.13736954198E+04  0.46999998093E+01 0.  1.
       -5    1    3    3    0  502 -0.52278290937E+03 -0.12309212454E+03  0.69352650141E+03  0.87718569278E+03  0.46999998093E+01 0. -1.
</event>
<event>
 5   0  0.9254673E-05  0.2182033E+04  0.7818609E-02  0.8525944E-01
       -2   -1    0    0    0  501  0.00000000000E+00  0.00000000000E+00  0.80605052081E+03  0.80605052082E+03  0.25500000920E-02 0. -1.
        2   -1    0    0  501    0  0.00000000000E+00  0.00000000000E+00 -0.14767273226E+04  0.14767273226E+04  0.25500000920E-02 0.  1.
    10030    2    1    2    0    0  0.00000000000E+00  0.00000000000E+00 -0.67067680177E+03  0.22827778434E+04  0.21820328389E+04 0.  0.
        2    1    3    3  502    0 -0.34135802789E+03  0.76680714066E+03  0.39383425907E+03  0.92715905745E+03  0.25500000920E-02 0. -1.
       -2    1    3    3    0  502  0.34135802789E+03 -0.76680714066E+03 -0.10645110608E+04  0.13556187860E+04  0.25500000920E-02 0.  1.
</event>
<event>
 5   0  0.3283125E-05  0.1807652E+04  0.7818609E-02  0.8702241E-01
        3   -1    0    0  501    0  0.00000000000E+00  0.00000000000E+00  0.83607914798E+03  0.83607915408E+03  0.10100000352E+00 0.  1.
       -3   -1    0    0    0  501  0.00000000000E+00  0.00000000000E+00 -0.97706200641E+03  0.97706201163E+03  0.10100000352E+00 0. -1.
    10030    2    1    2    0    0  0.00000000000E+00  0.00000000000E+00 -0.14098285843E+03  0.18131411657E+04  0.18076517144E+04 0.  0.
        2    1    3    3  502    0  0.81436494820E+03  0.39196025512E+03 -0.79353963696E+02  0.90725969932E+03  0.25500000920E-02 0.  1.
       -2    1    3    3    0  502 -0.81436494820E+03 -0.39196025512E+03 -0.61628894731E+02  0.90588146638E+03  0.25500000920E-02 0. -1.
</event>
<event>
 5   0  0.4063293E-05  0.2183385E+04  0.7818609E-02  0.8525375E-01
       -1   -1    0    0    0  501  0.00000000000E+00  0.00000000000E+00  0.82647699531E+03  0.82647699533E+03  0.50400001928E-02 0. -1.
        1   -1    0    0  501    0  0.00000000000E+00  0.00000000000E+00 -0.14420156817E+04  0.14420156817E+04  0.50400001928E-02 0.  1.
    10030    2    1    2    0    0  0.00000000000E+00  0.00000000000E+00 -0.61553868642E+03  0.22684926771E+04  0.21833852504E+04 0.  0.
        1    1    3    3  502    0 -0.86490974231E+03  0.33556877906E+03 -0.90562740498E+03  0.12964706956E+04  0.50400001928E-02 0.  1.
       -1    1    3    3    0  502  0.86490974231E+03 -0.33556877906E+03  0.29008871856E+03  0.97202198149E+03  0.50400001928E-02 0. -1.
</event>
<event>
 5   0  0.9254673E-05  0.2199778E+04  0.7818609E-02  0.8518520E-01
       -2   -1    0    0    0  501  0.00000000000E+00  0.00000000000E+00  0.99513536571E+03  0.99513536571E+03  0.25500000920E-02 0.  1.
        2   -1    0    0  501    0  0.00000000000E+00  0.00000000000E+00 -0.12156699687E+04  0.12156699687E+04  0.25500000920E-02 0. -1.
    10030    2    1    2    0    0  0.00000000000E+00  0.00000000000E+00 -0.22053460298E+03  0.22108053344E+04  0.21997783333E+04 0.  0.
        2    1    3    3  502    0 -0.48675390155E+03  0.37729666393E+03  0.80560434796E+03  0.10140416652E+04  0.25500000920E-02 0.  1.
       -2    1    3    3    0  502  0.48675390155E+03 -0.37729666393E+03 -0.10261389509E+04  0.11967636692E+04  0.25500000920E-02 0. -1.
</event>
<event>
 5   0  0.4174030E-05  0.2173985E+04  0.7818609E-02  0.8529335E-01
       -1   -1    0    0    0  501  0.00000000000E+00  0.00000000000E+00  0.10574733940E+04  0.10574733940E+04  0.50400001928E-02 0. -1.
        1   -1    0    0  501    0  0.00000000000E+00  0.00000000000E+00 -0.11173356954E+04  0.11173356955E+04  0.50400001928E-02 0.  1.
    10030    2    1    2    0    0  0.00000000000E+00  0.00000000000E+00 -0.59862301474E+02  0.21748090894E+04  0.21739850690E+04 0.  0.
        2    1    3    3  502    0  0.85586343773E+03 -0.79748750392E+00  0.64043471017E+03  0.10689525144E+04  0.25500000920E-02 0. -1.
       -2    1    3    3    0  502 -0.85586343773E+03  0.79748750392E+00 -0.70029701165E+03  0.11058565750E+04  0.25500000920E-02 0.  1.
</event>
<event>
 5   0  0.4174030E-05  0.2145272E+04  0.7818609E-02  0.8541559E-01
        1   -1    0    0  501    0  0.00000000000E+00  0.00000000000E+00  0.15918958793E+04  0.15918958793E+04  0.50400001928E-02 0.  1.
       -1   -1    0    0    0  501  0.00000000000E+00  0.00000000000E+00 -0.72275336522E+03  0.72275336524E+03  0.50400001928E-02 0. -1.
    10030    2    1    2    0    0  0.00000000000E+00  0.00000000000E+00  0.86914251412E+03  0.23146492446E+04  0.21452721076E+04 0.  0.
        2    1    3    3  502    0 -0.10502168010E+04  0.79027237053E+02  0.21517597913E+03  0.10749424800E+04  0.25500000920E-02 0. -1.
       -2    1    3    3    0  502  0.10502168010E+04 -0.79027237053E+02  0.65396653498E+03  0.12397067646E+04  0.25500000920E-02 0.  1.
</event>
<event>
 5   0  0.4133418E-05  0.2169017E+04  0.7818609E-02  0.8531436E-01
        1   -1    0    0  501    0  0.00000000000E+00  0.00000000000E+00  0.72826082347E+03  0.72826082348E+03  0.50400001928E-02 0. -1.
       -1   -1    0    0    0  501  0.00000000000E+00  0.00000000000E+00 -0.16150240668E+04  0.16150240669E+04  0.50400001928E-02 0.  1.
    10030    2    1    2    0    0  0.00000000000E+00  0.00000000000E+00 -0.88676324338E+03  0.23432848903E+04  0.21690170648E+04 0.  0.
        4    1    3    3  502    0 -0.55026690206E+02  0.85309036361E+03  0.27759415217E+03  0.89880544688E+03  0.12699999809E+01 0. -1.
       -4    1    3    3    0  502  0.55026690206E+02 -0.85309036361E+03 -0.11643573956E+04  0.14444794435E+04  0.12699999809E+01 0.  1.
</event>
<event>
 5   0  0.4133418E-05  0.2214229E+04  0.7818609E-02  0.8512529E-01
        1   -1    0    0  501    0  0.00000000000E+00  0.00000000000E+00  0.10069442773E+04  0.10069442773E+04  0.50400001928E-02 0. -1.
       -1   -1    0    0    0  501  0.00000000000E+00  0.00000000000E+00 -0.12172495455E+04  0.12172495455E+04  0.50400001928E-02 0.  1.
    10030    2    1    2    0    0  0.00000000000E+00  0.00000000000E+00 -0.21030526820E+03  0.22241938227E+04  0.22142289528E+04 0.  0.
        4    1    3    3  502    0 -0.10588117553E+04 -0.16934285037E+03  0.17166244139E+03  0.10859230824E+04  0.12699999809E+01 0. -1.
       -4    1    3    3    0  502  0.10588117553E+04  0.16934285037E+03 -0.38196770958E+03  0.11382707403E+04  0.12699999809E+01 0.  1.
</event>
<event>
 5   0  0.4174075E-05  0.2176649E+04  0.7818609E-02  0.8528211E-01
       -1   -1    0    0    0  501  0.00000000000E+00  0.00000000000E+00  0.10972253094E+04  0.10972253095E+04  0.50400001928E-02 0. -1.
        1   -1    0    0  501    0  0.00000000000E+00  0.00000000000E+00 -0.10794958236E+04  0.10794958236E+04  0.50400001928E-02 0.  1.
    10030    2    1    2    0    0  0.00000000000E+00  0.00000000000E+00  0.17729485876E+02  0.21767211330E+04  0.21766489281E+04 0.  0.
        5    1    3    3  502    0  0.60678280429E+03  0.76471500645E+03  0.48997698811E+03  0.10922792461E+04  0.46999998093E+01 0. -1.
       -5    1    3    3    0  502 -0.60678280429E+03 -0.76471500645E+03 -0.47224750223E+03  0.10844418869E+04  0.46999998093E+01 0.  1.
</event>
<event>
 5   0  0.4188865E-05  0.2018592E+04  0.7818609E-02  0.8597977E-01
        1   -1    0    0  501    0  0.00000000000E+00  0.00000000000E+00  0.11007076248E+04  0.11007076248E+04  0.50400001928E-02 0.  1.
       -1   -1    0    0    0  501  0.00000000000E+00  0.00000000000E+00 -0.92547634608E+03  0.92547634609E+03  0.50400001928E-02 0. -1.
    10030    2    1    2    0    0  0.00000000000E+00  0.00000000000E+00  0.17523127872E+03  0.20261839709E+04  0.20185924509E+04 0.  0.
        3    1    3    3  502    0 -0.39642077587E+03  0.96212063684E+02  0.10142737068E+04  0.10932325257E+04  0.10100000352E+00 0.  1.
       -3    1    3    3    0  502  0.39642077587E+03 -0.96212063684E+02 -0.83904242809E+03  0.93295144519E+03  0.10100000352E+00 0. -1.
</event>
<event>
 5   0  0.9938176E-05  0.2100266E+04  0.7818609E-02  0.8561126E-01
       -2   -1    0    0    0  501  0.00000000000E+00  0.00000000000E+00  0.76552795139E+03  0.76552795139E+03  0.25500000920E-02 0.  1.
        2   -1    0    0  501    0  0.00000000000E+00  0.00000000000E+00 -0.14405472218E+04  0.14405472218E+04  0.25500000920E-02 0. -1.
    10030    2    1    2    0    0  0.00000000000E+00  0.00000000000E+00 -0.67501927037E+03  0.22060751732E+04  0.21002658532E+04 0.  0.
        5    1    3    3  502    0  0.10185172410E+04  0.43085320294E+02 -0.72773782164E+02  0.10220331836E+04  0.46999998093E+01 0.  1.
       -5    1    3    3    0  502 -0.10185172410E+04 -0.43085320294E+02 -0.60224548821E+03  0.11840419896E+04  0.46999998093E+01 0. -1.
</event>
<event>
 5   0  0.4174075E-05  0.2187944E+04  0.7818609E-02  0.8523463E-01
       -1   -1    0    0    0  501  0.00000000000E+00  0.00000000000E+00  0.45176344945E+03  0.45176344948E+03  0.50400001928E-02 0. -1.
        1   -1    0    0  501    0  0.00000000000E+00  0.00000000000E+00 -0.26491174162E+04  0.26491174162E+04  0.50400001928E-02 0.  1.
    10030    2    1    2    0    0  0.00000000000E+00  0.00000000000E+00 -0.21973539667E+04  0.31008808656E+04  0.21879437122E+04 0.  0.
        5    1    3    3  502    0 -0.81079946234E+03 -0.31112238425E+03 -0.15584407266E+03  0.88232781385E+03  0.46999998093E+01 0. -1.
       -5    1    3    3    0  502  0.81079946234E+03  0.31112238425E+03 -0.20415098941E+04  0.22185530518E+04  0.46999998093E+01 0.  1.
</event>
<event>
 5   0  0.9457742E-05  0.2463861E+04  0.7818609E-02  0.8415975E-01
        2   -1    0    0  501    0  0.00000000000E+00  0.00000000000E+00  0.17754595774E+04  0.17754595774E+04  0.25500000920E-02 0. -1.
       -2   -1    0    0    0  501  0.00000000000E+00  0.00000000000E+00 -0.85479420828E+03  0.85479420829E+03  0.25500000920E-02 0.  1.
    10030    2    1    2    0    0  0.00000000000E+00  0.00000000000E+00  0.92066536907E+03  0.26302537856E+04  0.24638608433E+04 0.  0.
        1    1    3    3  502    0 -0.76669713011E+03 -0.21794958886E+02 -0.56880112010E+03  0.95490011195E+03  0.50400001928E-02 0.  1.
       -1    1    3    3    0  502  0.76669713011E+03  0.21794958886E+02  0.14894664892E+04  0.16753536737E+04  0.50400001928E-02 0. -1.
</event>
<event>
 5   0  0.4188865E-05  0.2438290E+04  0.7818609E-02  0.8425306E-01
       -1   -1    0    0    0  501  0.00000000000E+00  0.00000000000E+00  0.12284376313E+04  0.12284376313E+04  0.50400001928E-02 0.  1.
        1   -1    0    0  501    0  0.00000000000E+00  0.00000000000E+00 -0.12099229882E+04  0.12099229882E+04  0.50400001928E-02 0. -1.
    10030    2    1    2    0    0  0.00000000000E+00  0.00000000000E+00  0.18514643065E+02  0.24383606195E+04  0.24382903270E+04 0.  0.
        3    1    3    3  502    0 -0.85508765896E+03  0.71911547007E+03 -0.47862245772E+03  0.12154758044E+04  0.10100000352E+00 0. -1.
       -3    1    3    3    0  502  0.85508765896E+03 -0.71911547007E+03  0.49713710079E+03  0.12228848151E+04  0.10100000352E+00 0.  1.
</event>
<event>
 5   0  0.4133418E-05  0.2176644E+04  0.7818609E-02  0.8528213E-01
        1   -1    0    0  501    0  0.00000000000E+00  0.00000000000E+00  0.24237144208E+04  0.24237144208E+04  0.50400001928E-02 0.  1.
       -1   -1    0    0    0  501  0.00000000000E+00  0.00000000000E+00 -0.48868976093E+03  0.48868976096E+03  0.50400001928E-02 0. -1.
    10030    2    1    2    0    0  0.00000000000E+00  0.00000000000E+00  0.19350246598E+04  0.29124041817E+04  0.21766436740E+04 0.  0.
        4    1    3    3  502    0 -0.73586065603E+03  0.79713664306E+03  0.10835822616E+04  0.15333198829E+04  0.12699999809E+01 0.  1.
       -4    1    3    3    0  502  0.73586065603E+03 -0.79713664306E+03  0.85144239822E+03  0.13790842988E+04  0.12699999809E+01 0. -1.
</event>
<event>
 5   0  0.9457742E-05  0.2196995E+04  0.7818609E-02  0.8519680E-01
       -2   -1    0    0    0  501  0.00000000000E+00  0.00000000000E+00  0.91602920852E+03  0.91602920853E+03  0.25500000920E-02 0. -1.
        2   -1    0    0  501    0  0.00000000000E+00  0.00000000000E+00 -0.13173120002E+04  0.13173120002E+04  0.25500000920E-02 0.  1.
    10030    2    1    2    0    0  0.00000000000E+00  0.00000000000E+00 -0.40128279170E+03  0.22333412088E+04  0.21969945553E+04 0.  0.
        1    1    3    3  502    0  0.97893307996E+01 -0.86391386086E+03 -0.89028473252E+03  0.12405844973E+04  0.50400001928E-02 0.  1.
       -1    1    3    3    0  502 -0.97893307996E+01  0.86391386086E+03  0.48900194082E+03  0.99275671145E+03  0.50400001928E-02 0. -1.
</event>
<event>
 5   0  0.9179618E-05  0.2213654E+04  0.7818609E-02  0.8512766E-01
        2   -1    0    0  501    0  0.00000000000E+00  0.00000000000E+00  0.92366190808E+03  0.92366190808E+03  0.25500000920E-02 0.  1.
       -2   -1    0    0    0  501  0.00000000000E+00  0.00000000000E+00 -0.13263144240E+04  0.13263144240E+04  0.25500000920E-02 0. -1.
    10030    2    1    2    0    0  0.00000000000E+00  0.00000000000E+00 -0.40265251591E+03  0.22499763321E+04  0.22136540936E+04 0.  0.
        3    1    3    3  502    0 -0.69606153228E+03 -0.32472352024E+02 -0.10753841808E+04  0.12814083100E+04  0.10100000352E+00 0. -1.
       -3    1    3    3    0  502  0.69606153228E+03  0.32472352024E+02  0.67273166486E+03  0.96856802212E+03  0.10100000352E+00 0.  1.
</event>
<event>
 5   0  0.9457742E-05  0.2162858E+04  0.7818609E-02  0.8534048E-01
       -2   -1    0    0    0  501  0.00000000000E+00  0.00000000000E+00  0.94313423146E+03  0.94313423146E+03  0.25500000920E-02 0.  1.
        2   -1    0    0  501    0  0.00000000000E+00  0.00000000000E+00 -0.12400024227E+04  0.12400024227E+04  0.25500000920E-02 0. -1.
    10030    2    1    2    0    0  0.00000000000E+00  0.00000000000E+00 -0.29686819126E+03  0.21831366542E+04  0.21628580462E+04 0.  0.
        1    1    3    3  502    0  0.36256441046E+03 -0.10187465334E+04 -0.16239420457E+03  0.10934666564E+04  0.50400001928E-02 0. -1.
       -1    1    3    3    0  502 -0.36256441046E+03  0.10187465334E+04 -0.13447398668E+03  0.10896699978E+04  0.50400001928E-02 0.  1.
</event>
<event>
 5   0  0.9179618E-05  0.2197195E+04  0.7818609E-02  0.8519597E-01
        2   -1    0    0  501    0  0.00000000000E+00  0.00000000000E+00  0.16682249339E+04  0.16682249339E+04  0.25500000920E-02 0.  1.
       -2   -1    0    0    0  501  0.00000000000E+00  0.00000000000E+00 -0.72347339917E+03  0.72347339917E+03  0.25500000920E-02 0. -1.
    10030    2    1    2    0    0  0.00000000000E+00  0.00000000000E+00  0.94475153472E+03  0.23916983331E+04  0.21971949058E+04 0.  0.
        3    1    3    3  502    0 -0.64672116259E+03  0.88665792846E+03  0.41788639511E+03  0.11743251652E+04  0.10100000352E+00 0. -1.
       -3    1    3    3    0  502  0.64672116259E+03 -0.88665792846E+03  0.52686513961E+03  0.12173731678E+04  0.10100000352E+00 0.  1.
</event>
<event>
 5   0  0.9254673E-05  0.2262887E+04  0.7818609E-02  0.8492700E-01
       -2   -1    0    0    0  501  0.00000000000E+00  0.00000000000E+00  0.88736467459E+03  0.88736467460E+03  0.25500000920E-02 0.  1.
        2   -1    0    0  501    0  0.00000000000E+00  0.00000000000E+00 -0.14426591982E+04  0.14426591982E+04  0.25500000920E-02 0. -1.
    10030    2    1    2    0    0  0.00000000000E+00  0.00000000000E+00 -0.55529452357E+03  0.23300238728E+04  0.22628873679E+04 0.  0.
        2    1    3    3  502    0 -0.31313986719E+03  0.47826750901E+03  0.72772711934E+03  0.92540971835E+03  0.25500000920E-02 0.  1.
       -2    1    3    3    0  502  0.31313986719E+03 -0.47826750901E+03 -0.12830216429E+04  0.14046141544E+04  0.25500000920E-02 0. -1.
</event>
<event>
 5   0  0.9457742E-05  0.2238321E+04  0.7818609E-02  0.8502645E-01
       -2   -1    0    0    0  501  0.00000000000E+00  0.00000000000E+00  0.98453795464E+03  0.98453795465E+03  0.25500000920E-02 0.  1.
        2   -1    0    0  501    0  0.00000000000E+00  0.00000000000E+00 -0.12721904874E+04  0.12721904874E+04  0.25500000920E-02 0. -1.
    10030    2    1    2    0    0  0.00000000000E+00  0.00000000000E+00 -0.28765253274E+03  0.22567284420E+04  0.22383206387E+04 0.  0.
        1    1    3    3  502    0 -0.46595221773E+03  0.27479499536E+03  0.84397393002E+03  0.10024548635E+04  0.50400001928E-02 0.  1.
       -1    1    3    3    0  502  0.46595221773E+03 -0.27479499536E+03 -0.11316264628E+04  0.12542735786E+04  0.50400001928E-02 0. -1.
</event>
<event>
 5   0  0.4174075E-05  0.2127186E+04  0.7818609E-02  0.8549361E-01
       -1   -1    0    0    0  501  0.00000000000E+00  0.00000000000E+00  0.38060384748E+03  0.38060384751E+03  0.50400001928E-02 0.  1.
        1   -1    0    0  501    0  0.00000000000E+00  0.00000000000E+00 -0.29721983034E+04  0.29721983034E+04  0.50400001928E-02 0. -1.
    10030    2    1    2    0    0  0.00000000000E+00  0.00000000000E+00 -0.25915944559E+04  0.33528021509E+04  0.21271860378E+04 0.  0.
        5    1    3    3  502    0 -0.57195100308E+03 -0.53930879019E+03 -0.24249606969E+04  0.25492034820E+04  0.46999998093E+01 0. -1.
       -5    1    3    3    0  502  0.57195100308E+03  0.53930879019E+03 -0.16663375907E+03  0.80359866897E+03  0.46999998093E+01 0.  1.
</event>
<event>
 5   0  0.4174075E-05  0.2155121E+04  0.7818609E-02  0.8537343E-01
        1   -1    0    0  501    0  0.00000000000E+00  0.00000000000E+00  0.21000422628E+04  0.21000422628E+04  0.50400001928E-02 0.  1.
       -1   -1    0    0    0  501  0.00000000000E+00  0.00000000000E+00 -0.55291103798E+03  0.55291103800E+03  0.50400001928E-02 0. -1.
    10030    2    1    2    0    0  0.00000000000E+00  0.00000000000E+00  0.15471312248E+04  0.26529533008E+04  0.21551209222E+04 0.  0.
        5    1    3    3  502    0  0.10347017330E+04  0.18886162136E+01  0.40323470101E+03  0.11105095935E+04  0.46999998093E+01 0. -1.
       -5    1    3    3    0  502 -0.10347017330E+04 -0.18886162136E+01  0.11438965238E+04  0.15424437073E+04  0.46999998093E+01 0.  1.
</event>
<event>
 5   0  0.9254673E-05  0.2216045E+04  0.7818609E-02  0.8511779E-01
       -2   -1    0    0    0  501  0.00000000000E+00  0.00000000000E+00  0.10935502146E+04  0.10935502146E+04  0.25500000920E-02 0.  1.
        2   -1    0    0  501    0  0.00000000000E+00  0.00000000000E+00 -0.11226860603E+04  0.11226860603E+04  0.25500000920E-02 0. -1.
    10030    2    1    2    0    0  0.00000000000E+00  0.00000000000E+00 -0.29135845717E+02  0.22162362748E+04  0.22160447487E+04 0.  0.
        2    1    3    3  502    0  0.36974540658E+02  0.78696085012E+03  0.76462654547E+03  0.10978744237E+04  0.25500000920E-02 0.  1.
       -2    1    3    3    0  502 -0.36974540658E+02 -0.78696085012E+03 -0.79376239119E+03  0.11183618511E+04  0.25500000920E-02 0. -1.
</event>
<event>
 5   0  0.4188865E-05  0.2165670E+04  0.7818609E-02  0.8532854E-01
        1   -1    0    0  501    0  0.00000000000E+00  0.00000000000E+00  0.81254580273E+03  0.81254580275E+03  0.50400001928E-02 0.  1.
       -1   -1    0    0    0  501  0.00000000000E+00  0.00000000000E+00 -0.14430345228E+04  0.14430345228E+04  0.50400001928E-02 0. -1.
    10030    2    1    2    0    0  0.00000000000E+00  0.00000000000E+00 -0.63048872010E+03  0.22555803256E+04  0.21656700070E+04 0.  0.
        3    1    3    3  502    0 -0.52106228310E+03  0.49573825606E+03 -0.11583382286E+04  0.13634550904E+04  0.10100000352E+00 0. -1.
       -3    1    3    3    0  502  0.52106228310E+03 -0.49573825606E+03  0.52784950854E+03  0.89212523519E+03  0.10100000352E+00 0.  1.
</event>
<event>
 5   0  0.4174075E-05  0.2182419E+04  0.7818609E-02  0.8525781E-01
        1   -1    0    0  501    0  0.00000000000E+00  0.00000000000E+00  0.22381527027E+04  0.22381527027E+04  0.50400001928E-02 0.  1.
       -1   -1    0    0    0  501  0.00000000000E+00  0.00000000000E+00 -0.53201843990E+03  0.53201843992E+03  0.50400001928E-02 0. -1.
    10030    2    1    2    0    0  0.00000000000E+00  0.00000000000E+00  0.17061342628E+04  0.27701711426E+04  0.21824193082E+04 0.  0.
        5    1    3    3  502    0 -0.70324242362E+03  0.18123518949E+03 -0.18071746309E+03  0.74838291786E+03  0.46999998093E+01 0. -1.
       -5    1    3    3    0  502  0.70324242362E+03 -0.18123518949E+03  0.18868517259E+04  0.20217882248E+04  0.46999998093E+01 0.  1.
</event>
<event>
 5   0  0.3283125E-05  0.2212112E+04  0.7818609E-02  0.8513404E-01
        4   -1    0    0  501    0  0.00000000000E+00  0.00000000000E+00  0.11459951170E+04  0.11459958207E+04  0.12699999809E+01 0. -1.
       -4   -1    0    0    0  501  0.00000000000E+00  0.00000000000E+00 -0.10675072336E+04  0.10675079891E+04  0.12699999809E+01 0.  1.
    10030    2    1    2    0    0  0.00000000000E+00  0.00000000000E+00  0.78487883316E+02  0.22135038098E+04  0.22121118344E+04 0.  0.
        3    1    3    3  502    0  0.30362228144E+03  0.41566348932E+03  0.10188375213E+04  0.11414869825E+04  0.10100000352E+00 0. -1.
       -3    1    3    3    0  502 -0.30362228144E+03 -0.41566348932E+03 -0.94034963798E+03  0.10720168273E+04  0.10100000352E+00 0.  1.
</event>
<event>
 5   0  0.9179618E-05  0.2180436E+04  0.7818609E-02  0.8526615E-01
       -2   -1    0    0    0  501  0.00000000000E+00  0.00000000000E+00  0.11397812954E+04  0.11397812954E+04  0.25500000920E-02 0. -1.
        2   -1    0    0  501    0  0.00000000000E+00  0.00000000000E+00 -0.10428102243E+04  0.10428102243E+04  0.25500000920E-02 0.  1.
    10030    2    1    2    0    0  0.00000000000E+00  0.00000000000E+00  0.96971071039E+02  0.21825915197E+04  0.21804362759E+04 0.  0.
        3    1    3    3  502    0 -0.26928856665E+03  0.33328027067E+03 -0.95499402741E+03  0.10467118388E+04  0.10100000352E+00 0.  1.
       -3    1    3    3    0  502  0.26928856665E+03 -0.33328027067E+03  0.10519650984E+04  0.11358796809E+04  0.10100000352E+00 0. -1.
</event>
<event>
 5   0  0.4174075E-05  0.2201454E+04  0.7818609E-02  0.8517823E-01
        1   -1    0    0  501    0  0.00000000000E+00  0.00000000000E+00  0.12061340060E+04  0.12061340060E+04  0.50400001928E-02 0. -1.
       -1   -1    0    0    0  501  0.00000000000E+00  0.00000000000E+00 -0.10045315221E+04  0.10045315221E+04  0.50400001928E-02 0.  1.
    10030    2    1    2    0    0  0.00000000000E+00  0.00000000000E+00  0.20160248391E+03  0.22106655281E+04  0.22014537278E+04 0.  0.
        5    1    3    3  502    0 -0.61188137754E+03 -0.88614265496E+03  0.32963615157E+03  0.11262014507E+04  0.46999998093E+01 0. -1.
       -5    1    3    3    0  502  0.61188137754E+03  0.88614265496E+03 -0.12803366766E+03  0.10844640774E+04  0.46999998093E+01 0.  1.
</event>
<event>
 5   0  0.9254673E-05  0.2167281E+04  0.7818609E-02  0.8532171E-01
        2   -1    0    0  501    0  0.00000000000E+00  0.00000000000E+00  0.14346483839E+04  0.14346483839E+04  0.25500000920E-02 0.  1.
       -2   -1    0    0    0  501  0.00000000000E+00  0.00000000000E+00 -0.81851222425E+03  0.81851222425E+03  0.25500000920E-02 0. -1.
    10030    2    1    2    0    0  0.00000000000E+00  0.00000000000E+00  0.61613615969E+03  0.22531606082E+04  0.21672814674E+04 0.  0.
        2    1    3    3  502    0  0.16437346815E+03  0.21676374426E+03  0.13985711165E+04  0.14247829048E+04  0.25500000920E-02 0.  1.
       -2    1    3    3    0  502 -0.16437346815E+03 -0.21676374426E+03 -0.78243495681E+03  0.82837770341E+03  0.25500000920E-02 0. -1.
</event>
<event>
 5   0  0.4063293E-05  0.2184267E+04  0.7818609E-02  0.8525005E-01
       -1   -1    0    0    0  501  0.00000000000E+00  0.00000000000E+00  0.82452043135E+03  0.82452043137E+03  0.50400001928E-02 0.  1.
        1   -1    0    0  501    0  0.00000000000E+00  0.00000000000E+00 -0.14466046154E+04  0.14466046154E+04  0.50400001928E-02 0. -1.
    10030    2    1    2    0    0  0.00000000000E+00  0.00000000000E+00 -0.62208418401E+03  0.22711250467E+04  0.21842665236E+04 0.  0.
        1    1    3    3  502    0  0.29164335336E+03  0.85253746563E+03 -0.95273757174E+03  0.13113294233E+04  0.50400001928E-02 0.  1.
       -1    1    3    3    0  502 -0.29164335336E+03 -0.85253746563E+03  0.33065338773E+03  0.95979562340E+03  0.50400001928E-02 0. -1.
</event>
<event>
 5   0  0.3283125E-05  0.2200646E+04  0.7818609E-02  0.8518159E-01
       -3   -1    0    0    0  501  0.00000000000E+00  0.00000000000E+00  0.92870248033E+03  0.92870248583E+03  0.10100000352E+00 0.  1.
        3   -1    0    0  501    0  0.00000000000E+00  0.00000000000E+00 -0.13036578137E+04  0.13036578176E+04  0.10100000352E+00 0. -1.
    10030    2    1    2    0    0  0.00000000000E+00  0.00000000000E+00 -0.37495533334E+03  0.22323603034E+04  0.22006455921E+04 0.  0.
        5    1    3    3  502    0 -0.68412566948E+03 -0.46928380503E+03 -0.92068949519E+03  0.12393330698E+04  0.46999998093E+01 0. -1.
       -5    1    3    3    0  502  0.68412566948E+03  0.46928380503E+03  0.54573416185E+03  0.99302723363E+03  0.46999998093E+01 0.  1.
</event>
<event>
 5   0  0.9179618E-05  0.2208095E+04  0.7818609E-02  0.8515067E-01
       -2   -1    0    0    0  501  0.00000000000E+00  0.00000000000E+00  0.10951743111E+04  0.10951743111E+04  0.25500000920E-02 0. -1.
        2   -1    0    0  501    0  0.00000000000E+00  0.00000000000E+00 -0.11129921458E+04  0.11129921459E+04  0.25500000920E-02 0.  1.
    10030    2    1    2    0    0  0.00000000000E+00  0.00000000000E+00 -0.17817834784E+02  0.22081664569E+04  0.22080945691E+04 0.  0.
        3    1    3    3  502    0  0.33818970755E+03 -0.93287441129E+03 -0.49296336331E+03  0.11079890944E+04  0.10100000352E+00 0.  1.
       -3    1    3    3    0  502 -0.33818970755E+03  0.93287441129E+03  0.47514552853E+03  0.11001773625E+04  0.10100000352E+00 0. -1.
</event>
<event>
 5   0  0.4174030E-05  0.2312693E+04  0.7818609E-02  0.8472933E-01
       -1   -1    0    0    0  501  0.00000000000E+00  0.00000000000E+00  0.11125104637E+04  0.11125104637E+04  0.50400001928E-02 0.  1.
        1   -1    0    0  501    0  0.00000000000E+00  0.00000000000E+00 -0.12019102676E+04  0.12019102676E+04  0.50400001928E-02 0. -1.
    10030    2    1    2    0    0  0.00000000000E+00  0.00000000000E+00 -0.89399803875E+02  0.23144207314E+04  0.23126934507E+04 0.  0.
        2    1    3    3  502    0  0.92898919337E+03  0.55936601639E+03  0.35713017135E+03  0.11416887584E+04  0.25500000920E-02 0.  1.
       -2    1    3    3    0  502 -0.92898919337E+03 -0.55936601639E+03 -0.44652997523E+03  0.11727319730E+04  0.25500000920E-02 0. -1.
</event>
<event>
 5   0  0.4188865E-05  0.2164770E+04  0.7818609E-02  0.8533237E-01
       -1   -1    0    0    0  501  0.00000000000E+00  0.00000000000E+00  0.79844111010E+03  0.79844111012E+03  0.50400001928E-02 0. -1.
        1   -1    0    0  501    0  0.00000000000E+00  0.00000000000E+00 -0.14673052159E+04  0.14673052159E+04  0.50400001928E-02 0.  1.
    10030    2    1    2    0    0  0.00000000000E+00  0.00000000000E+00 -0.66886410581E+03  0.22657463260E+04  0.21647695540E+04 0.  0.
        3    1    3    3  502    0 -0.37514450884E+03  0.30154244664E+03  0.68027203243E+03  0.83332544539E+03  0.10100000352E+00 0. -1.
       -3    1    3    3    0  502  0.37514450884E+03 -0.30154244664E+03 -0.13491361382E+04  0.14324208806E+04  0.10100000352E+00 0.  1.
</event>
<event>
 5   0  0.4174075E-05  0.2283700E+04  0.7818609E-02  0.8484376E-01
        1   -1    0    0  501    0  0.00000000000E+00  0.00000000000E+00  0.69251769479E+03  0.69251769481E+03  0.50400001928E-02 0. -1.
       -1   -1    0    0    0  501  0.00000000000E+00  0.00000000000E+00 -0.18827259033E+04  0.18827259033E+04  0.50400001928E-02 0.  1.
    10030    2    1    2    0    0  0.00000000000E+00  0.00000000000E+00 -0.11902082086E+04  0.25752435982E+04  0.22836996322E+04 0.  0.
        5    1    3    3  502    0  0.32630973932E+03 -0.33469158954E+03 -0.17698791621E+04  0.18305711799E+04  0.46999998093E+01 0.  1.
       -5    1    3    3    0  502 -0.32630973932E+03  0.33469158954E+03  0.57967095359E+03  0.74467241826E+03  0.46999998093E+01 0. -1.
</event>
<event>
 5   0  0.4174030E-05  0.2247626E+04  0.7818609E-02  0.8498863E-01
        1   -1    0    0  501    0  0.00000000000E+00  0.00000000000E+00  0.16090423552E+04  0.16090423553E+04  0.50400001928E-02 0. -1.
       -1   -1    0    0    0  501  0.00000000000E+00  0.00000000000E+00 -0.78491120988E+03  0.78491120989E+03  0.50400001928E-02 0.  1.
    10030    2    1    2    0    0  0.00000000000E+00  0.00000000000E+00  0.82413114537E+03  0.23939535651E+04  0.22476257534E+04 0.  0.
        2    1    3    3  502    0 -0.57089306751E+03 -0.95004413948E+03  0.21436731053E+03  0.11289181128E+04  0.25500000920E-02 0.  1.
       -2    1    3    3    0  502  0.57089306751E+03  0.95004413948E+03  0.60976383483E+03  0.12650354524E+04  0.25500000920E-02 0. -1.
</event>
<event>
 5   0  0.9442578E-05  0.2236577E+04  0.7818609E-02  0.8503356E-01
        2   -1    0    0  501    0  0.00000000000E+00  0.00000000000E+00  0.20939527604E+04  0.20939527604E+04  0.25500000920E-02 0.  1.
       -2   -1    0    0    0  501  0.00000000000E+00  0.00000000000E+00 -0.59722881491E+03  0.59722881491E+03  0.25500000920E-02 0. -1.
    10030    2    1    2    0    0  0.00000000000E+00  0.00000000000E+00  0.14967239455E+04  0.26911815753E+04  0.22365767821E+04 0.  0.
        4    1    3    3  502    0 -0.56092750334E+03 -0.22680052878E+03 -0.38327062220E+03  0.71622351720E+03  0.12699999809E+01 0. -1.
       -4    1    3    3    0  502  0.56092750334E+03  0.22680052878E+03  0.18799945677E+04  0.19749580581E+04  0.12699999809E+01 0.  1.
</event>
<event>
 5   0  0.4133418E-05  0.2271258E+04  0.7818609E-02  0.8489341E-01
        1   -1    0    0  501    0  0.00000000000E+00  0.00000000000E+00  0.80224978248E+03  0.80224978249E+03  0.50400001928E-02 0. -1.
       -1   -1    0    0    0  501  0.00000000000E+00  0.00000000000E+00 -0.16075456789E+04  0.16075456789E+04  0.50400001928E-02 0.  1.
    10030    2    1    2    0    0  0.00000000000E+00  0.00000000000E+00 -0.80529589640E+03  0.24097954614E+04  0.22712579521E+04 0.  0.
        4    1    3    3  502    0  0.55124631530E+02  0.11271344745E+04 -0.26768563773E+03  0.11597965607E+04  0.12699999809E+01 0. -1.
       -4    1    3    3    0  502 -0.55124631530E+02 -0.11271344745E+04 -0.53761025867E+03  0.12499989007E+04  0.12699999809E+01 0.  1.
</event>
<event>
 5   0  0.4174075E-05  0.2128397E+04  0.7818609E-02  0.8548836E-01
       -1   -1    0    0    0  501  0.00000000000E+00  0.00000000000E+00  0.98311995536E+03  0.98311995537E+03  0.50400001928E-02 0.  1.
        1   -1    0    0  501    0  0.00000000000E+00  0.00000000000E+00 -0.11519635533E+04  0.11519635533E+04  0.50400001928E-02 0. -1.
    10030    2    1    2    0    0  0.00000000000E+00  0.00000000000E+00 -0.16884359791E+03  0.21350835086E+04  0.21283969151E+04 0.  0.
        5    1    3    3  502    0 -0.65438991096E+03  0.15178473594E+03 -0.91238227914E+03  0.11330173321E+04  0.46999998093E+01 0. -1.
       -5    1    3    3    0  502  0.65438991096E+03 -0.15178473594E+03  0.74353868123E+03  0.10020661765E+04  0.46999998093E+01 0.  1.
</event>
<event>
 5   0  0.4174030E-05  0.2184003E+04  0.7818609E-02  0.8525116E-01
       -1   -1    0    0    0  501  0.00000000000E+00  0.00000000000E+00  0.91027882250E+03  0.91027882251E+03  0.50400001928E-02 0.  1.
        1   -1    0    0  501    0  0.00000000000E+00  0.00000000000E+00 -0.13100017166E+04  0.13100017166E+04  0.50400001928E-02 0. -1.
    10030    2    1    2    0    0  0.00000000000E+00  0.00000000000E+00 -0.39972289408E+03  0.22202805391E+04  0.21840025825E+04 0.  0.
        2    1    3    3  502    0  0.58973510084E+03  0.15275760105E+03 -0.11211960176E+04  0.12760105344E+04  0.25500000920E-02 0. -1.
       -2    1    3    3    0  502 -0.58973510084E+03 -0.15275760105E+03  0.72147312355E+03  0.94427000474E+03  0.25500000920E-02 0.  1.
</event>
<event>
 5   0  0.9457742E-05  0.2173599E+04  0.7818609E-02  0.8529498E-01
       -2   -1    0    0    0  501  0.00000000000E+00  0.00000000000E+00  0.84521537354E+03  0.84521537354E+03  0.25500000920E-02 0.  1.
        2   -1    0    0  501    0  0.00000000000E+00  0.00000000000E+00 -0.13974339540E+04  0.13974339540E+04  0.25500000920E-02 0. -1.
    10030    2    1    2    0    0  0.00000000000E+00  0.00000000000E+00 -0.55221858050E+03  0.22426493276E+04  0.21735985475E+04 0.  0.
        1    1    3    3  502    0  0.31183674975E+03 -0.20513635112E+03  0.77700670367E+03  0.86201073000E+03  0.50400001928E-02 0.  1.
       -1    1    3    3    0  502 -0.31183674975E+03  0.20513635112E+03 -0.13292252842E+04  0.13806385976E+04  0.50400001928E-02 0. -1.
</event>
<event>
 5   0  0.9179618E-05  0.2182434E+04  0.7818609E-02  0.8525775E-01
       -2   -1    0    0    0  501  0.00000000000E+00  0.00000000000E+00  0.85029127658E+03  0.85029127658E+03  0.25500000920E-02 0.  1.
        2   -1    0    0  501    0  0.00000000000E+00  0.00000000000E+00 -0.14004081428E+04  0.14004081428E+04  0.25500000920E-02 0. -1.
    10030    2    1    2    0    0  0.00000000000E+00  0.00000000000E+00 -0.55011686626E+03  0.22506994194E+04  0.21824342625E+04 0.  0.
        3    1    3    3  502    0 -0.82369348053E+03 -0.62660928698E+03 -0.63177477358E+03  0.12125384625E+04  0.10100000352E+00 0. -1.
       -3    1    3    3    0  502  0.82369348053E+03  0.62660928698E+03  0.81657907319E+02  0.10381609569E+04  0.10100000352E+00 0.  1.
</event>
<event>
 5   0  0.9179618E-05  0.2179427E+04  0.7818609E-02  0.8527040E-01
        2   -1    0    0  501    0  0.00000000000E+00  0.00000000000E+00  0.53746071974E+03  0.53746071975E+03  0.25500000920E-02 0.  1.
       -2   -1    0    0    0  501  0.00000000000E+00  0.00000000000E+00 -0.22094177887E+04  0.22094177887E+04  0.25500000920E-02 0. -1.
    10030    2    1    2    0    0  0.00000000000E+00  0.00000000000E+00 -0.16719570690E+04  0.27468785085E+04  0.21794267824E+04 0.  0.
        3    1    3    3  502    0  0.77463451576E+03  0.66322109536E+03 -0.35183597088E+03  0.10787536396E+04  0.10100000352E+00 0.  1.
       -3    1    3    3    0  502 -0.77463451576E+03 -0.66322109536E+03 -0.13201210981E+04  0.16681248689E+04  0.10100000352E+00 0. -1.
</event>
<event>
 5   0  0.4133418E-05  0.2215914E+04  0.7818609E-02  0.8511833E-01
       -1   -1    0    0    0  501  0.00000000000E+00  0.00000000000E+00  0.94860940842E+03  0.94860940843E+03  0.50400001928E-02 0.  1.
        1   -1    0    0  501    0  0.00000000000E+00  0.00000000000E+00 -0.12940716444E+04  0.12940716445E+04  0.50400001928E-02 0. -1.
    10030    2    1    2    0    0  0.00000000000E+00  0.00000000000E+00 -0.34546223602E+03  0.22426810529E+04  0.22159138405E+04 0.  0.
        4    1    3    3  502    0 -0.10159058616E+04  0.29335412445E+03 -0.50755291457E+03  0.11729164232E+04  0.12699999809E+01 0. -1.
       -4    1    3    3    0  502  0.10159058616E+04 -0.29335412445E+03  0.16209067855E+03  0.10697646297E+04  0.12699999809E+01 0.  1.
</event>
<event>
 5   0  0.9457742E-05  0.2185302E+04  0.7818609E-02  0.8524571E-01
       -2   -1    0    0    0  501  0.00000000000E+00  0.00000000000E+00  0.99219654112E+03  0.99219654112E+03  0.25500000920E-02 0.  1.
        2   -1    0    0  501    0  0.00000000000E+00  0.00000000000E+00 -0.12032758427E+04  0.12032758427E+04  0.25500000920E-02 0. -1.
    10030    2    1    2    0    0  0.00000000000E+00  0.00000000000E+00 -0.21107930162E+03  0.21954723839E+04  0.21853019280E+04 0.  0.
        1    1    3    3  502    0 -0.41954271147E+02 -0.13521062517E+02 -0.12023822282E+04  0.12031899280E+04  0.50400001928E-02 0. -1.
       -1    1    3    3    0  502  0.41954271147E+02  0.13521062517E+02  0.99130292659E+03  0.99228245590E+03  0.50400001928E-02 0.  1.
</event>
<event>
 5   0  0.4174030E-05  0.2226184E+04  0.7818609E-02  0.8507608E-01
       -1   -1    0    0    0  501  0.00000000000E+00  0.00000000000E+00  0.11775685431E+04  0.11775685431E+04  0.50400001928E-02 0.  1.
        1   -1    0    0  501    0  0.00000000000E+00  0.00000000000E+00 -0.10521462470E+04  0.10521462470E+04  0.50400001928E-02 0. -1.
    10030    2    1    2    0    0  0.00000000000E+00  0.00000000000E+00  0.12542229610E+03  0.22297147902E+04  0.22261844697E+04 0.  0.
        2    1    3    3  502    0 -0.82386866496E+03  0.13650329426E+03  0.79980046224E+03  0.11563189464E+04  0.25500000920E-02 0.  1.
       -2    1    3    3    0  502  0.82386866496E+03 -0.13650329426E+03 -0.67437816614E+03  0.10733958438E+04  0.25500000920E-02 0. -1.
</event>
<event>
 5   0  0.4063293E-05  0.2259180E+04  0.7818609E-02  0.8494192E-01
       -1   -1    0    0    0  501  0.00000000000E+00  0.00000000000E+00  0.14265574120E+04  0.14265574121E+04  0.50400001928E-02 0.  1.
        1   -1    0    0  501    0  0.00000000000E+00  0.00000000000E+00 -0.89444253977E+03  0.89444253978E+03  0.50400001928E-02 0. -1.
    10030    2    1    2    0    0  0.00000000000E+00  0.00000000000E+00  0.53211487228E+03  0.23209999518E+04  0.22591800590E+04 0.  0.
        1    1    3    3  502    0 -0.85108293675E+03  0.23879150530E+03  0.98858724597E+03  0.13261479145E+04  0.50400001928E-02 0.  1.
       -1    1    3    3    0  502  0.85108293675E+03 -0.23879150530E+03 -0.45647237369E+03  0.99485203734E+03  0.50400001928E-02 0. -1.
</event>
<event>
 5   0  0.4174075E-05  0.2201174E+04  0.7818609E-02  0.8517940E-01
        1   -1    0    0  501    0  0.00000000000E+00  0.00000000000E+00  0.16022789210E+04  0.16022789210E+04  0.50400001928E-02 0.  1.
       -1   -1    0    0    0  501  0.00000000000E+00  0.00000000000E+00 -0.75598051935E+03  0.75598051937E+03  0.50400001928E-02 0. -1.
    10030    2    1    2    0    0  0.00000000000E+00  0.00000000000E+00  0.84629840165E+03  0.23582594404E+04  0.22011739149E+04 0.  0.
        5    1    3    3  502    0 -0.93173166225E+03  0.10394628075E+02  0.10506410671E+04  0.14043150219E+04  0.46999998093E+01 0.  1.
       -5    1    3    3    0  502  0.93173166225E+03 -0.10394628075E+02 -0.20434266545E+03  0.95394441853E+03  0.46999998093E+01 0. -1.
</event>
<event>
 5   0  0.9254673E-05  0.2134561E+04  0.7818609E-02  0.8546170E-01
       -2   -1    0    0    0  501  0.00000000000E+00  0.00000000000E+00  0.13475587000E+04  0.13475587000E+04  0.25500000920E-02 0. -1.
        2   -1    0    0  501    0  0.00000000000E+00  0.00000000000E+00 -0.84529725860E+03  0.84529725861E+03  0.25500000920E-02 0.  1.
    10030    2    1    2    0    0  0.00000000000E+00  0.00000000000E+00  0.50226144140E+03  0.21928559586E+04  0.21345610087E+04 0.  0.
        2    1    3    3  502    0  0.41994971381E+02  0.55779286784E+03 -0.68264336967E+03  0.88255222576E+03  0.25500000920E-02 0.  1.
       -2    1    3    3    0  502 -0.41994971381E+02 -0.55779286784E+03  0.11849048111E+04  0.13103037329E+04  0.25500000920E-02 0. -1.
</event>
<event>
 5   0  0.9457742E-05  0.2193069E+04  0.7818609E-02  0.8521319E-01
       -2   -1    0    0    0  501  0.00000000000E+00  0.00000000000E+00  0.20488619718E+04  0.20488619718E+04  0.25500000920E-02 0.  1.
        2   -1    0    0  501    0  0.00000000000E+00  0.00000000000E+00 -0.58685636700E+03  0.58685636700E+03  0.25500000920E-02 0. -1.
    10030    2    1    2    0    0  0.00000000000E+00  0.00000000000E+00  0.14620056048E+04  0.26357183388E+04  0.21930688026E+04 0.  0.
        1    1    3    3  502    0 -0.12513804295E+03 -0.66509517292E+03 -0.30591203782E+03  0.74269327030E+03  0.50400001928E-02 0. -1.
       -1    1    3    3    0  502  0.12513804295E+03  0.66509517292E+03  0.17679176426E+04  0.18930250685E+04  0.50400001928E-02 0.  1.
</event>
<event>
 5   0  0.9938176E-05  0.2185599E+04  0.7818609E-02  0.8524446E-01
        2   -1    0    0  501    0  0.00000000000E+00  0.00000000000E+00  0.19319638840E+04  0.19319638840E+04  0.25500000920E-02 0. -1.
       -2   -1    0    0    0  501  0.00000000000E+00  0.00000000000E+00 -0.61813321483E+03  0.61813321484E+03  0.25500000920E-02 0.  1.
    10030    2    1    2    0    0  0.00000000000E+00  0.00000000000E+00  0.13138306692E+04  0.25500970989E+04  0.21855992740E+04 0.  0.
        5    1    3    3  502    0 -0.86876131587E+03 -0.15218512951E+03 -0.95885712019E+02  0.88719935605E+03  0.46999998093E+01 0.  1.
       -5    1    3    3    0  502  0.86876131587E+03  0.15218512951E+03  0.14097163812E+04  0.16628977428E+04  0.46999998093E+01 0. -1.
</event>
<event>
 5   0  0.3283125E-05  0.2173948E+04  0.7818609E-02  0.8529350E-01
        3   -1    0    0  501    0  0.00000000000E+00  0.00000000000E+00  0.15252112234E+04  0.15252112268E+04  0.10100000352E+00 0. -1.
       -3   -1    0    0    0  501  0.00000000000E+00  0.00000000000E+00 -0.77465492138E+03  0.77465492797E+03  0.10100000352E+00 0.  1.
    10030    2    1    2    0    0  0.00000000000E+00  0.00000000000E+00  0.75055630203E+03  0.22998661547E+04  0.21739479219E+04 0.  0.
        1    1    3    3  502    0  0.95194237481E+03 -0.52178935623E+03  0.43374182874E+03  0.11690125710E+04  0.50400001928E-02 0. -1.
       -1    1    3    3    0  502 -0.95194237481E+03  0.52178935623E+03  0.31681447329E+03  0.11308535837E+04  0.50400001928E-02 0.  1.
</event>
<event>
 5   0  0.4174030E-05  0.2149955E+04  0.7818609E-02  0.8539552E-01
       -1   -1    0    0    0  501  0.00000000000E+00  0.00000000000E+00  0.10895012499E+04  0.10895012500E+04  0.50400001928E-02 0. -1.
        1   -1    0    0  501    0  0.00000000000E+00  0.00000000000E+00 -0.10606469660E+04  0.10606469660E+04  0.50400001928E-02 0.  1.
    10030    2    1    2    0    0  0.00000000000E+00  0.00000000000E+00  0.28854283984E+02  0.21501482159E+04  0.21499545997E+04 0.  0.
        2    1    3    3  502    0 -0.16490076362E+02 -0.85641127566E+03 -0.63514193489E+03  0.10663571040E+04  0.25500000920E-02 0.  1.
       -2    1    3    3    0  502  0.16490076362E+02  0.85641127566E+03  0.66399621887E+03  0.10837911120E+04  0.25500000920E-02 0. -1.
</event>
<event>
 5   0  0.9442578E-05  0.2110561E+04  0.7818609E-02  0.8556605E-01
       -2   -1    0    0    0  501  0.00000000000E+00  0.00000000000E+00  0.15030478789E+04  0.15030478789E+04  0.25500000920E-02 0.  1.
        2   -1    0    0  501    0  0.00000000000E+00  0.00000000000E+00 -0.74090571791E+03  0.74090571792E+03  0.25500000920E-02 0. -1.
    10030    2    1    2    0    0  0.00000000000E+00  0.00000000000E+00  0.76214216097E+03  0.22439535968E+04  0.21105608428E+04 0.  0.
        4    1    3    3  502    0 -0.82509684829E+03  0.65473902007E+03  0.31260247784E+03  0.10987219464E+04  0.12699999809E+01 0. -1.
       -4    1    3    3    0  502  0.82509684829E+03 -0.65473902007E+03  0.44953968313E+03  0.11452316504E+04  0.12699999809E+01 0.  1.
</event>
<event>
 5   0  0.9457742E-05  0.2299041E+04  0.7818609E-02  0.8478299E-01
        2   -1    0    0  501    0  0.00000000000E+00  0.00000000000E+00  0.12244820260E+04  0.12244820260E+04  0.25500000920E-02 0. -1.
       -2   -1    0    0    0  501  0.00000000000E+00  0.00000000000E+00 -0.10791477831E+04  0.10791477831E+04  0.25500000920E-02 0.  1.
    10030    2    1    2    0    0  0.00000000000E+00  0.00000000000E+00  0.14533424289E+03  0.23036298091E+04  0.22990407250E+04 0.  0.
        1    1    3    3  502    0 -0.51621625126E+03 -0.10232629480E+04  0.16144864011E+03  0.11574160627E+04  0.50400001928E-02 0. -1.
       -1    1    3    3    0  502  0.51621625126E+03  0.10232629480E+04 -0.16114397220E+02  0.11462137464E+04  0.50400001928E-02 0.  1.
</event>
<event>
 5   0  0.4063293E-05  0.2219558E+04  0.7818609E-02  0.8510332E-01
        1   -1    0    0  501    0  0.00000000000E+00  0.00000000000E+00  0.79923691617E+03  0.79923691618E+03  0.50400001928E-02 0. -1.
       -1   -1    0    0    0  501  0.00000000000E+00  0.00000000000E+00 -0.15409814803E+04  0.15409814803E+04  0.50400001928E-02 0.  1.
    10030    2    1    2    0    0  0.00000000000E+00  0.00000000000E+00 -0.74174456414E+03  0.23402183965E+04  0.22195578715E+04 0.  0.
        1    1    3    3  502    0 -0.13932204436E+03  0.48916340991E+03 -0.14108594802E+04  0.14997386261E+04  0.50400001928E-02 0.  1.
       -1    1    3    3    0  502  0.13932204436E+03 -0.48916340991E+03  0.66911491604E+03  0.84047977045E+03  0.50400001928E-02 0. -1.
</event>
<event>
 5   0  0.4174075E-05  0.2192416E+04  0.7818609E-02  0.8521591E-01
        1   -1    0    0  501    0  0.00000000000E+00  0.00000000000E+00  0.15417931841E+04  0.15417931841E+04  0.50400001928E-02 0. -1.
       -1   -1    0    0    0  501  0.00000000000E+00  0.00000000000E+00 -0.77939928645E+03  0.77939928647E+03  0.50400001928E-02 0.  1.
    10030    2    1    2    0    0  0.00000000000E+00  0.00000000000E+00  0.76239389762E+03  0.23211924706E+04  0.21924164819E+04 0.  0.
        5    1    3    3  502    0  0.30863227456E+03 -0.53552202592E+03 -0.57730374923E+03  0.84577741162E+03  0.46999998093E+01 0.  1.
       -5    1    3    3    0  502 -0.30863227456E+03  0.53552202592E+03  0.13396976468E+04  0.14754150589E+04  0.46999998093E+01 0. -1.
</event>
<event>
 5   0  0.9938176E-05  0.2207019E+04  0.7818609E-02  0.8515512E-01
        2   -1    0    0  501    0  0.00000000000E+00  0.00000000000E+00  0.12361280098E+04  0.12361280099E+04  0.25500000920E-02 0. -1.
       -2   -1    0    0    0  501  0.00000000000E+00  0.00000000000E+00 -0.98511910053E+03  0.98511910053E+03  0.25500000920E-02 0.  1.
    10030    2    1    2    0    0  0.00000000000E+00  0.00000000000E+00  0.25100890932E+03  0.22212471104E+04  0.22070190876E+04 0.  0.
        5    1    3    3  502    0  0.83860329329E+03 -0.91687455682E+02 -0.59045287006E+03  0.10297178035E+04  0.46999998093E+01 0.  1.
       -5    1    3    3    0  502 -0.83860329329E+03  0.91687455682E+02  0.84146177938E+03  0.11915293069E+04  0.46999998093E+01 0. -1.
</event>
<event>
 5   0  0.9938176E-05  0.2262822E+04  0.7818609E-02  0.8492726E-01
        2   -1    0    0  501    0  0.00000000000E+00  0.00000000000E+00  0.19417566221E+04  0.19417566221E+04  0.25500000920E-02 0. -1.
       -2   -1    0    0    0  501  0.00000000000E+00  0.00000000000E+00 -0.65924398074E+03  0.65924398074E+03  0.25500000920E-02 0.  1.
    10030    2    1    2    0    0  0.00000000000E+00  0.00000000000E+00  0.12825126413E+04  0.26010006028E+04  0.22628224545E+04 0.  0.
        5    1    3    3  502    0  0.10354996592E+04  0.19959353302E+03  0.11123514531E+04  0.15327899295E+04  0.46999998093E+01 0. -1.
       -5    1    3    3    0  502 -0.10354996592E+04 -0.19959353302E+03  0.17016118824E+03  0.10682106734E+04  0.46999998093E+01 0.  1.
</event>
<event>
 5   0  0.9938176E-05  0.2207090E+04  0.7818609E-02  0.8515483E-01
        2   -1    0    0  501    0  0.00000000000E+00  0.00000000000E+00  0.21324180485E+04  0.21324180486E+04  0.25500000920E-02 0. -1.
       -2   -1    0    0    0  501  0.00000000000E+00  0.00000000000E+00 -0.57109402476E+03  0.57109402477E+03  0.25500000920E-02 0.  1.
    10030    2    1    2    0    0  0.00000000000E+00  0.00000000000E+00  0.15613240238E+04  0.27035120733E+04  0.22070896727E+04 0.  0.
        5    1    3    3  502    0 -0.12644508637E+03  0.44762260747E+03  0.20064621474E+04  0.20596763818E+04  0.46999998093E+01 0. -1.
       -5    1    3    3    0  502  0.12644508637E+03 -0.44762260747E+03 -0.44513812364E+03  0.64383569154E+03  0.46999998093E+01 0.  1.
</event>
<event>
 5   0  0.9442578E-05  0.2236389E+04  0.7818609E-02  0.8503433E-01
        2   -1    0    0  501    0  0.00000000000E+00  0.00000000000E+00  0.14446820662E+04  0.14446820662E+04  0.25500000920E-02 0. -1.
       -2   -1    0    0    0  501  0.00000000000E+00  0.00000000000E+00 -0.86549043509E+03  0.86549043509E+03  0.25500000920E-02 0.  1.
    10030    2    1    2    0    0  0.00000000000E+00  0.00000000000E+00  0.57919163115E+03  0.23101725013E+04  0.22363886157E+04 0.  0.
        4    1    3    3  502    0  0.11669936205E+03 -0.92668259937E+03  0.92469508067E+03  0.13143142646E+04  0.12699999809E+01 0. -1.
       -4    1    3    3    0  502 -0.11669936205E+03  0.92668259937E+03 -0.34550344953E+03  0.99585823670E+03  0.12699999809E+01 0.  1.
</event>
<event>
 5   0  0.9442578E-05  0.2147586E+04  0.7818609E-02  0.8540566E-01
       -2   -1    0    0    0  501  0.00000000000E+00  0.00000000000E+00  0.47573368856E+03  0.47573368856E+03  0.25500000920E-02 0.  1.
        2   -1    0    0  501    0  0.00000000000E+00  0.00000000000E+00 -0.24236905879E+04  0.24236905879E+04  0.25500000920E-02 0. -1.
    10030    2    1    2    0    0  0.00000000000E+00  0.00000000000E+00 -0.19479568994E+04  0.28994242765E+04  0.21475858663E+04 0.  0.
        4    1    3    3  502    0  0.79588567371E+03  0.64217503591E+03 -0.53192728608E+03  0.11527233115E+04  0.12699999809E+01 0.  1.
       -4    1    3    3    0  502 -0.79588567371E+03 -0.64217503591E+03 -0.14160296133E+04  0.17467009650E+04  0.12699999809E+01 0. -1.
</event>
<event>
 5   0  0.4174075E-05  0.2249981E+04  0.7818609E-02  0.8497908E-01
        1   -1    0    0  501    0  0.00000000000E+00  0.00000000000E+00  0.18736119611E+04  0.18736119611E+04  0.50400001928E-02 0.  1.
       -1   -1    0    0    0  501  0.00000000000E+00  0.00000000000E+00 -0.67548883082E+03  0.67548883084E+03  0.50400001928E-02 0. -1.
    10030    2    1    2    0    0  0.00000000000E+00  0.00000000000E+00  0.11981231303E+04  0.25491007919E+04  0.22499812915E+04 0.  0.
        5    1    3    3  502    0  0.31973398036E+03 -0.10761773025E+04  0.51740741901E+03  0.12361714815E+04  0.46999998093E+01 0. -1.
       -5    1    3    3    0  502 -0.31973398036E+03  0.10761773025E+04  0.68071571125E+03  0.13129293104E+04  0.46999998093E+01 0.  1.
</event>
<event>
 5   0  0.9179618E-05  0.2199884E+04  0.7818609E-02  0.8518477E-01
        2   -1    0    0  501    0  0.00000000000E+00  0.00000000000E+00  0.16524398433E+04  0.16524398433E+04  0.25500000920E-02 0. -1.
       -2   -1    0    0    0  501  0.00000000000E+00  0.00000000000E+00 -0.73217301272E+03  0.73217301272E+03  0.25500000920E-02 0.  1.
    10030    2    1    2    0    0  0.00000000000E+00  0.00000000000E+00  0.92026683061E+03  0.23846128561E+04  0.21998835046E+04 0.  0.
        3    1    3    3  502    0 -0.90211728980E+03  0.48495984969E+03  0.25367006219E+02  0.10245219156E+04  0.10100000352E+00 0.  1.
       -3    1    3    3    0  502  0.90211728980E+03 -0.48495984969E+03  0.89489982440E+03  0.13600909404E+04  0.10100000352E+00 0. -1.
</event>
<event>
 5   0  0.9254673E-05  0.2266135E+04  0.7818609E-02  0.8491394E-01
       -2   -1    0    0    0  501  0.00000000000E+00  0.00000000000E+00  0.65288310749E+03  0.65288310749E+03  0.25500000920E-02 0.  1.
        2   -1    0    0  501    0  0.00000000000E+00  0.00000000000E+00 -0.19664197409E+04  0.19664197409E+04  0.25500000920E-02 0. -1.
    10030    2    1    2    0    0  0.00000000000E+00  0.00000000000E+00 -0.13135366335E+04  0.26193028484E+04  0.22661352397E+04 0.  0.
        2    1    3    3  502    0 -0.66340414683E+03  0.87396401717E+03 -0.33000095244E+03  0.11457830484E+04  0.25500000920E-02 0.  1.
       -2    1    3    3    0  502  0.66340414683E+03 -0.87396401717E+03 -0.98353568101E+03  0.14735198001E+04  0.25500000920E-02 0. -1.
</event>
<event>
 5   0  0.4188865E-05  0.2087472E+04  0.7818609E-02  0.8566782E-01
       -1   -1    0    0    0  501  0.00000000000E+00  0.00000000000E+00  0.20995771462E+04  0.20995771462E+04  0.50400001928E-02 0.  1.
        1   -1    0    0  501    0  0.00000000000E+00  0.00000000000E+00 -0.51885917149E+03  0.51885917152E+03  0.50400001928E-02 0. -1.
    10030    2    1    2    0    0  0.00000000000E+00  0.00000000000E+00  0.15807179747E+04  0.26184363177E+04  0.20874720200E+04 0.  0.
        3    1    3    3  502    0 -0.79885176573E+03  0.54002215984E+03  0.28924860126E+03  0.10067039487E+04  0.10100000352E+00 0. -1.
       -3    1    3    3    0  502  0.79885176573E+03 -0.54002215984E+03  0.12914693734E+04  0.16117323691E+04  0.10100000352E+00 0.  1.
</event>
<event>
 5   0  0.9938176E-05  0.2191217E+04  0.7818609E-02  0.8522093E-01
        2   -1    0    0  501    0  0.00000000000E+00  0.00000000000E+00  0.92693258966E+03  0.92693258966E+03  0.25500000920E-02 0.  1.
       -2   -1    0    0    0  501  0.00000000000E+00  0.00000000000E+00 -0.12949787328E+04  0.12949787328E+04  0.25500000920E-02 0. -1.
    10030    2    1    2    0    0  0.00000000000E+00  0.00000000000E+00 -0.36804614317E+03  0.22219113225E+04  0.21912170047E+04 0.  0.
        5    1    3    3  502    0 -0.10329655051E+04 -0.36304807693E+03 -0.14456448917E+03  0.11044195862E+04  0.46999998093E+01 0. -1.
       -5    1    3    3    0  502  0.10329655051E+04  0.36304807693E+03 -0.22348165401E+03  0.11174917363E+04  0.46999998093E+01 0.  1.
</event>
<event>
 5   0  0.9254673E-05  0.2223553E+04  0.7818609E-02  0.8508688E-01
        2   -1    0    0  501    0  0.00000000000E+00  0.00000000000E+00  0.10160252823E+04  0.10160252823E+04  0.25500000920E-02 0.  1.
       -2   -1    0    0    0  501  0.00000000000E+00  0.00000000000E+00 -0.12165513678E+04  0.12165513678E+04  0.25500000920E-02 0. -1.
    10030    2    1    2    0    0  0.00000000000E+00  0.00000000000E+00 -0.20052608555E+03  0.22325766501E+04  0.22235529649E+04 0.  0.
        2    1    3    3  502    0  0.41781198240E+03  0.15966532927E+03 -0.11222281511E+04  0.12080794234E+04  0.25500000920E-02 0. -1.
       -2    1    3    3    0  502 -0.41781198240E+03 -0.15966532927E+03  0.92170206556E+03  0.10244972268E+04  0.25500000920E-02 0.  1.
</event>
<event>
 5   0  0.4063293E-05  0.2203188E+04  0.7818609E-02  0.8517103E-01
       -1   -1    0    0    0  501  0.00000000000E+00  0.00000000000E+00  0.85718882029E+03  0.85718882030E+03  0.50400001928E-02 0. -1.
        1   -1    0    0  501    0  0.00000000000E+00  0.00000000000E+00 -0.14156844694E+04  0.14156844694E+04  0.50400001928E-02 0.  1.
    10030    2    1    2    0    0  0.00000000000E+00  0.00000000000E+00 -0.55849564909E+03  0.22728732897E+04  0.22031876000E+04 0.  0.
        1    1    3    3  502    0  0.10462982375E+04  0.34056574584E+03 -0.22481657310E+03  0.11230616726E+04  0.50400001928E-02 0.  1.
       -1    1    3    3    0  502 -0.10462982375E+04 -0.34056574584E+03 -0.33367907599E+03  0.11498116171E+04  0.50400001928E-02 0. -1.
</event>
<event>
 5   0  0.9938176E-05  0.2210205E+04  0.7818609E-02  0.8514193E-01
        2   -1    0    0  501    0  0.00000000000E+00  0.00000000000E+00  0.21423940848E+04  0.21423940848E+04  0.25500000920E-02 0.  1.
       -2   -1    0    0    0  501  0.00000000000E+00  0.00000000000E+00 -0.57004055949E+03  0.57004055950E+03  0.25500000920E-02 0. -1.
    10030    2    1    2    0    0  0.00000000000E+00  0.00000000000E+00  0.15723535253E+04  0.27124346443E+04  0.22102049885E+04 0.  0.
        5    1    3    3  502    0  0.88260467558E+03 -0.47104705417E+03  0.13622614115E+04  0.16901640701E+04  0.46999998093E+01 0.  1.
       -5    1    3    3    0  502 -0.88260467558E+03  0.47104705417E+03  0.21009211380E+03  0.10222705742E+04  0.46999998093E+01 0. -1.
</event>
<event>
 5   0  0.3283125E-05  0.2117588E+04  0.7818609E-02  0.8553535E-01
        4   -1    0    0  501    0  0.00000000000E+00  0.00000000000E+00  0.11443964785E+04  0.11443971832E+04  0.12699999809E+01 0.  1.
       -4   -1    0    0    0  501  0.00000000000E+00  0.00000000000E+00 -0.97959340475E+03  0.97959422800E+03  0.12699999809E+01 0. -1.
    10030    2    1    2    0    0  0.00000000000E+00  0.00000000000E+00  0.16480307377E+03  0.21239914112E+04  0.21175881237E+04 0.  0.
        1    1    3    3  502    0 -0.35010388165E+03  0.37856644071E+03 -0.84514316309E+03  0.99002638557E+03  0.50400001928E-02 0. -1.
       -1    1    3    3    0  502  0.35010388165E+03 -0.37856644071E+03  0.10099462369E+04  0.11339650256E+04  0.50400001928E-02 0.  1.
</event>
<event>
 5   0  0.9179618E-05  0.2207697E+04  0.7818609E-02  0.8515231E-01
       -2   -1    0    0    0  501  0.00000000000E+00  0.00000000000E+00  0.15999319834E+04  0.15999319834E+04  0.25500000920E-02 0.  1.
        2   -1    0    0  501    0  0.00000000000E+00  0.00000000000E+00 -0.76158362640E+03  0.76158362641E+03  0.25500000920E-02 0. -1.
    10030    2    1    2    0    0  0.00000000000E+00  0.00000000000E+00  0.83834835699E+03  0.23615156098E+04  0.22076974448E+04 0.  0.
        3    1    3    3  502    0  0.42529919393E+03  0.19798847164E+03  0.14879933556E+04  0.15601932816E+04  0.10100000352E+00 0.  1.
       -3    1    3    3    0  502 -0.42529919393E+03 -0.19798847164E+03 -0.64964499864E+03  0.80132232823E+03  0.10100000352E+00 0. -1.
</event>
<event>
 5   0  0.4174030E-05  0.2210234E+04  0.7818609E-02  0.8514181E-01
       -1   -1    0    0    0  501  0.00000000000E+00  0.00000000000E+00  0.90326604335E+03  0.90326604337E+03  0.50400001928E-02 0.  1.
        1   -1    0    0  501    0  0.00000000000E+00  0.00000000000E+00 -0.13520748444E+04  0.13520748444E+04  0.50400001928E-02 0. -1.
    10030    2    1    2    0    0  0.00000000000E+00  0.00000000000E+00 -0.44880880101E+03  0.22553408877E+04  0.22102337388E+04 0.  0.
        2    1    3    3  502    0 -0.65753872626E+03  0.80066102412E+03  0.16797947456E+03  0.10495867549E+04  0.25500000920E-02 0. -1.
       -2    1    3    3    0  502  0.65753872626E+03 -0.80066102412E+03 -0.61678827557E+03  0.12057541329E+04  0.25500000920E-02 0.  1.
</event>
<event>
 5   0  0.4174075E-05  0.2242433E+04  0.7818609E-02  0.8500971E-01
       -1   -1    0    0    0  501  0.00000000000E+00  0.00000000000E+00  0.73106575367E+03  0.73106575369E+03  0.50400001928E-02 0.  1.
        1   -1    0    0  501    0  0.00000000000E+00  0.00000000000E+00 -0.17195807540E+04  0.17195807540E+04  0.50400001928E-02 0. -1.
    10030    2    1    2    0    0  0.00000000000E+00  0.00000000000E+00 -0.98851500035E+03  0.24506465077E+04  0.22424331428E+04 0.  0.
        5    1    3    3  502    0 -0.69045420655E+03  0.59494737561E+02 -0.14574794337E+04  0.16138571884E+04  0.46999998093E+01 0. -1.
       -5    1    3    3    0  502  0.69045420655E+03 -0.59494737561E+02  0.46896443331E+03  0.83678931927E+03  0.46999998093E+01 0.  1.
</event>
<event>
 5   0  0.9254673E-05  0.2152324E+04  0.7818609E-02  0.8538538E-01
       -2   -1    0    0    0  501  0.00000000000E+00  0.00000000000E+00  0.78921628189E+03  0.78921628189E+03  0.25500000920E-02 0.  1.
        2   -1    0    0  501    0  0.00000000000E+00  0.00000000000E+00 -0.14674364761E+04  0.14674364761E+04  0.25500000920E-02 0. -1.
    10030    2    1    2    0    0  0.00000000000E+00  0.00000000000E+00 -0.67822019418E+03  0.22566527580E+04  0.21523241016E+04 0.  0.
        2    1    3    3  502    0 -0.35290873952E+03 -0.62106823075E+03  0.50479922841E+03  0.87469571091E+03  0.25500000920E-02 0.  1.
       -2    1    3    3    0  502  0.35290873952E+03  0.62106823075E+03 -0.11830194226E+04  0.13819570471E+04  0.25500000920E-02 0. -1.
</event>
<event>
 5   0  0.9457742E-05  0.2196355E+04  0.7818609E-02  0.8519947E-01
       -2   -1    0    0    0  501  0.00000000000E+00  0.00000000000E+00  0.11075249330E+04  0.11075249330E+04  0.25500000920E-02 0.  1.
        2   -1    0    0  501    0  0.00000000000E+00  0.00000000000E+00 -0.10889085957E+04  0.10889085957E+04  0.25500000920E-02 0. -1.
    10030    2    1    2    0    0  0.00000000000E+00  0.00000000000E+00  0.18616337266E+02  0.21964335288E+04  0.21963546340E+04 0.  0.
        1    1    3    3  502    0  0.18888681636E+03 -0.46213708902E+03  0.98747647539E+03  0.11065074369E+04  0.50400001928E-02 0.  1.
       -1    1    3    3    0  502 -0.18888681636E+03  0.46213708902E+03 -0.96886013812E+03  0.10899260919E+04  0.50400001928E-02 0. -1.
</event>
<event>
 5   0  0.4133418E-05  0.2189652E+04  0.7818609E-02  0.8522747E-01
        1   -1    0    0  501    0  0.00000000000E+00  0.00000000000E+00  0.17697034340E+04  0.17697034340E+04  0.50400001928E-02 0. -1.
       -1   -1    0    0    0  501  0.00000000000E+00  0.00000000000E+00 -0.67731372834E+03  0.67731372836E+03  0.50400001928E-02 0.  1.
    10030    2    1    2    0    0  0.00000000000E+00  0.00000000000E+00  0.10923897056E+04  0.24470171623E+04  0.21896524208E+04 0.  0.
        4    1    3    3  502    0  0.90545705452E+03 -0.56713929538E+03  0.27905128574E+03  0.11042511901E+04  0.12699999809E+01 0.  1.
       -4    1    3    3    0  502 -0.90545705452E+03  0.56713929538E+03  0.81333841989E+03  0.13427659722E+04  0.12699999809E+01 0. -1.
</event>
<event>
 5   0  0.4188865E-05  0.2174598E+04  0.7818609E-02  0.8529076E-01
        1   -1    0    0  501    0  0.00000000000E+00  0.00000000000E+00  0.11644044239E+04  0.11644044239E+04  0.50400001928E-02 0. -1.
       -1   -1    0    0    0  501  0.00000000000E+00  0.00000000000E+00 -0.10152992291E+04  0.10152992292E+04  0.50400001928E-02 0.  1.
    10030    2    1    2    0    0  0.00000000000E+00  0.00000000000E+00  0.14910519479E+03  0.21797036531E+04  0.21745978148E+04 0.  0.
        3    1    3    3  502    0  0.10837756730E+02 -0.87828751265E+03  0.71692586716E+03  0.11337941264E+04  0.10100000352E+00 0. -1.
       -3    1    3    3    0  502 -0.10837756730E+02  0.87828751265E+03 -0.56782067238E+03  0.10459095267E+04  0.10100000352E+00 0.  1.
</event>
<event>
 5   0  0.9254673E-05  0.2264604E+04  0.7818609E-02  0.8492010E-01
       -2   -1    0    0    0  501  0.00000000000E+00  0.00000000000E+00  0.11297168183E+04  0.11297168183E+04  0.25500000920E-02 0. -1.
        2   -1    0    0  501    0  0.00000000000E+00  0.00000000000E+00 -0.11348927587E+04  0.11348927587E+04  0.25500000920E-02 0.  1.
    10030    2    1    2    0    0  0.00000000000E+00  0.00000000000E+00 -0.51759403275E+01  0.22646095770E+04  0.22646036620E+04 0.  0.
        2    1    3    3  502    0 -0.32169816020E+03 -0.83490662887E+03 -0.69652684846E+03  0.11338908395E+04  0.25500000920E-02 0.  1.
       -2    1    3    3    0  502  0.32169816020E+03  0.83490662887E+03  0.69135090813E+03  0.11307187375E+04  0.25500000920E-02 0. -1.
</event>
<event>
 5   0  0.4063293E-05  0.2205670E+04  0.7818609E-02  0.8516072E-01
       -1   -1    0    0    0  501  0.00000000000E+00  0.00000000000E+00  0.49433438337E+03  0.49433438340E+03  0.50400001928E-02 0.  1.
        1   -1    0    0  501    0  0.00000000000E+00  0.00000000000E+00 -0.24603684964E+04  0.24603684964E+04  0.50400001928E-02 0. -1.
    10030    2    1    2    0    0  0.00000000000E+00  0.00000000000E+00 -0.19660341131E+04  0.29547028798E+04  0.22056697337E+04 0.  0.
        1    1    3    3  502    0 -0.10863142603E+04  0.47811306093E+02 -0.73644378543E+03  0.13132836869E+04  0.50400001928E-02 0.  1.
       -1    1    3    3    0  502  0.10863142603E+04 -0.47811306093E+02 -0.12295903276E+04  0.16414191929E+04  0.50400001928E-02 0. -1.
</event>
<event>
 5   0  0.4063293E-05  0.2210592E+04  0.7818609E-02  0.8514033E-01
       -1   -1    0    0    0  501  0.00000000000E+00  0.00000000000E+00  0.78056326888E+03  0.78056326889E+03  0.50400001928E-02 0. -1.
        1   -1    0    0  501    0  0.00000000000E+00  0.00000000000E+00 -0.15651245721E+04  0.15651245721E+04  0.50400001928E-02 0.  1.
    10030    2    1    2    0    0  0.00000000000E+00  0.00000000000E+00 -0.78456130321E+03  0.23456878410E+04  0.22105915518E+04 0.  0.
        1    1    3    3  502    0  0.48099799952E+03  0.22069491832E+03 -0.14219505880E+04  0.15172372251E+04  0.50400001928E-02 0.  1.
       -1    1    3    3    0  502 -0.48099799952E+03 -0.22069491832E+03  0.63738928481E+03  0.82845061586E+03  0.50400001928E-02 0. -1.
</event>
<event>
 5   0  0.4174030E-05  0.2202806E+04  0.7818609E-02  0.8517261E-01
        1   -1    0    0  501    0  0.00000000000E+00  0.00000000000E+00  0.13890857410E+04  0.13890857410E+04  0.50400001928E-02 0.  1.
       -1   -1    0    0    0  501  0.00000000000E+00  0.00000000000E+00 -0.87329983498E+03  0.87329983500E+03  0.50400001928E-02 0. -1.
    10030    2    1    2    0    0  0.00000000000E+00  0.00000000000E+00  0.51578590603E+03  0.22623855760E+04  0.22028058003E+04 0.  0.
        2    1    3    3  502    0  0.59461022030E+03 -0.76263727244E+03  0.79932456947E+03  0.12546301012E+04  0.25500000920E-02 0.  1.
       -2    1    3    3    0  502 -0.59461022030E+03  0.76263727244E+03 -0.28353866344E+03  0.10077554748E+04  0.25500000920E-02 0. -1.
</event>
<event>
 5   0  0.9442578E-05  0.2149736E+04  0.7818609E-02  0.8539645E-01
       -2   -1    0    0    0  501  0.00000000000E+00  0.00000000000E+00  0.82370313663E+03  0.82370313663E+03  0.25500000920E-02 0.  1.
        2   -1    0    0  501    0  0.00000000000E+00  0.00000000000E+00 -0.14026179816E+04  0.14026179816E+04  0.25500000920E-02 0. -1.
    10030    2    1    2    0    0  0.00000000000E+00  0.00000000000E+00 -0.57891484493E+03  0.22263211182E+04  0.21497356404E+04 0.  0.
        4    1    3    3  502    0  0.32007238363E+03 -0.32905689876E+03  0.71708026437E+03  0.85142850072E+03  0.12699999809E+01 0.  1.
       -4    1    3    3    0  502 -0.32007238363E+03  0.32905689876E+03 -0.12959951093E+04  0.13748926175E+04  0.12699999809E+01 0. -1.
</event>
<event>
 5   0  0.3283125E-05  0.2196615E+04  0.7818609E-02  0.8519838E-01
       -4   -1    0    0    0  501  0.00000000000E+00  0.00000000000E+00  0.15577753168E+04  0.15577758344E+04  0.12699999809E+01 0.  1.
        4   -1    0    0  501    0  0.00000000000E+00  0.00000000000E+00 -0.77435902823E+03  0.77436006967E+03  0.12699999809E+01 0. -1.
    10030    2    1    2    0    0  0.00000000000E+00  0.00000000000E+00  0.78341628852E+03  0.23321359041E+04  0.21966148488E+04 0.  0.
        5    1    3    3  502    0 -0.90718713917E+03 -0.26082299567E+03 -0.20439385368E+03  0.96582404090E+03  0.46999998093E+01 0. -1.
       -5    1    3    3    0  502  0.90718713917E+03  0.26082299567E+03  0.98781014220E+03  0.13663118632E+04  0.46999998093E+01 0.  1.
</event>
<event>
 5   0  0.9442578E-05  0.2207980E+04  0.7818609E-02  0.8515114E-01
       -2   -1    0    0    0  501  0.00000000000E+00  0.00000000000E+00  0.96353367113E+03  0.96353367114E+03  0.25500000920E-02 0. -1.
        2   -1    0    0  501    0  0.00000000000E+00  0.00000000000E+00 -0.12649207700E+04  0.12649207700E+04  0.25500000920E-02 0.  1.
    10030    2    1    2    0    0  0.00000000000E+00  0.00000000000E+00 -0.30138709882E+03  0.22284544411E+04  0.22079798488E+04 0.  0.
        4    1    3    3  502    0 -0.39624041786E+03 -0.89533442927E+03 -0.66548405464E+03  0.11838500111E+04  0.12699999809E+01 0.  1.
       -4    1    3    3    0  502  0.39624041786E+03  0.89533442927E+03  0.36409695581E+03  0.10446044300E+04  0.12699999809E+01 0. -1.
</event>
<event>
 5   0  0.9457742E-05  0.2196943E+04  0.7818609E-02  0.8519702E-01
        2   -1    0    0  501    0  0.00000000000E+00  0.00000000000E+00  0.14982755873E+04  0.14982755873E+04  0.25500000920E-02 0. -1.
       -2   -1    0    0    0  501  0.00000000000E+00  0.00000000000E+00 -0.80535194274E+03  0.80535194275E+03  0.25500000920E-02 0.  1.
    10030    2    1    2    0    0  0.00000000000E+00  0.00000000000E+00  0.69292364458E+03  0.23036275301E+04  0.21969425619E+04 0.  0.
        1    1    3    3  502    0 -0.43322656890E+03  0.95413338236E+03  0.69198345471E+03  0.12557455447E+04  0.50400001928E-02 0. -1.
       -1    1    3    3    0  502  0.43322656890E+03 -0.95413338236E+03  0.94018986402E+00  0.10478819854E+04  0.50400001928E-02 0.  1.
</event>
<event>
 5   0  0.3283125E-05  0.2204623E+04  0.7818609E-02  0.8516506E-01
        4   -1    0    0  501    0  0.00000000000E+00  0.00000000000E+00  0.18007545598E+04  0.18007550077E+04  0.12699999809E+01 0. -1.
       -4   -1    0    0    0  501  0.00000000000E+00  0.00000000000E+00 -0.67476647543E+03  0.67476767058E+03  0.12699999809E+01 0.  1.
    10030    2    1    2    0    0  0.00000000000E+00  0.00000000000E+00  0.11259880844E+04  0.24755226783E+04  0.22046231797E+04 0.  0.
        4    1    3    3  502    0 -0.52746105049E+02 -0.96418373932E+03  0.11599774405E+04  0.15092984165E+04  0.12699999809E+01 0. -1.
       -4    1    3    3    0  502  0.52746105049E+02  0.96418373932E+03 -0.33989356056E+02  0.96622426175E+03  0.12699999809E+01 0.  1.
</event>
<event>
 5   0  0.9179618E-05  0.2287518E+04  0.7818609E-02  0.8482859E-01
        2   -1    0    0  501    0  0.00000000000E+00  0.00000000000E+00  0.23559818017E+04  0.23559818017E+04  0.25500000920E-02 0.  1.
       -2   -1    0    0    0  501  0.00000000000E+00  0.00000000000E+00 -0.55526090835E+03  0.55526090835E+03  0.25500000920E-02 0. -1.
    10030    2    1    2    0    0  0.00000000000E+00  0.00000000000E+00  0.18007208934E+04  0.29112427101E+04  0.22875179521E+04 0.  0.
        3    1    3    3  502    0 -0.55051744303E+03  0.83768091723E+02  0.21718140112E+04  0.22420666042E+04  0.10100000352E+00 0.  1.
       -3    1    3    3    0  502  0.55051744303E+03 -0.83768091723E+02 -0.37109311787E+03  0.66917610582E+03  0.10100000352E+00 0. -1.
</event>
<event>
 5   0  0.9442578E-05  0.2206254E+04  0.7818609E-02  0.8515829E-01
        2   -1    0    0  501    0  0.00000000000E+00  0.00000000000E+00  0.27724984699E+04  0.27724984699E+04  0.25500000920E-02 0. -1.
       -2   -1    0    0    0  501  0.00000000000E+00  0.00000000000E+00 -0.43891446325E+03  0.43891446325E+03  0.25500000920E-02 0.  1.
    10030    2    1    2    0    0  0.00000000000E+00  0.00000000000E+00  0.23335840067E+04  0.32114129332E+04  0.22062544529E+04 0.  0.
        4    1    3    3  502    0 -0.17629526409E+03 -0.50476187373E+03 -0.23770518241E+03  0.58512386377E+03  0.12699999809E+01 0.  1.
       -4    1    3    3    0  502  0.17629526409E+03  0.50476187373E+03  0.25712891891E+04  0.26262890694E+04  0.12699999809E+01 0. -1.
</event>
<event>
 5   0  0.4188865E-05  0.2202855E+04  0.7818609E-02  0.8517241E-01
        1   -1    0    0  501    0  0.00000000000E+00  0.00000000000E+00  0.10926213680E+04  0.10926213680E+04  0.50400001928E-02 0. -1.
       -1   -1    0    0    0  501  0.00000000000E+00  0.00000000000E+00 -0.11103050972E+04  0.11103050972E+04  0.50400001928E-02 0.  1.
    10030    2    1    2    0    0  0.00000000000E+00  0.00000000000E+00 -0.17683729170E+02  0.22029264652E+04  0.22028554870E+04 0.  0.
        3    1    3    3  502    0  0.16499759144E+03 -0.21262916123E+03 -0.10769154619E+04  0.11100370659E+04  0.10100000352E+00 0.  1.
       -3    1    3    3    0  502 -0.16499759144E+03  0.21262916123E+03  0.10592317327E+04  0.10928893993E+04  0.10100000352E+00 0. -1.
</event>
<event>
 5   0  0.4174030E-05  0.2189753E+04  0.7818609E-02  0.8522705E-01
        1   -1    0    0  501    0  0.00000000000E+00  0.00000000000E+00  0.16184097729E+04  0.16184097729E+04  0.50400001928E-02 0. -1.
       -1   -1    0    0    0  501  0.00000000000E+00  0.00000000000E+00 -0.74069896118E+03  0.74069896120E+03  0.50400001928E-02 0.  1.
    10030    2    1    2    0    0  0.00000000000E+00  0.00000000000E+00  0.87771081167E+03  0.23591087341E+04  0.21897528971E+04 0.  0.
        2    1    3    3  502    0  0.26949172296E+03 -0.77928754814E+03  0.12148691132E+04  0.14682717166E+04  0.25500000920E-02 0. -1.
       -2    1    3    3    0  502 -0.26949172296E+03  0.77928754814E+03 -0.33715830153E+03  0.89083701749E+03  0.25500000920E-02 0.  1.
</event>
<event>
 5   0  0.4174075E-05  0.2167760E+04  0.7818609E-02  0.8531968E-01
       -1   -1    0    0    0  501  0.00000000000E+00  0.00000000000E+00  0.71564213900E+03  0.71564213902E+03  0.50400001928E-02 0. -1.
        1   -1    0    0  501    0  0.00000000000E+00  0.00000000000E+00 -0.16415971974E+04  0.16415971974E+04  0.50400001928E-02 0.  1.
    10030    2    1    2    0    0  0.00000000000E+00  0.00000000000E+00 -0.92595505840E+03  0.23572393364E+04  0.21677602540E+04 0.  0.
        5    1    3    3  502    0 -0.59124677782E+03  0.73321883709E+03  0.12017262722E+03  0.94955050718E+03  0.46999998093E+01 0. -1.
       -5    1    3    3    0  502  0.59124677782E+03 -0.73321883709E+03 -0.10461276856E+04  0.14076888292E+04  0.46999998093E+01 0.  1.
</event>
<event>
 5   0  0.9442578E-05  0.2221543E+04  0.7818609E-02  0.8509514E-01
        2   -1    0    0  501    0  0.00000000000E+00  0.00000000000E+00  0.13342909818E+04  0.13342909818E+04  0.25500000920E-02 0.  1.
       -2   -1    0    0    0  501  0.00000000000E+00  0.00000000000E+00 -0.92469606590E+03  0.92469606590E+03  0.25500000920E-02 0. -1.
    10030    2    1    2    0    0  0.00000000000E+00  0.00000000000E+00  0.40959491585E+03  0.22589870477E+04  0.22215432668E+04 0.  0.
        4    1    3    3  502    0  0.90326213256E+03 -0.34040255678E+03  0.76365669147E+03  0.12308247382E+04  0.12699999809E+01 0.  1.
       -4    1    3    3    0  502 -0.90326213256E+03  0.34040255678E+03 -0.35406177562E+03  0.10281623095E+04  0.12699999809E+01 0. -1.
</event>
<event>
 5   0  0.4063293E-05  0.2153467E+04  0.7818609E-02  0.8538050E-01
        1   -1    0    0  501    0  0.00000000000E+00  0.00000000000E+00  0.98982904838E+03  0.98982904839E+03  0.50400001928E-02 0.  1.
       -1   -1    0    0    0  501  0.00000000000E+00  0.00000000000E+00 -0.11712681514E+04  0.11712681514E+04  0.50400001928E-02 0. -1.
    10030    2    1    2    0    0  0.00000000000E+00  0.00000000000E+00 -0.18143910302E+03  0.21610971998E+04  0.21534671948E+04 0.  0.
        1    1    3    3  502    0 -0.39829463915E+02  0.62841339719E+03  0.78579678547E+03  0.10069589724E+04  0.50400001928E-02 0.  1.
       -1    1    3    3    0  502  0.39829463915E+02 -0.62841339719E+03 -0.96723588850E+03  0.11541382274E+04  0.50400001928E-02 0. -1.
</event>
<event>
 5   0  0.4174075E-05  0.2125566E+04  0.7818609E-02  0.8550064E-01
       -1   -1    0    0    0  501  0.00000000000E+00  0.00000000000E+00  0.55631182801E+03  0.55631182803E+03  0.50400001928E-02 0. -1.
        1   -1    0    0  501    0  0.00000000000E+00  0.00000000000E+00 -0.20303506568E+04  0.20303506568E+04  0.50400001928E-02 0.  1.
    10030    2    1    2    0    0  0.00000000000E+00  0.00000000000E+00 -0.14740388288E+04  0.25866624849E+04  0.21255663579E+04 0.  0.
        5    1    3    3  502    0 -0.12825549752E+02  0.51295253577E+03 -0.18696140138E+04  0.19387530656E+04  0.46999998093E+01 0.  1.
       -5    1    3    3    0  502  0.12825549752E+02 -0.51295253577E+03  0.39557518496E+03  0.64790941931E+03  0.46999998093E+01 0. -1.
</event>
<event>
 5   0  0.4063293E-05  0.2154622E+04  0.7818609E-02  0.8537557E-01
       -1   -1    0    0    0  501  0.00000000000E+00  0.00000000000E+00  0.10071878532E+04  0.10071878532E+04  0.50400001928E-02 0. -1.
        1   -1    0    0  501    0  0.00000000000E+00  0.00000000000E+00 -0.11523158670E+04  0.11523158670E+04  0.50400001928E-02 0.  1.
    10030    2    1    2    0    0  0.00000000000E+00  0.00000000000E+00 -0.14512801385E+03  0.21595037202E+04  0.21546215856E+04 0.  0.
        1    1    3    3  502    0  0.11528013326E+03 -0.53466501232E+03  0.85767824601E+03  0.10172355471E+04  0.50400001928E-02 0. -1.
       -1    1    3    3    0  502 -0.11528013326E+03  0.53466501232E+03 -0.10028062599E+04  0.11422681731E+04  0.50400001928E-02 0.  1.
</event>
<event>
 5   0  0.4174030E-05  0.2210488E+04  0.7818609E-02  0.8514075E-01
        1   -1    0    0  501    0  0.00000000000E+00  0.00000000000E+00  0.99039989554E+03  0.99039989555E+03  0.50400001928E-02 0.  1.
       -1   -1    0    0    0  501  0.00000000000E+00  0.00000000000E+00 -0.12334055406E+04  0.12334055406E+04  0.50400001928E-02 0. -1.
    10030    2    1    2    0    0  0.00000000000E+00  0.00000000000E+00 -0.24300564503E+03  0.22238054361E+04  0.22104883791E+04 0.  0.
        2    1    3    3  502    0 -0.86713294369E+03  0.68329676362E+03 -0.17426599541E+03  0.11176683973E+04  0.25500000920E-02 0.  1.
       -2    1    3    3    0  502  0.86713294369E+03 -0.68329676362E+03 -0.68739649620E+02  0.11061370388E+04  0.25500000920E-02 0. -1.
</event>
<event>
 5   0  0.9938176E-05  0.2181679E+04  0.7818609E-02  0.8526093E-01
        2   -1    0    0  501    0  0.00000000000E+00  0.00000000000E+00  0.10843536062E+04  0.10843536062E+04  0.25500000920E-02 0. -1.
       -2   -1    0    0    0  501  0.00000000000E+00  0.00000000000E+00 -0.10973640425E+04  0.10973640425E+04  0.25500000920E-02 0.  1.
    10030    2    1    2    0    0  0.00000000000E+00  0.00000000000E+00 -0.13010436319E+02  0.21817176487E+04  0.21816788552E+04 0.  0.
        5    1    3    3  502    0 -0.63285877761E+03 -0.85492558969E+03 -0.24837843085E+03  0.10923012090E+04  0.46999998093E+01 0.  1.
       -5    1    3    3    0  502  0.63285877761E+03  0.85492558969E+03  0.23536799453E+03  0.10894164397E+04  0.46999998093E+01 0. -1.
</event>
<event>
 5   0  0.9442578E-05  0.2163509E+04  0.7818609E-02  0.8533772E-01
        2   -1    0    0  501    0  0.00000000000E+00  0.00000000000E+00  0.19502545444E+04  0.19502545444E+04  0.25500000920E-02 0. -1.
       -2   -1    0    0    0  501  0.00000000000E+00  0.00000000000E+00 -0.60002043785E+03  0.60002043786E+03  0.25500000920E-02 0.  1.
    10030    2    1    2    0    0  0.00000000000E+00  0.00000000000E+00  0.13502341065E+04  0.25502749822E+04  0.21635088034E+04 0.  0.
        4    1    3    3  502    0 -0.29022057644E+03  0.20132735614E+03  0.18803635628E+04  0.19132510104E+04  0.12699999809E+01 0. -1.
       -4    1    3    3    0  502  0.29022057644E+03 -0.20132735614E+03 -0.53012945634E+03  0.63702397184E+03  0.12699999809E+01 0.  1.
</event>
<event>
 5   0  0.4188865E-05  0.2173993E+04  0.7818609E-02  0.8529332E-01
        1   -1    0    0  501    0  0.00000000000E+00  0.00000000000E+00  0.96618724787E+03  0.96618724788E+03  0.50400001928E-02 0. -1.
       -1   -1    0    0    0  501  0.00000000000E+00  0.00000000000E+00 -0.12229108525E+04  0.12229108525E+04  0.50400001928E-02 0.  1.
    10030    2    1    2    0    0  0.00000000000E+00  0.00000000000E+00 -0.25672360465E+03  0.21890981004E+04  0.21739925216E+04 0.  0.
        3    1    3    3  502    0  0.33997288634E+03  0.22122634857E+03 -0.11438521763E+04  0.12136393501E+04  0.10100000352E+00 0.  1.
       -3    1    3    3    0  502 -0.33997288634E+03 -0.22122634857E+03  0.88712857163E+03  0.97545875031E+03  0.10100000352E+00 0. -1.
</event>
<event>
 5   0  0.4174030E-05  0.2207292E+04  0.7818609E-02  0.8515399E-01
       -1   -1    0    0    0  501  0.00000000000E+00  0.00000000000E+00  0.10759800827E+04  0.10759800827E+04  0.50400001928E-02 0.  1.
        1   -1    0    0  501    0  0.00000000000E+00  0.00000000000E+00 -0.11320231887E+04  0.11320231888E+04  0.50400001928E-02 0. -1.
    10030    2    1    2    0    0  0.00000000000E+00  0.00000000000E+00 -0.56043106028E+02  0.22080032715E+04  0.22072919193E+04 0.  0.
        2    1    3    3  502    0  0.48558405312E+03  0.51604425422E+03 -0.87442712454E+03  0.11254849360E+04  0.25500000920E-02 0. -1.
       -2    1    3    3    0  502 -0.48558405312E+03 -0.51604425422E+03  0.81838401852E+03  0.10825183355E+04  0.25500000920E-02 0.  1.
</event>
<event>
 5   0  0.9442578E-05  0.2209370E+04  0.7818609E-02  0.8514538E-01
       -2   -1    0    0    0  501  0.00000000000E+00  0.00000000000E+00  0.93198511808E+03  0.93198511808E+03  0.25500000920E-02 0. -1.
        2   -1    0    0  501    0  0.00000000000E+00  0.00000000000E+00 -0.13093866990E+04  0.13093866990E+04  0.25500000920E-02 0.  1.
    10030    2    1    2    0    0  0.00000000000E+00  0.00000000000E+00 -0.37740158087E+03  0.22413718170E+04  0.22093699710E+04 0.  0.
        4    1    3    3  502    0  0.82183231946E+03  0.18500951254E+03  0.53627635658E+03  0.99861445241E+03  0.12699999809E+01 0. -1.
       -4    1    3    3    0  502 -0.82183231946E+03 -0.18500951254E+03 -0.91367793745E+03  0.12427573646E+04  0.12699999809E+01 0.  1.
</event>
<event>
 5   0  0.4063293E-05  0.2198969E+04  0.7818609E-02  0.8518857E-01
        1   -1    0    0  501    0  0.00000000000E+00  0.00000000000E+00  0.10506972436E+04  0.10506972436E+04  0.50400001928E-02 0.  1.
       -1   -1    0    0    0  501  0.00000000000E+00  0.00000000000E+00 -0.11505376182E+04  0.11505376182E+04  0.50400001928E-02 0. -1.
    10030    2    1    2    0    0  0.00000000000E+00  0.00000000000E+00 -0.99840374556E+02  0.22012348618E+04  0.21989694897E+04 0.  0.
        1    1    3    3  502    0 -0.59088768952E+03 -0.92597091122E+03 -0.19509493919E+01  0.10984417127E+04  0.50400001928E-02 0. -1.
       -1    1    3    3    0  502  0.59088768952E+03  0.92597091122E+03 -0.97889425164E+02  0.11027931491E+04  0.50400001928E-02 0.  1.
</event>
<event>
 5   0  0.9457742E-05  0.2207841E+04  0.7818609E-02  0.8515172E-01
       -2   -1    0    0    0  501  0.00000000000E+00  0.00000000000E+00  0.52998630398E+03  0.52998630399E+03  0.25500000920E-02 0.  1.
        2   -1    0    0  501    0  0.00000000000E+00  0.00000000000E+00 -0.22993809504E+04  0.22993809504E+04  0.25500000920E-02 0. -1.
    10030    2    1    2    0    0  0.00000000000E+00  0.00000000000E+00 -0.17693946464E+04  0.28293672544E+04  0.22078409466E+04 0.  0.
        1    1    3    3  502    0 -0.58093495499E+03 -0.80208387757E+03 -0.15096433032E+04  0.18055046030E+04  0.50400001928E-02 0. -1.
       -1    1    3    3    0  502  0.58093495499E+03  0.80208387757E+03 -0.25975134326E+03  0.10238626514E+04  0.50400001928E-02 0.  1.
</event>
<event>
 5   0  0.4063293E-05  0.2202964E+04  0.7818609E-02  0.8517195E-01
       -1   -1    0    0    0  501  0.00000000000E+00  0.00000000000E+00  0.93379865466E+03  0.93379865467E+03  0.50400001928E-02 0.  1.
        1   -1    0    0  501    0  0.00000000000E+00  0.00000000000E+00 -0.12992765403E+04  0.12992765403E+04  0.50400001928E-02 0. -1.
    10030    2    1    2    0    0  0.00000000000E+00  0.00000000000E+00 -0.36547788561E+03  0.22330751949E+04  0.22029640808E+04 0.  0.
        1    1    3    3  502    0  0.26711136698E+03 -0.99928032531E+03  0.20105611371E+03  0.10537234987E+04  0.50400001928E-02 0.  1.
       -1    1    3    3    0  502 -0.26711136698E+03  0.99928032531E+03 -0.56653399932E+03  0.11793516962E+04  0.50400001928E-02 0. -1.
</event>
<event>
 5   0  0.4063293E-05  0.2189565E+04  0.7818609E-02  0.8522784E-01
       -1   -1    0    0    0  501  0.00000000000E+00  0.00000000000E+00  0.11756363614E+04  0.11756363615E+04  0.50400001928E-02 0. -1.
        1   -1    0    0  501    0  0.00000000000E+00  0.00000000000E+00 -0.10194896922E+04  0.10194896922E+04  0.50400001928E-02 0.  1.
    10030    2    1    2    0    0  0.00000000000E+00  0.00000000000E+00  0.15614666928E+03  0.21951260536E+04  0.21895653927E+04 0.  0.
        1    1    3    3  502    0  0.98960786765E+02 -0.10631487848E+04  0.32049433064E+03  0.11148072443E+04  0.50400001928E-02 0. -1.
       -1    1    3    3    0  502 -0.98960786765E+02  0.10631487848E+04 -0.16434766136E+03  0.10803188093E+04  0.50400001928E-02 0.  1.
</event>
<event>
 5   0  0.9179618E-05  0.2232131E+04  0.7818609E-02  0.8505172E-01
        2   -1    0    0  501    0  0.00000000000E+00  0.00000000000E+00  0.59259940147E+03  0.59259940147E+03  0.25500000920E-02 0. -1.
       -2   -1    0    0    0  501  0.00000000000E+00  0.00000000000E+00 -0.21019301893E+04  0.21019301893E+04  0.25500000920E-02 0.  1.
    10030    2    1    2    0    0  0.00000000000E+00  0.00000000000E+00 -0.15093307879E+04  0.26945295908E+04  0.22321313332E+04 0.  0.
        3    1    3    3  502    0 -0.49610880039E+03 -0.39907322181E+03  0.35185522241E+03  0.72745136328E+03  0.10100000352E+00 0. -1.
       -3    1    3    3    0  502  0.49610880039E+03  0.39907322181E+03 -0.18611860103E+04  0.19670782275E+04  0.10100000352E+00 0.  1.
</event>
<event>
 5   0  0.4174075E-05  0.2199229E+04  0.7818609E-02  0.8518749E-01
        1   -1    0    0  501    0  0.00000000000E+00  0.00000000000E+00  0.26377805022E+04  0.26377805022E+04  0.50400001928E-02 0. -1.
       -1   -1    0    0    0  501  0.00000000000E+00  0.00000000000E+00 -0.45839758904E+03  0.45839758907E+03  0.50400001928E-02 0.  1.
    10030    2    1    2    0    0  0.00000000000E+00  0.00000000000E+00  0.21793829132E+04  0.30961780913E+04  0.21992291583E+04 0.  0.
        5    1    3    3  502    0  0.29196737153E+03  0.71025023016E+03 -0.18338481300E+02  0.76815280080E+03  0.46999998093E+01 0.  1.
       -5    1    3    3    0  502 -0.29196737153E+03 -0.71025023016E+03  0.21977213945E+04  0.23280252905E+04  0.46999998093E+01 0. -1.
</event>
<event>
 5   0  0.9179618E-05  0.2144321E+04  0.7818609E-02  0.8541967E-01
       -2   -1    0    0    0  501  0.00000000000E+00  0.00000000000E+00  0.65961315542E+03  0.65961315543E+03  0.25500000920E-02 0. -1.
        2   -1    0    0  501    0  0.00000000000E+00  0.00000000000E+00 -0.17427314800E+04  0.17427314800E+04  0.25500000920E-02 0.  1.
    10030    2    1    2    0    0  0.00000000000E+00  0.00000000000E+00 -0.10831183246E+04  0.24023446354E+04  0.21443214410E+04 0.  0.
        3    1    3    3  502    0  0.57446870442E+03  0.82130168252E+03 -0.11498332060E+03  0.10088468270E+04  0.10100000352E+00 0. -1.
       -3    1    3    3    0  502 -0.57446870442E+03 -0.82130168252E+03 -0.96813500399E+03  0.13934978085E+04  0.10100000352E+00 0.  1.
</event>
<event>
 5   0  0.9442578E-05  0.2186300E+04  0.7818609E-02  0.8524152E-01
        2   -1    0    0  501    0  0.00000000000E+00  0.00000000000E+00  0.15013945130E+04  0.15013945130E+04  0.25500000920E-02 0. -1.
       -2   -1    0    0    0  501  0.00000000000E+00  0.00000000000E+00 -0.79591162403E+03  0.79591162404E+03  0.25500000920E-02 0.  1.
    10030    2    1    2    0    0  0.00000000000E+00  0.00000000000E+00  0.70548288901E+03  0.22973061371E+04  0.21863003867E+04 0.  0.
        4    1    3    3  502    0 -0.29267441634E+02  0.10327928886E+04 -0.22397876554E+02  0.10334510205E+04  0.12699999809E+01 0.  1.
       -4    1    3    3    0  502  0.29267441634E+02 -0.10327928886E+04  0.72788076556E+03  0.12638551166E+04  0.12699999809E+01 0. -1.
</event>
<event>
 5   0  0.9179618E-05  0.2083018E+04  0.7818609E-02  0.8568761E-01
       -2   -1    0    0    0  501  0.00000000000E+00  0.00000000000E+00  0.10576183266E+04  0.10576183266E+04  0.25500000920E-02 0.  1.
        2   -1    0    0  501    0  0.00000000000E+00  0.00000000000E+00 -0.10256454933E+04  0.10256454933E+04  0.25500000920E-02 0. -1.
    10030    2    1    2    0    0  0.00000000000E+00  0.00000000000E+00  0.31972833335E+02  0.20832638198E+04  0.20830184543E+04 0.  0.
        3    1    3    3  502    0  0.32114015359E+02  0.10307391098E+04  0.16190438248E+03  0.10438713818E+04  0.10100000352E+00 0. -1.
       -3    1    3    3    0  502 -0.32114015359E+02 -0.10307391098E+04 -0.12993154915E+03  0.10393924380E+04  0.10100000352E+00 0.  1.
</event>
<event>
 5   0  0.9457742E-05  0.2177075E+04  0.7818609E-02  0.8528031E-01
        2   -1    0    0  501    0  0.00000000000E+00  0.00000000000E+00  0.15745407079E+04  0.15745407079E+04  0.25500000920E-02 0.  1.
       -2   -1    0    0    0  501  0.00000000000E+00  0.00000000000E+00 -0.75254607035E+03  0.75254607035E+03  0.25500000920E-02 0. -1.
    10030    2    1    2    0    0  0.00000000000E+00  0.00000000000E+00  0.82199463751E+03  0.23270867782E+04  0.21770754900E+04 0.  0.
        1    1    3    3  502    0 -0.21111592788E+03 -0.99479516293E+03  0.82598453675E+03  0.13101289273E+04  0.50400001928E-02 0.  1.
       -1    1    3    3    0  502  0.21111592788E+03  0.99479516293E+03 -0.39898992396E+01  0.10169578509E+04  0.50400001928E-02 0. -1.
</event>
<event>
 5   0  0.4174030E-05  0.2161885E+04  0.7818609E-02  0.8534462E-01
        1   -1    0    0  501    0  0.00000000000E+00  0.00000000000E+00  0.98329724560E+03  0.98329724561E+03  0.50400001928E-02 0.  1.
       -1   -1    0    0    0  501  0.00000000000E+00  0.00000000000E+00 -0.11882841941E+04  0.11882841941E+04  0.50400001928E-02 0. -1.
    10030    2    1    2    0    0  0.00000000000E+00  0.00000000000E+00 -0.20498694847E+03  0.21715814397E+04  0.21618848952E+04 0.  0.
        2    1    3    3  502    0 -0.27339158737E+03  0.89671452685E+03  0.43806208429E+03  0.10347648488E+04  0.25500000920E-02 0.  1.
       -2    1    3    3    0  502  0.27339158737E+03 -0.89671452685E+03 -0.64304903276E+03  0.11368165909E+04  0.25500000920E-02 0. -1.
</event>
<event>
 5   0  0.4133418E-05  0.2062790E+04  0.7818609E-02  0.8577814E-01
        1   -1    0    0  501    0  0.00000000000E+00  0.00000000000E+00  0.15581141375E+04  0.15581141375E+04  0.50400001928E-02 0.  1.
       -1   -1    0    0    0  501  0.00000000000E+00  0.00000000000E+00 -0.68273278460E+03  0.68273278462E+03  0.50400001928E-02 0. -1.
    10030    2    1    2    0    0  0.00000000000E+00  0.00000000000E+00  0.87538135287E+03  0.22408469221E+04  0.20627899591E+04 0.  0.
        4    1    3    3  502    0  0.17853116487E+03 -0.29937935655E+03 -0.61680660832E+03  0.70848668366E+03  0.12699999809E+01 0. -1.
       -4    1    3    3    0  502 -0.17853116487E+03  0.29937935655E+03  0.14921879612E+04  0.15323602384E+04  0.12699999809E+01 0.  1.
</event>
<event>
 5   0  0.9938176E-05  0.2212765E+04  0.7818609E-02  0.8513134E-01
        2   -1    0    0  501    0  0.00000000000E+00  0.00000000000E+00  0.15188259028E+04  0.15188259028E+04  0.25500000920E-02 0. -1.
       -2   -1    0    0    0  501  0.00000000000E+00  0.00000000000E+00 -0.80593991957E+03  0.80593991957E+03  0.25500000920E-02 0.  1.
    10030    2    1    2    0    0  0.00000000000E+00  0.00000000000E+00  0.71288598324E+03  0.23247658224E+04  0.22127651714E+04 0.  0.
        5    1    3    3  502    0  0.79557780024E+03  0.27642157580E+03 -0.39730140457E+03  0.93124831268E+03  0.46999998093E+01 0.  1.
       -5    1    3    3    0  502 -0.79557780024E+03 -0.27642157580E+03  0.11101873878E+04  0.13935175097E+04  0.46999998093E+01 0. -1.
</event>
<event>
 5   0  0.4063293E-05  0.2196405E+04  0.7818609E-02  0.8519926E-01
        1   -1    0    0  501    0  0.00000000000E+00  0.00000000000E+00  0.14046400308E+04  0.14046400308E+04  0.50400001928E-02 0. -1.
       -1   -1    0    0    0  501  0.00000000000E+00  0.00000000000E+00 -0.85861732807E+03  0.85861732809E+03  0.50400001928E-02 0.  1.
    10030    2    1    2    0    0  0.00000000000E+00  0.00000000000E+00  0.54602270276E+03  0.22632573589E+04  0.21964045804E+04 0.  0.
        1    1    3    3  502    0 -0.17054637288E+03 -0.70486940130E+03 -0.57678487608E+03  0.92661088461E+03  0.50400001928E-02 0.  1.
       -1    1    3    3    0  502  0.17054637288E+03  0.70486940130E+03  0.11228075788E+04  0.13366464743E+04  0.50400001928E-02 0. -1.
</event>
<event>
 5   0  0.4133418E-05  0.1839341E+04  0.7818609E-02  0.8685654E-01
       -1   -1    0    0    0  501  0.00000000000E+00  0.00000000000E+00  0.65894901128E+03  0.65894901130E+03  0.50400001928E-02 0.  1.
        1   -1    0    0  501    0  0.00000000000E+00  0.00000000000E+00 -0.12835499701E+04  0.12835499701E+04  0.50400001928E-02 0. -1.
    10030    2    1    2    0    0  0.00000000000E+00  0.00000000000E+00 -0.62460095882E+03  0.19424989814E+04  0.18393411687E+04 0.  0.
        4    1    3    3  502    0  0.20632306876E+03  0.89611921850E+03 -0.29760957922E+03  0.96652570427E+03  0.12699999809E+01 0. -1.
       -4    1    3    3    0  502 -0.20632306876E+03 -0.89611921850E+03 -0.32699137961E+03  0.97597327715E+03  0.12699999809E+01 0.  1.
</event>
<event>
 5   0  0.4174075E-05  0.2200611E+04  0.7818609E-02  0.8518174E-01
       -1   -1    0    0    0  501  0.00000000000E+00  0.00000000000E+00  0.63631187443E+03  0.63631187445E+03  0.50400001928E-02 0. -1.
        1   -1    0    0  501    0  0.00000000000E+00  0.00000000000E+00 -0.19026393115E+04  0.19026393115E+04  0.50400001928E-02 0.  1.
    10030    2    1    2    0    0  0.00000000000E+00  0.00000000000E+00 -0.12663274370E+04  0.25389511859E+04  0.22006108122E+04 0.  0.
        5    1    3    3  502    0 -0.74452044076E+02  0.90759293848E+02  0.62905470828E+03  0.63993145906E+03  0.46999998093E+01 0. -1.
       -5    1    3    3    0  502  0.74452044076E+02 -0.90759293848E+02 -0.18953821453E+04  0.18990197269E+04  0.46999998093E+01 0.  1.
</event>
<event>
 5   0  0.9442578E-05  0.1982874E+04  0.7818609E-02  0.8614670E-01
        2   -1    0    0  501    0  0.00000000000E+00  0.00000000000E+00  0.92943966024E+03  0.92943966025E+03  0.25500000920E-02 0. -1.
       -2   -1    0    0    0  501  0.00000000000E+00  0.00000000000E+00 -0.10575702131E+04  0.10575702131E+04  0.25500000920E-02 0.  1.
    10030    2    1    2    0    0  0.00000000000E+00  0.00000000000E+00 -0.12813055288E+03  0.19870098734E+04  0.19828743778E+04 0.  0.
        4    1    3    3  502    0 -0.82148888397E+03 -0.25278675803E+03 -0.55926284461E+03  0.10254373086E+04  0.12699999809E+01 0.  1.
       -4    1    3    3    0  502  0.82148888397E+03  0.25278675803E+03  0.43113229174E+03  0.96157256481E+03  0.12699999809E+01 0. -1.
</event>
<event>
 5   0  0.4063293E-05  0.2213257E+04  0.7818609E-02  0.8512931E-01
       -1   -1    0    0    0  501  0.00000000000E+00  0.00000000000E+00  0.71585836931E+03  0.71585836933E+03  0.50400001928E-02 0.  1.
        1   -1    0    0  501    0  0.00000000000E+00  0.00000000000E+00 -0.17107105573E+04  0.17107105573E+04  0.50400001928E-02 0. -1.
    10030    2    1    2    0    0  0.00000000000E+00  0.00000000000E+00 -0.99485218802E+03  0.24265689267E+04  0.22132568490E+04 0.  0.
        1    1    3    3  502    0  0.60914354326E+03  0.16790492301E+03 -0.14934904618E+04  0.16216539948E+04  0.50400001928E-02 0. -1.
       -1    1    3    3    0  502 -0.60914354326E+03 -0.16790492301E+03  0.49863827375E+03  0.80491493186E+03  0.50400001928E-02 0.  1.
</event>
<event>
 5   0  0.9254673E-05  0.2179506E+04  0.7818609E-02  0.8527007E-01
       -2   -1    0    0    0  501  0.00000000000E+00  0.00000000000E+00  0.47492683568E+03  0.47492683569E+03  0.25500000920E-02 0.  1.
        2   -1    0    0  501    0  0.00000000000E+00  0.00000000000E+00 -0.25005152069E+04  0.25005152069E+04  0.25500000920E-02 0. -1.
    10030    2    1    2    0    0  0.00000000000E+00  0.00000000000E+00 -0.20255883712E+04  0.29754420426E+04  0.21795061595E+04 0.  0.
        2    1    3    3  502    0  0.41025754744E+03 -0.10089431390E+04 -0.96387038417E+03  0.14544152194E+04  0.25500000920E-02 0.  1.
       -2    1    3    3    0  502 -0.41025754744E+03  0.10089431390E+04 -0.10617179870E+04  0.15210268232E+04  0.25500000920E-02 0. -1.
</event>
<event>
 5   0  0.9938176E-05  0.2204681E+04  0.7818609E-02  0.8516482E-01
       -2   -1    0    0    0  501  0.00000000000E+00  0.00000000000E+00  0.79224276353E+03  0.79224276353E+03  0.25500000920E-02 0.  1.
        2   -1    0    0  501    0  0.00000000000E+00  0.00000000000E+00 -0.15338165405E+04  0.15338165405E+04  0.25500000920E-02 0. -1.
    10030    2    1    2    0    0  0.00000000000E+00  0.00000000000E+00 -0.74157377701E+03  0.23260593041E+04  0.22046814326E+04 0.  0.
        5    1    3    3  502    0  0.84609782337E+03 -0.54559939000E+03  0.10289943111E+03  0.10120131442E+04  0.46999998093E+01 0.  1.
       -5    1    3    3    0  502 -0.84609782337E+03  0.54559939000E+03 -0.84447320812E+03  0.13140461599E+04  0.46999998093E+01 0. -1.
</event>
<event>
 5   0  0.4188865E-05  0.2221172E+04  0.7818609E-02  0.8509667E-01
        1   -1    0    0  501    0  0.00000000000E+00  0.00000000000E+00  0.16486713466E+04  0.16486713466E+04  0.50400001928E-02 0.  1.
       -1   -1    0    0    0  501  0.00000000000E+00  0.00000000000E+00 -0.74811806903E+03  0.74811806904E+03  0.50400001928E-02 0. -1.
    10030    2    1    2    0    0  0.00000000000E+00  0.00000000000E+00  0.90055327754E+03  0.23967894156E+04  0.22211716046E+04 0.  0.
        3    1    3    3  502    0 -0.39123576529E+03 -0.43669391067E+03 -0.56750217713E+03  0.81598145010E+03  0.10100000352E+00 0. -1.
       -3    1    3    3    0  502  0.39123576529E+03  0.43669391067E+03  0.14680554547E+04  0.15808079655E+04  0.10100000352E+00 0.  1.
</event>
<event>
 5   0  0.4174075E-05  0.1891789E+04  0.7818609E-02  0.8658954E-01
       -1   -1    0    0    0  501  0.00000000000E+00  0.00000000000E+00  0.50399647804E+03  0.50399647806E+03  0.50400001928E-02 0.  1.
        1   -1    0    0  501    0  0.00000000000E+00  0.00000000000E+00 -0.17752435995E+04  0.17752435996E+04  0.50400001928E-02 0. -1.
    10030    2    1    2    0    0  0.00000000000E+00  0.00000000000E+00 -0.12712471215E+04  0.22792400776E+04  0.18917891234E+04 0.  0.
        5    1    3    3  502    0 -0.45789714476E+03  0.26907139234E+03 -0.15786302756E+04  0.16655824346E+04  0.46999998093E+01 0. -1.
       -5    1    3    3    0  502  0.45789714476E+03 -0.26907139234E+03  0.30738315413E+03  0.61365764299E+03  0.46999998093E+01 0.  1.
</event>
<event>
 5   0  0.9254673E-05  0.2189261E+04  0.7818609E-02  0.8522911E-01
       -2   -1    0    0    0  501  0.00000000000E+00  0.00000000000E+00  0.15097793946E+04  0.15097793946E+04  0.25500000920E-02 0.  1.
        2   -1    0    0  501    0  0.00000000000E+00  0.00000000000E+00 -0.79363658099E+03  0.79363658100E+03  0.25500000920E-02 0. -1.
    10030    2    1    2    0    0  0.00000000000E+00  0.00000000000E+00  0.71614281362E+03  0.23034159756E+04  0.21892612058E+04 0.  0.
        2    1    3    3  502    0  0.85478476550E+02 -0.22142767048E+03 -0.76623557435E+03  0.80215568228E+03  0.25500000920E-02 0. -1.
       -2    1    3    3    0  502 -0.85478476550E+02  0.22142767048E+03  0.14823783880E+04  0.15012602933E+04  0.25500000920E-02 0.  1.
</event>
<event>
 5   0  0.4133418E-05  0.2211762E+04  0.7818609E-02  0.8513548E-01
       -1   -1    0    0    0  501  0.00000000000E+00  0.00000000000E+00  0.13187428225E+04  0.13187428225E+04  0.50400001928E-02 0. -1.
        1   -1    0    0  501    0  0.00000000000E+00  0.00000000000E+00 -0.92737792242E+03  0.92737792243E+03  0.50400001928E-02 0.  1.
    10030    2    1    2    0    0  0.00000000000E+00  0.00000000000E+00  0.39136490009E+03  0.22461207450E+04  0.22117621744E+04 0.  0.
        4    1    3    3  502    0  0.44874205657E+03 -0.80240196470E+03  0.81984634761E+03  0.12318149183E+04  0.12699999809E+01 0. -1.
       -4    1    3    3    0  502 -0.44874205657E+03  0.80240196470E+03 -0.42848144751E+03  0.10143058267E+04  0.12699999809E+01 0.  1.
</event>
<event>
 5   0  0.9179618E-05  0.2239294E+04  0.7818609E-02  0.8502249E-01
       -2   -1    0    0    0  501  0.00000000000E+00  0.00000000000E+00  0.56090381720E+03  0.56090381720E+03  0.25500000920E-02 0. -1.
        2   -1    0    0  501    0  0.00000000000E+00  0.00000000000E+00 -0.22349816893E+04  0.22349816893E+04  0.25500000920E-02 0.  1.
    10030    2    1    2    0    0  0.00000000000E+00  0.00000000000E+00 -0.16740778721E+04  0.27958855065E+04  0.22392943182E+04 0.  0.
        3    1    3    3  502    0  0.20044548636E+03  0.10079125952E+04 -0.13919707719E+04  0.17302164121E+04  0.10100000352E+00 0.  1.
       -3    1    3    3    0  502 -0.20044548636E+03 -0.10079125952E+04 -0.28210710019E+03  0.10656690944E+04  0.10100000352E+00 0. -1.
</event>
<event>
 5   0  0.9938176E-05  0.2216082E+04  0.7818609E-02  0.8511764E-01
        2   -1    0    0  501    0  0.00000000000E+00  0.00000000000E+00  0.70876495649E+03  0.70876495650E+03  0.25500000920E-02 0.  1.
       -2   -1    0    0    0  501  0.00000000000E+00  0.00000000000E+00 -0.17322454343E+04  0.17322454343E+04  0.25500000920E-02 0. -1.
    10030    2    1    2    0    0  0.00000000000E+00  0.00000000000E+00 -0.10234804778E+04  0.24410103908E+04  0.22160820020E+04 0.  0.
        5    1    3    3  502    0  0.20483409125E+02 -0.86224953436E+03  0.25444575847E+03  0.89925444872E+03  0.46999998093E+01 0.  1.
       -5    1    3    3    0  502 -0.20483409125E+02  0.86224953436E+03 -0.12779262362E+04  0.15417559420E+04  0.46999998093E+01 0. -1.
</event>
<event>
 5   0  0.9457742E-05  0.2217477E+04  0.7818609E-02  0.8511189E-01
        2   -1    0    0  501    0  0.00000000000E+00  0.00000000000E+00  0.14720342797E+04  0.14720342797E+04  0.25500000920E-02 0. -1.
       -2   -1    0    0    0  501  0.00000000000E+00  0.00000000000E+00 -0.83510362680E+03  0.83510362680E+03  0.25500000920E-02 0.  1.
    10030    2    1    2    0    0  0.00000000000E+00  0.00000000000E+00  0.63693065293E+03  0.23071379065E+04  0.22174770942E+04 0.  0.
        1    1    3    3  502    0 -0.30363699314E+01  0.10915594300E+03 -0.82949517520E+03  0.83665194982E+03  0.50400001928E-02 0.  1.
       -1    1    3    3    0  502  0.30363699314E+01 -0.10915594300E+03  0.14664258281E+04  0.14704859567E+04  0.50400001928E-02 0. -1.
</event>
<event>
 5   0  0.4133418E-05  0.2198536E+04  0.7818609E-02  0.8519038E-01
       -1   -1    0    0    0  501  0.00000000000E+00  0.00000000000E+00  0.92120721365E+03  0.92120721367E+03  0.50400001928E-02 0.  1.
        1   -1    0    0  501    0  0.00000000000E+00  0.00000000000E+00 -0.13117459769E+04  0.13117459769E+04  0.50400001928E-02 0. -1.
    10030    2    1    2    0    0  0.00000000000E+00  0.00000000000E+00 -0.39053876329E+03  0.22329531906E+04  0.21985357459E+04 0.  0.
        4    1    3    3  502    0  0.34690249626E+03 -0.60763277048E+03  0.66584130453E+03  0.96587016798E+03  0.12699999809E+01 0.  1.
       -4    1    3    3    0  502 -0.34690249626E+03  0.60763277048E+03 -0.10563800678E+04  0.12670830226E+04  0.12699999809E+01 0. -1.
</event>
<event>
 5   0  0.9457742E-05  0.2261337E+04  0.7818609E-02  0.8493323E-01
       -2   -1    0    0    0  501  0.00000000000E+00  0.00000000000E+00  0.19476754837E+04  0.19476754837E+04  0.25500000920E-02 0.  1.
        2   -1    0    0  501    0  0.00000000000E+00  0.00000000000E+00 -0.65637812929E+03  0.65637812930E+03  0.25500000920E-02 0. -1.
    10030    2    1    2    0    0  0.00000000000E+00  0.00000000000E+00  0.12912973544E+04  0.26040536130E+04  0.22613372950E+04 0.  0.
        1    1    3    3  502    0  0.37918893331E+03 -0.51988754021E+03 -0.42495309845E+03  0.77113710683E+03  0.50400001928E-02 0. -1.
       -1    1    3    3    0  502 -0.37918893331E+03  0.51988754021E+03  0.17162504528E+04  0.18329165062E+04  0.50400001928E-02 0.  1.
</event>
<event>
 5   0  0.4063293E-05  0.2162927E+04  0.7818609E-02  0.8534019E-01
       -1   -1    0    0    0  501  0.00000000000E+00  0.00000000000E+00  0.26225942208E+04  0.26225942208E+04  0.50400001928E-02 0. -1.
        1   -1    0    0  501    0  0.00000000000E+00  0.00000000000E+00 -0.44595649932E+03  0.44595649935E+03  0.50400001928E-02 0.  1.
    10030    2    1    2    0    0  0.00000000000E+00  0.00000000000E+00  0.21766377215E+04  0.30685507201E+04  0.21629266635E+04 0.  0.
        1    1    3    3  502    0 -0.38023755206E+03  0.38340570544E+03  0.24176537967E+04  0.24772223177E+04  0.50400001928E-02 0. -1.
       -1    1    3    3    0  502  0.38023755206E+03 -0.38340570544E+03 -0.24101607519E+03  0.59132840241E+03  0.50400001928E-02 0.  1.
</event>
<event>
 5   0  0.9442578E-05  0.2208490E+04  0.7818609E-02  0.8514903E-01
        2   -1    0    0  501    0  0.00000000000E+00  0.00000000000E+00  0.10609829655E+04  0.10609829655E+04  0.25500000920E-02 0. -1.
       -2   -1    0    0    0  501  0.00000000000E+00  0.00000000000E+00 -0.11492712215E+04  0.11492712215E+04  0.25500000920E-02 0.  1.
    10030    2    1    2    0    0  0.00000000000E+00  0.00000000000E+00 -0.88288255972E+02  0.22102541870E+04  0.22084901528E+04 0.  0.
        4    1    3    3  502    0  0.96376558213E+03 -0.13257373621E+03  0.47870563305E+03  0.10842419420E+04  0.12699999809E+01 0. -1.
       -4    1    3    3    0  502 -0.96376558213E+03  0.13257373621E+03 -0.56699388903E+03  0.11260122450E+04  0.12699999809E+01 0.  1.
</event>
<event>
 5   0  0.4063293E-05  0.2196210E+04  0.7818609E-02  0.8520007E-01
       -1   -1    0    0    0  501  0.00000000000E+00  0.00000000000E+00  0.83972714672E+03  0.83972714674E+03  0.50400001928E-02 0. -1.
        1   -1    0    0  501    0  0.00000000000E+00  0.00000000000E+00 -0.14359834445E+04  0.14359834445E+04  0.50400001928E-02 0.  1.
    10030    2    1    2    0    0  0.00000000000E+00  0.00000000000E+00 -0.59625629779E+03  0.22757105913E+04  0.21962097173E+04 0.  0.
        1    1    3    3  502    0  0.25775649738E+03  0.25820324918E+03  0.77508952939E+03  0.85666277404E+03  0.50400001928E-02 0. -1.
       -1    1    3    3    0  502 -0.25775649738E+03 -0.25820324918E+03 -0.13713458272E+04  0.14190478172E+04  0.50400001928E-02 0.  1.
</event>
<event>
 5   0  0.9938176E-05  0.2266091E+04  0.7818609E-02  0.8491412E-01
        2   -1    0    0  501    0  0.00000000000E+00  0.00000000000E+00  0.17547318318E+04  0.17547318318E+04  0.25500000920E-02 0.  1.
       -2   -1    0    0    0  501  0.00000000000E+00  0.00000000000E+00 -0.73161699844E+03  0.73161699844E+03  0.25500000920E-02 0. -1.
    10030    2    1    2    0    0  0.00000000000E+00  0.00000000000E+00  0.10231148334E+04  0.24863488302E+04  0.22660905859E+04 0.  0.
        5    1    3    3  502    0  0.33725815308E+03  0.28947126966E+02  0.16979463014E+04  0.17313649905E+04  0.46999998093E+01 0.  1.
       -5    1    3    3    0  502 -0.33725815308E+03 -0.28947126966E+02 -0.67483146804E+03  0.75498383972E+03  0.46999998093E+01 0. -1.
</event>
<event>
 5   0  0.9938176E-05  0.2183836E+04  0.7818609E-02  0.8525186E-01
       -2   -1    0    0    0  501  0.00000000000E+00  0.00000000000E+00  0.11367492368E+04  0.11367492368E+04  0.25500000920E-02 0. -1.
        2   -1    0    0  501    0  0.00000000000E+00  0.00000000000E+00 -0.10488549251E+04  0.10488549251E+04  0.25500000920E-02 0.  1.
    10030    2    1    2    0    0  0.00000000000E+00  0.00000000000E+00  0.87894311684E+02  0.21856041619E+04  0.21838361071E+04 0.  0.
        5    1    3    3  502    0 -0.10603940481E+04  0.21976074079E+03 -0.95925163341E+02  0.10871771003E+04  0.46999998093E+01 0.  1.
       -5    1    3    3    0  502  0.10603940481E+04 -0.21976074079E+03  0.18381947503E+03  0.10984270616E+04  0.46999998093E+01 0. -1.
</event>
<event>
 5   0  0.9254673E-05  0.2122083E+04  0.7818609E-02  0.8551577E-01
       -2   -1    0    0    0  501  0.00000000000E+00  0.00000000000E+00  0.52731314582E+03  0.52731314583E+03  0.25500000920E-02 0.  1.
        2   -1    0    0  501    0  0.00000000000E+00  0.00000000000E+00 -0.21349917235E+04  0.21349917235E+04  0.25500000920E-02 0. -1.
    10030    2    1    2    0    0  0.00000000000E+00  0.00000000000E+00 -0.16076785777E+04  0.26623048694E+04  0.21220831294E+04 0.  0.
        2    1    3    3  502    0  0.30928640120E+03 -0.37602035523E+03  0.37889612030E+03  0.61693731894E+03  0.25500000920E-02 0.  1.
       -2    1    3    3    0  502 -0.30928640120E+03  0.37602035523E+03 -0.19865746980E+04  0.20453675504E+04  0.25500000920E-02 0. -1.
</event>
<event>
 5   0  0.9254673E-05  0.2204896E+04  0.7818609E-02  0.8516393E-01
        2   -1    0    0  501    0  0.00000000000E+00  0.00000000000E+00  0.13801810074E+04  0.13801810074E+04  0.25500000920E-02 0.  1.
       -2   -1    0    0    0  501  0.00000000000E+00  0.00000000000E+00 -0.88060273787E+03  0.88060273787E+03  0.25500000920E-02 0. -1.
    10030    2    1    2    0    0  0.00000000000E+00  0.00000000000E+00  0.49957826957E+03  0.22607837453E+04  0.22048956201E+04 0.  0.
        2    1    3    3  502    0 -0.95898051325E+01 -0.41624248768E+03  0.12964680468E+04  0.13616824774E+04  0.25500000920E-02 0.  1.
       -2    1    3    3    0  502  0.95898051325E+01  0.41624248768E+03 -0.79688977722E+03  0.89910126791E+03  0.25500000920E-02 0. -1.
</event>
<event>
 5   0  0.9457742E-05  0.2215761E+04  0.7818609E-02  0.8511897E-01
        2   -1    0    0  501    0  0.00000000000E+00  0.00000000000E+00  0.11779462223E+04  0.11779462223E+04  0.25500000920E-02 0. -1.
       -2   -1    0    0    0  501  0.00000000000E+00  0.00000000000E+00 -0.10419824765E+04  0.10419824765E+04  0.25500000920E-02 0.  1.
    10030    2    1    2    0    0  0.00000000000E+00  0.00000000000E+00  0.13596374573E+03  0.22199286988E+04  0.22157611080E+04 0.  0.
        1    1    3    3  502    0  0.85708718429E+03  0.50407487248E+03  0.55747979673E+03  0.11399445786E+04  0.50400001928E-02 0. -1.
       -1    1    3    3    0  502 -0.85708718429E+03 -0.50407487248E+03 -0.42151605100E+03  0.10799841202E+04  0.50400001928E-02 0.  1.
</event>
<event>
 5   0  0.4188865E-05  0.2143025E+04  0.7818609E-02  0.8542524E-01
        1   -1    0    0  501    0  0.00000000000E+00  0.00000000000E+00  0.10815678336E+04  0.10815678336E+04  0.50400001928E-02 0.  1.
       -1   -1    0    0    0  501  0.00000000000E+00  0.00000000000E+00 -0.10615511009E+04  0.10615511009E+04  0.50400001928E-02 0. -1.
    10030    2    1    2    0    0  0.00000000000E+00  0.00000000000E+00  0.20016732690E+02  0.21431189346E+04  0.21430254544E+04 0.  0.
        3    1    3    3  502    0 -0.51278118661E+03  0.40475516587E+03 -0.83936267107E+03  0.10636263411E+04  0.10100000352E+00 0. -1.
       -3    1    3    3    0  502  0.51278118661E+03 -0.40475516587E+03  0.85937940376E+03  0.10794925935E+04  0.10100000352E+00 0.  1.
</event>
<event>
 5   0  0.4188865E-05  0.2102704E+04  0.7818609E-02  0.8560053E-01
        1   -1    0    0  501    0  0.00000000000E+00  0.00000000000E+00  0.75707315208E+03  0.75707315210E+03  0.50400001928E-02 0. -1.
       -1   -1    0    0    0  501  0.00000000000E+00  0.00000000000E+00 -0.14600188855E+04  0.14600188855E+04  0.50400001928E-02 0.  1.
    10030    2    1    2    0    0  0.00000000000E+00  0.00000000000E+00 -0.70294573339E+03  0.22170920376E+04  0.21027040683E+04 0.  0.
        3    1    3    3  502    0 -0.88325453424E+03 -0.50539679355E+03 -0.72950251671E+02  0.10202383254E+04  0.10100000352E+00 0.  1.
       -3    1    3    3    0  502  0.88325453424E+03  0.50539679355E+03 -0.62999548172E+03  0.11968537122E+04  0.10100000352E+00 0. -1.
</event>
<event>
 5   0  0.3283125E-05  0.2208094E+04  0.7818609E-02  0.8515067E-01
        3   -1    0    0  501    0  0.00000000000E+00  0.00000000000E+00  0.99043037611E+03  0.99043038126E+03  0.10100000352E+00 0. -1.
       -3   -1    0    0    0  501  0.00000000000E+00  0.00000000000E+00 -0.12306968982E+04  0.12306969023E+04  0.10100000352E+00 0.  1.
    10030    2    1    2    0    0  0.00000000000E+00  0.00000000000E+00 -0.24026652206E+03  0.22211272836E+04  0.22080938404E+04 0.  0.
        5    1    3    3  502    0 -0.14696633165E+03 -0.47521803688E+03  0.87131435777E+03  0.10033155462E+04  0.46999998093E+01 0. -1.
       -5    1    3    3    0  502  0.14696633165E+03  0.47521803688E+03 -0.11115808798E+04  0.12178117373E+04  0.46999998093E+01 0.  1.
</event>
<event>
 5   0  0.9179618E-05  0.2212218E+04  0.7818609E-02  0.8513360E-01
        2   -1    0    0  501    0  0.00000000000E+00  0.00000000000E+00  0.23704381709E+04  0.23704381709E+04  0.25500000920E-02 0. -1.
       -2   -1    0    0    0  501  0.00000000000E+00  0.00000000000E+00 -0.51613958770E+03  0.51613958771E+03  0.25500000920E-02 0.  1.
    10030    2    1    2    0    0  0.00000000000E+00  0.00000000000E+00  0.18542985832E+04  0.28865777586E+04  0.22122178737E+04 0.  0.
        3    1    3    3  502    0 -0.12105659528E+03 -0.10904250290E+04  0.74356357118E+03  0.13253558909E+04  0.10100000352E+00 0. -1.
       -3    1    3    3    0  502  0.12105659528E+03  0.10904250290E+04  0.11107350120E+04  0.15612218677E+04  0.10100000352E+00 0.  1.
</event>
<event>
 5   0  0.4063293E-05  0.2240556E+04  0.7818609E-02  0.8501735E-01
       -1   -1    0    0    0  501  0.00000000000E+00  0.00000000000E+00  0.12013994981E+04  0.12013994981E+04  0.50400001928E-02 0. -1.
        1   -1    0    0  501    0  0.00000000000E+00  0.00000000000E+00 -0.10446341133E+04  0.10446341133E+04  0.50400001928E-02 0.  1.
    10030    2    1    2    0    0  0.00000000000E+00  0.00000000000E+00  0.15676538485E+03  0.22460336114E+04  0.22405560911E+04 0.  0.
        1    1    3    3  502    0  0.53038616870E+03 -0.65889397544E+03  0.81473421525E+03  0.11744115975E+04  0.50400001928E-02 0. -1.
       -1    1    3    3    0  502 -0.53038616870E+03  0.65889397544E+03 -0.65796883041E+03  0.10716220139E+04  0.50400001928E-02 0.  1.
</event>
<event>
 5   0  0.9254673E-05  0.2204188E+04  0.7818609E-02  0.8516687E-01
       -2   -1    0    0    0  501  0.00000000000E+00  0.00000000000E+00  0.99912502789E+03  0.99912502789E+03  0.25500000920E-02 0.  1.
        2   -1    0    0  501    0  0.00000000000E+00  0.00000000000E+00 -0.12156743648E+04  0.12156743648E+04  0.25500000920E-02 0. -1.
    10030    2    1    2    0    0  0.00000000000E+00  0.00000000000E+00 -0.21654933690E+03  0.22147993927E+04  0.22041875452E+04 0.  0.
        2    1    3    3  502    0  0.52155321337E+03 -0.40314300329E+03 -0.99574177143E+03  0.11941707210E+04  0.25500000920E-02 0. -1.
       -2    1    3    3    0  502 -0.52155321337E+03  0.40314300329E+03  0.77919243452E+03  0.10206286717E+04  0.25500000920E-02 0.  1.
</event>
<event>
 5   0  0.4133418E-05  0.2160798E+04  0.7818609E-02  0.8534924E-01
       -1   -1    0    0    0  501  0.00000000000E+00  0.00000000000E+00  0.11952768921E+04  0.11952768921E+04  0.50400001928E-02 0.  1.
        1   -1    0    0  501    0  0.00000000000E+00  0.00000000000E+00 -0.97656206367E+03  0.97656206368E+03  0.50400001928E-02 0. -1.
    10030    2    1    2    0    0  0.00000000000E+00  0.00000000000E+00  0.21871482842E+03  0.21718389558E+04  0.21607980641E+04 0.  0.
        4    1    3    3  502    0  0.64713950325E+03 -0.19067386152E+03 -0.73882315640E+03  0.10005035370E+04  0.12699999809E+01 0. -1.
       -4    1    3    3    0  502 -0.64713950325E+03  0.19067386152E+03  0.95753798482E+03  0.11713354188E+04  0.12699999809E+01 0.  1.
</event>
<event>
 5   0  0.4063293E-05  0.2263659E+04  0.7818609E-02  0.8492389E-01
       -1   -1    0    0    0  501  0.00000000000E+00  0.00000000000E+00  0.10570712621E+04  0.10570712621E+04  0.50400001928E-02 0.  1.
        1   -1    0    0  501    0  0.00000000000E+00  0.00000000000E+00 -0.12118752331E+04  0.12118752331E+04  0.50400001928E-02 0. -1.
    10030    2    1    2    0    0  0.00000000000E+00  0.00000000000E+00 -0.15480397097E+03  0.22689464952E+04  0.22636594109E+04 0.  0.
        1    1    3    3  502    0 -0.35714785115E+03 -0.95468207880E+03  0.41574920807E+03  0.11008268997E+04  0.50400001928E-02 0. -1.
       -1    1    3    3    0  502  0.35714785115E+03  0.95468207880E+03 -0.57055317904E+03  0.11681195955E+04  0.50400001928E-02 0.  1.
</event>
<event>
 5   0  0.4174030E-05  0.2139767E+04  0.7818609E-02  0.8543925E-01
        1   -1    0    0  501    0  0.00000000000E+00  0.00000000000E+00  0.87644411285E+03  0.87644411286E+03  0.50400001928E-02 0.  1.
       -1   -1    0    0    0  501  0.00000000000E+00  0.00000000000E+00 -0.13060170976E+04  0.13060170976E+04  0.50400001928E-02 0. -1.
    10030    2    1    2    0    0  0.00000000000E+00  0.00000000000E+00 -0.42957298475E+03  0.21824612105E+04  0.21397672738E+04 0.  0.
        2    1    3    3  502    0 -0.32205141087E+03  0.92221917758E+03 -0.65989464439E+03  0.11788410684E+04  0.25500000920E-02 0. -1.
       -2    1    3    3    0  502  0.32205141087E+03 -0.92221917758E+03  0.23032165964E+03  0.10036201421E+04  0.25500000920E-02 0.  1.
</event>
<event>
 5   0  0.4188865E-05  0.2201270E+04  0.7818609E-02  0.8517900E-01
       -1   -1    0    0    0  501  0.00000000000E+00  0.00000000000E+00  0.10324483589E+04  0.10324483589E+04  0.50400001928E-02 0. -1.
        1   -1    0    0  501    0  0.00000000000E+00  0.00000000000E+00 -0.11733247639E+04  0.11733247639E+04  0.50400001928E-02 0.  1.
    10030    2    1    2    0    0  0.00000000000E+00  0.00000000000E+00 -0.14087640501E+03  0.22057731228E+04  0.22012698398E+04 0.  0.
        3    1    3    3  502    0 -0.10378958923E+03  0.42861108122E+03 -0.10809244643E+04  0.11674234217E+04  0.10100000352E+00 0.  1.
       -3    1    3    3    0  502  0.10378958923E+03 -0.42861108122E+03  0.94004805930E+03  0.10383497011E+04  0.10100000352E+00 0. -1.
</event>
<event>
 5   0  0.9442578E-05  0.1961749E+04  0.7818609E-02  0.8624716E-01
       -2   -1    0    0    0  501  0.00000000000E+00  0.00000000000E+00  0.14456531804E+04  0.14456531804E+04  0.25500000920E-02 0. -1.
        2   -1    0    0  501    0  0.00000000000E+00  0.00000000000E+00 -0.66552271236E+03  0.66552271236E+03  0.25500000920E-02 0.  1.
    10030    2    1    2    0    0  0.00000000000E+00  0.00000000000E+00  0.78013046805E+03  0.21111758928E+04  0.19617492457E+04 0.  0.
        4    1    3    3  502    0  0.79145579718E+03 -0.45104693909E+03  0.78145365833E+03  0.12002154195E+04  0.12699999809E+01 0. -1.
       -4    1    3    3    0  502 -0.79145579718E+03  0.45104693909E+03 -0.13231902815E+01  0.91096047328E+03  0.12699999809E+01 0.  1.
</event>
<event>
 5   0  0.9442578E-05  0.2182180E+04  0.7818609E-02  0.8525882E-01
        2   -1    0    0  501    0  0.00000000000E+00  0.00000000000E+00  0.98170908691E+03  0.98170908691E+03  0.25500000920E-02 0. -1.
       -2   -1    0    0    0  501  0.00000000000E+00  0.00000000000E+00 -0.12126580313E+04  0.12126580313E+04  0.25500000920E-02 0.  1.
    10030    2    1    2    0    0  0.00000000000E+00  0.00000000000E+00 -0.23094894443E+03  0.21943671182E+04  0.21821800189E+04 0.  0.
        4    1    3    3  502    0  0.90017204118E+03 -0.39207207352E+03  0.36304612632E+03  0.10468210531E+04  0.12699999809E+01 0. -1.
       -4    1    3    3    0  502 -0.90017204118E+03  0.39207207352E+03 -0.59399507075E+03  0.11475460651E+04  0.12699999809E+01 0.  1.
</event>
<event>
 5   0  0.4174030E-05  0.2221711E+04  0.7818609E-02  0.8509446E-01
       -1   -1    0    0    0  501  0.00000000000E+00  0.00000000000E+00  0.83342177855E+03  0.83342177856E+03  0.50400001928E-02 0. -1.
        1   -1    0    0  501    0  0.00000000000E+00  0.00000000000E+00 -0.14806425345E+04  0.14806425345E+04  0.50400001928E-02 0.  1.
    10030    2    1    2    0    0  0.00000000000E+00  0.00000000000E+00 -0.64722075592E+03  0.23140643130E+04  0.22217108133E+04 0.  0.
        2    1    3    3  502    0 -0.10484407417E+04 -0.26814180572E+03 -0.58477572945E+03  0.12300775059E+04  0.25500000920E-02 0.  1.
       -2    1    3    3    0  502  0.10484407417E+04  0.26814180572E+03 -0.62445026474E+02  0.10839868071E+04  0.25500000920E-02 0. -1.
</event>
<event>
 5   0  0.9442578E-05  0.2191023E+04  0.7818609E-02  0.8522174E-01
       -2   -1    0    0    0  501  0.00000000000E+00  0.00000000000E+00  0.85006273730E+03  0.85006273731E+03  0.25500000920E-02 0. -1.
        2   -1    0    0  501    0  0.00000000000E+00  0.00000000000E+00 -0.14118321747E+04  0.14118321747E+04  0.25500000920E-02 0.  1.
    10030    2    1    2    0    0  0.00000000000E+00  0.00000000000E+00 -0.56176943737E+03  0.22618949120E+04  0.21910234349E+04 0.  0.
        4    1    3    3  502    0  0.43770511653E+03  0.45428100634E+03  0.64373530477E+03  0.90130669434E+03  0.12699999809E+01 0. -1.
       -4    1    3    3    0  502 -0.43770511653E+03 -0.45428100634E+03 -0.12055047421E+04  0.13605882176E+04  0.12699999809E+01 0.  1.
</event>
<event>
 5   0  0.9457742E-05  0.2167383E+04  0.7818609E-02  0.8532128E-01
       -2   -1    0    0    0  501  0.00000000000E+00  0.00000000000E+00  0.87638606234E+03  0.87638606234E+03  0.25500000920E-02 0. -1.
        2   -1    0    0  501    0  0.00000000000E+00  0.00000000000E+00 -0.13400346204E+04  0.13400346204E+04  0.25500000920E-02 0.  1.
    10030    2    1    2    0    0  0.00000000000E+00  0.00000000000E+00 -0.46364855802E+03  0.22164206827E+04  0.21673833665E+04 0.  0.
        1    1    3    3  502    0 -0.89760043365E+03  0.60718657644E+03 -0.22665145236E+03  0.11071282482E+04  0.50400001928E-02 0. -1.
       -1    1    3    3    0  502  0.89760043365E+03 -0.60718657644E+03 -0.23699710566E+03  0.11092924345E+04  0.50400001928E-02 0.  1.
</event>
<event>
 5   0  0.9442578E-05  0.2205227E+04  0.7818609E-02  0.8516256E-01
        2   -1    0    0  501    0  0.00000000000E+00  0.00000000000E+00  0.20568529157E+04  0.20568529157E+04  0.25500000920E-02 0. -1.
       -2   -1    0    0    0  501  0.00000000000E+00  0.00000000000E+00 -0.59107613490E+03  0.59107613491E+03  0.25500000920E-02 0.  1.
    10030    2    1    2    0    0  0.00000000000E+00  0.00000000000E+00  0.14657767808E+04  0.26479290506E+04  0.22052271280E+04 0.  0.
        4    1    3    3  502    0  0.69770528474E+03  0.83409045197E+03  0.51391827949E+03  0.12027523258E+04  0.12699999809E+01 0. -1.
       -4    1    3    3    0  502 -0.69770528474E+03 -0.83409045197E+03  0.95185850133E+03  0.14451767248E+04  0.12699999809E+01 0.  1.
</event>
<event>
 5   0  0.4188865E-05  0.2302865E+04  0.7818609E-02  0.8476792E-01
        1   -1    0    0  501    0  0.00000000000E+00  0.00000000000E+00  0.21430148710E+04  0.21430148710E+04  0.50400001928E-02 0.  1.
       -1   -1    0    0    0  501  0.00000000000E+00  0.00000000000E+00 -0.61865965042E+03  0.61865965044E+03  0.50400001928E-02 0. -1.
    10030    2    1    2    0    0  0.00000000000E+00  0.00000000000E+00  0.15243552205E+04  0.27616745214E+04  0.23028650251E+04 0.  0.
        3    1    3    3  502    0  0.54750894919E+03 -0.10085780649E+04  0.64967270483E+03  0.13187381833E+04  0.10100000352E+00 0. -1.
       -3    1    3    3    0  502 -0.54750894919E+03  0.10085780649E+04  0.87468251571E+03  0.14429363381E+04  0.10100000352E+00 0.  1.
</event>
<event>
 5   0  0.9938176E-05  0.2011125E+04  0.7818609E-02  0.8601437E-01
       -2   -1    0    0    0  501  0.00000000000E+00  0.00000000000E+00  0.10950761154E+04  0.10950761154E+04  0.25500000920E-02 0. -1.
        2   -1    0    0  501    0  0.00000000000E+00  0.00000000000E+00 -0.92336571160E+03  0.92336571160E+03  0.25500000920E-02 0.  1.
    10030    2    1    2    0    0  0.00000000000E+00  0.00000000000E+00  0.17171040379E+03  0.20184418270E+04  0.20111247963E+04 0.  0.
        5    1    3    3  502    0 -0.83332888547E+03  0.29929980272E+03  0.56415623013E+03  0.10499103511E+04  0.46999998093E+01 0.  1.
       -5    1    3    3    0  502  0.83332888547E+03 -0.29929980272E+03 -0.39244582634E+03  0.96853147594E+03  0.46999998093E+01 0. -1.
</event>
<event>
 5   0  0.4174075E-05  0.2202402E+04  0.7818609E-02  0.8517429E-01
        1   -1    0    0  501    0  0.00000000000E+00  0.00000000000E+00  0.11586463072E+04  0.11586463072E+04  0.50400001928E-02 0. -1.
       -1   -1    0    0    0  501  0.00000000000E+00  0.00000000000E+00 -0.10466036549E+04  0.10466036549E+04  0.50400001928E-02 0.  1.
    10030    2    1    2    0    0  0.00000000000E+00  0.00000000000E+00  0.11204265232E+03  0.22052499621E+04  0.22024018342E+04 0.  0.
        5    1    3    3  502    0 -0.10802062228E+04 -0.20762903614E+03  0.10772209351E+03  0.11052517541E+04  0.46999998093E+01 0. -1.
       -5    1    3    3    0  502  0.10802062228E+04  0.20762903614E+03  0.43205588043E+01  0.10999982080E+04  0.46999998093E+01 0.  1.
</event>
<event>
 5   0  0.4188865E-05  0.1835753E+04  0.7818609E-02  0.8687514E-01
        1   -1    0    0  501    0  0.00000000000E+00  0.00000000000E+00  0.12266094772E+04  0.12266094772E+04  0.50400001928E-02 0.  1.
       -1   -1    0    0    0  501  0.00000000000E+00  0.00000000000E+00 -0.68685072401E+03  0.68685072403E+03  0.50400001928E-02 0. -1.
    10030    2    1    2    0    0  0.00000000000E+00  0.00000000000E+00  0.53975875315E+03  0.19134602012E+04  0.18357533685E+04 0.  0.
        3    1    3    3  502    0 -0.19642971292E+03 -0.85715567739E+03 -0.43090237301E+01  0.87938561808E+03  0.10100000352E+00 0.  1.
       -3    1    3    3    0  502  0.19642971292E+03  0.85715567739E+03  0.54406777688E+03  0.10340745831E+04  0.10100000352E+00 0. -1.
</event>
<event>
 5   0  0.9179618E-05  0.2142366E+04  0.7818609E-02  0.8542807E-01
        2   -1    0    0  501    0  0.00000000000E+00  0.00000000000E+00  0.11577371971E+04  0.11577371971E+04  0.25500000920E-02 0. -1.
       -2   -1    0    0    0  501  0.00000000000E+00  0.00000000000E+00 -0.99110009584E+03  0.99110009584E+03  0.25500000920E-02 0.  1.
    10030    2    1    2    0    0  0.00000000000E+00  0.00000000000E+00  0.16663710122E+03  0.21488372929E+04  0.21423663991E+04 0.  0.
        3    1    3    3  502    0  0.67848877580E+03  0.18878982295E+03 -0.72624062983E+03  0.10116393027E+04  0.10100000352E+00 0.  1.
       -3    1    3    3    0  502 -0.67848877580E+03 -0.18878982295E+03  0.89287773105E+03  0.11371979902E+04  0.10100000352E+00 0. -1.
</event>
<event>
 5   0  0.4063293E-05  0.2230891E+04  0.7818609E-02  0.8505680E-01
       -1   -1    0    0    0  501  0.00000000000E+00  0.00000000000E+00  0.16364254314E+04  0.16364254314E+04  0.50400001928E-02 0. -1.
        1   -1    0    0  501    0  0.00000000000E+00  0.00000000000E+00 -0.76032681309E+03  0.76032681311E+03  0.50400001928E-02 0.  1.
    10030    2    1    2    0    0  0.00000000000E+00  0.00000000000E+00  0.87609861834E+03  0.23967522445E+04  0.22308905246E+04 0.  0.
        1    1    3    3  502    0  0.80248873369E+02  0.39350979652E+02  0.16325722081E+04  0.16350169406E+04  0.50400001928E-02 0. -1.
       -1    1    3    3    0  502 -0.80248873369E+02 -0.39350979652E+02 -0.75647358976E+03  0.76173530397E+03  0.50400001928E-02 0.  1.
</event>
<event>
 5   0  0.4133418E-05  0.2205371E+04  0.7818609E-02  0.8516196E-01
       -1   -1    0    0    0  501  0.00000000000E+00  0.00000000000E+00  0.12155042736E+04  0.12155042736E+04  0.50400001928E-02 0. -1.
        1   -1    0    0  501    0  0.00000000000E+00  0.00000000000E+00 -0.10003378497E+04  0.10003378497E+04  0.50400001928E-02 0.  1.
    10030    2    1    2    0    0  0.00000000000E+00  0.00000000000E+00  0.21516642389E+03  0.22158421233E+04  0.22053706549E+04 0.  0.
        4    1    3    3  502    0 -0.43576106485E+03  0.68456048441E+03  0.85772213486E+03  0.11807623114E+04  0.12699999809E+01 0. -1.
       -4    1    3    3    0  502  0.43576106485E+03 -0.68456048441E+03 -0.64255571098E+03  0.10350798119E+04  0.12699999809E+01 0.  1.
</event>
<event>
 5   0  0.4174075E-05  0.2184017E+04  0.7818609E-02  0.8525110E-01
        1   -1    0    0  501    0  0.00000000000E+00  0.00000000000E+00  0.23081591499E+04  0.23081591499E+04  0.50400001928E-02 0. -1.
       -1   -1    0    0    0  501  0.00000000000E+00  0.00000000000E+00 -0.51663776602E+03  0.51663776604E+03  0.50400001928E-02 0.  1.
    10030    2    1    2    0    0  0.00000000000E+00  0.00000000000E+00  0.17915213838E+04  0.28247969159E+04  0.21840166546E+04 0.  0.
        5    1    3    3  502    0  0.66185891690E+03 -0.29581294424E+03  0.19519964182E+04  0.20822763098E+04  0.46999998093E+01 0. -1.
       -5    1    3    3    0  502 -0.66185891690E+03  0.29581294424E+03 -0.16047503432E+03  0.74252060611E+03  0.46999998093E+01 0.  1.
</event>
<event>
 5   0  0.4063293E-05  0.2204045E+04  0.7818609E-02  0.8516746E-01
       -1   -1    0    0    0  501  0.00000000000E+00  0.00000000000E+00  0.50320727478E+03  0.50320727480E+03  0.50400001928E-02 0. -1.
        1   -1    0    0  501    0  0.00000000000E+00  0.00000000000E+00 -0.24134269696E+04  0.24134269696E+04  0.50400001928E-02 0.  1.
    10030    2    1    2    0    0  0.00000000000E+00  0.00000000000E+00 -0.19102196948E+04  0.29166342444E+04  0.22040453791E+04 0.  0.
        1    1    3    3  502    0 -0.95270600716E+03 -0.37477248203E+03 -0.41538307351E+03  0.11048286053E+04  0.50400001928E-02 0.  1.
       -1    1    3    3    0  502  0.95270600716E+03  0.37477248203E+03 -0.14948366213E+04  0.18118056391E+04  0.50400001928E-02 0. -1.
</event>
<event>
 5   0  0.4063293E-05  0.2217252E+04  0.7818609E-02  0.8511282E-01
       -1   -1    0    0    0  501  0.00000000000E+00  0.00000000000E+00  0.11688606421E+04  0.11688606421E+04  0.50400001928E-02 0. -1.
        1   -1    0    0  501    0  0.00000000000E+00  0.00000000000E+00 -0.10514949910E+04  0.10514949910E+04  0.50400001928E-02 0.  1.
    10030    2    1    2    0    0  0.00000000000E+00  0.00000000000E+00  0.11736565111E+03  0.22203556330E+04  0.22172515512E+04 0.  0.
        1    1    3    3  502    0  0.32722628111E+03 -0.39038739456E+03 -0.92736402581E+03  0.10580564225E+04  0.50400001928E-02 0.  1.
       -1    1    3    3    0  502 -0.32722628111E+03  0.39038739456E+03  0.10447296769E+04  0.11622992105E+04  0.50400001928E-02 0. -1.
</event>
<event>
 5   0  0.9442578E-05  0.2207777E+04  0.7818609E-02  0.8515198E-01
       -2   -1    0    0    0  501  0.00000000000E+00  0.00000000000E+00  0.93132040279E+03  0.93132040279E+03  0.25500000920E-02 0.  1.
        2   -1    0    0  501    0  0.00000000000E+00  0.00000000000E+00 -0.13084323371E+04  0.13084323371E+04  0.25500000920E-02 0. -1.
    10030    2    1    2    0    0  0.00000000000E+00  0.00000000000E+00 -0.37711193426E+03  0.22397527398E+04  0.22077769191E+04 0.  0.
        4    1    3    3  502    0  0.34668790215E+03 -0.36735142847E+03  0.80720395494E+03  0.95221815320E+03  0.12699999809E+01 0.  1.
       -4    1    3    3    0  502 -0.34668790215E+03  0.36735142847E+03 -0.11843158892E+04  0.12875345867E+04  0.12699999809E+01 0. -1.
</event>
<event>
 5   0  0.4133418E-05  0.2144156E+04  0.7818609E-02  0.8542038E-01
        1   -1    0    0  501    0  0.00000000000E+00  0.00000000000E+00  0.83989260346E+03  0.83989260347E+03  0.50400001928E-02 0. -1.
       -1   -1    0    0    0  501  0.00000000000E+00  0.00000000000E+00 -0.13684499923E+04  0.13684499923E+04  0.50400001928E-02 0.  1.
    10030    2    1    2    0    0  0.00000000000E+00  0.00000000000E+00 -0.52855738880E+03  0.22083425957E+04  0.21441558029E+04 0.  0.
        4    1    3    3  502    0  0.16162631439E+03  0.99046641797E+03  0.12410761589E+03  0.10112126897E+04  0.12699999809E+01 0. -1.
       -4    1    3    3    0  502 -0.16162631439E+03 -0.99046641797E+03 -0.65266500468E+03  0.11971299060E+04  0.12699999809E+01 0.  1.
</event>
<event>
 5   0  0.4063293E-05  0.1845348E+04  0.7818609E-02  0.8682549E-01
        1   -1    0    0  501    0  0.00000000000E+00  0.00000000000E+00  0.77864910594E+03  0.77864910596E+03  0.50400001928E-02 0.  1.
       -1   -1    0    0    0  501  0.00000000000E+00  0.00000000000E+00 -0.10933390147E+04  0.10933390147E+04  0.50400001928E-02 0. -1.
    10030    2    1    2    0    0  0.00000000000E+00  0.00000000000E+00 -0.31468990873E+03  0.18719881206E+04  0.18453481474E+04 0.  0.
        1    1    3    3  502    0 -0.92093820468E+03 -0.37768412011E+02 -0.11462024501E+03  0.92881183799E+03  0.50400001928E-02 0. -1.
       -1    1    3    3    0  502  0.92093820468E+03  0.37768412011E+02 -0.20006966372E+03  0.94317628265E+03  0.50400001928E-02 0.  1.
</event>
<event>
 5   0  0.4188865E-05  0.2194849E+04  0.7818609E-02  0.8520575E-01
       -1   -1    0    0    0  501  0.00000000000E+00  0.00000000000E+00  0.12046126879E+04  0.12046126879E+04  0.50400001928E-02 0. -1.
        1   -1    0    0  501    0  0.00000000000E+00  0.00000000000E+00 -0.99977382088E+03  0.99977382090E+03  0.50400001928E-02 0.  1.
    10030    2    1    2    0    0  0.00000000000E+00  0.00000000000E+00  0.20483886697E+03  0.22043865088E+04  0.21948487234E+04 0.  0.
        3    1    3    3  502    0 -0.36953856786E+03  0.96813894794E+01  0.11401993915E+04  0.11986271919E+04  0.10100000352E+00 0. -1.
       -3    1    3    3    0  502  0.36953856786E+03 -0.96813894794E+01 -0.93536052456E+03  0.10057593169E+04  0.10100000352E+00 0.  1.
</event>
<event>
 5   0  0.4188865E-05  0.2203617E+04  0.7818609E-02  0.8516924E-01
        1   -1    0    0  501    0  0.00000000000E+00  0.00000000000E+00  0.46134684902E+03  0.46134684905E+03  0.50400001928E-02 0.  1.
       -1   -1    0    0    0  501  0.00000000000E+00  0.00000000000E+00 -0.26313870846E+04  0.26313870846E+04  0.50400001928E-02 0. -1.
    10030    2    1    2    0    0  0.00000000000E+00  0.00000000000E+00 -0.21700402355E+04  0.30927339336E+04  0.22036171537E+04 0.  0.
        3    1    3    3  502    0 -0.80472573699E+03  0.69776353906E+03 -0.68923694101E+03  0.12686626972E+04  0.10100000352E+00 0.  1.
       -3    1    3    3    0  502  0.80472573699E+03 -0.69776353906E+03 -0.14808032945E+04  0.18240712364E+04  0.10100000352E+00 0. -1.
</event>
<event>
 5   0  0.9442578E-05  0.2213894E+04  0.7818609E-02  0.8512667E-01
       -2   -1    0    0    0  501  0.00000000000E+00  0.00000000000E+00  0.99167589569E+03  0.99167589569E+03  0.25500000920E-02 0.  1.
        2   -1    0    0  501    0  0.00000000000E+00  0.00000000000E+00 -0.12356176171E+04  0.12356176171E+04  0.25500000920E-02 0. -1.
    10030    2    1    2    0    0  0.00000000000E+00  0.00000000000E+00 -0.24394172138E+03  0.22272935128E+04  0.22138944936E+04 0.  0.
        4    1    3    3  502    0  0.93101646217E+03 -0.11072066957E+03 -0.71398783356E+03  0.11784867241E+04  0.12699999809E+01 0. -1.
       -4    1    3    3    0  502 -0.93101646217E+03  0.11072066957E+03  0.47004611218E+03  0.10488067887E+04  0.12699999809E+01 0.  1.
</event>
<event>
 5   0  0.4174030E-05  0.2168088E+04  0.7818609E-02  0.8531829E-01
       -1   -1    0    0    0  501  0.00000000000E+00  0.00000000000E+00  0.88125435973E+03  0.88125435975E+03  0.50400001928E-02 0. -1.
        1   -1    0    0  501    0  0.00000000000E+00  0.00000000000E+00 -0.13334988865E+04  0.13334988865E+04  0.50400001928E-02 0.  1.
    10030    2    1    2    0    0  0.00000000000E+00  0.00000000000E+00 -0.45224452676E+03  0.22147532463E+04  0.21680882892E+04 0.  0.
        2    1    3    3  502    0 -0.69434009729E+03  0.75528569159E+03 -0.58378253292E+03  0.11804095443E+04  0.25500000920E-02 0.  1.
       -2    1    3    3    0  502  0.69434009729E+03 -0.75528569159E+03  0.13153800616E+03  0.10343437019E+04  0.25500000920E-02 0. -1.
</event>
<event>
 5   0  0.4133418E-05  0.2213110E+04  0.7818609E-02  0.8512991E-01
       -1   -1    0    0    0  501  0.00000000000E+00  0.00000000000E+00  0.75031235402E+03  0.75031235404E+03  0.50400001928E-02 0.  1.
        1   -1    0    0  501    0  0.00000000000E+00  0.00000000000E+00 -0.16319391423E+04  0.16319391423E+04  0.50400001928E-02 0. -1.
    10030    2    1    2    0    0  0.00000000000E+00  0.00000000000E+00 -0.88162678824E+03  0.23822514963E+04  0.22131101188E+04 0.  0.
        4    1    3    3  502    0  0.73152323371E+03  0.61182266495E+03  0.16333865508E+03  0.96754035779E+03  0.12699999809E+01 0.  1.
       -4    1    3    3    0  502 -0.73152323371E+03 -0.61182266495E+03 -0.10449654433E+04  0.14147111385E+04  0.12699999809E+01 0. -1.
</event>
<event>
 5   0  0.9442578E-05  0.2197948E+04  0.7818609E-02  0.8519283E-01
        2   -1    0    0  501    0  0.00000000000E+00  0.00000000000E+00  0.15861804327E+04  0.15861804327E+04  0.25500000920E-02 0. -1.
       -2   -1    0    0    0  501  0.00000000000E+00  0.00000000000E+00 -0.76141630419E+03  0.76141630420E+03  0.25500000920E-02 0.  1.
    10030    2    1    2    0    0  0.00000000000E+00  0.00000000000E+00  0.82476412848E+03  0.23475967369E+04  0.21979478091E+04 0.  0.
        4    1    3    3  502    0  0.51857728114E+03 -0.63928066124E+03  0.11900628248E+04  0.14470153076E+04  0.12699999809E+01 0. -1.
       -4    1    3    3    0  502 -0.51857728114E+03  0.63928066124E+03 -0.36529869636E+03  0.90058142931E+03  0.12699999809E+01 0.  1.
</event>
<event>
 5   0  0.9938176E-05  0.2199306E+04  0.7818609E-02  0.8518717E-01
       -2   -1    0    0    0  501  0.00000000000E+00  0.00000000000E+00  0.41685010625E+03  0.41685010626E+03  0.25500000920E-02 0. -1.
        2   -1    0    0  501    0  0.00000000000E+00  0.00000000000E+00 -0.29008915198E+04  0.29008915198E+04  0.25500000920E-02 0.  1.
    10030    2    1    2    0    0  0.00000000000E+00  0.00000000000E+00 -0.24840414136E+04  0.33177416261E+04  0.21993061981E+04 0.  0.
        5    1    3    3  502    0 -0.60650137337E+02  0.81282179287E+03 -0.12850028174E+03  0.82516187414E+03  0.46999998093E+01 0. -1.
       -5    1    3    3    0  502  0.60650137337E+02 -0.81282179287E+03 -0.23555411318E+04  0.24925797519E+04  0.46999998093E+01 0.  1.
</event>
<event>
 5   0  0.4133418E-05  0.2127133E+04  0.7818609E-02  0.8549384E-01
       -1   -1    0    0    0  501  0.00000000000E+00  0.00000000000E+00  0.11739825103E+04  0.11739825103E+04  0.50400001928E-02 0. -1.
        1   -1    0    0  501    0  0.00000000000E+00  0.00000000000E+00 -0.96353554028E+03  0.96353554029E+03  0.50400001928E-02 0.  1.
    10030    2    1    2    0    0  0.00000000000E+00  0.00000000000E+00  0.21044697004E+03  0.21375180506E+04  0.21271331622E+04 0.  0.
        4    1    3    3  502    0  0.86197925101E+03 -0.87298443317E+02 -0.51466988046E+03  0.10077281112E+04  0.12699999809E+01 0.  1.
       -4    1    3    3    0  502 -0.86197925101E+03  0.87298443317E+02  0.72511685051E+03  0.11297899394E+04  0.12699999809E+01 0. -1.
</event>
<event>
 5   0  0.9442578E-05  0.2192696E+04  0.7818609E-02  0.8521474E-01
       -2   -1    0    0    0  501  0.00000000000E+00  0.00000000000E+00  0.11863178890E+04  0.11863178890E+04  0.25500000920E-02 0.  1.
        2   -1    0    0  501    0  0.00000000000E+00  0.00000000000E+00 -0.10132016010E+04  0.10132016010E+04  0.25500000920E-02 0. -1.
    10030    2    1    2    0    0  0.00000000000E+00  0.00000000000E+00  0.17311628806E+03  0.21995194900E+04  0.21926962256E+04 0.  0.
        4    1    3    3  502    0 -0.48144414540E+03  0.96621002677E+03 -0.10541997958E+03  0.10846498356E+04  0.12699999809E+01 0.  1.
       -4    1    3    3    0  502  0.48144414540E+03 -0.96621002677E+03  0.27853626764E+03  0.11148696544E+04  0.12699999809E+01 0. -1.
</event>
<event>
 5   0  0.9179618E-05  0.2210682E+04  0.7818609E-02  0.8513995E-01
        2   -1    0    0  501    0  0.00000000000E+00  0.00000000000E+00  0.12210507615E+04  0.12210507615E+04  0.25500000920E-02 0.  1.
       -2   -1    0    0    0  501  0.00000000000E+00  0.00000000000E+00 -0.10005964101E+04  0.10005964101E+04  0.25500000920E-02 0. -1.
    10030    2    1    2    0    0  0.00000000000E+00  0.00000000000E+00  0.22045435141E+03  0.22216471716E+04  0.22106822553E+04 0.  0.
        3    1    3    3  502    0  0.14324758371E+03  0.59018734564E+03  0.10383543768E+04  0.12029217744E+04  0.10100000352E+00 0.  1.
       -3    1    3    3    0  502 -0.14324758371E+03 -0.59018734564E+03 -0.81790002541E+03  0.10187253972E+04  0.10100000352E+00 0. -1.
</event>
<event>
 5   0  0.4174075E-05  0.2228622E+04  0.7818609E-02  0.8506609E-01
        1   -1    0    0  501    0  0.00000000000E+00  0.00000000000E+00  0.18880889057E+04  0.18880889057E+04  0.50400001928E-02 0.  1.
       -1   -1    0    0    0  501  0.00000000000E+00  0.00000000000E+00 -0.65764327840E+03  0.65764327842E+03  0.50400001928E-02 0. -1.
    10030    2    1    2    0    0  0.00000000000E+00  0.00000000000E+00  0.12304456273E+04  0.25457321842E+04  0.22286219759E+04 0.  0.
        5    1    3    3  502    0 -0.26042539267E+03  0.10698610421E+03 -0.61633274068E+03  0.67761017471E+03  0.46999998093E+01 0. -1.
       -5    1    3    3    0  502  0.26042539267E+03 -0.10698610421E+03  0.18467783680E+04  0.18681220094E+04  0.46999998093E+01 0.  1.
</event>
<event>
 5   0  0.9254673E-05  0.2192970E+04  0.7818609E-02  0.8521360E-01
       -2   -1    0    0    0  501  0.00000000000E+00  0.00000000000E+00  0.12218358637E+04  0.12218358637E+04  0.25500000920E-02 0.  1.
        2   -1    0    0  501    0  0.00000000000E+00  0.00000000000E+00 -0.98399453026E+03  0.98399453026E+03  0.25500000920E-02 0. -1.
    10030    2    1    2    0    0  0.00000000000E+00  0.00000000000E+00  0.23784133347E+03  0.22058303940E+04  0.21929704118E+04 0.  0.
        2    1    3    3  502    0 -0.76567306348E+03 -0.72419572269E+03  0.42329244619E+03  0.11357337628E+04  0.25500000920E-02 0.  1.
       -2    1    3    3    0  502  0.76567306348E+03  0.72419572269E+03 -0.18545111273E+03  0.10700966312E+04  0.25500000920E-02 0. -1.
</event>
<event>
 5   0  0.4174075E-05  0.2056118E+04  0.7818609E-02  0.8580824E-01
       -1   -1    0    0    0  501  0.00000000000E+00  0.00000000000E+00  0.10066338274E+04  0.10066338274E+04  0.50400001928E-02 0. -1.
        1   -1    0    0  501    0  0.00000000000E+00  0.00000000000E+00 -0.10499400415E+04  0.10499400416E+04  0.50400001928E-02 0.  1.
    10030    2    1    2    0    0  0.00000000000E+00  0.00000000000E+00 -0.43306214123E+02  0.20565738690E+04  0.20561178591E+04 0.  0.
        5    1    3    3  502    0 -0.81244685680E+03  0.61779838894E+03  0.10141209387E+03  0.10256954944E+04  0.46999998093E+01 0. -1.
       -5    1    3    3    0  502  0.81244685680E+03 -0.61779838894E+03 -0.14471830799E+03  0.10308783746E+04  0.46999998093E+01 0.  1.
</event>
<event>
 5   0  0.9254673E-05  0.2178428E+04  0.7818609E-02  0.8527461E-01
       -2   -1    0    0    0  501  0.00000000000E+00  0.00000000000E+00  0.10427398350E+04  0.10427398350E+04  0.25500000920E-02 0. -1.
        2   -1    0    0  501    0  0.00000000000E+00  0.00000000000E+00 -0.11377592500E+04  0.11377592500E+04  0.25500000920E-02 0.  1.
    10030    2    1    2    0    0  0.00000000000E+00  0.00000000000E+00 -0.95019414921E+02  0.21804990850E+04  0.21784277749E+04 0.  0.
        2    1    3    3  502    0  0.55516816578E+03  0.62409177469E+03 -0.74723423111E+03  0.11207413759E+04  0.25500000920E-02 0.  1.
       -2    1    3    3    0  502 -0.55516816578E+03 -0.62409177469E+03  0.65221481619E+03  0.10597577091E+04  0.25500000920E-02 0. -1.
</event>
<event>
 5   0  0.4188865E-05  0.2138404E+04  0.7818609E-02  0.8544512E-01
        1   -1    0    0  501    0  0.00000000000E+00  0.00000000000E+00  0.99450352471E+03  0.99450352472E+03  0.50400001928E-02 0.  1.
       -1   -1    0    0    0  501  0.00000000000E+00  0.00000000000E+00 -0.11495114210E+04  0.11495114210E+04  0.50400001928E-02 0. -1.
    10030    2    1    2    0    0  0.00000000000E+00  0.00000000000E+00 -0.15500789633E+03  0.21440149458E+04  0.21384042274E+04 0.  0.
        3    1    3    3  502    0  0.72496050520E+03  0.38323553916E+03  0.61041283830E+03  0.10222724959E+04  0.10100000352E+00 0.  1.
       -3    1    3    3    0  502 -0.72496050520E+03 -0.38323553916E+03 -0.76542073463E+03  0.11217424498E+04  0.10100000352E+00 0. -1.
</event>
<event>
 5   0  0.9179618E-05  0.2155277E+04  0.7818609E-02  0.8537277E-01
        2   -1    0    0  501    0  0.00000000000E+00  0.00000000000E+00  0.16372437870E+04  0.16372437870E+04  0.25500000920E-02 0.  1.
       -2   -1    0    0    0  501  0.00000000000E+00  0.00000000000E+00 -0.70930451712E+03  0.70930451712E+03  0.25500000920E-02 0. -1.
    10030    2    1    2    0    0  0.00000000000E+00  0.00000000000E+00  0.92793926992E+03  0.23465483042E+04  0.21552767004E+04 0.  0.
        3    1    3    3  502    0  0.83683016251E+03  0.55816619664E+03  0.88489368739E+03  0.13397279844E+04  0.10100000352E+00 0. -1.
       -3    1    3    3    0  502 -0.83683016251E+03 -0.55816619664E+03  0.43045582538E+02  0.10068203198E+04  0.10100000352E+00 0.  1.
</event>
<event>
 5   0  0.4133418E-05  0.2335674E+04  0.7818609E-02  0.8463987E-01
       -1   -1    0    0    0  501  0.00000000000E+00  0.00000000000E+00  0.14395460100E+04  0.14395460100E+04  0.50400001928E-02 0. -1.
        1   -1    0    0  501    0  0.00000000000E+00  0.00000000000E+00 -0.94741212716E+03  0.94741212718E+03  0.50400001928E-02 0.  1.
    10030    2    1    2    0    0  0.00000000000E+00  0.00000000000E+00  0.49213388279E+03  0.23869581371E+04  0.23356740761E+04 0.  0.
        4    1    3    3  502    0  0.58842612218E+03  0.15332266839E+03 -0.77286483645E+03  0.98339961878E+03  0.12699999809E+01 0.  1.
       -4    1    3    3    0  502 -0.58842612218E+03 -0.15332266839E+03  0.12649987192E+04  0.14035585184E+04  0.12699999809E+01 0. -1.
</event>
<event>
 5   0  0.4063293E-05  0.2058381E+04  0.7818609E-02  0.8579802E-01
       -1   -1    0    0    0  501  0.00000000000E+00  0.00000000000E+00  0.11757165838E+04  0.11757165838E+04  0.50400001928E-02 0.  1.
        1   -1    0    0  501    0  0.00000000000E+00  0.00000000000E+00 -0.90092555611E+03  0.90092555613E+03  0.50400001928E-02 0. -1.
    10030    2    1    2    0    0  0.00000000000E+00  0.00000000000E+00  0.27479102769E+03  0.20766421399E+04  0.20583810309E+04 0.  0.
        1    1    3    3  502    0  0.72908121216E+03 -0.59935944504E+03 -0.27666234619E+03  0.98353099194E+03  0.50400001928E-02 0. -1.
       -1    1    3    3    0  502 -0.72908121216E+03  0.59935944504E+03  0.55145337388E+03  0.10931111480E+04  0.50400001928E-02 0.  1.
</event>
<event>
 5   0  0.9254673E-05  0.2178457E+04  0.7818609E-02  0.8527449E-01
        2   -1    0    0  501    0  0.00000000000E+00  0.00000000000E+00  0.14725729662E+04  0.14725729662E+04  0.25500000920E-02 0. -1.
       -2   -1    0    0    0  501  0.00000000000E+00  0.00000000000E+00 -0.80567730038E+03  0.80567730038E+03  0.25500000920E-02 0.  1.
    10030    2    1    2    0    0  0.00000000000E+00  0.00000000000E+00  0.66689566579E+03  0.22782502666E+04  0.21784568961E+04 0.  0.
        2    1    3    3  502    0  0.61743561703E+03 -0.15382268127E+03  0.12579872066E+04  0.14097588342E+04  0.25500000920E-02 0. -1.
       -2    1    3    3    0  502 -0.61743561703E+03  0.15382268127E+03 -0.59109154085E+03  0.86849143238E+03  0.25500000920E-02 0.  1.
</event>
<event>
 5   0  0.4188865E-05  0.2184408E+04  0.7818609E-02  0.8524946E-01
        1   -1    0    0  501    0  0.00000000000E+00  0.00000000000E+00  0.20189736430E+04  0.20189736430E+04  0.50400001928E-02 0.  1.
       -1   -1    0    0    0  501  0.00000000000E+00  0.00000000000E+00 -0.59084936507E+03  0.59084936509E+03  0.50400001928E-02 0. -1.
    10030    2    1    2    0    0  0.00000000000E+00  0.00000000000E+00  0.14281242779E+04  0.26098230081E+04  0.21844077413E+04 0.  0.
        3    1    3    3  502    0 -0.26532579460E+03 -0.10294043380E+03 -0.54577120631E+03  0.61551663667E+03  0.10100000352E+00 0. -1.
       -3    1    3    3    0  502  0.26532579460E+03  0.10294043380E+03  0.19738954842E+04  0.19943063714E+04  0.10100000352E+00 0.  1.
</event>
<event>
 5   0  0.9442578E-05  0.2202583E+04  0.7818609E-02  0.8517354E-01
        2   -1    0    0  501    0  0.00000000000E+00  0.00000000000E+00  0.15604005298E+04  0.15604005298E+04  0.25500000920E-02 0.  1.
       -2   -1    0    0    0  501  0.00000000000E+00  0.00000000000E+00 -0.77726358994E+03  0.77726358995E+03  0.25500000920E-02 0. -1.
    10030    2    1    2    0    0  0.00000000000E+00  0.00000000000E+00  0.78313693983E+03  0.23376641197E+04  0.22025825910E+04 0.  0.
        4    1    3    3  502    0 -0.90382479310E+03  0.50850592231E+03  0.78492411315E+03  0.13006094748E+04  0.12699999809E+01 0.  1.
       -4    1    3    3    0  502  0.90382479310E+03 -0.50850592231E+03 -0.17871733268E+01  0.10370546449E+04  0.12699999809E+01 0. -1.
</event>
<event>
 5   0  0.9179618E-05  0.2202387E+04  0.7818609E-02  0.8517435E-01
        2   -1    0    0  501    0  0.00000000000E+00  0.00000000000E+00  0.23629034884E+04  0.23629034884E+04  0.25500000920E-02 0.  1.
       -2   -1    0    0    0  501  0.00000000000E+00  0.00000000000E+00 -0.51319383247E+03  0.51319383247E+03  0.25500000920E-02 0. -1.
    10030    2    1    2    0    0  0.00000000000E+00  0.00000000000E+00  0.18497096559E+04  0.28760973208E+04  0.22023873383E+04 0.  0.
        3    1    3    3  502    0 -0.20978575265E+03 -0.45612146115E+03 -0.35504072315E+03  0.61490712684E+03  0.10100000352E+00 0. -1.
       -3    1    3    3    0  502  0.20978575265E+03  0.45612146115E+03  0.22047503790E+04  0.22611901940E+04  0.10100000352E+00 0.  1.
</event>
<event>
 5   0  0.3283125E-05  0.2140584E+04  0.7818609E-02  0.8543574E-01
       -4   -1    0    0    0  501  0.00000000000E+00  0.00000000000E+00  0.16547962178E+04  0.16547967051E+04  0.12699999809E+01 0. -1.
        4   -1    0    0  501    0  0.00000000000E+00  0.00000000000E+00 -0.69224410378E+03  0.69224526876E+03  0.12699999809E+01 0.  1.
    10030    2    1    2    0    0  0.00000000000E+00  0.00000000000E+00  0.96255211398E+03  0.23470419739E+04  0.21405839051E+04 0.  0.
        2    1    3    3  502    0 -0.43632910770E+03 -0.74732638469E+03 -0.20926518131E+03  0.89032113959E+03  0.25500000920E-02 0.  1.
       -2    1    3    3    0  502  0.43632910770E+03  0.74732638469E+03  0.11718172953E+04  0.14567208343E+04  0.25500000920E-02 0. -1.
</event>
<event>
 5   0  0.4133418E-05  0.2217852E+04  0.7818609E-02  0.8511034E-01
        1   -1    0    0  501    0  0.00000000000E+00  0.00000000000E+00  0.15191497222E+04  0.15191497222E+04  0.50400001928E-02 0. -1.
       -1   -1    0    0    0  501  0.00000000000E+00  0.00000000000E+00 -0.80947722063E+03  0.80947722064E+03  0.50400001928E-02 0.  1.
    10030    2    1    2    0    0  0.00000000000E+00  0.00000000000E+00  0.70967250154E+03  0.23286269428E+04  0.22178521996E+04 0.  0.
        4    1    3    3  502    0 -0.46223883244E+03  0.10001831788E+04  0.48632863969E+03  0.12043871006E+04  0.12699999809E+01 0. -1.
       -4    1    3    3    0  502  0.46223883244E+03 -0.10001831788E+04  0.22334386185E+03  0.11242398422E+04  0.12699999809E+01 0.  1.
</event>
<event>
 5   0  0.4188865E-05  0.1782265E+04  0.7818609E-02  0.8715788E-01
        1   -1    0    0  501    0  0.00000000000E+00  0.00000000000E+00  0.26198321602E+04  0.26198321602E+04  0.50400001928E-02 0. -1.
       -1   -1    0    0    0  501  0.00000000000E+00  0.00000000000E+00 -0.30311767161E+03  0.30311767165E+03  0.50400001928E-02 0.  1.
    10030    2    1    2    0    0  0.00000000000E+00  0.00000000000E+00  0.23167144886E+04  0.29229498319E+04  0.17822653276E+04 0.  0.
        3    1    3    3  502    0 -0.84071495340E+03 -0.29202479941E+03  0.10843326088E+04  0.14028033836E+04  0.10100000352E+00 0. -1.
       -3    1    3    3    0  502  0.84071495340E+03  0.29202479941E+03  0.12323818798E+04  0.15201464483E+04  0.10100000352E+00 0.  1.
</event>
<event>
 5   0  0.4174075E-05  0.2162161E+04  0.7818609E-02  0.8534345E-01
       -1   -1    0    0    0  501  0.00000000000E+00  0.00000000000E+00  0.82285419553E+03  0.82285419554E+03  0.50400001928E-02 0.  1.
        1   -1    0    0  501    0  0.00000000000E+00  0.00000000000E+00 -0.14203428782E+04  0.14203428783E+04  0.50400001928E-02 0. -1.
    10030    2    1    2    0    0  0.00000000000E+00  0.00000000000E+00 -0.59748868272E+03  0.22431970738E+04  0.21621610453E+04 0.  0.
        5    1    3    3  502    0  0.40020689722E+03 -0.94851401546E+03 -0.64106312234E+03  0.12127771497E+04  0.46999998093E+01 0. -1.
       -5    1    3    3    0  502 -0.40020689722E+03  0.94851401546E+03  0.43574439624E+02  0.10304199241E+04  0.46999998093E+01 0.  1.
</event>
<event>
 5   0  0.9442578E-05  0.2191257E+04  0.7818609E-02  0.8522076E-01
       -2   -1    0    0    0  501  0.00000000000E+00  0.00000000000E+00  0.64218465915E+03  0.64218465916E+03  0.25500000920E-02 0.  1.
        2   -1    0    0  501    0  0.00000000000E+00  0.00000000000E+00 -0.18692468131E+04  0.18692468131E+04  0.25500000920E-02 0. -1.
    10030    2    1    2    0    0  0.00000000000E+00  0.00000000000E+00 -0.12270621540E+04  0.25114314723E+04  0.21912568335E+04 0.  0.
        4    1    3    3  502    0  0.73070392903E+03  0.29082363810E+02  0.32153690696E+03  0.79885018071E+03  0.12699999809E+01 0.  1.
       -4    1    3    3    0  502 -0.73070392903E+03 -0.29082363810E+02 -0.15485990609E+04  0.17125812916E+04  0.12699999809E+01 0. -1.
</event>
<event>
 5   0  0.9457742E-05  0.2213152E+04  0.7818609E-02  0.8512974E-01
       -2   -1    0    0    0  501  0.00000000000E+00  0.00000000000E+00  0.18190823553E+04  0.18190823553E+04  0.25500000920E-02 0. -1.
        2   -1    0    0  501    0  0.00000000000E+00  0.00000000000E+00 -0.67314729787E+03  0.67314729787E+03  0.25500000920E-02 0.  1.
    10030    2    1    2    0    0  0.00000000000E+00  0.00000000000E+00  0.11459350574E+04  0.24922296532E+04  0.22131519352E+04 0.  0.
        1    1    3    3  502    0 -0.27923027500E+03  0.60323567677E+03  0.15691982786E+04  0.17041848685E+04  0.50400001928E-02 0. -1.
       -1    1    3    3    0  502  0.27923027500E+03 -0.60323567677E+03 -0.42326322122E+03  0.78804478469E+03  0.50400001928E-02 0.  1.
</event>
<event>
 5   0  0.9938176E-05  0.2156721E+04  0.7818609E-02  0.8536661E-01
        2   -1    0    0  501    0  0.00000000000E+00  0.00000000000E+00  0.10951697419E+04  0.10951697419E+04  0.25500000920E-02 0.  1.
       -2   -1    0    0    0  501  0.00000000000E+00  0.00000000000E+00 -0.10618093078E+04  0.10618093078E+04  0.25500000920E-02 0. -1.
    10030    2    1    2    0    0  0.00000000000E+00  0.00000000000E+00  0.33360434192E+02  0.21569790497E+04  0.21567210534E+04 0.  0.
        5    1    3    3  502    0 -0.38688552072E+03  0.78572515379E+03 -0.61251737602E+03  0.10687581810E+04  0.46999998093E+01 0. -1.
       -5    1    3    3    0  502  0.38688552072E+03 -0.78572515379E+03  0.64587781022E+03  0.10882208687E+04  0.46999998093E+01 0.  1.
</event>
<event>
 5   0  0.9442578E-05  0.2203532E+04  0.7818609E-02  0.8516959E-01
        2   -1    0    0  501    0  0.00000000000E+00  0.00000000000E+00  0.16507165387E+04  0.16507165387E+04  0.25500000920E-02 0. -1.
       -2   -1    0    0    0  501  0.00000000000E+00  0.00000000000E+00 -0.73537069862E+03  0.73537069862E+03  0.25500000920E-02 0.  1.
    10030    2    1    2    0    0  0.00000000000E+00  0.00000000000E+00  0.91534584009E+03  0.23860872373E+04  0.22035322319E+04 0.  0.
        4    1    3    3  502    0  0.20746272125E+03  0.55492341034E+03 -0.54821293793E+03  0.80716777083E+03  0.12699999809E+01 0.  1.
       -4    1    3    3    0  502 -0.20746272125E+03 -0.55492341034E+03  0.14635587780E+04  0.15789194665E+04  0.12699999809E+01 0. -1.
</event>
<event>
 5   0  0.9254673E-05  0.2175366E+04  0.7818609E-02  0.8528752E-01
        2   -1    0    0  501    0  0.00000000000E+00  0.00000000000E+00  0.20714015279E+04  0.20714015279E+04  0.25500000920E-02 0.  1.
       -2   -1    0    0    0  501  0.00000000000E+00  0.00000000000E+00 -0.57113709283E+03  0.57113709284E+03  0.25500000920E-02 0. -1.
    10030    2    1    2    0    0  0.00000000000E+00  0.00000000000E+00  0.15002644350E+04  0.26425386207E+04  0.21753659432E+04 0.  0.
        2    1    3    3  502    0  0.78323337324E+03  0.44452883333E+03  0.14910276132E+04  0.17419023348E+04  0.25500000920E-02 0.  1.
       -2    1    3    3    0  502 -0.78323337324E+03 -0.44452883333E+03  0.92368218272E+01  0.90063628591E+03  0.25500000920E-02 0. -1.
</event>
<event>
 5   0  0.9938176E-05  0.2212254E+04  0.7818609E-02  0.8513345E-01
        2   -1    0    0  501    0  0.00000000000E+00  0.00000000000E+00  0.14587962277E+04  0.14587962277E+04  0.25500000920E-02 0. -1.
       -2   -1    0    0    0  501  0.00000000000E+00  0.00000000000E+00 -0.83871685039E+03  0.83871685039E+03  0.25500000920E-02 0.  1.
    10030    2    1    2    0    0  0.00000000000E+00  0.00000000000E+00  0.62007937730E+03  0.22975130781E+04  0.22122540337E+04 0.  0.
        5    1    3    3  502    0 -0.43797687869E+03  0.96823763447E+03  0.62876645370E+03  0.12347782013E+04  0.46999998093E+01 0.  1.
       -5    1    3    3    0  502  0.43797687869E+03 -0.96823763447E+03 -0.86870763972E+01  0.10627348768E+04  0.46999998093E+01 0. -1.
</event>
<event>
 5   0  0.9938176E-05  0.2199423E+04  0.7818609E-02  0.8518668E-01
        2   -1    0    0  501    0  0.00000000000E+00  0.00000000000E+00  0.11645928855E+04  0.11645928855E+04  0.25500000920E-02 0. -1.
       -2   -1    0    0    0  501  0.00000000000E+00  0.00000000000E+00 -0.10384449610E+04  0.10384449610E+04  0.25500000920E-02 0.  1.
    10030    2    1    2    0    0  0.00000000000E+00  0.00000000000E+00  0.12614792442E+03  0.22030378465E+04  0.21994232095E+04 0.  0.
        5    1    3    3  502    0 -0.17415190948E+03 -0.80800218740E+03  0.78962603381E+03  0.11431219470E+04  0.46999998093E+01 0. -1.
       -5    1    3    3    0  502  0.17415190948E+03  0.80800218740E+03 -0.66347810939E+03  0.10599158995E+04  0.46999998093E+01 0.  1.
</event>
<event>
 5   0  0.4174030E-05  0.2271556E+04  0.7818609E-02  0.8489221E-01
       -1   -1    0    0    0  501  0.00000000000E+00  0.00000000000E+00  0.18974468635E+04  0.18974468635E+04  0.50400001928E-02 0.  1.
        1   -1    0    0  501    0  0.00000000000E+00  0.00000000000E+00 -0.67985679314E+03  0.67985679315E+03  0.50400001928E-02 0. -1.
    10030    2    1    2    0    0  0.00000000000E+00  0.00000000000E+00  0.12175900703E+04  0.25773036566E+04  0.22715564178E+04 0.  0.
        2    1    3    3  502    0 -0.59033903546E+02  0.48328752980E+03 -0.55544877223E+03  0.73863060917E+03  0.25500000920E-02 0. -1.
       -2    1    3    3    0  502  0.59033903546E+02 -0.48328752980E+03  0.17730388426E+04  0.18386730475E+04  0.25500000920E-02 0.  1.
</event>
<event>
 5   0  0.4174030E-05  0.2209657E+04  0.7818609E-02  0.8514419E-01
       -1   -1    0    0    0  501  0.00000000000E+00  0.00000000000E+00  0.10322847163E+04  0.10322847163E+04  0.50400001928E-02 0.  1.
        1   -1    0    0  501    0  0.00000000000E+00  0.00000000000E+00 -0.11824704177E+04  0.11824704177E+04  0.50400001928E-02 0. -1.
    10030    2    1    2    0    0  0.00000000000E+00  0.00000000000E+00 -0.15018570140E+03  0.22147551340E+04  0.22096571134E+04 0.  0.
        2    1    3    3  502    0  0.97980960872E+03 -0.85072579764E+02  0.42943906886E+03  0.10731645387E+04  0.25500000920E-02 0.  1.
       -2    1    3    3    0  502 -0.97980960872E+03  0.85072579764E+02 -0.57962477026E+03  0.11415905954E+04  0.25500000920E-02 0. -1.
</event>
<event>
 5   0  0.4174030E-05  0.2250037E+04  0.7818609E-02  0.8497886E-01
        1   -1    0    0  501    0  0.00000000000E+00  0.00000000000E+00  0.11155025719E+04  0.11155025719E+04  0.50400001928E-02 0. -1.
       -1   -1    0    0    0  501  0.00000000000E+00  0.00000000000E+00 -0.11346152944E+04  0.11346152944E+04  0.50400001928E-02 0.  1.
    10030    2    1    2    0    0  0.00000000000E+00  0.00000000000E+00 -0.19112722468E+02  0.22501178663E+04  0.22500366921E+04 0.  0.
        2    1    3    3  502    0 -0.85143117281E+03  0.59770883737E+03 -0.43791207942E+03  0.11286974287E+04  0.25500000920E-02 0. -1.
       -2    1    3    3    0  502  0.85143117281E+03 -0.59770883737E+03  0.41879935695E+03  0.11214204375E+04  0.25500000920E-02 0.  1.
</event>
<event>
 5   0  0.4174075E-05  0.2341922E+04  0.7818609E-02  0.8461573E-01
       -1   -1    0    0    0  501  0.00000000000E+00  0.00000000000E+00  0.63264265999E+03  0.63264266001E+03  0.50400001928E-02 0.  1.
        1   -1    0    0  501    0  0.00000000000E+00  0.00000000000E+00 -0.21673374152E+04  0.21673374152E+04  0.50400001928E-02 0. -1.
    10030    2    1    2    0    0  0.00000000000E+00  0.00000000000E+00 -0.15346947552E+04  0.27999800753E+04  0.23419223792E+04 0.  0.
        5    1    3    3  502    0 -0.34475462755E+02  0.10172001271E+04 -0.75098058169E+02  0.10205618377E+04  0.46999998093E+01 0.  1.
       -5    1    3    3    0  502  0.34475462755E+02 -0.10172001271E+04 -0.14595966971E+04  0.17794182376E+04  0.46999998093E+01 0. -1.
</event>
<event>
 5   0  0.9179618E-05  0.2255040E+04  0.7818609E-02  0.8495862E-01
       -2   -1    0    0    0  501  0.00000000000E+00  0.00000000000E+00  0.66273073881E+03  0.66273073881E+03  0.25500000920E-02 0.  1.
        2   -1    0    0  501    0  0.00000000000E+00  0.00000000000E+00 -0.19182773020E+04  0.19182773020E+04  0.25500000920E-02 0. -1.
    10030    2    1    2    0    0  0.00000000000E+00  0.00000000000E+00 -0.12555465632E+04  0.25810080408E+04  0.22550399851E+04 0.  0.
        3    1    3    3  502    0  0.84323849330E+03  0.51206576107E+03 -0.12526171760E+04  0.15944630131E+04  0.10100000352E+00 0. -1.
       -3    1    3    3    0  502 -0.84323849330E+03 -0.51206576107E+03 -0.29293871794E+01  0.98654502773E+03  0.10100000352E+00 0.  1.
</event>
<event>
 5   0  0.4063293E-05  0.2211883E+04  0.7818609E-02  0.8513498E-01
       -1   -1    0    0    0  501  0.00000000000E+00  0.00000000000E+00  0.48063955246E+03  0.48063955248E+03  0.50400001928E-02 0.  1.
        1   -1    0    0  501    0  0.00000000000E+00  0.00000000000E+00 -0.25447487458E+04  0.25447487458E+04  0.50400001928E-02 0. -1.
    10030    2    1    2    0    0  0.00000000000E+00  0.00000000000E+00 -0.20641091933E+04  0.30253882983E+04  0.22118832685E+04 0.  0.
        1    1    3    3  502    0 -0.64038144086E+03 -0.18029835766E+02 -0.22651091597E+04  0.23539611233E+04  0.50400001928E-02 0. -1.
       -1    1    3    3    0  502  0.64038144086E+03  0.18029835766E+02  0.20099996635E+03  0.67142717496E+03  0.50400001928E-02 0.  1.
</event>
<event>
 5   0  0.4174030E-05  0.2213832E+04  0.7818609E-02  0.8512693E-01
       -1   -1    0    0    0  501  0.00000000000E+00  0.00000000000E+00  0.15134695048E+04  0.15134695048E+04  0.50400001928E-02 0. -1.
        1   -1    0    0  501    0  0.00000000000E+00  0.00000000000E+00 -0.80957256528E+03  0.80957256530E+03  0.50400001928E-02 0.  1.
    10030    2    1    2    0    0  0.00000000000E+00  0.00000000000E+00  0.70389693954E+03  0.23230420701E+04  0.22138323238E+04 0.  0.
        2    1    3    3  502    0 -0.59745238016E+03  0.93183141767E+03  0.34978470902E+03  0.11608654014E+04  0.25500000920E-02 0.  1.
       -2    1    3    3    0  502  0.59745238016E+03 -0.93183141767E+03  0.35411223052E+03  0.11621766687E+04  0.25500000920E-02 0. -1.
</event>
<event>
 5   0  0.4174075E-05  0.2192001E+04  0.7818609E-02  0.8521765E-01
        1   -1    0    0  501    0  0.00000000000E+00  0.00000000000E+00  0.74131575483E+03  0.74131575485E+03  0.50400001928E-02 0.  1.
       -1   -1    0    0    0  501  0.00000000000E+00  0.00000000000E+00 -0.16203854487E+04  0.16203854488E+04  0.50400001928E-02 0. -1.
    10030    2    1    2    0    0  0.00000000000E+00  0.00000000000E+00 -0.87906969392E+03  0.23617012036E+04  0.21920011515E+04 0.  0.
        5    1    3    3  502    0 -0.10192074607E+04  0.39497739484E+03 -0.35331326374E+03  0.11487573037E+04  0.46999998093E+01 0.  1.
       -5    1    3    3    0  502  0.10192074607E+04 -0.39497739484E+03 -0.52575643018E+03  0.12129438999E+04  0.46999998093E+01 0. -1.
</event>
<event>
 5   0  0.9254673E-05  0.2196687E+04  0.7818609E-02  0.8519808E-01
       -2   -1    0    0    0  501  0.00000000000E+00  0.00000000000E+00  0.87659365194E+03  0.87659365194E+03  0.25500000920E-02 0.  1.
        2   -1    0    0  501    0  0.00000000000E+00  0.00000000000E+00 -0.13761890461E+04  0.13761890461E+04  0.25500000920E-02 0. -1.
    10030    2    1    2    0    0  0.00000000000E+00  0.00000000000E+00 -0.49959539416E+03  0.22527826980E+04  0.21966871254E+04 0.  0.
        2    1    3    3  502    0  0.10049300741E+04  0.37088011268E+03 -0.86032847840E+00  0.10711849756E+04  0.25500000920E-02 0.  1.
       -2    1    3    3    0  502 -0.10049300741E+04 -0.37088011268E+03 -0.49873506568E+03  0.11815977224E+04  0.25500000920E-02 0. -1.
</event>
<event>
 5   0  0.9442578E-05  0.2175510E+04  0.7818609E-02  0.8528691E-01
        2   -1    0    0  501    0  0.00000000000E+00  0.00000000000E+00  0.13749251054E+04  0.13749251054E+04  0.25500000920E-02 0.  1.
       -2   -1    0    0    0  501  0.00000000000E+00  0.00000000000E+00 -0.86056428073E+03  0.86056428074E+03  0.25500000920E-02 0. -1.
    10030    2    1    2    0    0  0.00000000000E+00  0.00000000000E+00  0.51436082470E+03  0.22354893862E+04  0.21755104545E+04 0.  0.
        4    1    3    3  502    0 -0.51567184803E+03  0.85441927038E+03  0.70184652778E+03  0.12200573371E+04  0.12699999809E+01 0.  1.
       -4    1    3    3    0  502  0.51567184803E+03 -0.85441927038E+03 -0.18748570308E+03  0.10154320490E+04  0.12699999809E+01 0. -1.
</event>
<event>
 5   0  0.4188865E-05  0.2207616E+04  0.7818609E-02  0.8515265E-01
        1   -1    0    0  501    0  0.00000000000E+00  0.00000000000E+00  0.12588201189E+04  0.12588201189E+04  0.50400001928E-02 0.  1.
       -1   -1    0    0    0  501  0.00000000000E+00  0.00000000000E+00 -0.96788382177E+03  0.96788382178E+03  0.50400001928E-02 0. -1.
    10030    2    1    2    0    0  0.00000000000E+00  0.00000000000E+00  0.29093629714E+03  0.22267039407E+04  0.22076155713E+04 0.  0.
        3    1    3    3  502    0 -0.82755927116E+03 -0.54644111230E+03  0.63436466083E+03  0.11772301260E+04  0.10100000352E+00 0. -1.
       -3    1    3    3    0  502  0.82755927116E+03  0.54644111230E+03 -0.34342836369E+03  0.10494738147E+04  0.10100000352E+00 0.  1.
</event>
<event>
 5   0  0.9254673E-05  0.2489991E+04  0.7818609E-02  0.8406560E-01
       -2   -1    0    0    0  501  0.00000000000E+00  0.00000000000E+00  0.20216196131E+04  0.20216196131E+04  0.25500000920E-02 0.  1.
        2   -1    0    0  501    0  0.00000000000E+00  0.00000000000E+00 -0.76671857131E+03  0.76671857132E+03  0.25500000920E-02 0. -1.
    10030    2    1    2    0    0  0.00000000000E+00  0.00000000000E+00  0.12549010417E+04  0.27883381844E+04  0.24899906036E+04 0.  0.
        2    1    3    3  502    0  0.11210150843E+03 -0.12352835593E+04  0.74764772401E+03  0.14482642505E+04  0.25500000920E-02 0. -1.
       -2    1    3    3    0  502 -0.11210150843E+03  0.12352835593E+04  0.50725331772E+03  0.13400739339E+04  0.25500000920E-02 0.  1.
</event>
<event>
 5   0  0.4174075E-05  0.1881413E+04  0.7818609E-02  0.8664164E-01
        1   -1    0    0  501    0  0.00000000000E+00  0.00000000000E+00  0.56479709448E+03  0.56479709450E+03  0.50400001928E-02 0. -1.
       -1   -1    0    0    0  501  0.00000000000E+00  0.00000000000E+00 -0.15668076982E+04  0.15668076982E+04  0.50400001928E-02 0.  1.
    10030    2    1    2    0    0  0.00000000000E+00  0.00000000000E+00 -0.10020106037E+04  0.21316047927E+04  0.18814126986E+04 0.  0.
        5    1    3    3  502    0  0.17999104790E+02 -0.55249739182E+03 -0.13633586527E+04  0.14711717240E+04  0.46999998093E+01 0.  1.
       -5    1    3    3    0  502 -0.17999104790E+02  0.55249739182E+03  0.36134804896E+03  0.66043306869E+03  0.46999998093E+01 0. -1.
</event>
<event>
 5   0  0.3283125E-05  0.2160248E+04  0.7818609E-02  0.8535158E-01
       -3   -1    0    0    0  501  0.00000000000E+00  0.00000000000E+00  0.14011699222E+04  0.14011699259E+04  0.10100000352E+00 0. -1.
        3   -1    0    0  501    0  0.00000000000E+00  0.00000000000E+00 -0.83263850517E+03  0.83263851130E+03  0.10100000352E+00 0.  1.
    10030    2    1    2    0    0  0.00000000000E+00  0.00000000000E+00  0.56853141704E+03  0.22338084371E+04  0.21602481713E+04 0.  0.
        5    1    3    3  502    0 -0.92576406159E+03 -0.13228249205E+03  0.84314002451E+03  0.12591445296E+04  0.46999998093E+01 0. -1.
       -5    1    3    3    0  502  0.92576406159E+03  0.13228249205E+03 -0.27460860747E+03  0.97466390757E+03  0.46999998093E+01 0.  1.
</event>
<event>
 5   0  0.4133418E-05  0.2178532E+04  0.7818609E-02  0.8527417E-01
        1   -1    0    0  501    0  0.00000000000E+00  0.00000000000E+00  0.18716417518E+04  0.18716417518E+04  0.50400001928E-02 0.  1.
       -1   -1    0    0    0  501  0.00000000000E+00  0.00000000000E+00 -0.63393583153E+03  0.63393583155E+03  0.50400001928E-02 0. -1.
    10030    2    1    2    0    0  0.00000000000E+00  0.00000000000E+00  0.12377059203E+04  0.25055775834E+04  0.21785323227E+04 0.  0.
        4    1    3    3  502    0  0.93304224578E+03 -0.43448438402E+03  0.10289720283E+04  0.14553795245E+04  0.12699999809E+01 0.  1.
       -4    1    3    3    0  502 -0.93304224578E+03  0.43448438402E+03  0.20873389202E+03  0.10501980589E+04  0.12699999809E+01 0. -1.
</event>
<event>
 5   0  0.4174030E-05  0.2212747E+04  0.7818609E-02  0.8513141E-01
       -1   -1    0    0    0  501  0.00000000000E+00  0.00000000000E+00  0.24924910865E+04  0.24924910865E+04  0.50400001928E-02 0. -1.
        1   -1    0    0  501    0  0.00000000000E+00  0.00000000000E+00 -0.49110005860E+03  0.49110005862E+03  0.50400001928E-02 0.  1.
    10030    2    1    2    0    0  0.00000000000E+00  0.00000000000E+00  0.20013910279E+04  0.29835911451E+04  0.22127471782E+04 0.  0.
        2    1    3    3  502    0 -0.87873560178E+03  0.36370113804E+03  0.23841264452E+03  0.98045671231E+03  0.25500000920E-02 0.  1.
       -2    1    3    3    0  502  0.87873560178E+03 -0.36370113804E+03  0.17629783833E+04  0.20031344328E+04  0.25500000920E-02 0. -1.
</event>
<event>
 5   0  0.4174075E-05  0.2117061E+04  0.7818609E-02  0.8553765E-01
       -1   -1    0    0    0  501  0.00000000000E+00  0.00000000000E+00  0.93306441253E+03  0.93306441254E+03  0.50400001928E-02 0.  1.
        1   -1    0    0  501    0  0.00000000000E+00  0.00000000000E+00 -0.12008672031E+04  0.12008672031E+04  0.50400001928E-02 0. -1.
    10030    2    1    2    0    0  0.00000000000E+00  0.00000000000E+00 -0.26780279054E+03  0.21339316156E+04  0.21170606523E+04 0.  0.
        5    1    3    3  502    0 -0.50317608333E+02  0.15282690304E+03  0.92065605655E+03  0.93462162850E+03  0.46999998093E+01 0.  1.
       -5    1    3    3    0  502  0.50317608333E+02 -0.15282690304E+03 -0.11884588471E+04  0.11993099871E+04  0.46999998093E+01 0. -1.
</event>
<event>
 5   0  0.4063293E-05  0.2258742E+04  0.7818609E-02  0.8494368E-01
        1   -1    0    0  501    0  0.00000000000E+00  0.00000000000E+00  0.10444999696E+04  0.10444999696E+04  0.50400001928E-02 0. -1.
       -1   -1    0    0    0  501  0.00000000000E+00  0.00000000000E+00 -0.12211386913E+04  0.12211386913E+04  0.50400001928E-02 0.  1.
    10030    2    1    2    0    0  0.00000000000E+00  0.00000000000E+00 -0.17663872166E+03  0.22656386609E+04  0.22587424164E+04 0.  0.
        1    1    3    3  502    0 -0.27628495054E+03  0.23405416345E+03  0.98469651329E+03  0.10491624987E+04  0.50400001928E-02 0. -1.
       -1    1    3    3    0  502  0.27628495054E+03 -0.23405416345E+03 -0.11613352349E+04  0.12164761622E+04  0.50400001928E-02 0.  1.
</event>
<event>
 5   0  0.9179618E-05  0.2202748E+04  0.7818609E-02  0.8517285E-01
       -2   -1    0    0    0  501  0.00000000000E+00  0.00000000000E+00  0.59295644613E+03  0.59295644613E+03  0.25500000920E-02 0.  1.
        2   -1    0    0  501    0  0.00000000000E+00  0.00000000000E+00 -0.20457229000E+04  0.20457229000E+04  0.25500000920E-02 0. -1.
    10030    2    1    2    0    0  0.00000000000E+00  0.00000000000E+00 -0.14527664539E+04  0.26386793461E+04  0.22027479026E+04 0.  0.
        3    1    3    3  502    0  0.53930496430E+03 -0.13857753621E+03  0.41192197569E+03  0.69262782380E+03  0.10100000352E+00 0.  1.
       -3    1    3    3    0  502 -0.53930496430E+03  0.13857753621E+03 -0.18646884296E+04  0.19460515223E+04  0.10100000352E+00 0. -1.
</event>
<event>
 5   0  0.9179618E-05  0.2207303E+04  0.7818609E-02  0.8515394E-01
        2   -1    0    0  501    0  0.00000000000E+00  0.00000000000E+00  0.30851219411E+04  0.30851219411E+04  0.25500000920E-02 0. -1.
       -2   -1    0    0    0  501  0.00000000000E+00  0.00000000000E+00 -0.39481328292E+03  0.39481328292E+03  0.25500000920E-02 0.  1.
    10030    2    1    2    0    0  0.00000000000E+00  0.00000000000E+00  0.26903086582E+04  0.34799352240E+04  0.22073034425E+04 0.  0.
        3    1    3    3  502    0  0.25369676383E+03 -0.53469066688E+03 -0.12349015604E+03  0.60457091070E+03  0.10100000352E+00 0.  1.
       -3    1    3    3    0  502 -0.25369676383E+03  0.53469066688E+03  0.28137988142E+04  0.28753643133E+04  0.10100000352E+00 0. -1.
</event>
<event>
 5   0  0.4174075E-05  0.2213196E+04  0.7818609E-02  0.8512956E-01
       -1   -1    0    0    0  501  0.00000000000E+00  0.00000000000E+00  0.51048334475E+03  0.51048334477E+03  0.50400001928E-02 0.  1.
        1   -1    0    0  501    0  0.00000000000E+00  0.00000000000E+00 -0.23988221717E+04  0.23988221717E+04  0.50400001928E-02 0. -1.
    10030    2    1    2    0    0  0.00000000000E+00  0.00000000000E+00 -0.18883388269E+04  0.29093055164E+04  0.22131956675E+04 0.  0.
        5    1    3    3  502    0 -0.60354670235E+03 -0.85297126929E+03 -0.14230400212E+04  0.17654726280E+04  0.46999998093E+01 0. -1.
       -5    1    3    3    0  502  0.60354670235E+03  0.85297126929E+03 -0.46529880569E+03  0.11438328885E+04  0.46999998093E+01 0.  1.
</event>
<event>
 5   0  0.4188865E-05  0.2222552E+04  0.7818609E-02  0.8509100E-01
        1   -1    0    0  501    0  0.00000000000E+00  0.00000000000E+00  0.16473287175E+04  0.16473287175E+04  0.50400001928E-02 0. -1.
       -1   -1    0    0    0  501  0.00000000000E+00  0.00000000000E+00 -0.74965882346E+03  0.74965882348E+03  0.50400001928E-02 0.  1.
    10030    2    1    2    0    0  0.00000000000E+00  0.00000000000E+00  0.89766989406E+03  0.23969875410E+04  0.22225521441E+04 0.  0.
        3    1    3    3  502    0  0.37125047958E+02  0.45064015310E+03  0.15436317846E+04  0.16084943001E+04  0.10100000352E+00 0. -1.
       -3    1    3    3    0  502 -0.37125047958E+02 -0.45064015310E+03 -0.64596189053E+03  0.78849324093E+03  0.10100000352E+00 0.  1.
</event>
<event>
 5   0  0.4188865E-05  0.2407740E+04  0.7818609E-02  0.8436612E-01
       -1   -1    0    0    0  501  0.00000000000E+00  0.00000000000E+00  0.85817085682E+03  0.85817085683E+03  0.50400001928E-02 0. -1.
        1   -1    0    0  501    0  0.00000000000E+00  0.00000000000E+00 -0.16888276804E+04  0.16888276804E+04  0.50400001928E-02 0.  1.
    10030    2    1    2    0    0  0.00000000000E+00  0.00000000000E+00 -0.83065682362E+03  0.25469985373E+04  0.24077397680E+04 0.  0.
        3    1    3    3  502    0  0.91793163609E+03 -0.31669899166E+03 -0.11681092373E+04  0.15190049178E+04  0.10100000352E+00 0.  1.
       -3    1    3    3    0  502 -0.91793163609E+03  0.31669899166E+03  0.33745241373E+03  0.10279936194E+04  0.10100000352E+00 0. -1.
</event>
<event>
 5   0  0.9254673E-05  0.2199102E+04  0.7818609E-02  0.8518802E-01
       -2   -1    0    0    0  501  0.00000000000E+00  0.00000000000E+00  0.11148558989E+04  0.11148558989E+04  0.25500000920E-02 0.  1.
        2   -1    0    0  501    0  0.00000000000E+00  0.00000000000E+00 -0.10844561415E+04  0.10844561415E+04  0.25500000920E-02 0. -1.
    10030    2    1    2    0    0  0.00000000000E+00  0.00000000000E+00  0.30399757435E+02  0.21993120404E+04  0.21991019316E+04 0.  0.
        2    1    3    3  502    0 -0.21011599148E+03  0.71973698536E+03 -0.78914201180E+03  0.10885380897E+04  0.25500000920E-02 0. -1.
       -2    1    3    3    0  502  0.21011599148E+03 -0.71973698536E+03  0.81954176923E+03  0.11107739507E+04  0.25500000920E-02 0.  1.
</event>
<event>
 5   0  0.9254673E-05  0.2034214E+04  0.7818609E-02  0.8590789E-01
        2   -1    0    0  501    0  0.00000000000E+00  0.00000000000E+00  0.12210832650E+04  0.12210832650E+04  0.25500000920E-02 0. -1.
       -2   -1    0    0    0  501  0.00000000000E+00  0.00000000000E+00 -0.84720436689E+03  0.84720436690E+03  0.25500000920E-02 0.  1.
    10030    2    1    2    0    0  0.00000000000E+00  0.00000000000E+00  0.37387889813E+03  0.20682876319E+04  0.20342144179E+04 0.  0.
        2    1    3    3  502    0 -0.30565456845E+03 -0.73519820933E+03 -0.45656450936E+03  0.91781930326E+03  0.25500000920E-02 0.  1.
       -2    1    3    3    0  502  0.30565456845E+03  0.73519820933E+03  0.83044340748E+03  0.11504683287E+04  0.25500000920E-02 0. -1.
</event>
<event>
 5   0  0.4133418E-05  0.2126536E+04  0.7818609E-02  0.8549643E-01
        1   -1    0    0  501    0  0.00000000000E+00  0.00000000000E+00  0.13573206222E+04  0.13573206222E+04  0.50400001928E-02 0.  1.
       -1   -1    0    0    0  501  0.00000000000E+00  0.00000000000E+00 -0.83291970557E+03  0.83291970558E+03  0.50400001928E-02 0. -1.
    10030    2    1    2    0    0  0.00000000000E+00  0.00000000000E+00  0.52440091660E+03  0.21902403278E+04  0.21265362381E+04 0.  0.
        4    1    3    3  502    0  0.17312403665E+03 -0.12064498966E+03  0.13355371164E+04  0.13521050802E+04  0.12699999809E+01 0.  1.
       -4    1    3    3    0  502 -0.17312403665E+03  0.12064498966E+03 -0.81113619985E+03  0.83813524756E+03  0.12699999809E+01 0. -1.
</event>
<event>
 5   0  0.9457742E-05  0.2162626E+04  0.7818609E-02  0.8534147E-01
       -2   -1    0    0    0  501  0.00000000000E+00  0.00000000000E+00  0.49615642787E+03  0.49615642788E+03  0.25500000920E-02 0. -1.
        2   -1    0    0  501    0  0.00000000000E+00  0.00000000000E+00 -0.23565915200E+04  0.23565915200E+04  0.25500000920E-02 0.  1.
    10030    2    1    2    0    0  0.00000000000E+00  0.00000000000E+00 -0.18604350921E+04  0.28527479478E+04  0.21626262095E+04 0.  0.
        1    1    3    3  502    0 -0.62984842355E+03  0.75690007150E+03 -0.15195986807E+04  0.18107420869E+04  0.50400001928E-02 0.  1.
       -1    1    3    3    0  502  0.62984842355E+03 -0.75690007150E+03 -0.34083641142E+03  0.10420058610E+04  0.50400001928E-02 0. -1.
</event>
<event>
 5   0  0.3283125E-05  0.2186224E+04  0.7818609E-02  0.8524184E-01
       -3   -1    0    0    0  501  0.00000000000E+00  0.00000000000E+00  0.14874052294E+04  0.14874052328E+04  0.10100000352E+00 0. -1.
        3   -1    0    0  501    0  0.00000000000E+00  0.00000000000E+00 -0.80334083524E+03  0.80334084159E+03  0.10100000352E+00 0.  1.
    10030    2    1    2    0    0  0.00000000000E+00  0.00000000000E+00  0.68406439411E+03  0.22907460744E+04  0.21862235663E+04 0.  0.
        3    1    3    3  502    0  0.56829347645E+03  0.27264776931E+03  0.12778142277E+04  0.14248170030E+04  0.10100000352E+00 0. -1.
       -3    1    3    3    0  502 -0.56829347645E+03 -0.27264776931E+03 -0.59374983358E+03  0.86592907132E+03  0.10100000352E+00 0.  1.
</event>
<event>
 5   0  0.9938176E-05  0.2209981E+04  0.7818609E-02  0.8514285E-01
        2   -1    0    0  501    0  0.00000000000E+00  0.00000000000E+00  0.10684822150E+04  0.10684822150E+04  0.25500000920E-02 0. -1.
       -2   -1    0    0    0  501  0.00000000000E+00  0.00000000000E+00 -0.11427460633E+04  0.11427460633E+04  0.25500000920E-02 0.  1.
    10030    2    1    2    0    0  0.00000000000E+00  0.00000000000E+00 -0.74263848272E+02  0.22112282784E+04  0.22099808551E+04 0.  0.
        5    1    3    3  502    0 -0.94647612339E+03  0.14910066862E+02  0.53322701863E+03  0.10864586995E+04  0.46999998093E+01 0. -1.
       -5    1    3    3    0  502  0.94647612339E+03 -0.14910066862E+02 -0.60749086690E+03  0.11247695789E+04  0.46999998093E+01 0.  1.
</event>
<event>
 5   0  0.9938176E-05  0.2123245E+04  0.7818609E-02  0.8551072E-01
        2   -1    0    0  501    0  0.00000000000E+00  0.00000000000E+00  0.14471140505E+04  0.14471140505E+04  0.25500000920E-02 0.  1.
       -2   -1    0    0    0  501  0.00000000000E+00  0.00000000000E+00 -0.77882078377E+03  0.77882078377E+03  0.25500000920E-02 0. -1.
    10030    2    1    2    0    0  0.00000000000E+00  0.00000000000E+00  0.66829326677E+03  0.22259348343E+04  0.21232451569E+04 0.  0.
        5    1    3    3  502    0 -0.57803007091E+03 -0.40203653522E+03 -0.49880404120E+03  0.86289031751E+03  0.46999998093E+01 0. -1.
       -5    1    3    3    0  502  0.57803007091E+03  0.40203653522E+03  0.11670973080E+04  0.13630445168E+04  0.46999998093E+01 0.  1.
</event>
<event>
 5   0  0.9254673E-05  0.2200215E+04  0.7818609E-02  0.8518339E-01
       -2   -1    0    0    0  501  0.00000000000E+00  0.00000000000E+00  0.63368377603E+03  0.63368377604E+03  0.25500000920E-02 0.  1.
        2   -1    0    0  501    0  0.00000000000E+00  0.00000000000E+00 -0.19098423046E+04  0.19098423046E+04  0.25500000920E-02 0. -1.
    10030    2    1    2    0    0  0.00000000000E+00  0.00000000000E+00 -0.12761585286E+04  0.25435260807E+04  0.22002146107E+04 0.  0.
        2    1    3    3  502    0 -0.24007022269E+03 -0.75604536783E+03  0.24308806124E+03  0.82965662509E+03  0.25500000920E-02 0.  1.
       -2    1    3    3    0  502  0.24007022269E+03  0.75604536783E+03 -0.15192465898E+04  0.17138694556E+04  0.25500000920E-02 0. -1.
</event>
<event>
 5   0  0.4174075E-05  0.2175356E+04  0.7818609E-02  0.8528756E-01
        1   -1    0    0  501    0  0.00000000000E+00  0.00000000000E+00  0.16180507040E+04  0.16180507040E+04  0.50400001928E-02 0.  1.
       -1   -1    0    0    0  501  0.00000000000E+00  0.00000000000E+00 -0.73115344362E+03  0.73115344364E+03  0.50400001928E-02 0. -1.
    10030    2    1    2    0    0  0.00000000000E+00  0.00000000000E+00  0.88689726042E+03  0.23492041477E+04  0.21753559196E+04 0.  0.
        5    1    3    3  502    0 -0.53982778458E+03 -0.81127848264E+03  0.96521117668E+03  0.13715835808E+04  0.46999998093E+01 0.  1.
       -5    1    3    3    0  502  0.53982778458E+03  0.81127848264E+03 -0.78313916259E+02  0.97762056693E+03  0.46999998093E+01 0. -1.
</event>
<event>
 5   0  0.9179618E-05  0.2213007E+04  0.7818609E-02  0.8513034E-01
       -2   -1    0    0    0  501  0.00000000000E+00  0.00000000000E+00  0.83317007154E+03  0.83317007154E+03  0.25500000920E-02 0. -1.
        2   -1    0    0  501    0  0.00000000000E+00  0.00000000000E+00 -0.14695075283E+04  0.14695075283E+04  0.25500000920E-02 0.  1.
    10030    2    1    2    0    0  0.00000000000E+00  0.00000000000E+00 -0.63633745676E+03  0.23026775998E+04  0.22130067261E+04 0.  0.
        3    1    3    3  502    0  0.11002226229E+04  0.66838643656E+02 -0.41901039995E+03  0.11792060675E+04  0.10100000352E+00 0. -1.
       -3    1    3    3    0  502 -0.11002226229E+04 -0.66838643656E+02 -0.21732705681E+03  0.11234715323E+04  0.10100000352E+00 0.  1.
</event>
<event>
 5   0  0.4188865E-05  0.2201420E+04  0.7818609E-02  0.8517837E-01
       -1   -1    0    0    0  501  0.00000000000E+00  0.00000000000E+00  0.52548135417E+03  0.52548135420E+03  0.50400001928E-02 0. -1.
        1   -1    0    0  501    0  0.00000000000E+00  0.00000000000E+00 -0.23056235913E+04  0.23056235913E+04  0.50400001928E-02 0.  1.
    10030    2    1    2    0    0  0.00000000000E+00  0.00000000000E+00 -0.17801422371E+04  0.28311049455E+04  0.22014197301E+04 0.  0.
        3    1    3    3  502    0  0.32695391006E+03 -0.74014861330E+03 -0.18497360825E+04  0.20189706323E+04  0.10100000352E+00 0.  1.
       -3    1    3    3    0  502 -0.32695391006E+03  0.74014861330E+03  0.69593845404E+02  0.81213431315E+03  0.10100000352E+00 0. -1.
</event>
<event>
 5   0  0.9442578E-05  0.2186071E+04  0.7818609E-02  0.8524248E-01
       -2   -1    0    0    0  501  0.00000000000E+00  0.00000000000E+00  0.99971681605E+03  0.99971681605E+03  0.25500000920E-02 0.  1.
        2   -1    0    0  501    0  0.00000000000E+00  0.00000000000E+00 -0.11950648130E+04  0.11950648130E+04  0.25500000920E-02 0. -1.
    10030    2    1    2    0    0  0.00000000000E+00  0.00000000000E+00 -0.19534799696E+03  0.21947816291E+04  0.21860708038E+04 0.  0.
        4    1    3    3  502    0  0.45303221277E+03  0.97046100918E+03 -0.31692922498E+03  0.11169057716E+04  0.12699999809E+01 0.  1.
       -4    1    3    3    0  502 -0.45303221277E+03 -0.97046100918E+03  0.12158122802E+03  0.10778758574E+04  0.12699999809E+01 0. -1.
</event>
<event>
 5   0  0.4174030E-05  0.2217931E+04  0.7818609E-02  0.8511002E-01
        1   -1    0    0  501    0  0.00000000000E+00  0.00000000000E+00  0.68376668712E+03  0.68376668714E+03  0.50400001928E-02 0. -1.
       -1   -1    0    0    0  501  0.00000000000E+00  0.00000000000E+00 -0.17985730254E+04  0.17985730254E+04  0.50400001928E-02 0.  1.
    10030    2    1    2    0    0  0.00000000000E+00  0.00000000000E+00 -0.11148063383E+04  0.24823397125E+04  0.22179308548E+04 0.  0.
        2    1    3    3  502    0  0.17930188830E+03 -0.48949560165E+03 -0.16528898977E+04  0.17331474621E+04  0.25500000920E-02 0.  1.
       -2    1    3    3    0  502 -0.17930188830E+03  0.48949560165E+03  0.53808355948E+03  0.74919225047E+03  0.25500000920E-02 0. -1.
</event>
<event>
 5   0  0.4063293E-05  0.2211161E+04  0.7818609E-02  0.8513797E-01
       -1   -1    0    0    0  501  0.00000000000E+00  0.00000000000E+00  0.82636572643E+03  0.82636572645E+03  0.50400001928E-02 0. -1.
        1   -1    0    0  501    0  0.00000000000E+00  0.00000000000E+00 -0.14791375767E+04  0.14791375767E+04  0.50400001928E-02 0.  1.
    10030    2    1    2    0    0  0.00000000000E+00  0.00000000000E+00 -0.65277185029E+03  0.23055033032E+04  0.22111613221E+04 0.  0.
        1    1    3    3  502    0 -0.51840092525E+03  0.62081735322E+03 -0.11123065666E+04  0.13752743739E+04  0.50400001928E-02 0.  1.
       -1    1    3    3    0  502  0.51840092525E+03 -0.62081735322E+03  0.45953471632E+03  0.93022892929E+03  0.50400001928E-02 0. -1.
</event>
<event>
 5   0  0.9938176E-05  0.2464495E+04  0.7818609E-02  0.8415745E-01
        2   -1    0    0  501    0  0.00000000000E+00  0.00000000000E+00  0.26228949053E+04  0.26228949053E+04  0.25500000920E-02 0. -1.
       -2   -1    0    0    0  501  0.00000000000E+00  0.00000000000E+00 -0.57891510617E+03  0.57891510618E+03  0.25500000920E-02 0.  1.
    10030    2    1    2    0    0  0.00000000000E+00  0.00000000000E+00  0.20439797991E+04  0.32018100115E+04  0.24644946602E+04 0.  0.
        5    1    3    3  502    0  0.90012038116E+03  0.83275643928E+03  0.86441220210E+03  0.15003101456E+04  0.46999998093E+01 0. -1.
       -5    1    3    3    0  502 -0.90012038116E+03 -0.83275643928E+03  0.11795675970E+04  0.17014998659E+04  0.46999998093E+01 0.  1.
</event>
<event>
 5   0  0.4174075E-05  0.2205232E+04  0.7818609E-02  0.8516254E-01
       -1   -1    0    0    0  501  0.00000000000E+00  0.00000000000E+00  0.58961020141E+03  0.58961020143E+03  0.50400001928E-02 0.  1.
        1   -1    0    0  501    0  0.00000000000E+00  0.00000000000E+00 -0.20619756357E+04  0.20619756357E+04  0.50400001928E-02 0. -1.
    10030    2    1    2    0    0  0.00000000000E+00  0.00000000000E+00 -0.14723654343E+04  0.26515858371E+04  0.22052318426E+04 0.  0.
        5    1    3    3  502    0 -0.50235531799E+03  0.92539824631E+03 -0.34283392389E+03  0.11073752612E+04  0.46999998093E+01 0.  1.
       -5    1    3    3    0  502  0.50235531799E+03 -0.92539824631E+03 -0.11295315104E+04  0.15442105759E+04  0.46999998093E+01 0. -1.
</event>
<event>
 5   0  0.9179618E-05  0.2193932E+04  0.7818609E-02  0.8520958E-01
        2   -1    0    0  501    0  0.00000000000E+00  0.00000000000E+00  0.20039383159E+04  0.20039383159E+04  0.25500000920E-02 0.  1.
       -2   -1    0    0    0  501  0.00000000000E+00  0.00000000000E+00 -0.60048483373E+03  0.60048483373E+03  0.25500000920E-02 0. -1.
    10030    2    1    2    0    0  0.00000000000E+00  0.00000000000E+00  0.14034534822E+04  0.26044231496E+04  0.21939321470E+04 0.  0.
        3    1    3    3  502    0 -0.36771977537E+03  0.31840155733E+03 -0.46546596250E+03  0.67324286655E+03  0.10100000352E+00 0. -1.
       -3    1    3    3    0  502  0.36771977537E+03 -0.31840155733E+03  0.18689194447E+04  0.19311802831E+04  0.10100000352E+00 0.  1.
</event>
<event>
 5   0  0.9457742E-05  0.2184809E+04  0.7818609E-02  0.8524778E-01
       -2   -1    0    0    0  501  0.00000000000E+00  0.00000000000E+00  0.61248279594E+03  0.61248279595E+03  0.25500000920E-02 0. -1.
        2   -1    0    0  501    0  0.00000000000E+00  0.00000000000E+00 -0.19483768578E+04  0.19483768578E+04  0.25500000920E-02 0.  1.
    10030    2    1    2    0    0  0.00000000000E+00  0.00000000000E+00 -0.13358940619E+04  0.25608596538E+04  0.21848087380E+04 0.  0.
        1    1    3    3  502    0 -0.43341912060E+02 -0.29896853980E+03 -0.18984430530E+04  0.19223284669E+04  0.50400001928E-02 0.  1.
       -1    1    3    3    0  502  0.43341912060E+02  0.29896853980E+03  0.56254899114E+03  0.63853118686E+03  0.50400001928E-02 0. -1.
</event>
<event>
 5   0  0.4174030E-05  0.2216512E+04  0.7818609E-02  0.8511587E-01
        1   -1    0    0  501    0  0.00000000000E+00  0.00000000000E+00  0.17636789009E+04  0.17636789009E+04  0.50400001928E-02 0.  1.
       -1   -1    0    0    0  501  0.00000000000E+00  0.00000000000E+00 -0.69640300695E+03  0.69640300696E+03  0.50400001928E-02 0. -1.
    10030    2    1    2    0    0  0.00000000000E+00  0.00000000000E+00  0.10672758940E+04  0.24600819079E+04  0.22165119354E+04 0.  0.
        2    1    3    3  502    0  0.22055433941E+03  0.83739262732E+03 -0.23400138977E+03  0.89701018909E+03  0.25500000920E-02 0. -1.
       -2    1    3    3    0  502 -0.22055433941E+03 -0.83739262732E+03  0.13012772838E+04  0.15630717188E+04  0.25500000920E-02 0.  1.
</event>
<event>
 5   0  0.4174030E-05  0.2168346E+04  0.7818609E-02  0.8531720E-01
       -1   -1    0    0    0  501  0.00000000000E+00  0.00000000000E+00  0.71291452814E+03  0.71291452816E+03  0.50400001928E-02 0.  1.
        1   -1    0    0  501    0  0.00000000000E+00  0.00000000000E+00 -0.16487684329E+04  0.16487684329E+04  0.50400001928E-02 0. -1.
    10030    2    1    2    0    0  0.00000000000E+00  0.00000000000E+00 -0.93585390471E+03  0.23616829610E+04  0.21683458851E+04 0.  0.
        2    1    3    3  502    0 -0.30489187485E+03 -0.48355149628E+03  0.53543426236E+03  0.78324386638E+03  0.25500000920E-02 0.  1.
       -2    1    3    3    0  502  0.30489187485E+03  0.48355149628E+03 -0.14712881671E+04  0.15784390946E+04  0.25500000920E-02 0. -1.
</event>
<event>
 5   0  0.9179618E-05  0.2193200E+04  0.7818609E-02  0.8521264E-01
        2   -1    0    0  501    0  0.00000000000E+00  0.00000000000E+00  0.25970526527E+04  0.25970526527E+04  0.25500000920E-02 0.  1.
       -2   -1    0    0    0  501  0.00000000000E+00  0.00000000000E+00 -0.46303719120E+03  0.46303719120E+03  0.25500000920E-02 0. -1.
    10030    2    1    2    0    0  0.00000000000E+00  0.00000000000E+00  0.21340154615E+04  0.30600898439E+04  0.21932003700E+04 0.  0.
        3    1    3    3  502    0  0.45810503217E+03  0.90750645954E+01 -0.32307509831E+03  0.56064258368E+03  0.10100000352E+00 0. -1.
       -3    1    3    3    0  502 -0.45810503217E+03 -0.90750645954E+01  0.24570905598E+04  0.24994472602E+04  0.10100000352E+00 0.  1.
</event>
<event>
 5   0  0.9179618E-05  0.2220613E+04  0.7818609E-02  0.8509897E-01
        2   -1    0    0  501    0  0.00000000000E+00  0.00000000000E+00  0.12325368965E+04  0.12325368965E+04  0.25500000920E-02 0. -1.
       -2   -1    0    0    0  501  0.00000000000E+00  0.00000000000E+00 -0.10001978147E+04  0.10001978147E+04  0.25500000920E-02 0.  1.
    10030    2    1    2    0    0  0.00000000000E+00  0.00000000000E+00  0.23233908178E+03  0.22327347112E+04  0.22206131679E+04 0.  0.
        3    1    3    3  502    0  0.60354752024E+03  0.70849657558E+03 -0.49256380009E+03  0.10530223712E+04  0.10100000352E+00 0.  1.
       -3    1    3    3    0  502 -0.60354752024E+03 -0.70849657558E+03  0.72490288187E+03  0.11797123400E+04  0.10100000352E+00 0. -1.
</event>
<event>
 5   0  0.4133418E-05  0.2208122E+04  0.7818609E-02  0.8515055E-01
        1   -1    0    0  501    0  0.00000000000E+00  0.00000000000E+00  0.11979401076E+04  0.11979401077E+04  0.50400001928E-02 0.  1.
       -1   -1    0    0    0  501  0.00000000000E+00  0.00000000000E+00 -0.10175390201E+04  0.10175390201E+04  0.50400001928E-02 0. -1.
    10030    2    1    2    0    0  0.00000000000E+00  0.00000000000E+00  0.18040108756E+03  0.22154791277E+04  0.22081221010E+04 0.  0.
        4    1    3    3  502    0  0.84805174577E+02 -0.18075762961E+03 -0.99927363704E+03  0.10190263259E+04  0.12699999809E+01 0. -1.
       -4    1    3    3    0  502 -0.84805174577E+02  0.18075762961E+03  0.11796747246E+04  0.11964528018E+04  0.12699999809E+01 0.  1.
</event>
<event>
 5   0  0.4133418E-05  0.2236280E+04  0.7818609E-02  0.8503478E-01
        1   -1    0    0  501    0  0.00000000000E+00  0.00000000000E+00  0.17646414212E+04  0.17646414212E+04  0.50400001928E-02 0.  1.
       -1   -1    0    0    0  501  0.00000000000E+00  0.00000000000E+00 -0.70849327521E+03  0.70849327523E+03  0.50400001928E-02 0. -1.
    10030    2    1    2    0    0  0.00000000000E+00  0.00000000000E+00  0.10561481460E+04  0.24731346964E+04  0.22362795712E+04 0.  0.
        4    1    3    3  502    0  0.99151995559E+03 -0.19781473720E+03  0.10561324422E+04  0.14620738151E+04  0.12699999809E+01 0.  1.
       -4    1    3    3    0  502 -0.99151995559E+03  0.19781473720E+03  0.15703834083E-01  0.10110608813E+04  0.12699999809E+01 0. -1.
</event>
<event>
 5   0  0.4063293E-05  0.2199924E+04  0.7818609E-02  0.8518460E-01
        1   -1    0    0  501    0  0.00000000000E+00  0.00000000000E+00  0.14457734260E+04  0.14457734260E+04  0.50400001928E-02 0.  1.
       -1   -1    0    0    0  501  0.00000000000E+00  0.00000000000E+00 -0.83686446500E+03  0.83686446501E+03  0.50400001928E-02 0. -1.
    10030    2    1    2    0    0  0.00000000000E+00  0.00000000000E+00  0.60890896097E+03  0.22826378910E+04  0.21999240029E+04 0.  0.
        1    1    3    3  502    0  0.21716471411E+03  0.69633629377E+03 -0.54983111170E+03  0.91343253637E+03  0.50400001928E-02 0. -1.
       -1    1    3    3    0  502 -0.21716471411E+03 -0.69633629377E+03  0.11587400727E+04  0.13692053546E+04  0.50400001928E-02 0.  1.
</event>
<event>
 5   0  0.4063293E-05  0.2209993E+04  0.7818609E-02  0.8514280E-01
        1   -1    0    0  501    0  0.00000000000E+00  0.00000000000E+00  0.21190220601E+04  0.21190220601E+04  0.50400001928E-02 0. -1.
       -1   -1    0    0    0  501  0.00000000000E+00  0.00000000000E+00 -0.57621754686E+03  0.57621754689E+03  0.50400001928E-02 0.  1.
    10030    2    1    2    0    0  0.00000000000E+00  0.00000000000E+00  0.15428045133E+04  0.26952396070E+04  0.22099933876E+04 0.  0.
        1    1    3    3  502    0  0.19524009930E+03  0.10791842012E+04  0.60660035320E+03  0.12532841757E+04  0.50400001928E-02 0.  1.
       -1    1    3    3    0  502 -0.19524009930E+03 -0.10791842012E+04  0.93620416006E+03  0.14419554313E+04  0.50400001928E-02 0. -1.
</event>
<event>
 5   0  0.4174030E-05  0.2248213E+04  0.7818609E-02  0.8498625E-01
       -1   -1    0    0    0  501  0.00000000000E+00  0.00000000000E+00  0.10111478378E+04  0.10111478378E+04  0.50400001928E-02 0. -1.
        1   -1    0    0  501    0  0.00000000000E+00  0.00000000000E+00 -0.12496840478E+04  0.12496840478E+04  0.50400001928E-02 0.  1.
    10030    2    1    2    0    0  0.00000000000E+00  0.00000000000E+00 -0.23853620999E+03  0.22608318857E+04  0.22482129107E+04 0.  0.
        2    1    3    3  502    0  0.51569640173E+03  0.70504634441E+03 -0.83075766504E+03  0.12054838964E+04  0.25500000920E-02 0.  1.
       -2    1    3    3    0  502 -0.51569640173E+03 -0.70504634441E+03  0.59222145505E+03  0.10553479892E+04  0.25500000920E-02 0. -1.
</event>
<event>
 5   0  0.4174075E-05  0.2205555E+04  0.7818609E-02  0.8516120E-01
        1   -1    0    0  501    0  0.00000000000E+00  0.00000000000E+00  0.14219329365E+04  0.14219329365E+04  0.50400001928E-02 0. -1.
       -1   -1    0    0    0  501  0.00000000000E+00  0.00000000000E+00 -0.85525707048E+03  0.85525707050E+03  0.50400001928E-02 0.  1.
    10030    2    1    2    0    0  0.00000000000E+00  0.00000000000E+00  0.56667586602E+03  0.22771900070E+04  0.22055549848E+04 0.  0.
        5    1    3    3  502    0  0.10354274109E+03 -0.27553821524E+03  0.13806132157E+04  0.14116505760E+04  0.46999998093E+01 0. -1.
       -5    1    3    3    0  502 -0.10354274109E+03  0.27553821524E+03 -0.81393734973E+03  0.86553943098E+03  0.46999998093E+01 0.  1.
</event>
<event>
 5   0  0.4174030E-05  0.2154950E+04  0.7818609E-02  0.8537417E-01
       -1   -1    0    0    0  501  0.00000000000E+00  0.00000000000E+00  0.12690517107E+04  0.12690517107E+04  0.50400001928E-02 0.  1.
        1   -1    0    0  501    0  0.00000000000E+00  0.00000000000E+00 -0.91481842615E+03  0.91481842617E+03  0.50400001928E-02 0. -1.
    10030    2    1    2    0    0  0.00000000000E+00  0.00000000000E+00  0.35423328452E+03  0.21838701369E+04  0.21549495481E+04 0.  0.
        2    1    3    3  502    0  0.70146712961E+03 -0.59796215844E+03 -0.38834751160E+03  0.10002143103E+04  0.25500000920E-02 0. -1.
       -2    1    3    3    0  502 -0.70146712961E+03  0.59796215844E+03  0.74258079612E+03  0.11836558265E+04  0.25500000920E-02 0.  1.
</event>
<event>
 5   0  0.9457742E-05  0.2210246E+04  0.7818609E-02  0.8514176E-01
       -2   -1    0    0    0  501  0.00000000000E+00  0.00000000000E+00  0.47306661484E+03  0.47306661484E+03  0.25500000920E-02 0. -1.
        2   -1    0    0  501    0  0.00000000000E+00  0.00000000000E+00 -0.25816584680E+04  0.25816584680E+04  0.25500000920E-02 0.  1.
    10030    2    1    2    0    0  0.00000000000E+00  0.00000000000E+00 -0.21085918531E+04  0.30547250828E+04  0.22102456263E+04 0.  0.
        1    1    3    3  502    0  0.71781165148E+03 -0.70819644139E+03 -0.42929745688E+03  0.10959434625E+04  0.50400001928E-02 0. -1.
       -1    1    3    3    0  502 -0.71781165148E+03  0.70819644139E+03 -0.16792943963E+04  0.19587816203E+04  0.50400001928E-02 0.  1.
</event>
<event>
 5   0  0.9457742E-05  0.2209117E+04  0.7818609E-02  0.8514643E-01
       -2   -1    0    0    0  501  0.00000000000E+00  0.00000000000E+00  0.10088298177E+04  0.10088298177E+04  0.25500000920E-02 0. -1.
        2   -1    0    0  501    0  0.00000000000E+00  0.00000000000E+00 -0.12093709057E+04  0.12093709057E+04  0.25500000920E-02 0.  1.
    10030    2    1    2    0    0  0.00000000000E+00  0.00000000000E+00 -0.20054108801E+03  0.22182007234E+04  0.22091169551E+04 0.  0.
        1    1    3    3  502    0  0.80772906098E+03 -0.21774277588E+03  0.62395195942E+03  0.10436255076E+04  0.50400001928E-02 0. -1.
       -1    1    3    3    0  502 -0.80772906098E+03  0.21774277588E+03 -0.82449304743E+03  0.11745752158E+04  0.50400001928E-02 0.  1.
</event>
<event>
 5   0  0.9254673E-05  0.2198150E+04  0.7818609E-02  0.8519198E-01
        2   -1    0    0  501    0  0.00000000000E+00  0.00000000000E+00  0.13302924592E+04  0.13302924592E+04  0.25500000920E-02 0. -1.
       -2   -1    0    0    0  501  0.00000000000E+00  0.00000000000E+00 -0.90804546617E+03  0.90804546617E+03  0.25500000920E-02 0.  1.
    10030    2    1    2    0    0  0.00000000000E+00  0.00000000000E+00  0.42224699303E+03  0.22383379254E+04  0.21981501644E+04 0.  0.
        2    1    3    3  502    0  0.23289866814E+03 -0.10294847548E+03  0.12998412882E+04  0.13245480561E+04  0.25500000920E-02 0. -1.
       -2    1    3    3    0  502 -0.23289866814E+03  0.10294847548E+03 -0.87759429522E+03  0.91378986930E+03  0.25500000920E-02 0.  1.
</event>
<event>
 5   0  0.4133418E-05  0.2221739E+04  0.7818609E-02  0.8509434E-01
       -1   -1    0    0    0  501  0.00000000000E+00  0.00000000000E+00  0.58106112313E+03  0.58106112315E+03  0.50400001928E-02 0. -1.
        1   -1    0    0  501    0  0.00000000000E+00  0.00000000000E+00 -0.21237551398E+04  0.21237551398E+04  0.50400001928E-02 0.  1.
    10030    2    1    2    0    0  0.00000000000E+00  0.00000000000E+00 -0.15426940167E+04  0.27048162630E+04  0.22217394508E+04 0.  0.
        4    1    3    3  502    0 -0.12384832001E+03  0.43771521303E+03  0.46246887188E+03  0.64870030402E+03  0.12699999809E+01 0. -1.
       -4    1    3    3    0  502  0.12384832001E+03 -0.43771521303E+03 -0.20051628885E+04  0.20561159589E+04  0.12699999809E+01 0.  1.
</event>
<event>
 5   0  0.4133418E-05  0.2223969E+04  0.7818609E-02  0.8508518E-01
        1   -1    0    0  501    0  0.00000000000E+00  0.00000000000E+00  0.16113930986E+04  0.16113930986E+04  0.50400001928E-02 0. -1.
       -1   -1    0    0    0  501  0.00000000000E+00  0.00000000000E+00 -0.76735407352E+03  0.76735407354E+03  0.50400001928E-02 0.  1.
    10030    2    1    2    0    0  0.00000000000E+00  0.00000000000E+00  0.84403902506E+03  0.23787471721E+04  0.22239685774E+04 0.  0.
        4    1    3    3  502    0  0.80959131559E+03 -0.64591069315E+03 -0.10960325531E+02  0.10357415042E+04  0.12699999809E+01 0.  1.
       -4    1    3    3    0  502 -0.80959131559E+03  0.64591069315E+03  0.85499935059E+03  0.13430056680E+04  0.12699999809E+01 0. -1.
</event>
<event>
 5   0  0.4063293E-05  0.2206238E+04  0.7818609E-02  0.8515836E-01
       -1   -1    0    0    0  501  0.00000000000E+00  0.00000000000E+00  0.79767008612E+03  0.79767008614E+03  0.50400001928E-02 0.  1.
        1   -1    0    0  501    0  0.00000000000E+00  0.00000000000E+00 -0.15255324024E+04  0.15255324024E+04  0.50400001928E-02 0. -1.
    10030    2    1    2    0    0  0.00000000000E+00  0.00000000000E+00 -0.72786231630E+03  0.23232024886E+04  0.22062380314E+04 0.  0.
        1    1    3    3  502    0  0.40964780070E+03  0.21040847067E+03  0.69160236113E+03  0.83090124028E+03  0.50400001928E-02 0.  1.
       -1    1    3    3    0  502 -0.40964780070E+03 -0.21040847067E+03 -0.14194646774E+04  0.14923012483E+04  0.50400001928E-02 0. -1.
</event>
<event>
 5   0  0.4174030E-05  0.2208537E+04  0.7818609E-02  0.8514883E-01
        1   -1    0    0  501    0  0.00000000000E+00  0.00000000000E+00  0.20827373204E+04  0.20827373204E+04  0.50400001928E-02 0.  1.
       -1   -1    0    0    0  501  0.00000000000E+00  0.00000000000E+00 -0.58548384970E+03  0.58548384972E+03  0.50400001928E-02 0. -1.
    10030    2    1    2    0    0  0.00000000000E+00  0.00000000000E+00  0.14972534707E+04  0.26682211701E+04  0.22085371306E+04 0.  0.
        2    1    3    3  502    0  0.21374601351E+03 -0.21273637662E+03 -0.53477066662E+03  0.61394119434E+03  0.25500000920E-02 0. -1.
       -2    1    3    3    0  502 -0.21374601351E+03  0.21273637662E+03  0.20320241373E+04  0.20542799757E+04  0.25500000920E-02 0.  1.
</event>
<event>
 5   0  0.4174030E-05  0.2221484E+04  0.7818609E-02  0.8509539E-01
       -1   -1    0    0    0  501  0.00000000000E+00  0.00000000000E+00  0.13108202540E+04  0.13108202540E+04  0.50400001928E-02 0.  1.
        1   -1    0    0  501    0  0.00000000000E+00  0.00000000000E+00 -0.94120322003E+03  0.94120322004E+03  0.50400001928E-02 0. -1.
    10030    2    1    2    0    0  0.00000000000E+00  0.00000000000E+00  0.36961703393E+03  0.22520234740E+04  0.22214844082E+04 0.  0.
        2    1    3    3  502    0 -0.94464346018E+03 -0.34703080966E+02  0.77608706339E+03  0.12230562950E+04  0.25500000920E-02 0.  1.
       -2    1    3    3    0  502  0.94464346018E+03  0.34703080966E+02 -0.40647002946E+03  0.10289671790E+04  0.25500000920E-02 0. -1.
</event>
<event>
 5   0  0.9179618E-05  0.2173546E+04  0.7818609E-02  0.8529520E-01
        2   -1    0    0  501    0  0.00000000000E+00  0.00000000000E+00  0.12194680336E+04  0.12194680336E+04  0.25500000920E-02 0. -1.
       -2   -1    0    0    0  501  0.00000000000E+00  0.00000000000E+00 -0.96851664172E+03  0.96851664172E+03  0.25500000920E-02 0.  1.
    10030    2    1    2    0    0  0.00000000000E+00  0.00000000000E+00  0.25095139188E+03  0.21879846753E+04  0.21735455685E+04 0.  0.
        3    1    3    3  502    0  0.65526537808E+03  0.86381821831E+03  0.20026897022E+03  0.11025707690E+04  0.10100000352E+00 0.  1.
       -3    1    3    3    0  502 -0.65526537808E+03 -0.86381821831E+03  0.50682421663E+02  0.10854139063E+04  0.10100000352E+00 0. -1.
</event>
<event>
 5   0  0.9457742E-05  0.2229280E+04  0.7818609E-02  0.8506339E-01
        2   -1    0    0  501    0  0.00000000000E+00  0.00000000000E+00  0.79726398425E+03  0.79726398426E+03  0.25500000920E-02 0.  1.
       -2   -1    0    0    0  501  0.00000000000E+00  0.00000000000E+00 -0.15583575496E+04  0.15583575496E+04  0.25500000920E-02 0. -1.
    10030    2    1    2    0    0  0.00000000000E+00  0.00000000000E+00 -0.76109356533E+03  0.23556215338E+04  0.22292800173E+04 0.  0.
        1    1    3    3  502    0 -0.68558739211E+03  0.61618325968E+02 -0.13069281250E+04  0.14771215299E+04  0.50400001928E-02 0. -1.
       -1    1    3    3    0  502  0.68558739211E+03 -0.61618325968E+02  0.54583455965E+03  0.87850000390E+03  0.50400001928E-02 0.  1.
</event>
<event>
 5   0  0.9179618E-05  0.2180937E+04  0.7818609E-02  0.8526404E-01
        2   -1    0    0  501    0  0.00000000000E+00  0.00000000000E+00  0.16067153325E+04  0.16067153325E+04  0.25500000920E-02 0.  1.
       -2   -1    0    0    0  501  0.00000000000E+00  0.00000000000E+00 -0.74009503610E+03  0.74009503611E+03  0.25500000920E-02 0. -1.
    10030    2    1    2    0    0  0.00000000000E+00  0.00000000000E+00  0.86662029644E+03  0.23468103687E+04  0.21809374517E+04 0.  0.
        3    1    3    3  502    0  0.26215949820E+03 -0.52250016905E+03 -0.55723880518E+03  0.80761941863E+03  0.10100000352E+00 0. -1.
       -3    1    3    3    0  502 -0.26215949820E+03  0.52250016905E+03  0.14238591016E+04  0.15391909500E+04  0.10100000352E+00 0.  1.
</event>
<event>
 5   0  0.4063293E-05  0.2203620E+04  0.7818609E-02  0.8516923E-01
       -1   -1    0    0    0  501  0.00000000000E+00  0.00000000000E+00  0.12849374210E+04  0.12849374210E+04  0.50400001928E-02 0.  1.
        1   -1    0    0  501    0  0.00000000000E+00  0.00000000000E+00 -0.94478144229E+03  0.94478144230E+03  0.50400001928E-02 0. -1.
    10030    2    1    2    0    0  0.00000000000E+00  0.00000000000E+00  0.34015597867E+03  0.22297188633E+04  0.22036197765E+04 0.  0.
        1    1    3    3  502    0 -0.59133800564E+03 -0.18149507140E+03  0.10926686123E+04  0.12556057479E+04  0.50400001928E-02 0.  1.
       -1    1    3    3    0  502  0.59133800564E+03  0.18149507140E+03 -0.75251263358E+03  0.97411311540E+03  0.50400001928E-02 0. -1.
</event>
<event>
 5   0  0.9254673E-05  0.2213598E+04  0.7818609E-02  0.8512790E-01
        2   -1    0    0  501    0  0.00000000000E+00  0.00000000000E+00  0.12668949745E+04  0.12668949745E+04  0.25500000920E-02 0. -1.
       -2   -1    0    0    0  501  0.00000000000E+00  0.00000000000E+00 -0.96693399464E+03  0.96693399464E+03  0.25500000920E-02 0.  1.
    10030    2    1    2    0    0  0.00000000000E+00  0.00000000000E+00  0.29996097990E+03  0.22338289692E+04  0.22135978122E+04 0.  0.
        2    1    3    3  502    0  0.55943479507E+03  0.94746568470E+03  0.27084703097E+03  0.11331445750E+04  0.25500000920E-02 0. -1.
       -2    1    3    3    0  502 -0.55943479507E+03 -0.94746568470E+03  0.29113948934E+02  0.11006843942E+04  0.25500000920E-02 0.  1.
</event>
<event>
 5   0  0.9254673E-05  0.2140550E+04  0.7818609E-02  0.8543588E-01
        2   -1    0    0  501    0  0.00000000000E+00  0.00000000000E+00  0.13216208899E+04  0.13216208899E+04  0.25500000920E-02 0.  1.
       -2   -1    0    0    0  501  0.00000000000E+00  0.00000000000E+00 -0.86673021663E+03  0.86673021664E+03  0.25500000920E-02 0. -1.
    10030    2    1    2    0    0  0.00000000000E+00  0.00000000000E+00  0.45489067323E+03  0.21883511065E+04  0.21405501724E+04 0.  0.
        2    1    3    3  502    0  0.82583182470E+03 -0.68079865305E+03  0.22546520603E+03  0.10937639452E+04  0.25500000920E-02 0.  1.
       -2    1    3    3    0  502 -0.82583182470E+03  0.68079865305E+03  0.22942546720E+03  0.10945871613E+04  0.25500000920E-02 0. -1.
</event>
<event>
 5   0  0.4063293E-05  0.2143548E+04  0.7818609E-02  0.8542299E-01
       -1   -1    0    0    0  501  0.00000000000E+00  0.00000000000E+00  0.71943993991E+03  0.71943993993E+03  0.50400001928E-02 0.  1.
        1   -1    0    0  501    0  0.00000000000E+00  0.00000000000E+00 -0.15966578016E+04  0.15966578016E+04  0.50400001928E-02 0. -1.
    10030    2    1    2    0    0  0.00000000000E+00  0.00000000000E+00 -0.87721786173E+03  0.23160977416E+04  0.21435478935E+04 0.  0.
        1    1    3    3  502    0 -0.12712822815E+03  0.44455293172E+03  0.60613224035E+03  0.76235502773E+03  0.50400001928E-02 0.  1.
       -1    1    3    3    0  502  0.12712822815E+03 -0.44455293172E+03 -0.14833501021E+04  0.15537427138E+04  0.50400001928E-02 0. -1.
</event>
<event>
 5   0  0.4133418E-05  0.2236347E+04  0.7818609E-02  0.8503450E-01
        1   -1    0    0  501    0  0.00000000000E+00  0.00000000000E+00  0.18651804614E+04  0.18651804614E+04  0.50400001928E-02 0.  1.
       -1   -1    0    0    0  501  0.00000000000E+00  0.00000000000E+00 -0.67034375596E+03  0.67034375598E+03  0.50400001928E-02 0. -1.
    10030    2    1    2    0    0  0.00000000000E+00  0.00000000000E+00  0.11948367054E+04  0.25355242173E+04  0.22363470894E+04 0.  0.
        4    1    3    3  502    0 -0.10991140319E+03  0.80627804292E+03  0.14669211914E+04  0.16775053484E+04  0.12699999809E+01 0.  1.
       -4    1    3    3    0  502  0.10991140319E+03 -0.80627804292E+03 -0.27208448605E+03  0.85801886896E+03  0.12699999809E+01 0. -1.
</event>
<event>
 5   0  0.4174075E-05  0.2186416E+04  0.7818609E-02  0.8524103E-01
       -1   -1    0    0    0  501  0.00000000000E+00  0.00000000000E+00  0.99651930034E+03  0.99651930036E+03  0.50400001928E-02 0.  1.
        1   -1    0    0  501    0  0.00000000000E+00  0.00000000000E+00 -0.11992778654E+04  0.11992778654E+04  0.50400001928E-02 0. -1.
    10030    2    1    2    0    0  0.00000000000E+00  0.00000000000E+00 -0.20275856506E+03  0.21957971658E+04  0.21864158245E+04 0.  0.
        5    1    3    3  502    0 -0.31062236689E+03 -0.77907085865E+03 -0.80556098796E+03  0.11629222902E+04  0.46999998093E+01 0. -1.
       -5    1    3    3    0  502  0.31062236689E+03  0.77907085865E+03  0.60280242290E+03  0.10328748756E+04  0.46999998093E+01 0.  1.
</event>
<event>
 5   0  0.9442578E-05  0.2140775E+04  0.7818609E-02  0.8543491E-01
        2   -1    0    0  501    0  0.00000000000E+00  0.00000000000E+00  0.13100284839E+04  0.13100284839E+04  0.25500000920E-02 0.  1.
       -2   -1    0    0    0  501  0.00000000000E+00  0.00000000000E+00 -0.87458344877E+03  0.87458344877E+03  0.25500000920E-02 0. -1.
    10030    2    1    2    0    0  0.00000000000E+00  0.00000000000E+00  0.43544503516E+03  0.21846119327E+04  0.21407748405E+04 0.  0.
        4    1    3    3  502    0  0.18568433116E+03  0.66735986649E+03 -0.61500173760E+03  0.92632424797E+03  0.12699999809E+01 0. -1.
       -4    1    3    3    0  502 -0.18568433116E+03 -0.66735986649E+03  0.10504467728E+04  0.12582876847E+04  0.12699999809E+01 0.  1.
</event>
<event>
 5   0  0.4174075E-05  0.2231418E+04  0.7818609E-02  0.8505464E-01
        1   -1    0    0  501    0  0.00000000000E+00  0.00000000000E+00  0.13575086493E+04  0.13575086493E+04  0.50400001928E-02 0.  1.
       -1   -1    0    0    0  501  0.00000000000E+00  0.00000000000E+00 -0.91697906097E+03  0.91697906098E+03  0.50400001928E-02 0. -1.
    10030    2    1    2    0    0  0.00000000000E+00  0.00000000000E+00  0.44052958828E+03  0.22744877102E+04  0.22314183888E+04 0.  0.
        5    1    3    3  502    0 -0.22558933029E+03  0.10907628120E+04  0.28577707833E+03  0.11499324704E+04  0.46999998093E+01 0. -1.
       -5    1    3    3    0  502  0.22558933029E+03 -0.10907628120E+04  0.15475250995E+03  0.11245552398E+04  0.46999998093E+01 0.  1.
</event>
<event>
 5   0  0.9457742E-05  0.2250141E+04  0.7818609E-02  0.8497843E-01
       -2   -1    0    0    0  501  0.00000000000E+00  0.00000000000E+00  0.11008538094E+04  0.11008538094E+04  0.25500000920E-02 0.  1.
        2   -1    0    0  501    0  0.00000000000E+00  0.00000000000E+00 -0.11498203448E+04  0.11498203448E+04  0.25500000920E-02 0. -1.
    10030    2    1    2    0    0  0.00000000000E+00  0.00000000000E+00 -0.48966535370E+02  0.22506741542E+04  0.22501414237E+04 0.  0.
        1    1    3    3  502    0 -0.32065923580E+03 -0.10693898672E+04 -0.16368184751E+03  0.11283655351E+04  0.50400001928E-02 0. -1.
       -1    1    3    3    0  502  0.32065923580E+03  0.10693898672E+04  0.11471531214E+03  0.11223086191E+04  0.50400001928E-02 0.  1.
</event>
<event>
 5   0  0.4174075E-05  0.2139396E+04  0.7818609E-02  0.8544085E-01
       -1   -1    0    0    0  501  0.00000000000E+00  0.00000000000E+00  0.12267110780E+04  0.12267110780E+04  0.50400001928E-02 0.  1.
        1   -1    0    0  501    0  0.00000000000E+00  0.00000000000E+00 -0.93278171795E+03  0.93278171796E+03  0.50400001928E-02 0. -1.
    10030    2    1    2    0    0  0.00000000000E+00  0.00000000000E+00  0.29392936008E+03  0.21594927960E+04  0.21393958650E+04 0.  0.
        5    1    3    3  502    0 -0.78039047966E+03 -0.72867257903E+03  0.21283524888E+03  0.10887120654E+04  0.46999998093E+01 0.  1.
       -5    1    3    3    0  502  0.78039047966E+03  0.72867257903E+03  0.81094111209E+02  0.10707807306E+04  0.46999998093E+01 0. -1.
</event>
<event>
 5   0  0.4188865E-05  0.2179317E+04  0.7818609E-02  0.8527087E-01
       -1   -1    0    0    0  501  0.00000000000E+00  0.00000000000E+00  0.76579880456E+03  0.76579880458E+03  0.50400001928E-02 0. -1.
        1   -1    0    0  501    0  0.00000000000E+00  0.00000000000E+00 -0.15504796579E+04  0.15504796579E+04  0.50400001928E-02 0.  1.
    10030    2    1    2    0    0  0.00000000000E+00  0.00000000000E+00 -0.78468085333E+03  0.23162784625E+04  0.21793168366E+04 0.  0.
        3    1    3    3  502    0 -0.33946074723E+03  0.66849259684E+01 -0.14928236319E+04  0.15309476455E+04  0.10100000352E+00 0.  1.
       -3    1    3    3    0  502  0.33946074723E+03 -0.66849259684E+01  0.70814277853E+03  0.78533081700E+03  0.10100000352E+00 0. -1.
</event>
<event>
 5   0  0.4188865E-05  0.1867296E+04  0.7818609E-02  0.8671309E-01
       -1   -1    0    0    0  501  0.00000000000E+00  0.00000000000E+00  0.79053933293E+03  0.79053933295E+03  0.50400001928E-02 0. -1.
        1   -1    0    0  501    0  0.00000000000E+00  0.00000000000E+00 -0.11026626897E+04  0.11026626898E+04  0.50400001928E-02 0.  1.
    10030    2    1    2    0    0  0.00000000000E+00  0.00000000000E+00 -0.31212335682E+03  0.18932020227E+04  0.18672956137E+04 0.  0.
        3    1    3    3  502    0 -0.75186846010E+03  0.28170175629E+03  0.32703204560E+03  0.86695561008E+03  0.10100000352E+00 0. -1.
       -3    1    3    3    0  502  0.75186846010E+03 -0.28170175629E+03 -0.63915540242E+03  0.10262464126E+04  0.10100000352E+00 0.  1.
</event>
<event>
 5   0  0.4174075E-05  0.2114236E+04  0.7818609E-02  0.8554998E-01
       -1   -1    0    0    0  501  0.00000000000E+00  0.00000000000E+00  0.71220980020E+03  0.71220980022E+03  0.50400001928E-02 0.  1.
        1   -1    0    0  501    0  0.00000000000E+00  0.00000000000E+00 -0.15690576675E+04  0.15690576675E+04  0.50400001928E-02 0. -1.
    10030    2    1    2    0    0  0.00000000000E+00  0.00000000000E+00 -0.85684786727E+03  0.22812674677E+04  0.21142357937E+04 0.  0.
        5    1    3    3  502    0  0.10296912897E+03  0.35929038320E+03 -0.14953743452E+04  0.15413820887E+04  0.46999998093E+01 0. -1.
       -5    1    3    3    0  502 -0.10296912897E+03 -0.35929038320E+03  0.63852647797E+03  0.73988537899E+03  0.46999998093E+01 0.  1.
</event>
<event>
 5   0  0.9442578E-05  0.2200933E+04  0.7818609E-02  0.8518040E-01
        2   -1    0    0  501    0  0.00000000000E+00  0.00000000000E+00  0.51698740421E+03  0.51698740422E+03  0.25500000920E-02 0.  1.
       -2   -1    0    0    0  501  0.00000000000E+00  0.00000000000E+00 -0.23424675412E+04  0.23424675412E+04  0.25500000920E-02 0. -1.
    10030    2    1    2    0    0  0.00000000000E+00  0.00000000000E+00 -0.18254801370E+04  0.28594549454E+04  0.22009327237E+04 0.  0.
        4    1    3    3  502    0 -0.87086152807E+03 -0.65781505842E+03 -0.10960340869E+04  0.15467426369E+04  0.12699999809E+01 0. -1.
       -4    1    3    3    0  502  0.87086152807E+03  0.65781505842E+03 -0.72944605009E+03  0.13127123086E+04  0.12699999809E+01 0.  1.
</event>
<event>
 5   0  0.9179618E-05  0.2203806E+04  0.7818609E-02  0.8516846E-01
       -2   -1    0    0    0  501  0.00000000000E+00  0.00000000000E+00  0.90550402101E+03  0.90550402101E+03  0.25500000920E-02 0. -1.
        2   -1    0    0  501    0  0.00000000000E+00  0.00000000000E+00 -0.13408997479E+04  0.13408997479E+04  0.25500000920E-02 0.  1.
    10030    2    1    2    0    0  0.00000000000E+00  0.00000000000E+00 -0.43539572687E+03  0.22464037689E+04  0.22038059021E+04 0.  0.
        3    1    3    3  502    0 -0.43367652817E+03  0.10036929846E+04 -0.35714554747E+03  0.11502294948E+04  0.10100000352E+00 0.  1.
       -3    1    3    3    0  502  0.43367652817E+03 -0.10036929846E+04 -0.78250179402E+02  0.10961742741E+04  0.10100000352E+00 0. -1.
</event>
<event>
 5   0  0.9254673E-05  0.2208514E+04  0.7818609E-02  0.8514893E-01
       -2   -1    0    0    0  501  0.00000000000E+00  0.00000000000E+00  0.60485795966E+03  0.60485795967E+03  0.25500000920E-02 0.  1.
        2   -1    0    0  501    0  0.00000000000E+00  0.00000000000E+00 -0.20159827289E+04  0.20159827289E+04  0.25500000920E-02 0. -1.
    10030    2    1    2    0    0  0.00000000000E+00  0.00000000000E+00 -0.14111247693E+04  0.26208406886E+04  0.22085137085E+04 0.  0.
        2    1    3    3  502    0 -0.39125895026E+03  0.83707690623E+03 -0.14231001067E+04  0.16967602149E+04  0.25500000920E-02 0. -1.
       -2    1    3    3    0  502  0.39125895026E+03 -0.83707690623E+03  0.11975337488E+02  0.92408047367E+03  0.25500000920E-02 0.  1.
</event>
<event>
 5   0  0.9457742E-05  0.2226445E+04  0.7818609E-02  0.8507501E-01
        2   -1    0    0  501    0  0.00000000000E+00  0.00000000000E+00  0.17126710921E+04  0.17126710921E+04  0.25500000920E-02 0.  1.
       -2   -1    0    0    0  501  0.00000000000E+00  0.00000000000E+00 -0.72358567848E+03  0.72358567849E+03  0.25500000920E-02 0. -1.
    10030    2    1    2    0    0  0.00000000000E+00  0.00000000000E+00  0.98908541366E+03  0.24362567706E+04  0.22264449459E+04 0.  0.
        1    1    3    3  502    0  0.91036744393E+03 -0.47835352364E+02 -0.20457678866E+03  0.93429586662E+03  0.50400001928E-02 0. -1.
       -1    1    3    3    0  502 -0.91036744393E+03  0.47835352364E+02  0.11936622023E+04  0.15019609040E+04  0.50400001928E-02 0.  1.
</event>
<event>
 5   0  0.9938176E-05  0.2205974E+04  0.7818609E-02  0.8515946E-01
        2   -1    0    0  501    0  0.00000000000E+00  0.00000000000E+00  0.78786453819E+03  0.78786453819E+03  0.25500000920E-02 0. -1.
       -2   -1    0    0    0  501  0.00000000000E+00  0.00000000000E+00 -0.15441491687E+04  0.15441491687E+04  0.25500000920E-02 0.  1.
    10030    2    1    2    0    0  0.00000000000E+00  0.00000000000E+00 -0.75628463047E+03  0.23320137069E+04  0.22059740449E+04 0.  0.
        5    1    3    3  502    0 -0.74598094049E+03  0.79004671721E+03 -0.17785235078E+03  0.11010517370E+04  0.46999998093E+01 0. -1.
       -5    1    3    3    0  502  0.74598094049E+03 -0.79004671721E+03 -0.57843227969E+03  0.12309619698E+04  0.46999998093E+01 0.  1.
</event>
<event>
 5   0  0.9179618E-05  0.2114633E+04  0.7818609E-02  0.8554825E-01
       -2   -1    0    0    0  501  0.00000000000E+00  0.00000000000E+00  0.90248194447E+03  0.90248194447E+03  0.25500000920E-02 0. -1.
        2   -1    0    0  501    0  0.00000000000E+00  0.00000000000E+00 -0.12387149434E+04  0.12387149434E+04  0.25500000920E-02 0.  1.
    10030    2    1    2    0    0  0.00000000000E+00  0.00000000000E+00 -0.33623299889E+03  0.21411968878E+04  0.21146327064E+04 0.  0.
        3    1    3    3  502    0  0.78939800618E+03  0.63990135762E+03 -0.46383819861E+03  0.11170357400E+04  0.10100000352E+00 0.  1.
       -3    1    3    3    0  502 -0.78939800618E+03 -0.63990135762E+03  0.12760519972E+03  0.10241611479E+04  0.10100000352E+00 0. -1.
</event>
<event>
 5   0  0.4063293E-05  0.2201507E+04  0.7818609E-02  0.8517801E-01
       -1   -1    0    0    0  501  0.00000000000E+00  0.00000000000E+00  0.12659684676E+04  0.12659684676E+04  0.50400001928E-02 0. -1.
        1   -1    0    0  501    0  0.00000000000E+00  0.00000000000E+00 -0.95710016732E+03  0.95710016733E+03  0.50400001928E-02 0.  1.
    10030    2    1    2    0    0  0.00000000000E+00  0.00000000000E+00  0.30886830027E+03  0.22230686349E+04  0.22015073311E+04 0.  0.
        1    1    3    3  502    0  0.53109635357E+03 -0.55524792920E+03  0.95037661548E+03  0.12221208250E+04  0.50400001928E-02 0. -1.
       -1    1    3    3    0  502 -0.53109635357E+03  0.55524792920E+03 -0.64150831521E+03  0.10009478099E+04  0.50400001928E-02 0.  1.
</event>
<event>
 5   0  0.4188865E-05  0.2218862E+04  0.7818609E-02  0.8510618E-01
        1   -1    0    0  501    0  0.00000000000E+00  0.00000000000E+00  0.10048513749E+04  0.10048513749E+04  0.50400001928E-02 0. -1.
       -1   -1    0    0    0  501  0.00000000000E+00  0.00000000000E+00 -0.12248950630E+04  0.12248950630E+04  0.50400001928E-02 0.  1.
    10030    2    1    2    0    0  0.00000000000E+00  0.00000000000E+00 -0.22004368808E+03  0.22297464379E+04  0.22188623104E+04 0.  0.
        3    1    3    3  502    0 -0.79491830977E+03 -0.48363257927E+03  0.49712882216E+03  0.10549562394E+04  0.10100000352E+00 0. -1.
       -3    1    3    3    0  502  0.79491830977E+03  0.48363257927E+03 -0.71717251025E+03  0.11747901985E+04  0.10100000352E+00 0.  1.
</event>
<event>
 5   0  0.4174075E-05  0.2205795E+04  0.7818609E-02  0.8516020E-01
       -1   -1    0    0    0  501  0.00000000000E+00  0.00000000000E+00  0.15248158569E+04  0.15248158569E+04  0.50400001928E-02 0.  1.
        1   -1    0    0  501    0  0.00000000000E+00  0.00000000000E+00 -0.79772474116E+03  0.79772474117E+03  0.50400001928E-02 0. -1.
    10030    2    1    2    0    0  0.00000000000E+00  0.00000000000E+00  0.72709111575E+03  0.23225405981E+04  0.22057953983E+04 0.  0.
        5    1    3    3  502    0  0.90293439685E+03  0.85259212361E+02  0.10242950204E+04  0.13681235460E+04  0.46999998093E+01 0.  1.
       -5    1    3    3    0  502 -0.90293439685E+03 -0.85259212361E+02 -0.29720390468E+03  0.95441705206E+03  0.46999998093E+01 0. -1.
</event>
<event>
 5   0  0.4188865E-05  0.2188133E+04  0.7818609E-02  0.8523384E-01
        1   -1    0    0  501    0  0.00000000000E+00  0.00000000000E+00  0.58056525928E+03  0.58056525930E+03  0.50400001928E-02 0. -1.
       -1   -1    0    0    0  501  0.00000000000E+00  0.00000000000E+00 -0.20617524538E+04  0.20617524538E+04  0.50400001928E-02 0.  1.
    10030    2    1    2    0    0  0.00000000000E+00  0.00000000000E+00 -0.14811871945E+04  0.26423177131E+04  0.21881333121E+04 0.  0.
        3    1    3    3  502    0  0.22891793619E+03  0.30283313913E+03  0.49848466568E+03  0.62657665436E+03  0.10100000352E+00 0. -1.
       -3    1    3    3    0  502 -0.22891793619E+03 -0.30283313913E+03 -0.19796718602E+04  0.20157410587E+04  0.10100000352E+00 0.  1.
</event>
<event>
 5   0  0.9254673E-05  0.2173737E+04  0.7818609E-02  0.8529439E-01
        2   -1    0    0  501    0  0.00000000000E+00  0.00000000000E+00  0.14135353279E+04  0.14135353279E+04  0.25500000920E-02 0.  1.
       -2   -1    0    0    0  501  0.00000000000E+00  0.00000000000E+00 -0.83569422704E+03  0.83569422705E+03  0.25500000920E-02 0. -1.
    10030    2    1    2    0    0  0.00000000000E+00  0.00000000000E+00  0.57784110081E+03  0.22492295549E+04  0.21737371628E+04 0.  0.
        2    1    3    3  502    0 -0.21929400384E+03  0.65659642729E+03 -0.57807801157E+03  0.90187743952E+03  0.25500000920E-02 0. -1.
       -2    1    3    3    0  502  0.21929400384E+03 -0.65659642729E+03  0.11559191124E+04  0.13473521154E+04  0.25500000920E-02 0.  1.
</event>
<event>
 5   0  0.9179618E-05  0.2195511E+04  0.7818609E-02  0.8520299E-01
       -2   -1    0    0    0  501  0.00000000000E+00  0.00000000000E+00  0.12502168540E+04  0.12502168540E+04  0.25500000920E-02 0.  1.
        2   -1    0    0  501    0  0.00000000000E+00  0.00000000000E+00 -0.96388663842E+03  0.96388663842E+03  0.25500000920E-02 0. -1.
    10030    2    1    2    0    0  0.00000000000E+00  0.00000000000E+00  0.28633021558E+03  0.22141034924E+04  0.21955111666E+04 0.  0.
        3    1    3    3  502    0  0.17570293997E+03  0.96603079470E+03 -0.35188941089E+03  0.10430307700E+04  0.10100000352E+00 0.  1.
       -3    1    3    3    0  502 -0.17570293997E+03 -0.96603079470E+03  0.63821962647E+03  0.11710727224E+04  0.10100000352E+00 0. -1.
</event>
<event>
 5   0  0.4188865E-05  0.2189278E+04  0.7818609E-02  0.8522904E-01
       -1   -1    0    0    0  501  0.00000000000E+00  0.00000000000E+00  0.76530968039E+03  0.76530968041E+03  0.50400001928E-02 0. -1.
        1   -1    0    0  501    0  0.00000000000E+00  0.00000000000E+00 -0.15656858190E+04  0.15656858190E+04  0.50400001928E-02 0.  1.
    10030    2    1    2    0    0  0.00000000000E+00  0.00000000000E+00 -0.80037613864E+03  0.23309954995E+04  0.21892779758E+04 0.  0.
        3    1    3    3  502    0 -0.32790543513E+02  0.37606056295E+03  0.69381502328E+03  0.78985825531E+03  0.10100000352E+00 0. -1.
       -3    1    3    3    0  502  0.32790543513E+02 -0.37606056295E+03 -0.14941911619E+04  0.15411372441E+04  0.10100000352E+00 0.  1.
</event>
<event>
 5   0  0.4174030E-05  0.2220011E+04  0.7818609E-02  0.8510145E-01
        1   -1    0    0  501    0  0.00000000000E+00  0.00000000000E+00  0.12479593898E+04  0.12479593898E+04  0.50400001928E-02 0. -1.
       -1   -1    0    0    0  501  0.00000000000E+00  0.00000000000E+00 -0.98730128312E+03  0.98730128313E+03  0.50400001928E-02 0.  1.
    10030    2    1    2    0    0  0.00000000000E+00  0.00000000000E+00  0.26065810665E+03  0.22352606729E+04  0.22200107268E+04 0.  0.
        2    1    3    3  502    0  0.16270277229E+03 -0.24949356332E+03  0.12069697883E+04  0.12431795124E+04  0.25500000920E-02 0. -1.
       -2    1    3    3    0  502 -0.16270277229E+03  0.24949356332E+03 -0.94631168163E+03  0.99208116051E+03  0.25500000920E-02 0.  1.
</event>
<event>
 5   0  0.9254673E-05  0.2190990E+04  0.7818609E-02  0.8522188E-01
       -2   -1    0    0    0  501  0.00000000000E+00  0.00000000000E+00  0.70006475534E+03  0.70006475534E+03  0.25500000920E-02 0. -1.
        2   -1    0    0  501    0  0.00000000000E+00  0.00000000000E+00 -0.17142832072E+04  0.17142832072E+04  0.25500000920E-02 0.  1.
    10030    2    1    2    0    0  0.00000000000E+00  0.00000000000E+00 -0.10142184519E+04  0.24143479625E+04  0.21909899626E+04 0.  0.
        2    1    3    3  502    0 -0.54840035121E+03  0.27482394914E+03  0.49307594670E+03  0.78701654204E+03  0.25500000920E-02 0. -1.
       -2    1    3    3    0  502  0.54840035121E+03 -0.27482394914E+03 -0.15072943986E+04  0.16273314205E+04  0.25500000920E-02 0.  1.
</event>
<event>
 5   0  0.4133418E-05  0.2194158E+04  0.7818609E-02  0.8520864E-01
       -1   -1    0    0    0  501  0.00000000000E+00  0.00000000000E+00  0.10598606426E+04  0.10598606426E+04  0.50400001928E-02 0.  1.
        1   -1    0    0  501    0  0.00000000000E+00  0.00000000000E+00 -0.11356041029E+04  0.11356041029E+04  0.50400001928E-02 0. -1.
    10030    2    1    2    0    0  0.00000000000E+00  0.00000000000E+00 -0.75743460349E+02  0.21954647455E+04  0.21941577831E+04 0.  0.
        4    1    3    3  502    0  0.94660692329E+03  0.13991247614E+03  0.49904860085E+03  0.10792086393E+04  0.12699999809E+01 0.  1.
       -4    1    3    3    0  502 -0.94660692329E+03 -0.13991247614E+03 -0.57479206120E+03  0.11162561062E+04  0.12699999809E+01 0. -1.
</event>
<event>
 5   0  0.9457742E-05  0.2154876E+04  0.7818609E-02  0.8537448E-01
       -2   -1    0    0    0  501  0.00000000000E+00  0.00000000000E+00  0.53155889205E+03  0.53155889206E+03  0.25500000920E-02 0.  1.
        2   -1    0    0  501    0  0.00000000000E+00  0.00000000000E+00 -0.21839020858E+04  0.21839020858E+04  0.25500000920E-02 0. -1.
    10030    2    1    2    0    0  0.00000000000E+00  0.00000000000E+00 -0.16523431937E+04  0.27154609778E+04  0.21548759343E+04 0.  0.
        1    1    3    3  502    0  0.19187729265E+03  0.70630237185E+03 -0.18225589868E+04  0.19640267810E+04  0.50400001928E-02 0. -1.
       -1    1    3    3    0  502 -0.19187729265E+03 -0.70630237185E+03  0.17021579312E+03  0.75143419684E+03  0.50400001928E-02 0.  1.
</event>
<event>
 5   0  0.4133418E-05  0.2123738E+04  0.7818609E-02  0.8550858E-01
        1   -1    0    0  501    0  0.00000000000E+00  0.00000000000E+00  0.11718375990E+04  0.11718375990E+04  0.50400001928E-02 0. -1.
       -1   -1    0    0    0  501  0.00000000000E+00  0.00000000000E+00 -0.96221977087E+03  0.96221977088E+03  0.50400001928E-02 0.  1.
    10030    2    1    2    0    0  0.00000000000E+00  0.00000000000E+00  0.20961782814E+03  0.21340573699E+04  0.21237375601E+04 0.  0.
        4    1    3    3  502    0 -0.99079996126E+03 -0.13778119950E+03  0.46276380714E+03  0.11021888115E+04  0.12699999809E+01 0.  1.
       -4    1    3    3    0  502  0.99079996126E+03  0.13778119950E+03 -0.25314597900E+03  0.10318685584E+04  0.12699999809E+01 0. -1.
</event>
<event>
 5   0  0.4188865E-05  0.2193401E+04  0.7818609E-02  0.8521180E-01
       -1   -1    0    0    0  501  0.00000000000E+00  0.00000000000E+00  0.12628818820E+04  0.12628818820E+04  0.50400001928E-02 0.  1.
        1   -1    0    0  501    0  0.00000000000E+00  0.00000000000E+00 -0.95238713079E+03  0.95238713081E+03  0.50400001928E-02 0. -1.
    10030    2    1    2    0    0  0.00000000000E+00  0.00000000000E+00  0.31049475116E+03  0.22152690128E+04  0.21934014244E+04 0.  0.
        3    1    3    3  502    0 -0.50974307692E+03 -0.54305008027E+03  0.96826424420E+03  0.12215879219E+04  0.10100000352E+00 0.  1.
       -3    1    3    3    0  502  0.50974307692E+03  0.54305008027E+03 -0.65776949304E+03  0.99368109086E+03  0.10100000352E+00 0. -1.
</event>
<event>
 5   0  0.4174030E-05  0.2195192E+04  0.7818609E-02  0.8520432E-01
        1   -1    0    0  501    0  0.00000000000E+00  0.00000000000E+00  0.60512948801E+03  0.60512948803E+03  0.50400001928E-02 0.  1.
       -1   -1    0    0    0  501  0.00000000000E+00  0.00000000000E+00 -0.19908408046E+04  0.19908408046E+04  0.50400001928E-02 0. -1.
    10030    2    1    2    0    0  0.00000000000E+00  0.00000000000E+00 -0.13857113166E+04  0.25959702926E+04  0.21951915423E+04 0.  0.
        2    1    3    3  502    0  0.37708572943E+03 -0.12135084544E+03 -0.19033585513E+04  0.19441433718E+04  0.25500000920E-02 0. -1.
       -2    1    3    3    0  502 -0.37708572943E+03  0.12135084544E+03  0.51764723479E+03  0.65182692083E+03  0.25500000920E-02 0.  1.
</event>
<event>
 5   0  0.9457742E-05  0.2194211E+04  0.7818609E-02  0.8520841E-01
       -2   -1    0    0    0  501  0.00000000000E+00  0.00000000000E+00  0.47140808565E+03  0.47140808566E+03  0.25500000920E-02 0. -1.
        2   -1    0    0  501    0  0.00000000000E+00  0.00000000000E+00 -0.25532884482E+04  0.25532884482E+04  0.25500000920E-02 0.  1.
    10030    2    1    2    0    0  0.00000000000E+00  0.00000000000E+00 -0.20818803626E+04  0.30246965339E+04  0.21942113112E+04 0.  0.
        1    1    3    3  502    0  0.78412602692E+03 -0.54637109958E+03 -0.17836194563E+04  0.20235299280E+04  0.50400001928E-02 0. -1.
       -1    1    3    3    0  502 -0.78412602692E+03  0.54637109958E+03 -0.29826090628E+03  0.10011666059E+04  0.50400001928E-02 0.  1.
</event>
<event>
 5   0  0.9938176E-05  0.2183250E+04  0.7818609E-02  0.8525432E-01
        2   -1    0    0  501    0  0.00000000000E+00  0.00000000000E+00  0.15094537222E+04  0.15094537222E+04  0.25500000920E-02 0. -1.
       -2   -1    0    0    0  501  0.00000000000E+00  0.00000000000E+00 -0.78945458410E+03  0.78945458411E+03  0.25500000920E-02 0.  1.
    10030    2    1    2    0    0  0.00000000000E+00  0.00000000000E+00  0.71999913813E+03  0.22989083063E+04  0.21832500182E+04 0.  0.
        5    1    3    3  502    0  0.34164628184E+03  0.54107148988E+03  0.12912385102E+04  0.14411105159E+04  0.46999998093E+01 0. -1.
       -5    1    3    3    0  502 -0.34164628184E+03 -0.54107148988E+03 -0.57123937202E+03  0.85779779040E+03  0.46999998093E+01 0.  1.
</event>
<event>
 5   0  0.4174075E-05  0.2208978E+04  0.7818609E-02  0.8514701E-01
        1   -1    0    0  501    0  0.00000000000E+00  0.00000000000E+00  0.19520037494E+04  0.19520037494E+04  0.50400001928E-02 0. -1.
       -1   -1    0    0    0  501  0.00000000000E+00  0.00000000000E+00 -0.62494545593E+03  0.62494545595E+03  0.50400001928E-02 0.  1.
    10030    2    1    2    0    0  0.00000000000E+00  0.00000000000E+00  0.13270582935E+04  0.25769492054E+04  0.22089779294E+04 0.  0.
        5    1    3    3  502    0 -0.77349881956E+03 -0.77783451098E+02  0.15787726557E+04  0.17597999538E+04  0.46999998093E+01 0. -1.
       -5    1    3    3    0  502  0.77349881956E+03  0.77783451098E+02 -0.25171436222E+03  0.81714925153E+03  0.46999998093E+01 0.  1.
</event>
<event>
 5   0  0.9442578E-05  0.2204933E+04  0.7818609E-02  0.8516378E-01
       -2   -1    0    0    0  501  0.00000000000E+00  0.00000000000E+00  0.10781800544E+04  0.10781800544E+04  0.25500000920E-02 0. -1.
        2   -1    0    0  501    0  0.00000000000E+00  0.00000000000E+00 -0.11273002900E+04  0.11273002900E+04  0.25500000920E-02 0.  1.
    10030    2    1    2    0    0  0.00000000000E+00  0.00000000000E+00 -0.49120235653E+02  0.22054803444E+04  0.22049332761E+04 0.  0.
        4    1    3    3  502    0 -0.44162338453E+03  0.79183666245E+03  0.60280723601E+03  0.10887675098E+04  0.12699999809E+01 0. -1.
       -4    1    3    3    0  502  0.44162338453E+03 -0.79183666245E+03 -0.65192747166E+03  0.11167128346E+04  0.12699999809E+01 0.  1.
</event>
<event>
 5   0  0.4063293E-05  0.2197733E+04  0.7818609E-02  0.8519372E-01
        1   -1    0    0  501    0  0.00000000000E+00  0.00000000000E+00  0.19739356150E+04  0.19739356150E+04  0.50400001928E-02 0. -1.
       -1   -1    0    0    0  501  0.00000000000E+00  0.00000000000E+00 -0.61172600294E+03  0.61172600296E+03  0.50400001928E-02 0.  1.
    10030    2    1    2    0    0  0.00000000000E+00  0.00000000000E+00  0.13622096120E+04  0.25856616179E+04  0.21977331447E+04 0.  0.
        1    1    3    3  502    0  0.71437576337E+03  0.26776299852E+03 -0.24936598914E+03  0.80262890007E+03  0.50400001928E-02 0.  1.
       -1    1    3    3    0  502 -0.71437576337E+03 -0.26776299852E+03  0.16115756012E+04  0.17830327178E+04  0.50400001928E-02 0. -1.
</event>
<event>
 5   0  0.4174075E-05  0.2053165E+04  0.7818609E-02  0.8582160E-01
       -1   -1    0    0    0  501  0.00000000000E+00  0.00000000000E+00  0.54024753001E+03  0.54024753003E+03  0.50400001928E-02 0. -1.
        1   -1    0    0  501    0  0.00000000000E+00  0.00000000000E+00 -0.19507201449E+04  0.19507201449E+04  0.50400001928E-02 0.  1.
    10030    2    1    2    0    0  0.00000000000E+00  0.00000000000E+00 -0.14104726149E+04  0.24909676749E+04  0.20531651079E+04 0.  0.
        5    1    3    3  502    0 -0.62164821357E+03  0.81226049325E+03 -0.81125398976E+03  0.13055147400E+04  0.46999998093E+01 0. -1.
       -5    1    3    3    0  502  0.62164821357E+03 -0.81226049325E+03 -0.59921862510E+03  0.11854529350E+04  0.46999998093E+01 0.  1.
</event>
<event>
 5   0  0.4174030E-05  0.2171772E+04  0.7818609E-02  0.8530270E-01
       -1   -1    0    0    0  501  0.00000000000E+00  0.00000000000E+00  0.65710909919E+03  0.65710909921E+03  0.50400001928E-02 0.  1.
        1   -1    0    0  501    0  0.00000000000E+00  0.00000000000E+00 -0.17944484940E+04  0.17944484940E+04  0.50400001928E-02 0. -1.
    10030    2    1    2    0    0  0.00000000000E+00  0.00000000000E+00 -0.11373393948E+04  0.24515575932E+04  0.21717720262E+04 0.  0.
        2    1    3    3  502    0  0.70856601380E+03  0.59807012248E+03  0.69287825551E+02  0.92981421267E+03  0.25500000920E-02 0.  1.
       -2    1    3    3    0  502 -0.70856601380E+03 -0.59807012248E+03 -0.12066272204E+04  0.15217433805E+04  0.25500000920E-02 0. -1.
</event>
<event>
 5   0  0.4174030E-05  0.2214819E+04  0.7818609E-02  0.8512285E-01
       -1   -1    0    0    0  501  0.00000000000E+00  0.00000000000E+00  0.79026827053E+03  0.79026827054E+03  0.50400001928E-02 0.  1.
        1   -1    0    0  501    0  0.00000000000E+00  0.00000000000E+00 -0.15518227912E+04  0.15518227912E+04  0.50400001928E-02 0. -1.
    10030    2    1    2    0    0  0.00000000000E+00  0.00000000000E+00 -0.76155452066E+03  0.23420910617E+04  0.22148194630E+04 0.  0.
        2    1    3    3  502    0  0.15444609155E+03 -0.59295068881E+03  0.59467904492E+03  0.85386607909E+03  0.25500000920E-02 0.  1.
       -2    1    3    3    0  502 -0.15444609155E+03  0.59295068881E+03 -0.13562335656E+04  0.14882249826E+04  0.25500000920E-02 0. -1.
</event>
<event>
 5   0  0.4174075E-05  0.2203089E+04  0.7818609E-02  0.8517144E-01
        1   -1    0    0  501    0  0.00000000000E+00  0.00000000000E+00  0.17055716166E+04  0.17055716166E+04  0.50400001928E-02 0. -1.
       -1   -1    0    0    0  501  0.00000000000E+00  0.00000000000E+00 -0.71143318152E+03  0.71143318154E+03  0.50400001928E-02 0.  1.
    10030    2    1    2    0    0  0.00000000000E+00  0.00000000000E+00  0.99413843506E+03  0.24170047981E+04  0.22030889601E+04 0.  0.
        5    1    3    3  502    0  0.36901620638E+03  0.80089853606E+03  0.12212925477E+04  0.15063827544E+04  0.46999998093E+01 0. -1.
       -5    1    3    3    0  502 -0.36901620638E+03 -0.80089853606E+03 -0.22715411265E+03  0.91062204373E+03  0.46999998093E+01 0.  1.
</event>
<event>
 5   0  0.4174075E-05  0.2192876E+04  0.7818609E-02  0.8521399E-01
       -1   -1    0    0    0  501  0.00000000000E+00  0.00000000000E+00  0.13146846215E+04  0.13146846215E+04  0.50400001928E-02 0.  1.
        1   -1    0    0  501    0  0.00000000000E+00  0.00000000000E+00 -0.91442187658E+03  0.91442187659E+03  0.50400001928E-02 0. -1.
    10030    2    1    2    0    0  0.00000000000E+00  0.00000000000E+00  0.40026274493E+03  0.22291064981E+04  0.21928760829E+04 0.  0.
        5    1    3    3  502    0 -0.99076506076E+03  0.25554830847E+03  0.60063833875E+03  0.11864690673E+04  0.46999998093E+01 0.  1.
       -5    1    3    3    0  502  0.99076506076E+03 -0.25554830847E+03 -0.20037559383E+03  0.10426374308E+04  0.46999998093E+01 0. -1.
</event>
<event>
 5   0  0.4174030E-05  0.2279351E+04  0.7818609E-02  0.8486108E-01
       -1   -1    0    0    0  501  0.00000000000E+00  0.00000000000E+00  0.69585356436E+03  0.69585356438E+03  0.50400001928E-02 0. -1.
        1   -1    0    0  501    0  0.00000000000E+00  0.00000000000E+00 -0.18665705108E+04  0.18665705108E+04  0.50400001928E-02 0.  1.
    10030    2    1    2    0    0  0.00000000000E+00  0.00000000000E+00 -0.11707169465E+04  0.25624240752E+04  0.22793505594E+04 0.  0.
        2    1    3    3  502    0 -0.70059331438E+03  0.78159034152E+03 -0.86206164752E+02  0.10531599864E+04  0.25500000920E-02 0. -1.
       -2    1    3    3    0  502  0.70059331438E+03 -0.78159034152E+03 -0.10845107817E+04  0.15092640888E+04  0.25500000920E-02 0.  1.
</event>
<event>
 5   0  0.4174030E-05  0.2183758E+04  0.7818609E-02  0.8525219E-01
       -1   -1    0    0    0  501  0.00000000000E+00  0.00000000000E+00  0.75391158346E+03  0.75391158348E+03  0.50400001928E-02 0.  1.
        1   -1    0    0  501    0  0.00000000000E+00  0.00000000000E+00 -0.15813521285E+04  0.15813521285E+04  0.50400001928E-02 0. -1.
    10030    2    1    2    0    0  0.00000000000E+00  0.00000000000E+00 -0.82744054507E+03  0.23352637120E+04  0.21837579420E+04 0.  0.
        2    1    3    3  502    0 -0.31578019112E+03 -0.54200093033E+03 -0.13694344903E+04  0.15062645720E+04  0.25500000920E-02 0. -1.
       -2    1    3    3    0  502  0.31578019112E+03  0.54200093033E+03  0.54199394520E+03  0.82899914006E+03  0.25500000920E-02 0.  1.
</event>
<event>
 5   0  0.4174030E-05  0.2210143E+04  0.7818609E-02  0.8514218E-01
        1   -1    0    0  501    0  0.00000000000E+00  0.00000000000E+00  0.63631676000E+03  0.63631676002E+03  0.50400001928E-02 0. -1.
       -1   -1    0    0    0  501  0.00000000000E+00  0.00000000000E+00 -0.19191434785E+04  0.19191434785E+04  0.50400001928E-02 0.  1.
    10030    2    1    2    0    0  0.00000000000E+00  0.00000000000E+00 -0.12828267185E+04  0.25554602385E+04  0.22101431268E+04 0.  0.
        2    1    3    3  502    0  0.23475367396E+03  0.81761227881E+03 -0.14570222426E+04  0.16871612079E+04  0.25500000920E-02 0.  1.
       -2    1    3    3    0  502 -0.23475367396E+03 -0.81761227881E+03  0.17419552415E+03  0.86829903060E+03  0.25500000920E-02 0. -1.
</event>
<event>
 5   0  0.9457742E-05  0.2192352E+04  0.7818609E-02  0.8521618E-01
       -2   -1    0    0    0  501  0.00000000000E+00  0.00000000000E+00  0.51550704941E+03  0.51550704942E+03  0.25500000920E-02 0.  1.
        2   -1    0    0  501    0  0.00000000000E+00  0.00000000000E+00 -0.23309114499E+04  0.23309114499E+04  0.25500000920E-02 0. -1.
    10030    2    1    2    0    0  0.00000000000E+00  0.00000000000E+00 -0.18154044005E+04  0.28464184993E+04  0.21923515083E+04 0.  0.
        1    1    3    3  502    0  0.75505670205E+03 -0.17210316936E+03 -0.19149592890E+04  0.20656231996E+04  0.50400001928E-02 0. -1.
       -1    1    3    3    0  502 -0.75505670205E+03  0.17210316936E+03  0.99554888495E+02  0.78079529972E+03  0.50400001928E-02 0.  1.
</event>
<event>
 5   0  0.4174075E-05  0.2209711E+04  0.7818609E-02  0.8514397E-01
        1   -1    0    0  501    0  0.00000000000E+00  0.00000000000E+00  0.14480856044E+04  0.14480856044E+04  0.50400001928E-02 0. -1.
       -1   -1    0    0    0  501  0.00000000000E+00  0.00000000000E+00 -0.84297873044E+03  0.84297873046E+03  0.50400001928E-02 0.  1.
    10030    2    1    2    0    0  0.00000000000E+00  0.00000000000E+00  0.60510687391E+03  0.22910643348E+04  0.22097107180E+04 0.  0.
        5    1    3    3  502    0  0.90623454566E+03  0.40795837084E+03 -0.19791021937E+03  0.10133516808E+04  0.46999998093E+01 0.  1.
       -5    1    3    3    0  502 -0.90623454566E+03 -0.40795837084E+03  0.80301709328E+03  0.12777126540E+04  0.46999998093E+01 0. -1.
</event>
<event>
 5   0  0.4174030E-05  0.2204448E+04  0.7818609E-02  0.8516579E-01
        1   -1    0    0  501    0  0.00000000000E+00  0.00000000000E+00  0.46258776062E+03  0.46258776065E+03  0.50400001928E-02 0. -1.
       -1   -1    0    0    0  501  0.00000000000E+00  0.00000000000E+00 -0.26263074318E+04  0.26263074319E+04  0.50400001928E-02 0.  1.
    10030    2    1    2    0    0  0.00000000000E+00  0.00000000000E+00 -0.21637196712E+04  0.30888951925E+04  0.22044479342E+04 0.  0.
        2    1    3    3  502    0  0.56601655044E+03 -0.36545530135E+03  0.14046256540E+03  0.68823109850E+03  0.25500000920E-02 0. -1.
       -2    1    3    3    0  502 -0.56601655044E+03  0.36545530135E+03 -0.23041822366E+04  0.24006640940E+04  0.25500000920E-02 0.  1.
</event>
<event>
 5   0  0.4063293E-05  0.2214854E+04  0.7818609E-02  0.8512271E-01
        1   -1    0    0  501    0  0.00000000000E+00  0.00000000000E+00  0.97991654521E+03  0.97991654522E+03  0.50400001928E-02 0. -1.
       -1   -1    0    0    0  501  0.00000000000E+00  0.00000000000E+00 -0.12515294894E+04  0.12515294894E+04  0.50400001928E-02 0.  1.
    10030    2    1    2    0    0  0.00000000000E+00  0.00000000000E+00 -0.27161294417E+03  0.22314460346E+04  0.22148539035E+04 0.  0.
        1    1    3    3  502    0  0.11557769938E+03 -0.10921522911E+04 -0.27913825461E+03  0.11331694475E+04  0.50400001928E-02 0. -1.
       -1    1    3    3    0  502 -0.11557769938E+03  0.10921522911E+04  0.75253104432E+01  0.10982765871E+04  0.50400001928E-02 0.  1.
</event>
<event>
 5   0  0.9938176E-05  0.2210480E+04  0.7818609E-02  0.8514079E-01
        2   -1    0    0  501    0  0.00000000000E+00  0.00000000000E+00  0.83274447908E+03  0.83274447909E+03  0.25500000920E-02 0.  1.
       -2   -1    0    0    0  501  0.00000000000E+00  0.00000000000E+00 -0.14669028482E+04  0.14669028482E+04  0.25500000920E-02 0. -1.
    10030    2    1    2    0    0  0.00000000000E+00  0.00000000000E+00 -0.63415836914E+03  0.22996473273E+04  0.22104798106E+04 0.  0.
        5    1    3    3  502    0  0.15152159323E+03  0.91080795301E+03 -0.94903945132E+03  0.13240951214E+04  0.46999998093E+01 0. -1.
       -5    1    3    3    0  502 -0.15152159323E+03 -0.91080795301E+03  0.31488108218E+03  0.97555220587E+03  0.46999998093E+01 0.  1.
</event>
<event>
 5   0  0.9938176E-05  0.2188298E+04  0.7818609E-02  0.8523314E-01
       -2   -1    0    0    0  501  0.00000000000E+00  0.00000000000E+00  0.99271386492E+03  0.99271386492E+03  0.25500000920E-02 0. -1.
        2   -1    0    0  501    0  0.00000000000E+00  0.00000000000E+00 -0.12059490267E+04  0.12059490267E+04  0.25500000920E-02 0.  1.
    10030    2    1    2    0    0  0.00000000000E+00  0.00000000000E+00 -0.21323516180E+03  0.21986628916E+04  0.21882982605E+04 0.  0.
        5    1    3    3  502    0  0.77808779083E+03  0.63257116237E+03  0.33314641579E+03  0.10566813664E+04  0.46999998093E+01 0. -1.
       -5    1    3    3    0  502 -0.77808779083E+03 -0.63257116237E+03 -0.54638157759E+03  0.11419815253E+04  0.46999998093E+01 0.  1.
</event>
<event>
 5   0  0.9442578E-05  0.2133995E+04  0.7818609E-02  0.8546415E-01
        2   -1    0    0  501    0  0.00000000000E+00  0.00000000000E+00  0.18523688524E+04  0.18523688524E+04  0.25500000920E-02 0. -1.
       -2   -1    0    0    0  501  0.00000000000E+00  0.00000000000E+00 -0.61460936803E+03  0.61460936803E+03  0.25500000920E-02 0.  1.
    10030    2    1    2    0    0  0.00000000000E+00  0.00000000000E+00  0.12377594843E+04  0.24669782204E+04  0.21339946108E+04 0.  0.
        4    1    3    3  502    0 -0.23927570015E+03 -0.71262530395E+02  0.18181263215E+04  0.18351883126E+04  0.12699999809E+01 0. -1.
       -4    1    3    3    0  502  0.23927570015E+03  0.71262530395E+02 -0.58036683720E+03  0.63178990775E+03  0.12699999809E+01 0.  1.
</event>
<event>
 5   0  0.4174075E-05  0.2198700E+04  0.7818609E-02  0.8518969E-01
       -1   -1    0    0    0  501  0.00000000000E+00  0.00000000000E+00  0.46660710151E+03  0.46660710154E+03  0.50400001928E-02 0. -1.
        1   -1    0    0  501    0  0.00000000000E+00  0.00000000000E+00 -0.25901251905E+04  0.25901251905E+04  0.50400001928E-02 0.  1.
    10030    2    1    2    0    0  0.00000000000E+00  0.00000000000E+00 -0.21235180890E+04  0.30567322920E+04  0.21987003504E+04 0.  0.
        5    1    3    3  502    0  0.10005589203E+04 -0.44230686663E+03 -0.91077049210E+03  0.14234740941E+04  0.46999998093E+01 0.  1.
       -5    1    3    3    0  502 -0.10005589203E+04  0.44230686663E+03 -0.12127475969E+04  0.16332581979E+04  0.46999998093E+01 0. -1.
</event>
<event>
 5   0  0.9254673E-05  0.2206065E+04  0.7818609E-02  0.8515908E-01
       -2   -1    0    0    0  501  0.00000000000E+00  0.00000000000E+00  0.11789882709E+04  0.11789882709E+04  0.25500000920E-02 0.  1.
        2   -1    0    0  501    0  0.00000000000E+00  0.00000000000E+00 -0.10319705504E+04  0.10319705504E+04  0.25500000920E-02 0. -1.
    10030    2    1    2    0    0  0.00000000000E+00  0.00000000000E+00  0.14701772047E+03  0.22109588214E+04  0.22060654341E+04 0.  0.
        2    1    3    3  502    0  0.14358023032E+03  0.10896477712E+04  0.16717003184E+03  0.11117074109E+04  0.25500000920E-02 0.  1.
       -2    1    3    3    0  502 -0.14358023032E+03 -0.10896477712E+04 -0.20152311365E+02  0.10992514105E+04  0.25500000920E-02 0. -1.
</event>
<event>
 5   0  0.4174030E-05  0.2205851E+04  0.7818609E-02  0.8515997E-01
        1   -1    0    0  501    0  0.00000000000E+00  0.00000000000E+00  0.15709886173E+04  0.15709886173E+04  0.50400001928E-02 0. -1.
       -1   -1    0    0    0  501  0.00000000000E+00  0.00000000000E+00 -0.77431774794E+03  0.77431774796E+03  0.50400001928E-02 0.  1.
    10030    2    1    2    0    0  0.00000000000E+00  0.00000000000E+00  0.79667086939E+03  0.23453063653E+04  0.22058507368E+04 0.  0.
        2    1    3    3  502    0  0.51452576350E+03 -0.94526383610E+03  0.14187237077E+03  0.10855359279E+04  0.25500000920E-02 0.  1.
       -2    1    3    3    0  502 -0.51452576350E+03  0.94526383610E+03  0.65479849862E+03  0.12597704374E+04  0.25500000920E-02 0. -1.
</event>
<event>
 5   0  0.9254673E-05  0.2276854E+04  0.7818609E-02  0.8487104E-01
        2   -1    0    0  501    0  0.00000000000E+00  0.00000000000E+00  0.19562376985E+04  0.19562376985E+04  0.25500000920E-02 0.  1.
       -2   -1    0    0    0  501  0.00000000000E+00  0.00000000000E+00 -0.66250413991E+03  0.66250413991E+03  0.25500000920E-02 0. -1.
    10030    2    1    2    0    0  0.00000000000E+00  0.00000000000E+00  0.12937335586E+04  0.26187418385E+04  0.22768535956E+04 0.  0.
        2    1    3    3  502    0  0.52252262752E+03  0.99724349656E+03  0.84100546474E+03  0.14052809966E+04  0.25500000920E-02 0. -1.
       -2    1    3    3    0  502 -0.52252262752E+03 -0.99724349656E+03  0.45272809390E+03  0.12134608419E+04  0.25500000920E-02 0.  1.
</event>
<event>
 5   0  0.4174075E-05  0.2020871E+04  0.7818609E-02  0.8596925E-01
       -1   -1    0    0    0  501  0.00000000000E+00  0.00000000000E+00  0.11629311537E+04  0.11629311537E+04  0.50400001928E-02 0.  1.
        1   -1    0    0  501    0  0.00000000000E+00  0.00000000000E+00 -0.87793628678E+03  0.87793628680E+03  0.50400001928E-02 0. -1.
    10030    2    1    2    0    0  0.00000000000E+00  0.00000000000E+00  0.28499486695E+03  0.20408674405E+04  0.20208705638E+04 0.  0.
        5    1    3    3  502    0 -0.36715780833E+03 -0.66240984720E+03  0.81796988924E+03  0.11147593873E+04  0.46999998093E+01 0.  1.
       -5    1    3    3    0  502  0.36715780833E+03  0.66240984720E+03 -0.53297502229E+03  0.92610805323E+03  0.46999998093E+01 0. -1.
</event>
<event>
 5   0  0.9442578E-05  0.2108357E+04  0.7818609E-02  0.8557571E-01
       -2   -1    0    0    0  501  0.00000000000E+00  0.00000000000E+00  0.59767751377E+03  0.59767751378E+03  0.25500000920E-02 0. -1.
        2   -1    0    0  501    0  0.00000000000E+00  0.00000000000E+00 -0.18593510376E+04  0.18593510377E+04  0.25500000920E-02 0.  1.
    10030    2    1    2    0    0  0.00000000000E+00  0.00000000000E+00 -0.12616735239E+04  0.24570285514E+04  0.21083569958E+04 0.  0.
        4    1    3    3  502    0 -0.80068172762E+03  0.24265738343E+03 -0.13782388530E+04  0.16123020137E+04  0.12699999809E+01 0.  1.
       -4    1    3    3    0  502  0.80068172762E+03 -0.24265738343E+03  0.11656532908E+03  0.84472653772E+03  0.12699999809E+01 0. -1.
</event>
<event>
 5   0  0.4063293E-05  0.2193125E+04  0.7818609E-02  0.8521295E-01
        1   -1    0    0  501    0  0.00000000000E+00  0.00000000000E+00  0.15339679146E+04  0.15339679146E+04  0.50400001928E-02 0.  1.
       -1   -1    0    0    0  501  0.00000000000E+00  0.00000000000E+00 -0.78388174253E+03  0.78388174254E+03  0.50400001928E-02 0. -1.
    10030    2    1    2    0    0  0.00000000000E+00  0.00000000000E+00  0.75008617211E+03  0.23178496572E+04  0.21931251145E+04 0.  0.
        1    1    3    3  502    0  0.83370166387E+03 -0.70059810041E+03  0.51101959147E+03  0.12029285870E+04  0.50400001928E-02 0.  1.
       -1    1    3    3    0  502 -0.83370166387E+03  0.70059810041E+03  0.23906658064E+03  0.11149210701E+04  0.50400001928E-02 0. -1.
</event>
<event>
 5   0  0.4174075E-05  0.2168794E+04  0.7818609E-02  0.8531530E-01
        1   -1    0    0  501    0  0.00000000000E+00  0.00000000000E+00  0.20385446653E+04  0.20385446653E+04  0.50400001928E-02 0.  1.
       -1   -1    0    0    0  501  0.00000000000E+00  0.00000000000E+00 -0.57684108805E+03  0.57684108807E+03  0.50400001928E-02 0. -1.
    10030    2    1    2    0    0  0.00000000000E+00  0.00000000000E+00  0.14617035772E+04  0.26153857534E+04  0.21687935105E+04 0.  0.
        5    1    3    3  502    0 -0.41476612996E+03  0.70802630701E+03  0.15857460250E+04  0.17854816548E+04  0.46999998093E+01 0.  1.
       -5    1    3    3    0  502  0.41476612996E+03 -0.70802630701E+03 -0.12404244772E+03  0.82990409857E+03  0.46999998093E+01 0. -1.
</event>
<event>
 5   0  0.4063293E-05  0.2166583E+04  0.7818609E-02  0.8532467E-01
        1   -1    0    0  501    0  0.00000000000E+00  0.00000000000E+00  0.14440374048E+04  0.14440374048E+04  0.50400001928E-02 0.  1.
       -1   -1    0    0    0  501  0.00000000000E+00  0.00000000000E+00 -0.81266647403E+03  0.81266647404E+03  0.50400001928E-02 0. -1.
    10030    2    1    2    0    0  0.00000000000E+00  0.00000000000E+00  0.63137093078E+03  0.22567038789E+04  0.21665832882E+04 0.  0.
        1    1    3    3  502    0 -0.37422200256E+03 -0.71459986151E+03 -0.43745790453E+03  0.91764071811E+03  0.50400001928E-02 0. -1.
       -1    1    3    3    0  502  0.37422200256E+03  0.71459986151E+03  0.10688288353E+04  0.13390631608E+04  0.50400001928E-02 0.  1.
</event>
<event>
 5   0  0.9254673E-05  0.2244476E+04  0.7818609E-02  0.8500141E-01
       -2   -1    0    0    0  501  0.00000000000E+00  0.00000000000E+00  0.14286654368E+04  0.14286654368E+04  0.25500000920E-02 0.  1.
        2   -1    0    0  501    0  0.00000000000E+00  0.00000000000E+00 -0.88153452309E+03  0.88153452309E+03  0.25500000920E-02 0. -1.
    10030    2    1    2    0    0  0.00000000000E+00  0.00000000000E+00  0.54713091368E+03  0.23101999599E+04  0.22444758002E+04 0.  0.
        2    1    3    3  502    0 -0.29331732942E+03 -0.52172028702E+03  0.12506744653E+04  0.13865113529E+04  0.25500000920E-02 0.  1.
       -2    1    3    3    0  502  0.29331732942E+03  0.52172028702E+03 -0.70354355160E+03  0.92368860696E+03  0.25500000920E-02 0. -1.
</event>
<event>
 5   0  0.9179618E-05  0.1937797E+04  0.7818609E-02  0.8636268E-01
        2   -1    0    0  501    0  0.00000000000E+00  0.00000000000E+00  0.10270468507E+04  0.10270468507E+04  0.25500000920E-02 0.  1.
       -2   -1    0    0    0  501  0.00000000000E+00  0.00000000000E+00 -0.91404217821E+03  0.91404217821E+03  0.25500000920E-02 0. -1.
    10030    2    1    2    0    0  0.00000000000E+00  0.00000000000E+00  0.11300467249E+03  0.19410890289E+04  0.19377968320E+04 0.  0.
        3    1    3    3  502    0 -0.87288129768E+03 -0.32351855904E+03  0.32561861795E+03  0.98621169758E+03  0.10100000352E+00 0.  1.
       -3    1    3    3    0  502  0.87288129768E+03  0.32351855904E+03 -0.21261394546E+03  0.95487733133E+03  0.10100000352E+00 0. -1.
</event>
<event>
 5   0  0.4174075E-05  0.2192694E+04  0.7818609E-02  0.8521475E-01
       -1   -1    0    0    0  501  0.00000000000E+00  0.00000000000E+00  0.74974369153E+03  0.74974369155E+03  0.50400001928E-02 0.  1.
        1   -1    0    0  501    0  0.00000000000E+00  0.00000000000E+00 -0.16031839872E+04  0.16031839872E+04  0.50400001928E-02 0. -1.
    10030    2    1    2    0    0  0.00000000000E+00  0.00000000000E+00 -0.85344029562E+03  0.23529276787E+04  0.21926943068E+04 0.  0.
        5    1    3    3  502    0  0.66339569813E+03  0.36740127335E+03  0.42289414727E+03  0.86829666460E+03  0.46999998093E+01 0.  1.
       -5    1    3    3    0  502 -0.66339569813E+03 -0.36740127335E+03 -0.12763344429E+04  0.14846310141E+04  0.46999998093E+01 0. -1.
</event>
<event>
 5   0  0.9938176E-05  0.2171995E+04  0.7818609E-02  0.8530175E-01
       -2   -1    0    0    0  501  0.00000000000E+00  0.00000000000E+00  0.11163151260E+04  0.11163151260E+04  0.25500000920E-02 0.  1.
        2   -1    0    0  501    0  0.00000000000E+00  0.00000000000E+00 -0.10565036400E+04  0.10565036400E+04  0.25500000920E-02 0. -1.
    10030    2    1    2    0    0  0.00000000000E+00  0.00000000000E+00  0.59811486015E+02  0.21728187660E+04  0.21719953904E+04 0.  0.
        5    1    3    3  502    0 -0.85180900022E+03  0.12828567779E+03 -0.63165661505E+03  0.10681984634E+04  0.46999998093E+01 0. -1.
       -5    1    3    3    0  502  0.85180900022E+03 -0.12828567779E+03  0.69146810106E+03  0.11046203025E+04  0.46999998093E+01 0.  1.
</event>
<event>
 5   0  0.9938176E-05  0.2182199E+04  0.7818609E-02  0.8525874E-01
        2   -1    0    0  501    0  0.00000000000E+00  0.00000000000E+00  0.14765942155E+04  0.14765942155E+04  0.25500000920E-02 0. -1.
       -2   -1    0    0    0  501  0.00000000000E+00  0.00000000000E+00 -0.80624565275E+03  0.80624565276E+03  0.25500000920E-02 0.  1.
    10030    2    1    2    0    0  0.00000000000E+00  0.00000000000E+00  0.67034856274E+03  0.22828398683E+04  0.21821985860E+04 0.  0.
        5    1    3    3  502    0 -0.66054973019E+03  0.27015140583E+03 -0.52821817370E+03  0.88788752505E+03  0.46999998093E+01 0.  1.
       -5    1    3    3    0  502  0.66054973019E+03 -0.27015140583E+03  0.11985667364E+04  0.13949523432E+04  0.46999998093E+01 0. -1.
</event>
<event>
 5   0  0.9938176E-05  0.2264654E+04  0.7818609E-02  0.8491989E-01
        2   -1    0    0  501    0  0.00000000000E+00  0.00000000000E+00  0.13611882412E+04  0.13611882412E+04  0.25500000920E-02 0. -1.
       -2   -1    0    0    0  501  0.00000000000E+00  0.00000000000E+00 -0.94194485968E+03  0.94194485968E+03  0.25500000920E-02 0.  1.
    10030    2    1    2    0    0  0.00000000000E+00  0.00000000000E+00  0.41924338155E+03  0.23031331009E+04  0.22646538516E+04 0.  0.
        5    1    3    3  502    0  0.10124317919E+04 -0.13715874473E+03 -0.28684455595E+03  0.10611939237E+04  0.46999998093E+01 0.  1.
       -5    1    3    3    0  502 -0.10124317919E+04  0.13715874473E+03  0.70608793750E+03  0.12419391772E+04  0.46999998093E+01 0. -1.
</event>
<event>
 5   0  0.4063293E-05  0.1642346E+04  0.7818609E-02  0.8794947E-01
        1   -1    0    0  501    0  0.00000000000E+00  0.00000000000E+00  0.89939196389E+03  0.89939196391E+03  0.50400001928E-02 0. -1.
       -1   -1    0    0    0  501  0.00000000000E+00  0.00000000000E+00 -0.74975658096E+03  0.74975658097E+03  0.50400001928E-02 0.  1.
    10030    2    1    2    0    0  0.00000000000E+00  0.00000000000E+00  0.14963538293E+03  0.16491485449E+04  0.16423459365E+04 0.  0.
        1    1    3    3  502    0 -0.30380794083E+03  0.31441007296E+03  0.77280263300E+03  0.88790588943E+03  0.50400001928E-02 0. -1.
       -1    1    3    3    0  502  0.30380794083E+03 -0.31441007296E+03 -0.62316725007E+03  0.76124265545E+03  0.50400001928E-02 0.  1.
</event>
<event>
 5   0  0.9442578E-05  0.2179863E+04  0.7818609E-02  0.8526857E-01
        2   -1    0    0  501    0  0.00000000000E+00  0.00000000000E+00  0.15637670067E+04  0.15637670067E+04  0.25500000920E-02 0. -1.
       -2   -1    0    0    0  501  0.00000000000E+00  0.00000000000E+00 -0.75967210726E+03  0.75967210726E+03  0.25500000920E-02 0.  1.
    10030    2    1    2    0    0  0.00000000000E+00  0.00000000000E+00  0.80409489948E+03  0.23234391140E+04  0.21798625436E+04 0.  0.
        4    1    3    3  502    0 -0.49231516527E+03 -0.74017906110E+03  0.10742266358E+04  0.13943470667E+04  0.12699999809E+01 0. -1.
       -4    1    3    3    0  502  0.49231516527E+03  0.74017906110E+03 -0.27013173634E+03  0.92909204729E+03  0.12699999809E+01 0.  1.
</event>
<event>
 5   0  0.4063293E-05  0.2161821E+04  0.7818609E-02  0.8534489E-01
        1   -1    0    0  501    0  0.00000000000E+00  0.00000000000E+00  0.86437860303E+03  0.86437860305E+03  0.50400001928E-02 0. -1.
       -1   -1    0    0    0  501  0.00000000000E+00  0.00000000000E+00 -0.13516842804E+04  0.13516842804E+04  0.50400001928E-02 0.  1.
    10030    2    1    2    0    0  0.00000000000E+00  0.00000000000E+00 -0.48730567735E+03  0.22160628834E+04  0.21618205014E+04 0.  0.
        1    1    3    3  502    0  0.98601715423E+03 -0.18284406160E+03  0.16983539235E+03  0.10171066020E+04  0.50400001928E-02 0. -1.
       -1    1    3    3    0  502 -0.98601715423E+03  0.18284406160E+03 -0.65714106969E+03  0.11989562814E+04  0.50400001928E-02 0.  1.
</event>
<event>
 5   0  0.4188865E-05  0.2160895E+04  0.7818609E-02  0.8534883E-01
        1   -1    0    0  501    0  0.00000000000E+00  0.00000000000E+00  0.14976768846E+04  0.14976768846E+04  0.50400001928E-02 0. -1.
       -1   -1    0    0    0  501  0.00000000000E+00  0.00000000000E+00 -0.77945170572E+03  0.77945170574E+03  0.50400001928E-02 0.  1.
    10030    2    1    2    0    0  0.00000000000E+00  0.00000000000E+00  0.71822517886E+03  0.22771285903E+04  0.21608950019E+04 0.  0.
        3    1    3    3  502    0  0.24190262364E+02 -0.55095189766E+03 -0.61996715702E+03  0.82975445061E+03  0.10100000352E+00 0.  1.
       -3    1    3    3    0  502 -0.24190262364E+02  0.55095189766E+03  0.13381923359E+04  0.14473741397E+04  0.10100000352E+00 0. -1.
</event>
<event>
 5   0  0.4174030E-05  0.2230451E+04  0.7818609E-02  0.8505860E-01
       -1   -1    0    0    0  501  0.00000000000E+00  0.00000000000E+00  0.11847697754E+04  0.11847697754E+04  0.50400001928E-02 0. -1.
        1   -1    0    0  501    0  0.00000000000E+00  0.00000000000E+00 -0.10497634501E+04  0.10497634501E+04  0.50400001928E-02 0.  1.
    10030    2    1    2    0    0  0.00000000000E+00  0.00000000000E+00  0.13500632527E+03  0.22345332255E+04  0.22304510817E+04 0.  0.
        2    1    3    3  502    0  0.17976350882E+03  0.10725684446E+04  0.31495728681E+03  0.11322173289E+04  0.25500000920E-02 0.  1.
       -2    1    3    3    0  502 -0.17976350882E+03 -0.10725684446E+04 -0.17995096154E+03  0.11023158966E+04  0.25500000920E-02 0. -1.
</event>
<event>
 5   0  0.9442578E-05  0.2193279E+04  0.7818609E-02  0.8521231E-01
       -2   -1    0    0    0  501  0.00000000000E+00  0.00000000000E+00  0.50981278288E+03  0.50981278289E+03  0.25500000920E-02 0.  1.
        2   -1    0    0  501    0  0.00000000000E+00  0.00000000000E+00 -0.23589406234E+04  0.23589406234E+04  0.25500000920E-02 0. -1.
    10030    2    1    2    0    0  0.00000000000E+00  0.00000000000E+00 -0.18491278405E+04  0.28687534063E+04  0.21932789005E+04 0.  0.
        4    1    3    3  502    0  0.86212755092E+03 -0.56773263298E+03 -0.14087482121E+04  0.17464699810E+04  0.12699999809E+01 0. -1.
       -4    1    3    3    0  502 -0.86212755092E+03  0.56773263298E+03 -0.44037962841E+03  0.11222834253E+04  0.12699999809E+01 0.  1.
</event>
<event>
 5   0  0.4133418E-05  0.2263541E+04  0.7818609E-02  0.8492437E-01
       -1   -1    0    0    0  501  0.00000000000E+00  0.00000000000E+00  0.74759922340E+03  0.74759922341E+03  0.50400001928E-02 0.  1.
        1   -1    0    0  501    0  0.00000000000E+00  0.00000000000E+00 -0.17133567321E+04  0.17133567321E+04  0.50400001928E-02 0. -1.
    10030    2    1    2    0    0  0.00000000000E+00  0.00000000000E+00 -0.96575750868E+03  0.24609559555E+04  0.22635407329E+04 0.  0.
        4    1    3    3  502    0 -0.45108167305E+03 -0.78063388383E+02 -0.16082037541E+04  0.16720913540E+04  0.12699999809E+01 0. -1.
       -4    1    3    3    0  502  0.45108167305E+03  0.78063388383E+02  0.64244624544E+03  0.78886460153E+03  0.12699999809E+01 0.  1.
</event>
<event>
 5   0  0.4188865E-05  0.2015441E+04  0.7818609E-02  0.8599435E-01
       -1   -1    0    0    0  501  0.00000000000E+00  0.00000000000E+00  0.50211809897E+03  0.50211809900E+03  0.50400001928E-02 0.  1.
        1   -1    0    0  501    0  0.00000000000E+00  0.00000000000E+00 -0.20224332668E+04  0.20224332669E+04  0.50400001928E-02 0. -1.
    10030    2    1    2    0    0  0.00000000000E+00  0.00000000000E+00 -0.15203151679E+04  0.25245513658E+04  0.20154407431E+04 0.  0.
        3    1    3    3  502    0 -0.51343236380E+03 -0.69903812917E+02  0.32245923519E+03  0.61031082557E+03  0.10100000352E+00 0.  1.
       -3    1    3    3    0  502  0.51343236380E+03  0.69903812917E+02 -0.18427744031E+04  0.19142405403E+04  0.10100000352E+00 0. -1.
</event>
<event>
 5   0  0.9457742E-05  0.2256494E+04  0.7818609E-02  0.8495275E-01
        2   -1    0    0  501    0  0.00000000000E+00  0.00000000000E+00  0.17681083991E+04  0.17681083991E+04  0.25500000920E-02 0.  1.
       -2   -1    0    0    0  501  0.00000000000E+00  0.00000000000E+00 -0.71994502233E+03  0.71994502233E+03  0.25500000920E-02 0. -1.
    10030    2    1    2    0    0  0.00000000000E+00  0.00000000000E+00  0.10481633768E+04  0.24880534215E+04  0.22564935993E+04 0.  0.
        1    1    3    3  502    0  0.14649179066E+03  0.10528222437E+04  0.10705491409E+03  0.10683423029E+04  0.50400001928E-02 0. -1.
       -1    1    3    3    0  502 -0.14649179066E+03 -0.10528222437E+04  0.94110846272E+03  0.14197111186E+04  0.50400001928E-02 0.  1.
</event>
<event>
 5   0  0.9938176E-05  0.2120946E+04  0.7818609E-02  0.8552072E-01
        2   -1    0    0  501    0  0.00000000000E+00  0.00000000000E+00  0.15214239393E+04  0.15214239393E+04  0.25500000920E-02 0. -1.
       -2   -1    0    0    0  501  0.00000000000E+00  0.00000000000E+00 -0.73917795662E+03  0.73917795663E+03  0.25500000920E-02 0.  1.
    10030    2    1    2    0    0  0.00000000000E+00  0.00000000000E+00  0.78224598272E+03  0.22606018960E+04  0.21209460518E+04 0.  0.
        5    1    3    3  502    0 -0.66811127813E+03 -0.66729660339E+03 -0.12327721034E+03  0.95230079148E+03  0.46999998093E+01 0.  1.
       -5    1    3    3    0  502  0.66811127813E+03  0.66729660339E+03  0.90552319306E+03  0.13083011045E+04  0.46999998093E+01 0. -1.
</event>
<event>
 5   0  0.4133418E-05  0.2167103E+04  0.7818609E-02  0.8532247E-01
        1   -1    0    0  501    0  0.00000000000E+00  0.00000000000E+00  0.84509866549E+03  0.84509866551E+03  0.50400001928E-02 0. -1.
       -1   -1    0    0    0  501  0.00000000000E+00  0.00000000000E+00 -0.13892863503E+04  0.13892863503E+04  0.50400001928E-02 0.  1.
    10030    2    1    2    0    0  0.00000000000E+00  0.00000000000E+00 -0.54418768481E+03  0.22343850158E+04  0.21671031730E+04 0.  0.
        4    1    3    3  502    0 -0.10457196149E+04 -0.27542571206E+03 -0.20145703157E+03  0.10999888110E+04  0.12699999809E+01 0.  1.
       -4    1    3    3    0  502  0.10457196149E+04  0.27542571206E+03 -0.34273065324E+03  0.11343962048E+04  0.12699999809E+01 0. -1.
</event>
<event>
 5   0  0.9442578E-05  0.2148371E+04  0.7818609E-02  0.8540230E-01
       -2   -1    0    0    0  501  0.00000000000E+00  0.00000000000E+00  0.81380369061E+03  0.81380369061E+03  0.25500000920E-02 0.  1.
        2   -1    0    0  501    0  0.00000000000E+00  0.00000000000E+00 -0.14178781562E+04  0.14178781562E+04  0.25500000920E-02 0. -1.
    10030    2    1    2    0    0  0.00000000000E+00  0.00000000000E+00 -0.60407446562E+03  0.22316818468E+04  0.21483709888E+04 0.  0.
        4    1    3    3  502    0  0.68447248521E+03 -0.82697323605E+03 -0.26199979782E+03  0.11050035399E+04  0.12699999809E+01 0.  1.
       -4    1    3    3    0  502 -0.68447248521E+03  0.82697323605E+03 -0.34207466780E+03  0.11266783070E+04  0.12699999809E+01 0. -1.
</event>
<event>
 5   0  0.9254673E-05  0.2160476E+04  0.7818609E-02  0.8535061E-01
        2   -1    0    0  501    0  0.00000000000E+00  0.00000000000E+00  0.11834814153E+04  0.11834814153E+04  0.25500000920E-02 0. -1.
       -2   -1    0    0    0  501  0.00000000000E+00  0.00000000000E+00 -0.98600101545E+03  0.98600101545E+03  0.25500000920E-02 0.  1.
    10030    2    1    2    0    0  0.00000000000E+00  0.00000000000E+00  0.19748039987E+03  0.21694824308E+04  0.21604757599E+04 0.  0.
        2    1    3    3  502    0 -0.53882061441E+02  0.45232252292E+03  0.10823208517E+04  0.11742731229E+04  0.25500000920E-02 0. -1.
       -2    1    3    3    0  502  0.53882061441E+02 -0.45232252292E+03 -0.88484045179E+03  0.99520930785E+03  0.25500000920E-02 0.  1.
</event>
<event>
 5   0  0.4063293E-05  0.2195683E+04  0.7818609E-02  0.8520227E-01
        1   -1    0    0  501    0  0.00000000000E+00  0.00000000000E+00  0.12894317155E+04  0.12894317155E+04  0.50400001928E-02 0.  1.
       -1   -1    0    0    0  501  0.00000000000E+00  0.00000000000E+00 -0.93471859694E+03  0.93471859696E+03  0.50400001928E-02 0. -1.
    10030    2    1    2    0    0  0.00000000000E+00  0.00000000000E+00  0.35471311854E+03  0.22241503124E+04  0.21956828587E+04 0.  0.
        1    1    3    3  502    0 -0.74132349231E+03  0.45264229490E+03 -0.50277261981E+03  0.10036064341E+04  0.50400001928E-02 0. -1.
       -1    1    3    3    0  502  0.74132349231E+03 -0.45264229490E+03  0.85748573835E+03  0.12205438783E+04  0.50400001928E-02 0.  1.
</event>
<event>
 5   0  0.9254673E-05  0.2227133E+04  0.7818609E-02  0.8507219E-01
       -2   -1    0    0    0  501  0.00000000000E+00  0.00000000000E+00  0.14589594592E+04  0.14589594592E+04  0.25500000920E-02 0. -1.
        2   -1    0    0  501    0  0.00000000000E+00  0.00000000000E+00 -0.84994185878E+03  0.84994185878E+03  0.25500000920E-02 0.  1.
    10030    2    1    2    0    0  0.00000000000E+00  0.00000000000E+00  0.60901760044E+03  0.23089013180E+04  0.22271333275E+04 0.  0.
        2    1    3    3  502    0  0.46545638303E+03  0.20635524310E+01  0.13532707950E+04  0.14310820198E+04  0.25500000920E-02 0. -1.
       -2    1    3    3    0  502 -0.46545638303E+03 -0.20635524310E+01 -0.74425319454E+03  0.87781929823E+03  0.25500000920E-02 0.  1.
</event>
<event>
 5   0  0.4174030E-05  0.2215062E+04  0.7818609E-02  0.8512185E-01
        1   -1    0    0  501    0  0.00000000000E+00  0.00000000000E+00  0.16584988203E+04  0.16584988203E+04  0.50400001928E-02 0. -1.
       -1   -1    0    0    0  501  0.00000000000E+00  0.00000000000E+00 -0.73959960856E+03  0.73959960858E+03  0.50400001928E-02 0.  1.
    10030    2    1    2    0    0  0.00000000000E+00  0.00000000000E+00  0.91889921170E+03  0.23980984288E+04  0.22150621466E+04 0.  0.
        2    1    3    3  502    0  0.16723454869E+03  0.86043905717E+03 -0.27347130658E+03  0.91820984579E+03  0.25500000920E-02 0.  1.
       -2    1    3    3    0  502 -0.16723454869E+03 -0.86043905717E+03  0.11923705183E+04  0.14798885831E+04  0.25500000920E-02 0. -1.
</event>
<event>
 5   0  0.4133418E-05  0.2215847E+04  0.7818609E-02  0.8511861E-01
       -1   -1    0    0    0  501  0.00000000000E+00  0.00000000000E+00  0.82243034429E+03  0.82243034431E+03  0.50400001928E-02 0.  1.
        1   -1    0    0  501    0  0.00000000000E+00  0.00000000000E+00 -0.14925207738E+04  0.14925207738E+04  0.50400001928E-02 0. -1.
    10030    2    1    2    0    0  0.00000000000E+00  0.00000000000E+00 -0.67009042949E+03  0.23149511181E+04  0.22158469025E+04 0.  0.
        4    1    3    3  502    0  0.37427410665E+02  0.82007492628E+03 -0.11123439849E+04  0.13824740321E+04  0.12699999809E+01 0. -1.
       -4    1    3    3    0  502 -0.37427410665E+02 -0.82007492628E+03  0.44225355539E+03  0.93247708601E+03  0.12699999809E+01 0.  1.
</event>
<event>
 5   0  0.9457742E-05  0.2187805E+04  0.7818609E-02  0.8523521E-01
        2   -1    0    0  501    0  0.00000000000E+00  0.00000000000E+00  0.14788668237E+04  0.14788668237E+04  0.25500000920E-02 0. -1.
       -2   -1    0    0    0  501  0.00000000000E+00  0.00000000000E+00 -0.80914851926E+03  0.80914851926E+03  0.25500000920E-02 0.  1.
    10030    2    1    2    0    0  0.00000000000E+00  0.00000000000E+00  0.66971830448E+03  0.22880153430E+04  0.21878052021E+04 0.  0.
        1    1    3    3  502    0 -0.48992740953E+03  0.80108714825E+03 -0.25196027853E+03  0.97224146573E+03  0.50400001928E-02 0.  1.
       -1    1    3    3    0  502  0.48992740953E+03 -0.80108714825E+03  0.92167858300E+03  0.13157738773E+04  0.50400001928E-02 0. -1.
</event>
<event>
 5   0  0.9254673E-05  0.2201695E+04  0.7818609E-02  0.8517723E-01
       -2   -1    0    0    0  501  0.00000000000E+00  0.00000000000E+00  0.51989799613E+03  0.51989799613E+03  0.25500000920E-02 0.  1.
        2   -1    0    0  501    0  0.00000000000E+00  0.00000000000E+00 -0.23309680154E+04  0.23309680154E+04  0.25500000920E-02 0. -1.
    10030    2    1    2    0    0  0.00000000000E+00  0.00000000000E+00 -0.18110700193E+04  0.28508660116E+04  0.22016953470E+04 0.  0.
        2    1    3    3  502    0 -0.55584785729E+03  0.81882609808E+03 -0.15297852833E+04  0.18220005578E+04  0.25500000920E-02 0. -1.
       -2    1    3    3    0  502  0.55584785729E+03 -0.81882609808E+03 -0.28128473598E+03  0.10288654538E+04  0.25500000920E-02 0.  1.
</event>
<event>
 5   0  0.4063293E-05  0.2184916E+04  0.7818609E-02  0.8524733E-01
        1   -1    0    0  501    0  0.00000000000E+00  0.00000000000E+00  0.20630576214E+04  0.20630576214E+04  0.50400001928E-02 0.  1.
       -1   -1    0    0    0  501  0.00000000000E+00  0.00000000000E+00 -0.57849323986E+03  0.57849323989E+03  0.50400001928E-02 0. -1.
    10030    2    1    2    0    0  0.00000000000E+00  0.00000000000E+00  0.14845643816E+04  0.26415508613E+04  0.21849163714E+04 0.  0.
        1    1    3    3  502    0 -0.23162902111E+03 -0.37924771517E+03  0.19488461572E+04  0.19988702252E+04  0.50400001928E-02 0.  1.
       -1    1    3    3    0  502  0.23162902111E+03  0.37924771517E+03 -0.46428177559E+03  0.64268063613E+03  0.50400001928E-02 0. -1.
</event>
<event>
 5   0  0.4174030E-05  0.2200208E+04  0.7818609E-02  0.8518342E-01
       -1   -1    0    0    0  501  0.00000000000E+00  0.00000000000E+00  0.63018939847E+03  0.63018939849E+03  0.50400001928E-02 0. -1.
        1   -1    0    0  501    0  0.00000000000E+00  0.00000000000E+00 -0.19204199240E+04  0.19204199240E+04  0.50400001928E-02 0.  1.
    10030    2    1    2    0    0  0.00000000000E+00  0.00000000000E+00 -0.12902305255E+04  0.25506093225E+04  0.22002075145E+04 0.  0.
        2    1    3    3  502    0 -0.66117975058E+03 -0.83040970259E+03 -0.98007747255E+03  0.14447459254E+04  0.25500000920E-02 0. -1.
       -2    1    3    3    0  502  0.66117975058E+03  0.83040970259E+03 -0.31015305297E+03  0.11058633971E+04  0.25500000920E-02 0.  1.
</event>
<event>
 5   0  0.9457742E-05  0.2199345E+04  0.7818609E-02  0.8518701E-01
        2   -1    0    0  501    0  0.00000000000E+00  0.00000000000E+00  0.13948987870E+04  0.13948987870E+04  0.25500000920E-02 0.  1.
       -2   -1    0    0    0  501  0.00000000000E+00  0.00000000000E+00 -0.86692965230E+03  0.86692965231E+03  0.25500000920E-02 0. -1.
    10030    2    1    2    0    0  0.00000000000E+00  0.00000000000E+00  0.52796913466E+03  0.22618284393E+04  0.21993445573E+04 0.  0.
        1    1    3    3  502    0  0.59837619215E+03  0.87051608815E+02  0.12085820611E+04  0.13514076544E+04  0.50400001928E-02 0.  1.
       -1    1    3    3    0  502 -0.59837619215E+03 -0.87051608815E+02 -0.68061292642E+03  0.91042078489E+03  0.50400001928E-02 0. -1.
</event>
<event>
 5   0  0.4174030E-05  0.2207467E+04  0.7818609E-02  0.8515326E-01
       -1   -1    0    0    0  501  0.00000000000E+00  0.00000000000E+00  0.64336152827E+03  0.64336152829E+03  0.50400001928E-02 0. -1.
        1   -1    0    0  501    0  0.00000000000E+00  0.00000000000E+00 -0.18935358252E+04  0.18935358252E+04  0.50400001928E-02 0.  1.
    10030    2    1    2    0    0  0.00000000000E+00  0.00000000000E+00 -0.12501742969E+04  0.25368973535E+04  0.22074674198E+04 0.  0.
        2    1    3    3  502    0 -0.10388960746E+02  0.99078769535E+02  0.63818412965E+03  0.64591293253E+03  0.25500000920E-02 0. -1.
       -2    1    3    3    0  502  0.10388960746E+02 -0.99078769535E+02 -0.18883584266E+04  0.18909844210E+04  0.25500000920E-02 0.  1.
</event>
<event>
 5   0  0.4188865E-05  0.2211008E+04  0.7818609E-02  0.8513860E-01
       -1   -1    0    0    0  501  0.00000000000E+00  0.00000000000E+00  0.12781874238E+04  0.12781874238E+04  0.50400001928E-02 0.  1.
        1   -1    0    0  501    0  0.00000000000E+00  0.00000000000E+00 -0.95614986462E+03  0.95614986463E+03  0.50400001928E-02 0. -1.
    10030    2    1    2    0    0  0.00000000000E+00  0.00000000000E+00  0.32203755917E+03  0.22343372884E+04  0.22110076727E+04 0.  0.
        3    1    3    3  502    0  0.43034156082E+03 -0.69563772706E+03 -0.59048992162E+03  0.10088528456E+04  0.10100000352E+00 0. -1.
       -3    1    3    3    0  502 -0.43034156082E+03  0.69563772706E+03  0.91252748079E+03  0.12254844429E+04  0.10100000352E+00 0.  1.
</event>
<event>
 5   0  0.9442578E-05  0.2076732E+04  0.7818609E-02  0.8571563E-01
        2   -1    0    0  501    0  0.00000000000E+00  0.00000000000E+00  0.15986747885E+04  0.15986747885E+04  0.25500000920E-02 0.  1.
       -2   -1    0    0    0  501  0.00000000000E+00  0.00000000000E+00 -0.67443613546E+03  0.67443613547E+03  0.25500000920E-02 0. -1.
    10030    2    1    2    0    0  0.00000000000E+00  0.00000000000E+00  0.92423865304E+03  0.22731109240E+04  0.20767320927E+04 0.  0.
        4    1    3    3  502    0 -0.23140152529E+03 -0.86629993800E+03  0.10352559849E+04  0.13695907475E+04  0.12699999809E+01 0.  1.
       -4    1    3    3    0  502  0.23140152529E+03  0.86629993800E+03 -0.11101733182E+03  0.90352017650E+03  0.12699999809E+01 0. -1.
</event>
<event>
 5   0  0.9442578E-05  0.2058720E+04  0.7818609E-02  0.8579649E-01
       -2   -1    0    0    0  501  0.00000000000E+00  0.00000000000E+00  0.53739658224E+03  0.53739658225E+03  0.25500000920E-02 0. -1.
        2   -1    0    0  501    0  0.00000000000E+00  0.00000000000E+00 -0.19716953003E+04  0.19716953003E+04  0.25500000920E-02 0.  1.
    10030    2    1    2    0    0  0.00000000000E+00  0.00000000000E+00 -0.14342987181E+04  0.25090918826E+04  0.20587202973E+04 0.  0.
        4    1    3    3  502    0  0.63847769732E+03 -0.40200932135E+03 -0.15705579354E+04  0.17423889077E+04  0.12699999809E+01 0.  1.
       -4    1    3    3    0  502 -0.63847769732E+03  0.40200932135E+03  0.13625921731E+03  0.76670297484E+03  0.12699999809E+01 0. -1.
</event>
<event>
 5   0  0.9442578E-05  0.2210240E+04  0.7818609E-02  0.8514178E-01
       -2   -1    0    0    0  501  0.00000000000E+00  0.00000000000E+00  0.90097297071E+03  0.90097297071E+03  0.25500000920E-02 0.  1.
        2   -1    0    0  501    0  0.00000000000E+00  0.00000000000E+00 -0.13555235758E+04  0.13555235758E+04  0.25500000920E-02 0. -1.
    10030    2    1    2    0    0  0.00000000000E+00  0.00000000000E+00 -0.45455060505E+03  0.22564965465E+04  0.22102398991E+04 0.  0.
        4    1    3    3  502    0 -0.20103587760E+03 -0.82774264307E+02  0.87892374814E+03  0.90541458507E+03  0.12699999809E+01 0.  1.
       -4    1    3    3    0  502  0.20103587760E+03  0.82774264307E+02 -0.13334743532E+04  0.13510819614E+04  0.12699999809E+01 0. -1.
</event>
<event>
 5   0  0.9179618E-05  0.2213578E+04  0.7818609E-02  0.8512798E-01
       -2   -1    0    0    0  501  0.00000000000E+00  0.00000000000E+00  0.13239170949E+04  0.13239170950E+04  0.25500000920E-02 0. -1.
        2   -1    0    0  501    0  0.00000000000E+00  0.00000000000E+00 -0.92527111566E+03  0.92527111567E+03  0.25500000920E-02 0.  1.
    10030    2    1    2    0    0  0.00000000000E+00  0.00000000000E+00  0.39864597928E+03  0.22491882106E+04  0.22135783225E+04 0.  0.
        3    1    3    3  502    0 -0.52883831587E+03  0.22404264135E+03 -0.76200336515E+03  0.95420868167E+03  0.10100000352E+00 0.  1.
       -3    1    3    3    0  502  0.52883831587E+03 -0.22404264135E+03  0.11606493444E+04  0.12949795290E+04  0.10100000352E+00 0. -1.
</event>
<event>
 5   0  0.4063293E-05  0.2187175E+04  0.7818609E-02  0.8523785E-01
        1   -1    0    0  501    0  0.00000000000E+00  0.00000000000E+00  0.98920738490E+03  0.98920738492E+03  0.50400001928E-02 0.  1.
       -1   -1    0    0    0  501  0.00000000000E+00  0.00000000000E+00 -0.12089815857E+04  0.12089815857E+04  0.50400001928E-02 0. -1.
    10030    2    1    2    0    0  0.00000000000E+00  0.00000000000E+00 -0.21977420075E+03  0.21981889706E+04  0.21871749018E+04 0.  0.
        1    1    3    3  502    0 -0.64446440239E+03 -0.50420756683E+02 -0.99640434592E+03  0.11877281841E+04  0.50400001928E-02 0. -1.
       -1    1    3    3    0  502  0.64446440239E+03  0.50420756683E+02  0.77663014517E+03  0.10104607865E+04  0.50400001928E-02 0.  1.
</event>
<event>
 5   0  0.9254673E-05  0.2213675E+04  0.7818609E-02  0.8512758E-01
       -2   -1    0    0    0  501  0.00000000000E+00  0.00000000000E+00  0.96931630039E+03  0.96931630040E+03  0.25500000920E-02 0.  1.
        2   -1    0    0  501    0  0.00000000000E+00  0.00000000000E+00 -0.12638691694E+04  0.12638691694E+04  0.25500000920E-02 0. -1.
    10030    2    1    2    0    0  0.00000000000E+00  0.00000000000E+00 -0.29455286905E+03  0.22331854698E+04  0.22136747616E+04 0.  0.
        2    1    3    3  502    0 -0.18350173893E+03 -0.38778027180E+03  0.88203126685E+03  0.98082902847E+03  0.25500000920E-02 0.  1.
       -2    1    3    3    0  502  0.18350173893E+03  0.38778027180E+03 -0.11765841359E+04  0.12523564414E+04  0.25500000920E-02 0. -1.
</event>
<event>
 5   0  0.9457742E-05  0.2159031E+04  0.7818609E-02  0.8535677E-01
       -2   -1    0    0    0  501  0.00000000000E+00  0.00000000000E+00  0.56769514280E+03  0.56769514280E+03  0.25500000920E-02 0. -1.
        2   -1    0    0  501    0  0.00000000000E+00  0.00000000000E+00 -0.20527801124E+04  0.20527801124E+04  0.25500000920E-02 0.  1.
    10030    2    1    2    0    0  0.00000000000E+00  0.00000000000E+00 -0.14850849696E+04  0.26204752552E+04  0.21590306149E+04 0.  0.
        1    1    3    3  502    0 -0.11572723900E+03 -0.81301200323E+03  0.10790914857E+03  0.82826668146E+03  0.50400001928E-02 0. -1.
       -1    1    3    3    0  502  0.11572723900E+03  0.81301200323E+03 -0.15929941182E+04  0.17922085737E+04  0.50400001928E-02 0.  1.
</event>
<event>
 5   0  0.4174030E-05  0.2211501E+04  0.7818609E-02  0.8513656E-01
        1   -1    0    0  501    0  0.00000000000E+00  0.00000000000E+00  0.21655798493E+04  0.21655798493E+04  0.50400001928E-02 0. -1.
       -1   -1    0    0    0  501  0.00000000000E+00  0.00000000000E+00 -0.56459887802E+03  0.56459887805E+03  0.50400001928E-02 0.  1.
    10030    2    1    2    0    0  0.00000000000E+00  0.00000000000E+00  0.16009809713E+04  0.27301787273E+04  0.22115008055E+04 0.  0.
        2    1    3    3  502    0  0.54752004760E+03  0.58741480103E+03 -0.13796004861E+03  0.81478053855E+03  0.25500000920E-02 0.  1.
       -2    1    3    3    0  502 -0.54752004760E+03 -0.58741480103E+03  0.17389410199E+04  0.19153981888E+04  0.25500000920E-02 0. -1.
</event>
<event>
 5   0  0.4174030E-05  0.2243832E+04  0.7818609E-02  0.8500402E-01
        1   -1    0    0  501    0  0.00000000000E+00  0.00000000000E+00  0.10641152285E+04  0.10641152285E+04  0.50400001928E-02 0. -1.
       -1   -1    0    0    0  501  0.00000000000E+00  0.00000000000E+00 -0.11828566253E+04  0.11828566253E+04  0.50400001928E-02 0.  1.
    10030    2    1    2    0    0  0.00000000000E+00  0.00000000000E+00 -0.11874139682E+03  0.22469718538E+04  0.22438322113E+04 0.  0.
        2    1    3    3  502    0 -0.38866985399E+03 -0.17381502482E+03  0.98007004571E+03  0.10685566025E+04  0.25500000920E-02 0. -1.
       -2    1    3    3    0  502  0.38866985399E+03  0.17381502482E+03 -0.10988114425E+04  0.11784152513E+04  0.25500000920E-02 0.  1.
</event>
<event>
 5   0  0.9457742E-05  0.2197678E+04  0.7818609E-02  0.8519395E-01
       -2   -1    0    0    0  501  0.00000000000E+00  0.00000000000E+00  0.69734974764E+03  0.69734974765E+03  0.25500000920E-02 0.  1.
        2   -1    0    0  501    0  0.00000000000E+00  0.00000000000E+00 -0.17314796397E+04  0.17314796397E+04  0.25500000920E-02 0. -1.
    10030    2    1    2    0    0  0.00000000000E+00  0.00000000000E+00 -0.10341298921E+04  0.24288293873E+04  0.21976777651E+04 0.  0.
        1    1    3    3  502    0 -0.71095008823E+03  0.32918910616E+02  0.40819788504E+03  0.82046279380E+03  0.50400001928E-02 0.  1.
       -1    1    3    3    0  502  0.71095008823E+03 -0.32918910616E+02 -0.14423277771E+04  0.16083665935E+04  0.50400001928E-02 0. -1.
</event>
<event>
 5   0  0.9442578E-05  0.2210627E+04  0.7818609E-02  0.8514018E-01
       -2   -1    0    0    0  501  0.00000000000E+00  0.00000000000E+00  0.61489255683E+03  0.61489255684E+03  0.25500000920E-02 0.  1.
        2   -1    0    0  501    0  0.00000000000E+00  0.00000000000E+00 -0.19868802366E+04  0.19868802366E+04  0.25500000920E-02 0. -1.
    10030    2    1    2    0    0  0.00000000000E+00  0.00000000000E+00 -0.13719876798E+04  0.26017727935E+04  0.22106269417E+04 0.  0.
        4    1    3    3  502    0 -0.34593340640E+03  0.39874801842E+03 -0.18289259367E+04  0.19035865093E+04  0.12699999809E+01 0. -1.
       -4    1    3    3    0  502  0.34593340640E+03 -0.39874801842E+03  0.45693825686E+03  0.69818628412E+03  0.12699999809E+01 0.  1.
</event>
<event>
 5   0  0.9442578E-05  0.2214308E+04  0.7818609E-02  0.8512496E-01
        2   -1    0    0  501    0  0.00000000000E+00  0.00000000000E+00  0.17136896791E+04  0.17136896791E+04  0.25500000920E-02 0. -1.
       -2   -1    0    0    0  501  0.00000000000E+00  0.00000000000E+00 -0.71529311850E+03  0.71529311850E+03  0.25500000920E-02 0.  1.
    10030    2    1    2    0    0  0.00000000000E+00  0.00000000000E+00  0.99839656061E+03  0.24289827976E+04  0.22143084110E+04 0.  0.
        4    1    3    3  502    0 -0.98235928773E+03  0.50966398214E+03  0.53391591800E+03  0.12287615575E+04  0.12699999809E+01 0. -1.
       -4    1    3    3    0  502  0.98235928773E+03 -0.50966398214E+03  0.46448064261E+03  0.12002212401E+04  0.12699999809E+01 0.  1.
</event>
<event>
 5   0  0.4188865E-05  0.2211739E+04  0.7818609E-02  0.8513558E-01
       -1   -1    0    0    0  501  0.00000000000E+00  0.00000000000E+00  0.94171317622E+03  0.94171317624E+03  0.50400001928E-02 0.  1.
        1   -1    0    0  501    0  0.00000000000E+00  0.00000000000E+00 -0.12986412564E+04  0.12986412564E+04  0.50400001928E-02 0. -1.
    10030    2    1    2    0    0  0.00000000000E+00  0.00000000000E+00 -0.35692808015E+03  0.22403544326E+04  0.22117392092E+04 0.  0.
        3    1    3    3  502    0  0.76196953469E+03  0.83203032041E+02 -0.98591421587E+03  0.12488183085E+04  0.10100000352E+00 0. -1.
       -3    1    3    3    0  502 -0.76196953469E+03 -0.83203032041E+02  0.62898613572E+03  0.99153612414E+03  0.10100000352E+00 0.  1.
</event>
<event>
 5   0  0.4174075E-05  0.2189146E+04  0.7818609E-02  0.8522960E-01
        1   -1    0    0  501    0  0.00000000000E+00  0.00000000000E+00  0.20592719140E+04  0.20592719140E+04  0.50400001928E-02 0.  1.
       -1   -1    0    0    0  501  0.00000000000E+00  0.00000000000E+00 -0.58180257717E+03  0.58180257719E+03  0.50400001928E-02 0. -1.
    10030    2    1    2    0    0  0.00000000000E+00  0.00000000000E+00  0.14774693368E+04  0.26410744912E+04  0.21891456842E+04 0.  0.
        5    1    3    3  502    0  0.25534057201E+03 -0.97131055496E+03  0.12638131163E+04  0.16142765206E+04  0.46999998093E+01 0.  1.
       -5    1    3    3    0  502 -0.25534057201E+03  0.97131055496E+03  0.21365622050E+03  0.10267979706E+04  0.46999998093E+01 0. -1.
</event>
<event>
 5   0  0.9254673E-05  0.2222513E+04  0.7818609E-02  0.8509116E-01
        2   -1    0    0  501    0  0.00000000000E+00  0.00000000000E+00  0.90130222846E+03  0.90130222846E+03  0.25500000920E-02 0. -1.
       -2   -1    0    0    0  501  0.00000000000E+00  0.00000000000E+00 -0.13701190346E+04  0.13701190346E+04  0.25500000920E-02 0.  1.
    10030    2    1    2    0    0  0.00000000000E+00  0.00000000000E+00 -0.46881680610E+03  0.22714212630E+04  0.22225132972E+04 0.  0.
        2    1    3    3  502    0  0.61337897814E+03  0.15040694416E+03  0.70006217372E+03  0.94283777330E+03  0.25500000920E-02 0. -1.
       -2    1    3    3    0  502 -0.61337897814E+03 -0.15040694416E+03 -0.11688789798E+04  0.13285834897E+04  0.25500000920E-02 0.  1.
</event>
<event>
 5   0  0.4174030E-05  0.2201572E+04  0.7818609E-02  0.8517774E-01
        1   -1    0    0  501    0  0.00000000000E+00  0.00000000000E+00  0.14133014630E+04  0.14133014630E+04  0.50400001928E-02 0.  1.
       -1   -1    0    0    0  501  0.00000000000E+00  0.00000000000E+00 -0.85737511062E+03  0.85737511063E+03  0.50400001928E-02 0. -1.
    10030    2    1    2    0    0  0.00000000000E+00  0.00000000000E+00  0.55592635238E+03  0.22706765736E+04  0.22015717097E+04 0.  0.
        2    1    3    3  502    0  0.60750830313E+03 -0.75292107945E+03 -0.26366134935E+03  0.10027331636E+04  0.25500000920E-02 0.  1.
       -2    1    3    3    0  502 -0.60750830313E+03  0.75292107945E+03  0.81958770173E+03  0.12679434100E+04  0.25500000920E-02 0. -1.
</event>
<event>
 5   0  0.4174030E-05  0.2181764E+04  0.7818609E-02  0.8526057E-01
        1   -1    0    0  501    0  0.00000000000E+00  0.00000000000E+00  0.18108929475E+04  0.18108929475E+04  0.50400001928E-02 0. -1.
       -1   -1    0    0    0  501  0.00000000000E+00  0.00000000000E+00 -0.65714712698E+03  0.65714712700E+03  0.50400001928E-02 0.  1.
    10030    2    1    2    0    0  0.00000000000E+00  0.00000000000E+00  0.11537458205E+04  0.24680400745E+04  0.21817635965E+04 0.  0.
        2    1    3    3  502    0  0.42879538153E+03  0.44399211326E+03  0.15943542644E+04  0.17096666331E+04  0.25500000920E-02 0. -1.
       -2    1    3    3    0  502 -0.42879538153E+03 -0.44399211326E+03 -0.44060844387E+03  0.75837344144E+03  0.25500000920E-02 0.  1.
</event>
<event>
 5   0  0.4063293E-05  0.1628522E+04  0.7818609E-02  0.8803215E-01
        1   -1    0    0  501    0  0.00000000000E+00  0.00000000000E+00  0.50246653784E+03  0.50246653787E+03  0.50400001928E-02 0.  1.
       -1   -1    0    0    0  501  0.00000000000E+00  0.00000000000E+00 -0.13195332114E+04  0.13195332114E+04  0.50400001928E-02 0. -1.
    10030    2    1    2    0    0  0.00000000000E+00  0.00000000000E+00 -0.81706667359E+03  0.18219997493E+04  0.16285223785E+04 0.  0.
        1    1    3    3  502    0 -0.49016181521E+03 -0.20048609184E+03 -0.11005378164E+04  0.12213258220E+04  0.50400001928E-02 0. -1.
       -1    1    3    3    0  502  0.49016181521E+03  0.20048609184E+03  0.28347114282E+03  0.60067392731E+03  0.50400001928E-02 0.  1.
</event>
<event>
 5   0  0.9254673E-05  0.2125252E+04  0.7818609E-02  0.8550201E-01
        2   -1    0    0  501    0  0.00000000000E+00  0.00000000000E+00  0.13219118965E+04  0.13219118965E+04  0.25500000920E-02 0. -1.
       -2   -1    0    0    0  501  0.00000000000E+00  0.00000000000E+00 -0.85419751272E+03  0.85419751273E+03  0.25500000920E-02 0.  1.
    10030    2    1    2    0    0  0.00000000000E+00  0.00000000000E+00  0.46771438378E+03  0.21761094092E+04  0.21252518477E+04 0.  0.
        2    1    3    3  502    0  0.62300691383E+03  0.43027327374E+03  0.99728699532E+03  0.12521397908E+04  0.25500000920E-02 0. -1.
       -2    1    3    3    0  502 -0.62300691383E+03 -0.43027327374E+03 -0.52957261155E+03  0.92396961838E+03  0.25500000920E-02 0.  1.
</event>
<event>
 5   0  0.9442578E-05  0.2229332E+04  0.7818609E-02  0.8506318E-01
       -2   -1    0    0    0  501  0.00000000000E+00  0.00000000000E+00  0.91504598456E+03  0.91504598457E+03  0.25500000920E-02 0. -1.
        2   -1    0    0  501    0  0.00000000000E+00  0.00000000000E+00 -0.13578339215E+04  0.13578339215E+04  0.25500000920E-02 0.  1.
    10030    2    1    2    0    0  0.00000000000E+00  0.00000000000E+00 -0.44278793692E+03  0.22728799061E+04  0.22293321669E+04 0.  0.
        4    1    3    3  502    0  0.78454795770E+03 -0.50793093000E+03 -0.84068809678E+03  0.12570868771E+04  0.12699999809E+01 0.  1.
       -4    1    3    3    0  502 -0.78454795770E+03  0.50793093000E+03  0.39790015986E+03  0.10157930290E+04  0.12699999809E+01 0. -1.
</event>
<event>
 5   0  0.4063293E-05  0.2235819E+04  0.7818609E-02  0.8503665E-01
        1   -1    0    0  501    0  0.00000000000E+00  0.00000000000E+00  0.18676219780E+04  0.18676219780E+04  0.50400001928E-02 0. -1.
       -1   -1    0    0    0  501  0.00000000000E+00  0.00000000000E+00 -0.66915156613E+03  0.66915156615E+03  0.50400001928E-02 0.  1.
    10030    2    1    2    0    0  0.00000000000E+00  0.00000000000E+00  0.11984704119E+04  0.25367735441E+04  0.22358194664E+04 0.  0.
        1    1    3    3  502    0 -0.38579123733E+03  0.34868800074E+03  0.17220386200E+04  0.17988427417E+04  0.50400001928E-02 0. -1.
       -1    1    3    3    0  502  0.38579123733E+03 -0.34868800074E+03 -0.52356820810E+03  0.73793080246E+03  0.50400001928E-02 0.  1.
</event>
<event>
 5   0  0.9457742E-05  0.2211318E+04  0.7818609E-02  0.8513732E-01
        2   -1    0    0  501    0  0.00000000000E+00  0.00000000000E+00  0.16107819480E+04  0.16107819480E+04  0.25500000920E-02 0.  1.
       -2   -1    0    0    0  501  0.00000000000E+00  0.00000000000E+00 -0.75893715573E+03  0.75893715573E+03  0.25500000920E-02 0. -1.
    10030    2    1    2    0    0  0.00000000000E+00  0.00000000000E+00  0.85184479229E+03  0.23697191038E+04  0.22113184033E+04 0.  0.
        1    1    3    3  502    0  0.58638950565E+03  0.10493961030E+03 -0.57225950249E+03  0.82604231875E+03  0.50400001928E-02 0. -1.
       -1    1    3    3    0  502 -0.58638950565E+03 -0.10493961030E+03  0.14241042948E+04  0.15436767850E+04  0.50400001928E-02 0.  1.
</event>
<event>
 5   0  0.4174030E-05  0.2174696E+04  0.7818609E-02  0.8529034E-01
       -1   -1    0    0    0  501  0.00000000000E+00  0.00000000000E+00  0.19208461710E+04  0.19208461710E+04  0.50400001928E-02 0. -1.
        1   -1    0    0  501    0  0.00000000000E+00  0.00000000000E+00 -0.61552358736E+03  0.61552358738E+03  0.50400001928E-02 0.  1.
    10030    2    1    2    0    0  0.00000000000E+00  0.00000000000E+00  0.13053225836E+04  0.25363697584E+04  0.21746964165E+04 0.  0.
        2    1    3    3  502    0 -0.53642900422E+02  0.93575242122E+03  0.97971117477E+01  0.93733992660E+03  0.25500000920E-02 0.  1.
       -2    1    3    3    0  502  0.53642900422E+02 -0.93575242122E+03  0.12955254719E+04  0.15990298318E+04  0.25500000920E-02 0. -1.
</event>
<event>
 5   0  0.4063293E-05  0.2176826E+04  0.7818609E-02  0.8528136E-01
       -1   -1    0    0    0  501  0.00000000000E+00  0.00000000000E+00  0.13008299814E+04  0.13008299814E+04  0.50400001928E-02 0. -1.
        1   -1    0    0  501    0  0.00000000000E+00  0.00000000000E+00 -0.91068272864E+03  0.91068272865E+03  0.50400001928E-02 0.  1.
    10030    2    1    2    0    0  0.00000000000E+00  0.00000000000E+00  0.39014725279E+03  0.22115127101E+04  0.21768264947E+04 0.  0.
        1    1    3    3  502    0  0.39202279169E+03  0.99008052602E+03  0.42383279636E+03  0.11461132390E+04  0.50400001928E-02 0.  1.
       -1    1    3    3    0  502 -0.39202279169E+03 -0.99008052602E+03 -0.33685543567E+02  0.10653994711E+04  0.50400001928E-02 0. -1.
</event>
<event>
 5   0  0.4063293E-05  0.2190785E+04  0.7818609E-02  0.8522273E-01
        1   -1    0    0  501    0  0.00000000000E+00  0.00000000000E+00  0.75630084600E+03  0.75630084602E+03  0.50400001928E-02 0.  1.
       -1   -1    0    0    0  501  0.00000000000E+00  0.00000000000E+00 -0.15865176445E+04  0.15865176445E+04  0.50400001928E-02 0. -1.
    10030    2    1    2    0    0  0.00000000000E+00  0.00000000000E+00 -0.83021679854E+03  0.23428184906E+04  0.21907849158E+04 0.  0.
        1    1    3    3  502    0 -0.71377784725E+03 -0.59088247947E+03  0.20960951431E+03  0.95003003546E+03  0.50400001928E-02 0.  1.
       -1    1    3    3    0  502  0.71377784725E+03  0.59088247947E+03 -0.10398263128E+04  0.13927884551E+04  0.50400001928E-02 0. -1.
</event>
<event>
 5   0  0.4063293E-05  0.2171979E+04  0.7818609E-02  0.8530182E-01
        1   -1    0    0  501    0  0.00000000000E+00  0.00000000000E+00  0.21913742252E+04  0.21913742252E+04  0.50400001928E-02 0. -1.
       -1   -1    0    0    0  501  0.00000000000E+00  0.00000000000E+00 -0.53818903525E+03  0.53818903528E+03  0.50400001928E-02 0.  1.
    10030    2    1    2    0    0  0.00000000000E+00  0.00000000000E+00  0.16531851900E+04  0.27295632605E+04  0.21719793555E+04 0.  0.
        1    1    3    3  502    0 -0.22518875366E+03 -0.81614266685E+03 -0.28136393850E+02  0.84710712671E+03  0.50400001928E-02 0.  1.
       -1    1    3    3    0  502  0.22518875366E+03  0.81614266685E+03  0.16813215838E+04  0.18824561338E+04  0.50400001928E-02 0. -1.
</event>
<event>
 5   0  0.4063293E-05  0.2222477E+04  0.7818609E-02  0.8509131E-01
        1   -1    0    0  501    0  0.00000000000E+00  0.00000000000E+00  0.15086197779E+04  0.15086197779E+04  0.50400001928E-02 0.  1.
       -1   -1    0    0    0  501  0.00000000000E+00  0.00000000000E+00 -0.81853027157E+03  0.81853027159E+03  0.50400001928E-02 0. -1.
    10030    2    1    2    0    0  0.00000000000E+00  0.00000000000E+00  0.69008950634E+03  0.23271500495E+04  0.22224769574E+04 0.  0.
        1    1    3    3  502    0  0.59743903488E+03  0.59404395656E+03  0.11037601612E+04  0.13885633282E+04  0.50400001928E-02 0.  1.
       -1    1    3    3    0  502 -0.59743903488E+03 -0.59404395656E+03 -0.41367065491E+03  0.93858672135E+03  0.50400001928E-02 0. -1.
</event>
<event>
 5   0  0.4174030E-05  0.2176329E+04  0.7818609E-02  0.8528345E-01
        1   -1    0    0  501    0  0.00000000000E+00  0.00000000000E+00  0.11328814074E+04  0.11328814074E+04  0.50400001928E-02 0.  1.
       -1   -1    0    0    0  501  0.00000000000E+00  0.00000000000E+00 -0.10452130576E+04  0.10452130576E+04  0.50400001928E-02 0. -1.
    10030    2    1    2    0    0  0.00000000000E+00  0.00000000000E+00  0.87668349807E+02  0.21780944651E+04  0.21763294234E+04 0.  0.
        2    1    3    3  502    0 -0.57263598901E+03  0.14818449786E+03  0.95793784557E+03  0.11258399253E+04  0.25500000920E-02 0.  1.
       -2    1    3    3    0  502  0.57263598901E+03 -0.14818449786E+03 -0.87026949577E+03  0.10522545398E+04  0.25500000920E-02 0. -1.
</event>
<event>
 5   0  0.4063293E-05  0.2223915E+04  0.7818609E-02  0.8508539E-01
       -1   -1    0    0    0  501  0.00000000000E+00  0.00000000000E+00  0.59318562846E+03  0.59318562848E+03  0.50400001928E-02 0. -1.
        1   -1    0    0  501    0  0.00000000000E+00  0.00000000000E+00 -0.20844232901E+04  0.20844232901E+04  0.50400001928E-02 0.  1.
    10030    2    1    2    0    0  0.00000000000E+00  0.00000000000E+00 -0.14912376616E+04  0.26776089186E+04  0.22239154115E+04 0.  0.
        1    1    3    3  502    0  0.50354062249E+03  0.37789981612E+03  0.35792961589E+03  0.72420648953E+03  0.50400001928E-02 0. -1.
       -1    1    3    3    0  502 -0.50354062249E+03 -0.37789981612E+03 -0.18491672775E+04  0.19534024290E+04  0.50400001928E-02 0.  1.
</event>
<event>
 5   0  0.9254673E-05  0.2198328E+04  0.7818609E-02  0.8519124E-01
       -2   -1    0    0    0  501  0.00000000000E+00  0.00000000000E+00  0.10703862087E+04  0.10703862087E+04  0.25500000920E-02 0. -1.
        2   -1    0    0  501    0  0.00000000000E+00  0.00000000000E+00 -0.11287155462E+04  0.11287155462E+04  0.25500000920E-02 0.  1.
    10030    2    1    2    0    0  0.00000000000E+00  0.00000000000E+00 -0.58329337556E+02  0.21991017549E+04  0.21983280503E+04 0.  0.
        2    1    3    3  502    0 -0.26062288591E+03 -0.45810067356E+03  0.93573742543E+03  0.10739576552E+04  0.25500000920E-02 0. -1.
       -2    1    3    3    0  502  0.26062288591E+03  0.45810067356E+03 -0.99406676299E+03  0.11251440997E+04  0.25500000920E-02 0.  1.
</event>
<event>
 5   0  0.4174030E-05  0.2077634E+04  0.7818609E-02  0.8571160E-01
       -1   -1    0    0    0  501  0.00000000000E+00  0.00000000000E+00  0.82585072411E+03  0.82585072412E+03  0.50400001928E-02 0. -1.
        1   -1    0    0  501    0  0.00000000000E+00  0.00000000000E+00 -0.13067023388E+04  0.13067023388E+04  0.50400001928E-02 0.  1.
    10030    2    1    2    0    0  0.00000000000E+00  0.00000000000E+00 -0.48085161473E+03  0.21325530630E+04  0.20776343016E+04 0.  0.
        2    1    3    3  502    0  0.10285772549E+03  0.29784599412E+03  0.77561311206E+03  0.83717838452E+03  0.25500000920E-02 0. -1.
       -2    1    3    3    0  502 -0.10285772549E+03 -0.29784599412E+03 -0.12564647268E+04  0.12953746785E+04  0.25500000920E-02 0.  1.
</event>
<event>
 5   0  0.4174075E-05  0.2194238E+04  0.7818609E-02  0.8520830E-01
       -1   -1    0    0    0  501  0.00000000000E+00  0.00000000000E+00  0.95460938802E+03  0.95460938803E+03  0.50400001928E-02 0.  1.
        1   -1    0    0  501    0  0.00000000000E+00  0.00000000000E+00 -0.12609034054E+04  0.12609034054E+04  0.50400001928E-02 0. -1.
    10030    2    1    2    0    0  0.00000000000E+00  0.00000000000E+00 -0.30629401734E+03  0.22155127934E+04  0.21942381167E+04 0.  0.
        5    1    3    3  502    0 -0.60209920493E+02  0.16188001430E+03  0.94078629982E+03  0.95652042607E+03  0.46999998093E+01 0.  1.
       -5    1    3    3    0  502  0.60209920493E+02 -0.16188001430E+03 -0.12470803172E+04  0.12589923673E+04  0.46999998093E+01 0. -1.
</event>
<event>
 5   0  0.9457742E-05  0.1838809E+04  0.7818609E-02  0.8685929E-01
       -2   -1    0    0    0  501  0.00000000000E+00  0.00000000000E+00  0.86187675364E+03  0.86187675364E+03  0.25500000920E-02 0.  1.
        2   -1    0    0  501    0  0.00000000000E+00  0.00000000000E+00 -0.98077182072E+03  0.98077182073E+03  0.25500000920E-02 0. -1.
    10030    2    1    2    0    0  0.00000000000E+00  0.00000000000E+00 -0.11889506708E+03  0.18426485744E+04  0.18388087806E+04 0.  0.
        1    1    3    3  502    0 -0.11048265074E+03  0.26402166248E+03 -0.93499429194E+03  0.97781807120E+03  0.50400001928E-02 0. -1.
       -1    1    3    3    0  502  0.11048265074E+03 -0.26402166248E+03  0.81609922486E+03  0.86483050317E+03  0.50400001928E-02 0.  1.
</event>
<event>
 5   0  0.9457742E-05  0.2190625E+04  0.7818609E-02  0.8522341E-01
       -2   -1    0    0    0  501  0.00000000000E+00  0.00000000000E+00  0.75582271823E+03  0.75582271823E+03  0.25500000920E-02 0.  1.
        2   -1    0    0  501    0  0.00000000000E+00  0.00000000000E+00 -0.15872888784E+04  0.15872888784E+04  0.25500000920E-02 0. -1.
    10030    2    1    2    0    0  0.00000000000E+00  0.00000000000E+00 -0.83146616018E+03  0.23431115966E+04  0.21906245636E+04 0.  0.
        1    1    3    3  502    0 -0.26998603835E+03  0.10108252177E+04 -0.76240670522E+03  0.12945748591E+04  0.50400001928E-02 0. -1.
       -1    1    3    3    0  502  0.26998603835E+03 -0.10108252177E+04 -0.69059454955E+02  0.10485367375E+04  0.50400001928E-02 0.  1.
</event>
<event>
 5   0  0.9254673E-05  0.2212717E+04  0.7818609E-02  0.8513154E-01
       -2   -1    0    0    0  501  0.00000000000E+00  0.00000000000E+00  0.53241809135E+03  0.53241809136E+03  0.25500000920E-02 0.  1.
        2   -1    0    0  501    0  0.00000000000E+00  0.00000000000E+00 -0.22989989200E+04  0.22989989200E+04  0.25500000920E-02 0. -1.
    10030    2    1    2    0    0  0.00000000000E+00  0.00000000000E+00 -0.17665808286E+04  0.28314170113E+04  0.22127165359E+04 0.  0.
        2    1    3    3  502    0 -0.87368376511E+02  0.57842768661E+03 -0.20849106647E+04  0.21654247393E+04  0.25500000920E-02 0. -1.
       -2    1    3    3    0  502  0.87368376511E+02 -0.57842768661E+03  0.31832983608E+03  0.66599227202E+03  0.25500000920E-02 0.  1.
</event>
<event>
 5   0  0.9938176E-05  0.2180930E+04  0.7818609E-02  0.8526408E-01
        2   -1    0    0  501    0  0.00000000000E+00  0.00000000000E+00  0.20113562656E+04  0.20113562656E+04  0.25500000920E-02 0.  1.
       -2   -1    0    0    0  501  0.00000000000E+00  0.00000000000E+00 -0.59120002658E+03  0.59120002658E+03  0.25500000920E-02 0. -1.
    10030    2    1    2    0    0  0.00000000000E+00  0.00000000000E+00  0.14201562390E+04  0.26025562922E+04  0.21809299647E+04 0.  0.
        5    1    3    3  502    0  0.10841024309E+04  0.95501121709E+02  0.79182946790E+03  0.13458880121E+04  0.46999998093E+01 0.  1.
       -5    1    3    3    0  502 -0.10841024309E+04 -0.95501121709E+02  0.62832677113E+03  0.12566682801E+04  0.46999998093E+01 0. -1.
</event>
<event>
 5   0  0.4133418E-05  0.2134843E+04  0.7818609E-02  0.8546048E-01
       -1   -1    0    0    0  501  0.00000000000E+00  0.00000000000E+00  0.69086457808E+03  0.69086457810E+03  0.50400001928E-02 0. -1.
        1   -1    0    0  501    0  0.00000000000E+00  0.00000000000E+00 -0.16492208202E+04  0.16492208202E+04  0.50400001928E-02 0.  1.
    10030    2    1    2    0    0  0.00000000000E+00  0.00000000000E+00 -0.95835624215E+03  0.23400853983E+04  0.21348426136E+04 0.  0.
        4    1    3    3  502    0  0.26978068351E+03  0.16056449679E+03  0.63911204201E+03  0.71205926015E+03  0.12699999809E+01 0. -1.
       -4    1    3    3    0  502 -0.26978068351E+03 -0.16056449679E+03 -0.15974682842E+04  0.16280261382E+04  0.12699999809E+01 0.  1.
</event>
<event>
 5   0  0.9457742E-05  0.2209675E+04  0.7818609E-02  0.8514412E-01
        2   -1    0    0  501    0  0.00000000000E+00  0.00000000000E+00  0.13594644909E+04  0.13594644909E+04  0.25500000920E-02 0. -1.
       -2   -1    0    0    0  501  0.00000000000E+00  0.00000000000E+00 -0.89790215626E+03  0.89790215626E+03  0.25500000920E-02 0.  1.
    10030    2    1    2    0    0  0.00000000000E+00  0.00000000000E+00  0.46156233460E+03  0.22573666471E+04  0.22096751777E+04 0.  0.
        1    1    3    3  502    0  0.45278520714E+03 -0.21029615239E+03 -0.77610133271E+03  0.92280669383E+03  0.50400001928E-02 0.  1.
       -1    1    3    3    0  502 -0.45278520714E+03  0.21029615239E+03  0.12376636673E+04  0.13345599533E+04  0.50400001928E-02 0. -1.
</event>
<event>
 5   0  0.4063293E-05  0.2333264E+04  0.7818609E-02  0.8464920E-01
        1   -1    0    0  501    0  0.00000000000E+00  0.00000000000E+00  0.19715974364E+04  0.19715974364E+04  0.50400001928E-02 0.  1.
       -1   -1    0    0    0  501  0.00000000000E+00  0.00000000000E+00 -0.69031880220E+03  0.69031880221E+03  0.50400001928E-02 0. -1.
    10030    2    1    2    0    0  0.00000000000E+00  0.00000000000E+00  0.12812786342E+04  0.26619162386E+04  0.23332644777E+04 0.  0.
        1    1    3    3  502    0  0.69514399105E+03  0.31207987953E+03  0.16484810070E+04  0.18160695609E+04  0.50400001928E-02 0.  1.
       -1    1    3    3    0  502 -0.69514399105E+03 -0.31207987953E+03 -0.36720237285E+03  0.84584667769E+03  0.50400001928E-02 0. -1.
</event>
<event>
 5   0  0.4174030E-05  0.2317175E+04  0.7818609E-02  0.8471180E-01
       -1   -1    0    0    0  501  0.00000000000E+00  0.00000000000E+00  0.93191534070E+03  0.93191534071E+03  0.50400001928E-02 0.  1.
        1   -1    0    0  501    0  0.00000000000E+00  0.00000000000E+00 -0.14403939978E+04  0.14403939978E+04  0.50400001928E-02 0. -1.
    10030    2    1    2    0    0  0.00000000000E+00  0.00000000000E+00 -0.50847865709E+03  0.23723093385E+04  0.23171752314E+04 0.  0.
        2    1    3    3  502    0  0.95318129528E+03  0.60071746943E+03  0.22202411246E+02  0.11269023945E+04  0.25500000920E-02 0.  1.
       -2    1    3    3    0  502 -0.95318129528E+03 -0.60071746943E+03 -0.53068106833E+03  0.12454069440E+04  0.25500000920E-02 0. -1.
</event>
<event>
 5   0  0.4063293E-05  0.2183906E+04  0.7818609E-02  0.8525157E-01
        1   -1    0    0  501    0  0.00000000000E+00  0.00000000000E+00  0.22879656660E+04  0.22879656661E+04  0.50400001928E-02 0. -1.
       -1   -1    0    0    0  501  0.00000000000E+00  0.00000000000E+00 -0.52114464417E+03  0.52114464419E+03  0.50400001928E-02 0.  1.
    10030    2    1    2    0    0  0.00000000000E+00  0.00000000000E+00  0.17668210219E+04  0.28091103102E+04  0.21839057241E+04 0.  0.
        1    1    3    3  502    0  0.10244801354E+04  0.64755181925E+02  0.13622935781E+04  0.17057539607E+04  0.50400001928E-02 0.  1.
       -1    1    3    3    0  502 -0.10244801354E+04 -0.64755181925E+02  0.40452744378E+03  0.11033563496E+04  0.50400001928E-02 0. -1.
</event>
<event>
 5   0  0.4174075E-05  0.1845157E+04  0.7818609E-02  0.8682647E-01
        1   -1    0    0  501    0  0.00000000000E+00  0.00000000000E+00  0.14991612702E+04  0.14991612702E+04  0.50400001928E-02 0. -1.
       -1   -1    0    0    0  501  0.00000000000E+00  0.00000000000E+00 -0.56775173597E+03  0.56775173599E+03  0.50400001928E-02 0.  1.
    10030    2    1    2    0    0  0.00000000000E+00  0.00000000000E+00  0.93140953425E+03  0.20669130062E+04  0.18451573523E+04 0.  0.
        5    1    3    3  502    0 -0.11660211081E+02 -0.28213316353E+03 -0.51814092013E+03  0.59010777456E+03  0.46999998093E+01 0.  1.
       -5    1    3    3    0  502  0.11660211081E+02  0.28213316353E+03  0.14495504544E+04  0.14768052317E+04  0.46999998093E+01 0. -1.
</event>
<event>
 5   0  0.4174030E-05  0.2062242E+04  0.7818609E-02  0.8578061E-01
       -1   -1    0    0    0  501  0.00000000000E+00  0.00000000000E+00  0.94787592163E+03  0.94787592164E+03  0.50400001928E-02 0.  1.
        1   -1    0    0  501    0  0.00000000000E+00  0.00000000000E+00 -0.11216766067E+04  0.11216766067E+04  0.50400001928E-02 0. -1.
    10030    2    1    2    0    0  0.00000000000E+00  0.00000000000E+00 -0.17380068503E+03  0.20695525283E+04  0.20622417388E+04 0.  0.
        2    1    3    3  502    0  0.39684980696E+03  0.25917618547E+03 -0.10058694083E+04  0.11119511370E+04  0.25500000920E-02 0. -1.
       -2    1    3    3    0  502 -0.39684980696E+03 -0.25917618547E+03  0.83206872329E+03  0.95760139134E+03  0.25500000920E-02 0.  1.
</event>
<event>
 5   0  0.9457742E-05  0.2214465E+04  0.7818609E-02  0.8512431E-01
        2   -1    0    0  501    0  0.00000000000E+00  0.00000000000E+00  0.21827585806E+04  0.21827585806E+04  0.25500000920E-02 0.  1.
       -2   -1    0    0    0  501  0.00000000000E+00  0.00000000000E+00 -0.56165810174E+03  0.56165810175E+03  0.25500000920E-02 0. -1.
    10030    2    1    2    0    0  0.00000000000E+00  0.00000000000E+00  0.16211004789E+04  0.27444166823E+04  0.22144652094E+04 0.  0.
        1    1    3    3  502    0  0.10169499019E+04  0.23127232450E+03  0.12714183470E+04  0.16444386896E+04  0.50400001928E-02 0.  1.
       -1    1    3    3    0  502 -0.10169499019E+04 -0.23127232450E+03  0.34968213190E+03  0.10999779927E+04  0.50400001928E-02 0. -1.
</event>
<event>
 5   0  0.9179618E-05  0.2204634E+04  0.7818609E-02  0.8516502E-01
        2   -1    0    0  501    0  0.00000000000E+00  0.00000000000E+00  0.10622219974E+04  0.10622219974E+04  0.25500000920E-02 0.  1.
       -2   -1    0    0    0  501  0.00000000000E+00  0.00000000000E+00 -0.11439257489E+04  0.11439257489E+04  0.25500000920E-02 0. -1.
    10030    2    1    2    0    0  0.00000000000E+00  0.00000000000E+00 -0.81703751447E+02  0.22061477463E+04  0.22046342952E+04 0.  0.
        3    1    3    3  502    0 -0.37566154712E+03 -0.23372323536E+03  0.96947231066E+03  0.10656569430E+04  0.10100000352E+00 0.  1.
       -3    1    3    3    0  502  0.37566154712E+03  0.23372323536E+03 -0.10511760621E+04  0.11404908033E+04  0.10100000352E+00 0. -1.
</event>
<event>
 5   0  0.4063293E-05  0.2196959E+04  0.7818609E-02  0.8519695E-01
        1   -1    0    0  501    0  0.00000000000E+00  0.00000000000E+00  0.85146659813E+03  0.85146659814E+03  0.50400001928E-02 0.  1.
       -1   -1    0    0    0  501  0.00000000000E+00  0.00000000000E+00 -0.14171519950E+04  0.14171519950E+04  0.50400001928E-02 0. -1.
    10030    2    1    2    0    0  0.00000000000E+00  0.00000000000E+00 -0.56568539688E+03  0.22686185932E+04  0.21969593426E+04 0.  0.
        1    1    3    3  502    0 -0.98902070120E+03 -0.43198913869E+03 -0.49416635545E+03  0.11870033489E+04  0.50400001928E-02 0. -1.
       -1    1    3    3    0  502  0.98902070120E+03  0.43198913869E+03 -0.71519041424E+02  0.10816152443E+04  0.50400001928E-02 0.  1.
</event>
<event>
 5   0  0.4174030E-05  0.1999362E+04  0.7818609E-02  0.8606919E-01
        1   -1    0    0  501    0  0.00000000000E+00  0.00000000000E+00  0.62448026227E+03  0.62448026229E+03  0.50400001928E-02 0. -1.
       -1   -1    0    0    0  501  0.00000000000E+00  0.00000000000E+00 -0.16003100771E+04  0.16003100771E+04  0.50400001928E-02 0.  1.
    10030    2    1    2    0    0  0.00000000000E+00  0.00000000000E+00 -0.97582981484E+03  0.22247903394E+04  0.19993619549E+04 0.  0.
        2    1    3    3  502    0 -0.95408946359E+02 -0.19218348305E+03  0.59855596733E+03  0.63585108653E+03  0.25500000920E-02 0. -1.
       -2    1    3    3    0  502  0.95408946359E+02  0.19218348305E+03 -0.15743857822E+04  0.15889392529E+04  0.25500000920E-02 0.  1.
</event>
<event>
 5   0  0.4063293E-05  0.2176230E+04  0.7818609E-02  0.8528387E-01
        1   -1    0    0  501    0  0.00000000000E+00  0.00000000000E+00  0.10760291414E+04  0.10760291414E+04  0.50400001928E-02 0.  1.
       -1   -1    0    0    0  501  0.00000000000E+00  0.00000000000E+00 -0.11003366176E+04  0.11003366176E+04  0.50400001928E-02 0. -1.
    10030    2    1    2    0    0  0.00000000000E+00  0.00000000000E+00 -0.24307476214E+02  0.21763657591E+04  0.21762300117E+04 0.  0.
        1    1    3    3  502    0 -0.56221701665E+03 -0.58593780129E+03 -0.73648006744E+03  0.10962727628E+04  0.50400001928E-02 0. -1.
       -1    1    3    3    0  502  0.56221701665E+03  0.58593780129E+03  0.71217259123E+03  0.10800929962E+04  0.50400001928E-02 0.  1.
</event>
<event>
 5   0  0.4133418E-05  0.1712430E+04  0.7818609E-02  0.8754306E-01
       -1   -1    0    0    0  501  0.00000000000E+00  0.00000000000E+00  0.59361750272E+03  0.59361750274E+03  0.50400001928E-02 0.  1.
        1   -1    0    0  501    0  0.00000000000E+00  0.00000000000E+00 -0.12349777885E+04  0.12349777885E+04  0.50400001928E-02 0. -1.
    10030    2    1    2    0    0  0.00000000000E+00  0.00000000000E+00 -0.64136028581E+03  0.18285952913E+04  0.17124303557E+04 0.  0.
        4    1    3    3  502    0  0.16140566603E+03 -0.83906669444E+03 -0.26201605912E+03  0.89372184424E+03  0.12699999809E+01 0.  1.
       -4    1    3    3    0  502 -0.16140566603E+03  0.83906669444E+03 -0.37934422669E+03  0.93487344703E+03  0.12699999809E+01 0. -1.
</event>
<event>
 5   0  0.4188865E-05  0.2201990E+04  0.7818609E-02  0.8517600E-01
       -1   -1    0    0    0  501  0.00000000000E+00  0.00000000000E+00  0.86433427844E+03  0.86433427846E+03  0.50400001928E-02 0. -1.
        1   -1    0    0  501    0  0.00000000000E+00  0.00000000000E+00 -0.14024546002E+04  0.14024546002E+04  0.50400001928E-02 0.  1.
    10030    2    1    2    0    0  0.00000000000E+00  0.00000000000E+00 -0.53812032174E+03  0.22667888786E+04  0.22019896321E+04 0.  0.
        3    1    3    3  502    0 -0.10844320379E+03  0.90340356852E+03  0.36909497837E+03  0.98190073293E+03  0.10100000352E+00 0. -1.
       -3    1    3    3    0  502  0.10844320379E+03 -0.90340356852E+03 -0.90721530011E+03  0.12848881457E+04  0.10100000352E+00 0.  1.
</event>
<event>
 5   0  0.9457742E-05  0.1832535E+04  0.7818609E-02  0.8689187E-01
       -2   -1    0    0    0  501  0.00000000000E+00  0.00000000000E+00  0.50428196677E+03  0.50428196678E+03  0.25500000920E-02 0.  1.
        2   -1    0    0  501    0  0.00000000000E+00  0.00000000000E+00 -0.16648340168E+04  0.16648340168E+04  0.25500000920E-02 0. -1.
    10030    2    1    2    0    0  0.00000000000E+00  0.00000000000E+00 -0.11605520501E+04  0.21691159836E+04  0.18325346080E+04 0.  0.
        1    1    3    3  502    0 -0.64382325444E+03  0.61631698541E+03 -0.83190197403E+03  0.12191865747E+04  0.50400001928E-02 0. -1.
       -1    1    3    3    0  502  0.64382325444E+03 -0.61631698541E+03 -0.32865007604E+03  0.94992940894E+03  0.50400001928E-02 0.  1.
</event>
<event>
 5   0  0.4174075E-05  0.2243861E+04  0.7818609E-02  0.8500391E-01
       -1   -1    0    0    0  501  0.00000000000E+00  0.00000000000E+00  0.67269072309E+03  0.67269072311E+03  0.50400001928E-02 0.  1.
        1   -1    0    0  501    0  0.00000000000E+00  0.00000000000E+00 -0.18711837461E+04  0.18711837461E+04  0.50400001928E-02 0. -1.
    10030    2    1    2    0    0  0.00000000000E+00  0.00000000000E+00 -0.11984930230E+04  0.25438744692E+04  0.22438609112E+04 0.  0.
        5    1    3    3  502    0  0.67604843200E+03 -0.77886116081E+03 -0.98565389256E+02  0.10360518405E+04  0.46999998093E+01 0.  1.
       -5    1    3    3    0  502 -0.67604843200E+03  0.77886116081E+03 -0.10999276338E+04  0.15078226287E+04  0.46999998093E+01 0. -1.
</event>
<event>
 5   0  0.9254673E-05  0.2072472E+04  0.7818609E-02  0.8573468E-01
        2   -1    0    0  501    0  0.00000000000E+00  0.00000000000E+00  0.11859049198E+04  0.11859049198E+04  0.25500000920E-02 0. -1.
       -2   -1    0    0    0  501  0.00000000000E+00  0.00000000000E+00 -0.90545592251E+03  0.90545592251E+03  0.25500000920E-02 0.  1.
    10030    2    1    2    0    0  0.00000000000E+00  0.00000000000E+00  0.28044899729E+03  0.20913608423E+04  0.20724716000E+04 0.  0.
        2    1    3    3  502    0 -0.76271551239E+02  0.63470138981E+03  0.96320748022E+03  0.11560414585E+04  0.25500000920E-02 0. -1.
       -2    1    3    3    0  502  0.76271551239E+02 -0.63470138981E+03 -0.68275848293E+03  0.93531938383E+03  0.25500000920E-02 0.  1.
</event>
<event>
 5   0  0.4133418E-05  0.2200960E+04  0.7818609E-02  0.8518029E-01
       -1   -1    0    0    0  501  0.00000000000E+00  0.00000000000E+00  0.79146422661E+03  0.79146422663E+03  0.50400001928E-02 0. -1.
        1   -1    0    0  501    0  0.00000000000E+00  0.00000000000E+00 -0.15301469344E+04  0.15301469344E+04  0.50400001928E-02 0.  1.
    10030    2    1    2    0    0  0.00000000000E+00  0.00000000000E+00 -0.73868270774E+03  0.23216111610E+04  0.22009602995E+04 0.  0.
        4    1    3    3  502    0  0.27423695884E+03  0.88699997168E+03 -0.99255910130E+03  0.13590989816E+04  0.12699999809E+01 0.  1.
       -4    1    3    3    0  502 -0.27423695884E+03 -0.88699997168E+03  0.25387639356E+03  0.96251217938E+03  0.12699999809E+01 0. -1.
</event>
<event>
 5   0  0.9179618E-05  0.1941942E+04  0.7818609E-02  0.8634256E-01
       -2   -1    0    0    0  501  0.00000000000E+00  0.00000000000E+00  0.75880294142E+03  0.75880294142E+03  0.25500000920E-02 0. -1.
        2   -1    0    0  501    0  0.00000000000E+00  0.00000000000E+00 -0.12424629801E+04  0.12424629801E+04  0.25500000920E-02 0.  1.
    10030    2    1    2    0    0  0.00000000000E+00  0.00000000000E+00 -0.48366003865E+03  0.20012659215E+04  0.19419418775E+04 0.  0.
        3    1    3    3  502    0  0.46807656295E+03  0.33760470694E+03  0.56286428084E+03  0.80615681835E+03  0.10100000352E+00 0. -1.
       -3    1    3    3    0  502 -0.46807656295E+03 -0.33760470694E+03 -0.10465243195E+04  0.11951091031E+04  0.10100000352E+00 0.  1.
</event>
<event>
 5   0  0.4063293E-05  0.2204634E+04  0.7818609E-02  0.8516502E-01
       -1   -1    0    0    0  501  0.00000000000E+00  0.00000000000E+00  0.61991768073E+03  0.61991768075E+03  0.50400001928E-02 0. -1.
        1   -1    0    0  501    0  0.00000000000E+00  0.00000000000E+00 -0.19601032965E+04  0.19601032965E+04  0.50400001928E-02 0.  1.
    10030    2    1    2    0    0  0.00000000000E+00  0.00000000000E+00 -0.13401856158E+04  0.25800209772E+04  0.22046339284E+04 0.  0.
        1    1    3    3  502    0 -0.31842753416E+03  0.54791138700E+03 -0.17256103386E+04  0.18382965004E+04  0.50400001928E-02 0.  1.
       -1    1    3    3    0  502  0.31842753416E+03 -0.54791138700E+03  0.38542472288E+03  0.74172447685E+03  0.50400001928E-02 0. -1.
</event>
<event>
 5   0  0.9179618E-05  0.2167979E+04  0.7818609E-02  0.8531875E-01
        2   -1    0    0  501    0  0.00000000000E+00  0.00000000000E+00  0.14664451956E+04  0.14664451956E+04  0.25500000920E-02 0. -1.
       -2   -1    0    0    0  501  0.00000000000E+00  0.00000000000E+00 -0.80128013872E+03  0.80128013873E+03  0.25500000920E-02 0.  1.
    10030    2    1    2    0    0  0.00000000000E+00  0.00000000000E+00  0.66516505692E+03  0.22677253344E+04  0.21679791602E+04 0.  0.
        3    1    3    3  502    0 -0.23136524012E+02 -0.98938621175E+03  0.79521299845E+03  0.12695605924E+04  0.10100000352E+00 0. -1.
       -3    1    3    3    0  502  0.23136524012E+02  0.98938621175E+03 -0.13004794154E+03  0.99816474194E+03  0.10100000352E+00 0.  1.
</event>
<event>
 5   0  0.4188865E-05  0.2180291E+04  0.7818609E-02  0.8526677E-01
        1   -1    0    0  501    0  0.00000000000E+00  0.00000000000E+00  0.13705180934E+04  0.13705180934E+04  0.50400001928E-02 0.  1.
       -1   -1    0    0    0  501  0.00000000000E+00  0.00000000000E+00 -0.86712973320E+03  0.86712973322E+03  0.50400001928E-02 0. -1.
    10030    2    1    2    0    0  0.00000000000E+00  0.00000000000E+00  0.50338836024E+03  0.22376478267E+04  0.21802907960E+04 0.  0.
        3    1    3    3  502    0  0.24155833591E+03 -0.10630314554E+04  0.24601008883E+03  0.11175452021E+04  0.10100000352E+00 0. -1.
       -3    1    3    3    0  502 -0.24155833591E+03  0.10630314554E+04  0.25737827141E+03  0.11201026246E+04  0.10100000352E+00 0.  1.
</event>
<event>
 5   0  0.4174075E-05  0.2137193E+04  0.7818609E-02  0.8545034E-01
       -1   -1    0    0    0  501  0.00000000000E+00  0.00000000000E+00  0.99067699520E+03  0.99067699521E+03  0.50400001928E-02 0.  1.
        1   -1    0    0  501    0  0.00000000000E+00  0.00000000000E+00 -0.11526444685E+04  0.11526444685E+04  0.50400001928E-02 0. -1.
    10030    2    1    2    0    0  0.00000000000E+00  0.00000000000E+00 -0.16196747333E+03  0.21433214638E+04  0.21371928866E+04 0.  0.
        5    1    3    3  502    0 -0.37540115266E+03  0.85106897514E+01  0.92232391368E+03  0.99584233140E+03  0.46999998093E+01 0.  1.
       -5    1    3    3    0  502  0.37540115266E+03 -0.85106897514E+01 -0.10842913870E+04  0.11474791324E+04  0.46999998093E+01 0. -1.
</event>
<event>
 5   0  0.4188865E-05  0.2243203E+04  0.7818609E-02  0.8500658E-01
        1   -1    0    0  501    0  0.00000000000E+00  0.00000000000E+00  0.70041481558E+03  0.70041481560E+03  0.50400001928E-02 0. -1.
       -1   -1    0    0    0  501  0.00000000000E+00  0.00000000000E+00 -0.17960635590E+04  0.17960635590E+04  0.50400001928E-02 0.  1.
    10030    2    1    2    0    0  0.00000000000E+00  0.00000000000E+00 -0.10956487434E+04  0.24964783746E+04  0.22432026449E+04 0.  0.
        3    1    3    3  502    0  0.21646013777E+02  0.46227572897E+03  0.58920726156E+03  0.74922133364E+03  0.10100000352E+00 0. -1.
       -3    1    3    3    0  502 -0.21646013777E+02 -0.46227572897E+03 -0.16848560050E+04  0.17472570410E+04  0.10100000352E+00 0.  1.
</event>
<event>
 5   0  0.9938176E-05  0.2182526E+04  0.7818609E-02  0.8525737E-01
       -2   -1    0    0    0  501  0.00000000000E+00  0.00000000000E+00  0.74553981588E+03  0.74553981588E+03  0.25500000920E-02 0. -1.
        2   -1    0    0  501    0  0.00000000000E+00  0.00000000000E+00 -0.15973050506E+04  0.15973050506E+04  0.25500000920E-02 0.  1.
    10030    2    1    2    0    0  0.00000000000E+00  0.00000000000E+00 -0.85176523474E+03  0.23428448665E+04  0.21825256135E+04 0.  0.
        5    1    3    3  502    0  0.58545837656E+03 -0.87131997903E+03 -0.74589564160E+03  0.12877664442E+04  0.46999998093E+01 0.  1.
       -5    1    3    3    0  502 -0.58545837656E+03  0.87131997903E+03 -0.10586959314E+03  0.10550784223E+04  0.46999998093E+01 0. -1.
</event>
<event>
 5   0  0.9457742E-05  0.2161746E+04  0.7818609E-02  0.8534521E-01
        2   -1    0    0  501    0  0.00000000000E+00  0.00000000000E+00  0.16553917482E+04  0.16553917482E+04  0.25500000920E-02 0.  1.
       -2   -1    0    0    0  501  0.00000000000E+00  0.00000000000E+00 -0.70574613982E+03  0.70574613982E+03  0.25500000920E-02 0. -1.
    10030    2    1    2    0    0  0.00000000000E+00  0.00000000000E+00  0.94964560834E+03  0.23611378880E+04  0.21617459019E+04 0.  0.
        1    1    3    3  502    0  0.74803506123E+03  0.38901947932E+03 -0.26386649597E+03  0.88346937459E+03  0.50400001928E-02 0. -1.
       -1    1    3    3    0  502 -0.74803506123E+03 -0.38901947932E+03  0.12135121043E+04  0.14776685134E+04  0.50400001928E-02 0.  1.
</event>
<event>
 5   0  0.9457742E-05  0.2010013E+04  0.7818609E-02  0.8601953E-01
       -2   -1    0    0    0  501  0.00000000000E+00  0.00000000000E+00  0.72524959875E+03  0.72524959876E+03  0.25500000920E-02 0.  1.
        2   -1    0    0  501    0  0.00000000000E+00  0.00000000000E+00 -0.13926768654E+04  0.13926768654E+04  0.25500000920E-02 0. -1.
    10030    2    1    2    0    0  0.00000000000E+00  0.00000000000E+00 -0.66742726664E+03  0.21179264642E+04  0.20100132714E+04 0.  0.
        1    1    3    3  502    0 -0.94690893968E+02  0.35527458905E+03  0.65183765822E+03  0.74838408035E+03  0.50400001928E-02 0.  1.
       -1    1    3    3    0  502  0.94690893968E+02 -0.35527458905E+03 -0.13192649249E+04  0.13695423838E+04  0.50400001928E-02 0. -1.
</event>
<event>
 5   0  0.4174030E-05  0.2217800E+04  0.7818609E-02  0.8511056E-01
        1   -1    0    0  501    0  0.00000000000E+00  0.00000000000E+00  0.21813449088E+04  0.21813449088E+04  0.50400001928E-02 0.  1.
       -1   -1    0    0    0  501  0.00000000000E+00  0.00000000000E+00 -0.56371590509E+03  0.56371590512E+03  0.50400001928E-02 0. -1.
    10030    2    1    2    0    0  0.00000000000E+00  0.00000000000E+00  0.16176290037E+04  0.27450608139E+04  0.22177996480E+04 0.  0.
        2    1    3    3  502    0  0.93722244811E+02 -0.21231462632E+03 -0.53331962316E+03  0.58162804280E+03  0.25500000920E-02 0. -1.
       -2    1    3    3    0  502 -0.93722244811E+02  0.21231462632E+03  0.21509486269E+04  0.21634327711E+04  0.25500000920E-02 0.  1.
</event>
<event>
 5   0  0.4174030E-05  0.2212815E+04  0.7818609E-02  0.8513113E-01
       -1   -1    0    0    0  501  0.00000000000E+00  0.00000000000E+00  0.15967887178E+04  0.15967887178E+04  0.50400001928E-02 0. -1.
        1   -1    0    0  501    0  0.00000000000E+00  0.00000000000E+00 -0.76662445946E+03  0.76662445947E+03  0.50400001928E-02 0.  1.
    10030    2    1    2    0    0  0.00000000000E+00  0.00000000000E+00  0.83016425836E+03  0.23634131773E+04  0.22128147575E+04 0.  0.
        2    1    3    3  502    0 -0.49831961686E+03 -0.50394671610E+03  0.13225240583E+04  0.15004514714E+04  0.25500000920E-02 0. -1.
       -2    1    3    3    0  502  0.49831961686E+03  0.50394671610E+03 -0.49235979996E+03  0.86296170589E+03  0.25500000920E-02 0.  1.
</event>
<event>
 5   0  0.9254673E-05  0.2182986E+04  0.7818609E-02  0.8525543E-01
        2   -1    0    0  501    0  0.00000000000E+00  0.00000000000E+00  0.10639513322E+04  0.10639513322E+04  0.25500000920E-02 0.  1.
       -2   -1    0    0    0  501  0.00000000000E+00  0.00000000000E+00 -0.11197471080E+04  0.11197471080E+04  0.25500000920E-02 0. -1.
    10030    2    1    2    0    0  0.00000000000E+00  0.00000000000E+00 -0.55795775818E+02  0.21836984403E+04  0.21829855037E+04 0.  0.
        2    1    3    3  502    0 -0.79649803892E+03 -0.44626332173E+03 -0.62625404528E+03  0.11071378449E+04  0.25500000920E-02 0. -1.
       -2    1    3    3    0  502  0.79649803892E+03  0.44626332173E+03  0.57045826946E+03  0.10765605954E+04  0.25500000920E-02 0.  1.
</event>
<event>
 5   0  0.4174075E-05  0.2160221E+04  0.7818609E-02  0.8535170E-01
        1   -1    0    0  501    0  0.00000000000E+00  0.00000000000E+00  0.10678645978E+04  0.10678645978E+04  0.50400001928E-02 0. -1.
       -1   -1    0    0    0  501  0.00000000000E+00  0.00000000000E+00 -0.10924971283E+04  0.10924971283E+04  0.50400001928E-02 0.  1.
    10030    2    1    2    0    0  0.00000000000E+00  0.00000000000E+00 -0.24632530485E+02  0.21603617262E+04  0.21602212911E+04 0.  0.
        5    1    3    3  502    0 -0.59485804415E+03  0.46801100349E+03 -0.78290287482E+03  0.10889671223E+04  0.46999998093E+01 0.  1.
       -5    1    3    3    0  502  0.59485804415E+03 -0.46801100349E+03  0.75827034434E+03  0.10713946039E+04  0.46999998093E+01 0. -1.
</event>
<event>
 5   0  0.4133418E-05  0.2205467E+04  0.7818609E-02  0.8516156E-01
       -1   -1    0    0    0  501  0.00000000000E+00  0.00000000000E+00  0.79136259514E+03  0.79136259516E+03  0.50400001928E-02 0. -1.
        1   -1    0    0  501    0  0.00000000000E+00  0.00000000000E+00 -0.15366173554E+04  0.15366173554E+04  0.50400001928E-02 0.  1.
    10030    2    1    2    0    0  0.00000000000E+00  0.00000000000E+00 -0.74525476022E+03  0.23279799505E+04  0.22054672957E+04 0.  0.
        4    1    3    3  502    0 -0.51346342708E+03  0.55109322246E+03  0.47751370871E+03  0.89183484216E+03  0.12699999809E+01 0. -1.
       -4    1    3    3    0  502  0.51346342708E+03 -0.55109322246E+03 -0.12227684689E+04  0.14361451084E+04  0.12699999809E+01 0.  1.
</event>
<event>
 5   0  0.4188865E-05  0.2225079E+04  0.7818609E-02  0.8508061E-01
       -1   -1    0    0    0  501  0.00000000000E+00  0.00000000000E+00  0.17360518222E+04  0.17360518222E+04  0.50400001928E-02 0. -1.
        1   -1    0    0  501    0  0.00000000000E+00  0.00000000000E+00 -0.71296526683E+03  0.71296526685E+03  0.50400001928E-02 0.  1.
    10030    2    1    2    0    0  0.00000000000E+00  0.00000000000E+00  0.10230865553E+04  0.24490170890E+04  0.22250794598E+04 0.  0.
        3    1    3    3  502    0  0.14481738573E+03 -0.11028598335E+04  0.48761213934E+03  0.12145112170E+04  0.10100000352E+00 0. -1.
       -3    1    3    3    0  502 -0.14481738573E+03  0.11028598335E+04  0.53547441600E+03  0.12345058720E+04  0.10100000352E+00 0.  1.
</event>
<event>
 5   0  0.4174075E-05  0.2132772E+04  0.7818609E-02  0.8546943E-01
       -1   -1    0    0    0  501  0.00000000000E+00  0.00000000000E+00  0.65217824558E+03  0.65217824560E+03  0.50400001928E-02 0. -1.
        1   -1    0    0  501    0  0.00000000000E+00  0.00000000000E+00 -0.17436636906E+04  0.17436636906E+04  0.50400001928E-02 0.  1.
    10030    2    1    2    0    0  0.00000000000E+00  0.00000000000E+00 -0.10914854450E+04  0.23958419362E+04  0.21327723991E+04 0.  0.
        5    1    3    3  502    0  0.76531701931E+03 -0.44284927990E+03  0.12388079189E+03  0.89285730403E+03  0.46999998093E+01 0. -1.
       -5    1    3    3    0  502 -0.76531701931E+03  0.44284927990E+03 -0.12153662369E+04  0.15029846322E+04  0.46999998093E+01 0.  1.
</event>
<event>
 5   0  0.9254673E-05  0.2243743E+04  0.7818609E-02  0.8500439E-01
        2   -1    0    0  501    0  0.00000000000E+00  0.00000000000E+00  0.30597861676E+04  0.30597861676E+04  0.25500000920E-02 0. -1.
       -2   -1    0    0    0  501  0.00000000000E+00  0.00000000000E+00 -0.41133446041E+03  0.41133446042E+03  0.25500000920E-02 0.  1.
    10030    2    1    2    0    0  0.00000000000E+00  0.00000000000E+00  0.26484517072E+04  0.34711206280E+04  0.22437428482E+04 0.  0.
        2    1    3    3  502    0 -0.81324862169E+03  0.75849800904E+03  0.15531796503E+04  0.19102511815E+04  0.25500000920E-02 0. -1.
       -2    1    3    3    0  502  0.81324862169E+03 -0.75849800904E+03  0.10952720569E+04  0.15608694465E+04  0.25500000920E-02 0.  1.
</event>
<event>
 5   0  0.9254673E-05  0.2212785E+04  0.7818609E-02  0.8513125E-01
        2   -1    0    0  501    0  0.00000000000E+00  0.00000000000E+00  0.14053952482E+04  0.14053952482E+04  0.25500000920E-02 0. -1.
       -2   -1    0    0    0  501  0.00000000000E+00  0.00000000000E+00 -0.87100375689E+03  0.87100375690E+03  0.25500000920E-02 0.  1.
    10030    2    1    2    0    0  0.00000000000E+00  0.00000000000E+00  0.53439149127E+03  0.22763990051E+04  0.22127851600E+04 0.  0.
        2    1    3    3  502    0  0.32461243162E+03 -0.53793561531E+03  0.12040667227E+04  0.13581327732E+04  0.25500000920E-02 0. -1.
       -2    1    3    3    0  502 -0.32461243162E+03  0.53793561531E+03 -0.66967523142E+03  0.91826623185E+03  0.25500000920E-02 0.  1.
</event>
<event>
 5   0  0.4133418E-05  0.1627213E+04  0.7818609E-02  0.8804002E-01
        1   -1    0    0  501    0  0.00000000000E+00  0.00000000000E+00  0.11028288914E+04  0.11028288914E+04  0.50400001928E-02 0. -1.
       -1   -1    0    0    0  501  0.00000000000E+00  0.00000000000E+00 -0.60023413237E+03  0.60023413239E+03  0.50400001928E-02 0.  1.
    10030    2    1    2    0    0  0.00000000000E+00  0.00000000000E+00  0.50259475907E+03  0.17030630238E+04  0.16272130074E+04 0.  0.
        4    1    3    3  502    0  0.61876076560E+03  0.27995282513E+03 -0.21759883413E+03  0.71315449578E+03  0.12699999809E+01 0. -1.
       -4    1    3    3    0  502 -0.61876076560E+03 -0.27995282513E+03  0.72019359319E+03  0.98990852806E+03  0.12699999809E+01 0.  1.
</event>
<event>
 5   0  0.4063293E-05  0.2183504E+04  0.7818609E-02  0.8525326E-01
        1   -1    0    0  501    0  0.00000000000E+00  0.00000000000E+00  0.13332790683E+04  0.13332790684E+04  0.50400001928E-02 0.  1.
       -1   -1    0    0    0  501  0.00000000000E+00  0.00000000000E+00 -0.89397825667E+03  0.89397825668E+03  0.50400001928E-02 0. -1.
    10030    2    1    2    0    0  0.00000000000E+00  0.00000000000E+00  0.43930081168E+03  0.22272573250E+04  0.21835040620E+04 0.  0.
        1    1    3    3  502    0  0.10785101550E+04  0.44196338665E+02  0.52709628890E+02  0.10807015202E+04  0.50400001928E-02 0. -1.
       -1    1    3    3    0  502 -0.10785101550E+04 -0.44196338665E+02  0.38659118279E+03  0.11465558048E+04  0.50400001928E-02 0.  1.
</event>
<event>
 5   0  0.4063293E-05  0.2250953E+04  0.7818609E-02  0.8497515E-01
       -1   -1    0    0    0  501  0.00000000000E+00  0.00000000000E+00  0.12382864905E+04  0.12382864905E+04  0.50400001928E-02 0.  1.
        1   -1    0    0  501    0  0.00000000000E+00  0.00000000000E+00 -0.10229434398E+04  0.10229434398E+04  0.50400001928E-02 0. -1.
    10030    2    1    2    0    0  0.00000000000E+00  0.00000000000E+00  0.21534305069E+03  0.22612299303E+04  0.22509527246E+04 0.  0.
        1    1    3    3  502    0 -0.58860404300E+03  0.85983569190E+03  0.53496624767E+03  0.11713073989E+04  0.50400001928E-02 0.  1.
       -1    1    3    3    0  502  0.58860404300E+03 -0.85983569190E+03 -0.31962319698E+03  0.10899225315E+04  0.50400001928E-02 0. -1.
</event>
<event>
 5   0  0.4174075E-05  0.2343303E+04  0.7818609E-02  0.8461040E-01
        1   -1    0    0  501    0  0.00000000000E+00  0.00000000000E+00  0.21413762936E+04  0.21413762936E+04  0.50400001928E-02 0. -1.
       -1   -1    0    0    0  501  0.00000000000E+00  0.00000000000E+00 -0.64106786950E+03  0.64106786952E+03  0.50400001928E-02 0.  1.
    10030    2    1    2    0    0  0.00000000000E+00  0.00000000000E+00  0.15003084241E+04  0.27824441631E+04  0.23433032568E+04 0.  0.
        5    1    3    3  502    0  0.98105884300E+02 -0.75490132815E+03  0.18077057537E+04  0.19614593959E+04  0.46999998093E+01 0. -1.
       -5    1    3    3    0  502 -0.98105884300E+02  0.75490132815E+03 -0.30739732961E+03  0.82098476723E+03  0.46999998093E+01 0.  1.
</event>
<event>
 5   0  0.9457742E-05  0.2253160E+04  0.7818609E-02  0.8496622E-01
        2   -1    0    0  501    0  0.00000000000E+00  0.00000000000E+00  0.10445189540E+04  0.10445189540E+04  0.25500000920E-02 0. -1.
       -2   -1    0    0    0  501  0.00000000000E+00  0.00000000000E+00 -0.12150885179E+04  0.12150885179E+04  0.25500000920E-02 0.  1.
    10030    2    1    2    0    0  0.00000000000E+00  0.00000000000E+00 -0.17056956393E+03  0.22596074719E+04  0.22531604362E+04 0.  0.
        1    1    3    3  502    0 -0.95814027262E+03 -0.35664043548E+02 -0.67848237195E+03  0.11745820683E+04  0.50400001928E-02 0.  1.
       -1    1    3    3    0  502  0.95814027262E+03  0.35664043548E+02  0.50791280802E+03  0.10850254037E+04  0.50400001928E-02 0. -1.
</event>
<event>
 5   0  0.9179618E-05  0.2117159E+04  0.7818609E-02  0.8553722E-01
        2   -1    0    0  501    0  0.00000000000E+00  0.00000000000E+00  0.14403967185E+04  0.14403967185E+04  0.25500000920E-02 0. -1.
       -2   -1    0    0    0  501  0.00000000000E+00  0.00000000000E+00 -0.77797383501E+03  0.77797383501E+03  0.25500000920E-02 0.  1.
    10030    2    1    2    0    0  0.00000000000E+00  0.00000000000E+00  0.66242288352E+03  0.22183705535E+04  0.21171593790E+04 0.  0.
        3    1    3    3  502    0  0.62937611208E+03 -0.84752541350E+03  0.24885814192E+03  0.10845939341E+04  0.10100000352E+00 0. -1.
       -3    1    3    3    0  502 -0.62937611208E+03  0.84752541350E+03  0.41356474160E+03  0.11337766194E+04  0.10100000352E+00 0.  1.
</event>
<event>
 5   0  0.9457742E-05  0.2125910E+04  0.7818609E-02  0.8549915E-01
        2   -1    0    0  501    0  0.00000000000E+00  0.00000000000E+00  0.22084404418E+04  0.22084404418E+04  0.25500000920E-02 0.  1.
       -2   -1    0    0    0  501  0.00000000000E+00  0.00000000000E+00 -0.51161602037E+03  0.51161602037E+03  0.25500000920E-02 0. -1.
    10030    2    1    2    0    0  0.00000000000E+00  0.00000000000E+00  0.16968244215E+04  0.27200564622E+04  0.21259101675E+04 0.  0.
        1    1    3    3  502    0 -0.12688769437E+03 -0.22355078414E+03 -0.47124947886E+03  0.53679745847E+03  0.50400001928E-02 0. -1.
       -1    1    3    3    0  502  0.12688769437E+03  0.22355078414E+03  0.21680739003E+04  0.21832590037E+04  0.50400001928E-02 0.  1.
</event>
<event>
 5   0  0.9179618E-05  0.2187974E+04  0.7818609E-02  0.8523450E-01
       -2   -1    0    0    0  501  0.00000000000E+00  0.00000000000E+00  0.62550243590E+03  0.62550243590E+03  0.25500000920E-02 0.  1.
        2   -1    0    0  501    0  0.00000000000E+00  0.00000000000E+00 -0.19133541323E+04  0.19133541323E+04  0.25500000920E-02 0. -1.
    10030    2    1    2    0    0  0.00000000000E+00  0.00000000000E+00 -0.12878516964E+04  0.25388565682E+04  0.21879741045E+04 0.  0.
        3    1    3    3  502    0  0.10522868674E+04  0.27961091639E+03 -0.52048015883E+03  0.12068096461E+04  0.10100000352E+00 0.  1.
       -3    1    3    3    0  502 -0.10522868674E+04 -0.27961091639E+03 -0.76737153754E+03  0.13320469221E+04  0.10100000352E+00 0. -1.
</event>
<event>
 5   0  0.9938176E-05  0.1636772E+04  0.7818609E-02  0.8798271E-01
       -2   -1    0    0    0  501  0.00000000000E+00  0.00000000000E+00  0.11590081676E+04  0.11590081676E+04  0.25500000920E-02 0.  1.
        2   -1    0    0  501    0  0.00000000000E+00  0.00000000000E+00 -0.57786981859E+03  0.57786981859E+03  0.25500000920E-02 0. -1.
    10030    2    1    2    0    0  0.00000000000E+00  0.00000000000E+00  0.58113834900E+03  0.17368779862E+04  0.16367722377E+04 0.  0.
        5    1    3    3  502    0  0.23564176911E+03 -0.78324904675E+03  0.31919370943E+03  0.87801641598E+03  0.46999998093E+01 0. -1.
       -5    1    3    3    0  502 -0.23564176911E+03  0.78324904675E+03  0.26194463957E+03  0.85886157021E+03  0.46999998093E+01 0.  1.
</event>
<event>
 5   0  0.4174030E-05  0.2180461E+04  0.7818609E-02  0.8526605E-01
        1   -1    0    0  501    0  0.00000000000E+00  0.00000000000E+00  0.10351353327E+04  0.10351353327E+04  0.50400001928E-02 0.  1.
       -1   -1    0    0    0  501  0.00000000000E+00  0.00000000000E+00 -0.11482583664E+04  0.11482583664E+04  0.50400001928E-02 0. -1.
    10030    2    1    2    0    0  0.00000000000E+00  0.00000000000E+00 -0.11312303377E+03  0.21833936991E+04  0.21804612412E+04 0.  0.
        2    1    3    3  502    0  0.64854883920E+03  0.91966560373E+02  0.81612037588E+03  0.10464826386E+04  0.25500000920E-02 0.  1.
       -2    1    3    3    0  502 -0.64854883920E+03 -0.91966560373E+02 -0.92924340965E+03  0.11369110605E+04  0.25500000920E-02 0. -1.
</event>
<event>
 5   0  0.4188865E-05  0.2089384E+04  0.7818609E-02  0.8565934E-01
       -1   -1    0    0    0  501  0.00000000000E+00  0.00000000000E+00  0.10893402433E+04  0.10893402433E+04  0.50400001928E-02 0.  1.
        1   -1    0    0  501    0  0.00000000000E+00  0.00000000000E+00 -0.10018734827E+04  0.10018734827E+04  0.50400001928E-02 0. -1.
    10030    2    1    2    0    0  0.00000000000E+00  0.00000000000E+00  0.87466760638E+02  0.20912137260E+04  0.20893837402E+04 0.  0.
        3    1    3    3  502    0 -0.82850274794E+03 -0.59795694818E+03 -0.17419978725E+03  0.10364916263E+04  0.10100000352E+00 0. -1.
       -3    1    3    3    0  502  0.82850274794E+03  0.59795694818E+03  0.26166654789E+03  0.10547220998E+04  0.10100000352E+00 0.  1.
</event>
<event>
 5   0  0.9457742E-05  0.1983321E+04  0.7818609E-02  0.8614459E-01
       -2   -1    0    0    0  501  0.00000000000E+00  0.00000000000E+00  0.78922067587E+03  0.78922067587E+03  0.25500000920E-02 0. -1.
        2   -1    0    0  501    0  0.00000000000E+00  0.00000000000E+00 -0.12460271923E+04  0.12460271923E+04  0.25500000920E-02 0.  1.
    10030    2    1    2    0    0  0.00000000000E+00  0.00000000000E+00 -0.45680651639E+03  0.20352478681E+04  0.19833208745E+04 0.  0.
        1    1    3    3  502    0  0.54270866858E+03 -0.68038338783E+02  0.62043492697E+03  0.82710423354E+03  0.50400001928E-02 0. -1.
       -1    1    3    3    0  502 -0.54270866858E+03  0.68038338783E+02 -0.10772414434E+04  0.12081436346E+04  0.50400001928E-02 0.  1.
</event>
<event>
 5   0  0.4188865E-05  0.2282341E+04  0.7818609E-02  0.8484916E-01
       -1   -1    0    0    0  501  0.00000000000E+00  0.00000000000E+00  0.11646547326E+04  0.11646547326E+04  0.50400001928E-02 0.  1.
        1   -1    0    0  501    0  0.00000000000E+00  0.00000000000E+00 -0.11181599327E+04  0.11181599327E+04  0.50400001928E-02 0. -1.
    10030    2    1    2    0    0  0.00000000000E+00  0.00000000000E+00  0.46494799854E+02  0.22828146653E+04  0.22823411291E+04 0.  0.
        3    1    3    3  502    0 -0.67875133364E+03 -0.16300464389E+02 -0.89416761456E+03  0.11227220543E+04  0.10100000352E+00 0. -1.
       -3    1    3    3    0  502  0.67875133364E+03  0.16300464389E+02  0.94066241441E+03  0.11600926110E+04  0.10100000352E+00 0.  1.
</event>
<event>
 5   0  0.4174030E-05  0.2200450E+04  0.7818609E-02  0.8518241E-01
       -1   -1    0    0    0  501  0.00000000000E+00  0.00000000000E+00  0.11654900446E+04  0.11654900446E+04  0.50400001928E-02 0. -1.
        1   -1    0    0  501    0  0.00000000000E+00  0.00000000000E+00 -0.10386149753E+04  0.10386149753E+04  0.50400001928E-02 0.  1.
    10030    2    1    2    0    0  0.00000000000E+00  0.00000000000E+00  0.12687506927E+03  0.22041050200E+04  0.22004503302E+04 0.  0.
        2    1    3    3  502    0  0.63292937129E+03 -0.35584935531E+03  0.89141011801E+03  0.11497131604E+04  0.25500000920E-02 0. -1.
       -2    1    3    3    0  502 -0.63292937129E+03  0.35584935531E+03 -0.76453504873E+03  0.10543918595E+04  0.25500000920E-02 0.  1.
</event>
<event>
 5   0  0.4133418E-05  0.2221421E+04  0.7818609E-02  0.8509565E-01
       -1   -1    0    0    0  501  0.00000000000E+00  0.00000000000E+00  0.58432801311E+03  0.58432801313E+03  0.50400001928E-02 0. -1.
        1   -1    0    0  501    0  0.00000000000E+00  0.00000000000E+00 -0.21112762061E+04  0.21112762061E+04  0.50400001928E-02 0.  1.
    10030    2    1    2    0    0  0.00000000000E+00  0.00000000000E+00 -0.15269481930E+04  0.26956042192E+04  0.22214210143E+04 0.  0.
        4    1    3    3  502    0  0.40010499233E+03 -0.23405323046E+02 -0.20204706836E+04  0.20598386369E+04  0.12699999809E+01 0.  1.
       -4    1    3    3    0  502 -0.40010499233E+03  0.23405323046E+02  0.49352249059E+03  0.63576558231E+03  0.12699999809E+01 0. -1.
</event>
<event>
 5   0  0.9442578E-05  0.2186142E+04  0.7818609E-02  0.8524219E-01
       -2   -1    0    0    0  501  0.00000000000E+00  0.00000000000E+00  0.77366243414E+03  0.77366243415E+03  0.25500000920E-02 0. -1.
        2   -1    0    0  501    0  0.00000000000E+00  0.00000000000E+00 -0.15443475901E+04  0.15443475901E+04  0.25500000920E-02 0.  1.
    10030    2    1    2    0    0  0.00000000000E+00  0.00000000000E+00 -0.77068515598E+03  0.23180100243E+04  0.21861415469E+04 0.  0.
        4    1    3    3  502    0  0.28238463577E+03 -0.21893662114E+03  0.70998808084E+03  0.79483269587E+03  0.12699999809E+01 0. -1.
       -4    1    3    3    0  502 -0.28238463577E+03  0.21893662114E+03 -0.14806732368E+04  0.15231773284E+04  0.12699999809E+01 0.  1.
</event>
<event>
 5   0  0.4174075E-05  0.2157836E+04  0.7818609E-02  0.8536185E-01
        1   -1    0    0  501    0  0.00000000000E+00  0.00000000000E+00  0.13023218066E+04  0.13023218066E+04  0.50400001928E-02 0. -1.
       -1   -1    0    0    0  501  0.00000000000E+00  0.00000000000E+00 -0.89383770676E+03  0.89383770678E+03  0.50400001928E-02 0.  1.
    10030    2    1    2    0    0  0.00000000000E+00  0.00000000000E+00  0.40848409982E+03  0.21961595134E+04  0.21578362654E+04 0.  0.
        5    1    3    3  502    0  0.40926636901E+03  0.66583641925E+03 -0.55274508751E+03  0.95728069017E+03  0.46999998093E+01 0.  1.
       -5    1    3    3    0  502 -0.40926636901E+03 -0.66583641925E+03  0.96122918734E+03  0.12388788232E+04  0.46999998093E+01 0. -1.
</event>
<event>
 5   0  0.4174075E-05  0.2197227E+04  0.7818609E-02  0.8519583E-01
        1   -1    0    0  501    0  0.00000000000E+00  0.00000000000E+00  0.98705052589E+03  0.98705052590E+03  0.50400001928E-02 0. -1.
       -1   -1    0    0    0  501  0.00000000000E+00  0.00000000000E+00 -0.12227863511E+04  0.12227863511E+04  0.50400001928E-02 0.  1.
    10030    2    1    2    0    0  0.00000000000E+00  0.00000000000E+00 -0.23573582521E+03  0.22098368770E+04  0.21972272626E+04 0.  0.
        5    1    3    3  502    0  0.10215848066E+04 -0.35007243186E+03  0.85140912705E+02  0.10832623364E+04  0.46999998093E+01 0. -1.
       -5    1    3    3    0  502 -0.10215848066E+04  0.35007243186E+03 -0.32087673792E+03  0.11265745406E+04  0.46999998093E+01 0.  1.
</event>
<event>
 5   0  0.4174075E-05  0.2190382E+04  0.7818609E-02  0.8522442E-01
        1   -1    0    0  501    0  0.00000000000E+00  0.00000000000E+00  0.87097049025E+03  0.87097049027E+03  0.50400001928E-02 0. -1.
       -1   -1    0    0    0  501  0.00000000000E+00  0.00000000000E+00 -0.13771337996E+04  0.13771337996E+04  0.50400001928E-02 0.  1.
    10030    2    1    2    0    0  0.00000000000E+00  0.00000000000E+00 -0.50616330935E+03  0.22481042899E+04  0.21903816111E+04 0.  0.
        5    1    3    3  502    0 -0.82999384040E+03  0.59989355462E+03  0.14529498310E+03  0.10343571792E+04  0.46999998093E+01 0. -1.
       -5    1    3    3    0  502  0.82999384040E+03 -0.59989355462E+03 -0.65145829245E+03  0.12137471107E+04  0.46999998093E+01 0.  1.
</event>
<event>
 5   0  0.9938176E-05  0.2180769E+04  0.7818609E-02  0.8526475E-01
        2   -1    0    0  501    0  0.00000000000E+00  0.00000000000E+00  0.18861379898E+04  0.18861379898E+04  0.25500000920E-02 0. -1.
       -2   -1    0    0    0  501  0.00000000000E+00  0.00000000000E+00 -0.63035617001E+03  0.63035617001E+03  0.25500000920E-02 0.  1.
    10030    2    1    2    0    0  0.00000000000E+00  0.00000000000E+00  0.12557818198E+04  0.25164941598E+04  0.21807693315E+04 0.  0.
        5    1    3    3  502    0 -0.63363848993E+03  0.36302678379E+03  0.15622541692E+04  0.17245133692E+04  0.46999998093E+01 0. -1.
       -5    1    3    3    0  502  0.63363848993E+03 -0.36302678379E+03 -0.30647234937E+03  0.79198079055E+03  0.46999998093E+01 0.  1.
</event>
<event>
 5   0  0.9457742E-05  0.2121203E+04  0.7818609E-02  0.8551960E-01
        2   -1    0    0  501    0  0.00000000000E+00  0.00000000000E+00  0.77386477136E+03  0.77386477136E+03  0.25500000920E-02 0.  1.
       -2   -1    0    0    0  501  0.00000000000E+00  0.00000000000E+00 -0.14535822139E+04  0.14535822139E+04  0.25500000920E-02 0. -1.
    10030    2    1    2    0    0  0.00000000000E+00  0.00000000000E+00 -0.67971744251E+03  0.22274469852E+04  0.21212034958E+04 0.  0.
        1    1    3    3  502    0  0.52467642073E+02  0.94976064341E+02 -0.14477385934E+04  0.14517990016E+04  0.50400001928E-02 0. -1.
       -1    1    3    3    0  502 -0.52467642073E+02 -0.94976064341E+02  0.76802115089E+03  0.77564798362E+03  0.50400001928E-02 0.  1.
</event>
<event>
 5   0  0.4174030E-05  0.2098045E+04  0.7818609E-02  0.8562105E-01
       -1   -1    0    0    0  501  0.00000000000E+00  0.00000000000E+00  0.49434118582E+03  0.49434118585E+03  0.50400001928E-02 0.  1.
        1   -1    0    0  501    0  0.00000000000E+00  0.00000000000E+00 -0.22260913023E+04  0.22260913023E+04  0.50400001928E-02 0. -1.
    10030    2    1    2    0    0  0.00000000000E+00  0.00000000000E+00 -0.17317501165E+04  0.27204324882E+04  0.20980453896E+04 0.  0.
        2    1    3    3  502    0 -0.38235249560E+03 -0.49070460478E+03 -0.19611147094E+04  0.20574147233E+04  0.25500000920E-02 0. -1.
       -2    1    3    3    0  502  0.38235249560E+03  0.49070460478E+03  0.22936459294E+03  0.66301776488E+03  0.25500000920E-02 0.  1.
</event>
<event>
 5   0  0.3283125E-05  0.2219028E+04  0.7818609E-02  0.8510550E-01
       -4   -1    0    0    0  501  0.00000000000E+00  0.00000000000E+00  0.10501395278E+04  0.10501402957E+04  0.12699999809E+01 0.  1.
        4   -1    0    0  501    0  0.00000000000E+00  0.00000000000E+00 -0.11722437481E+04  0.11722444361E+04  0.12699999809E+01 0. -1.
    10030    2    1    2    0    0  0.00000000000E+00  0.00000000000E+00 -0.12210422034E+03  0.22223847318E+04  0.22190278176E+04 0.  0.
        5    1    3    3  502    0  0.26137464192E+03  0.23203694152E+03  0.99355615575E+03  0.10532491492E+04  0.46999998093E+01 0.  1.
       -5    1    3    3    0  502 -0.26137464192E+03 -0.23203694152E+03 -0.11156603761E+04  0.11691355826E+04  0.46999998093E+01 0. -1.
</event>
<event>
 5   0  0.9457742E-05  0.2146502E+04  0.7818609E-02  0.8541031E-01
       -2   -1    0    0    0  501  0.00000000000E+00  0.00000000000E+00  0.62951611290E+03  0.62951611291E+03  0.25500000920E-02 0.  1.
        2   -1    0    0  501    0  0.00000000000E+00  0.00000000000E+00 -0.18297662516E+04  0.18297662516E+04  0.25500000920E-02 0. -1.
    10030    2    1    2    0    0  0.00000000000E+00  0.00000000000E+00 -0.12002501387E+04  0.24592823645E+04  0.21465016545E+04 0.  0.
        1    1    3    3  502    0  0.11928858652E+03 -0.15396404284E+03  0.60909858386E+03  0.63948086621E+03  0.50400001928E-02 0.  1.
       -1    1    3    3    0  502 -0.11928858652E+03  0.15396404284E+03 -0.18093487226E+04  0.18198014983E+04  0.50400001928E-02 0. -1.
</event>
<event>
 5   0  0.3283125E-05  0.2236570E+04  0.7818609E-02  0.8503359E-01
        3   -1    0    0  501    0  0.00000000000E+00  0.00000000000E+00  0.13738942751E+04  0.13738942788E+04  0.10100000352E+00 0.  1.
       -3   -1    0    0    0  501  0.00000000000E+00  0.00000000000E+00 -0.91023110797E+03  0.91023111357E+03  0.10100000352E+00 0. -1.
    10030    2    1    2    0    0  0.00000000000E+00  0.00000000000E+00  0.46366316712E+03  0.22841253924E+04  0.22365699800E+04 0.  0.
        5    1    3    3  502    0  0.40575169753E+03 -0.86169615075E+03 -0.36661833876E+03  0.10205811053E+04  0.46999998093E+01 0. -1.
       -5    1    3    3    0  502 -0.40575169753E+03  0.86169615075E+03  0.83028150588E+03  0.12635442870E+04  0.46999998093E+01 0.  1.
</event>
<event>
 5   0  0.9457742E-05  0.2201639E+04  0.7818609E-02  0.8517746E-01
       -2   -1    0    0    0  501  0.00000000000E+00  0.00000000000E+00  0.15029112134E+04  0.15029112134E+04  0.25500000920E-02 0. -1.
        2   -1    0    0  501    0  0.00000000000E+00  0.00000000000E+00 -0.80630450262E+03  0.80630450262E+03  0.25500000920E-02 0.  1.
    10030    2    1    2    0    0  0.00000000000E+00  0.00000000000E+00  0.69660671082E+03  0.23092157161E+04  0.22016394604E+04 0.  0.
        1    1    3    3  502    0  0.76682399692E+03 -0.75184488508E+03  0.60202021621E+03  0.12311450419E+04  0.50400001928E-02 0. -1.
       -1    1    3    3    0  502 -0.76682399692E+03  0.75184488508E+03  0.94586494605E+02  0.10780706741E+04  0.50400001928E-02 0.  1.
</event>
<event>
 5   0  0.9179618E-05  0.2230738E+04  0.7818609E-02  0.8505742E-01
        2   -1    0    0  501    0  0.00000000000E+00  0.00000000000E+00  0.10975186300E+04  0.10975186300E+04  0.25500000920E-02 0. -1.
       -2   -1    0    0    0  501  0.00000000000E+00  0.00000000000E+00 -0.11335099173E+04  0.11335099174E+04  0.25500000920E-02 0.  1.
    10030    2    1    2    0    0  0.00000000000E+00  0.00000000000E+00 -0.35991287357E+02  0.22310285473E+04  0.22307382200E+04 0.  0.
        3    1    3    3  502    0 -0.66442483026E+03  0.82515837775E+03 -0.36689852206E+03  0.11211428273E+04  0.10100000352E+00 0.  1.
       -3    1    3    3    0  502  0.66442483026E+03 -0.82515837775E+03  0.33090723471E+03  0.11098857201E+04  0.10100000352E+00 0. -1.
</event>
<event>
 5   0  0.4133418E-05  0.2192661E+04  0.7818609E-02  0.8521489E-01
       -1   -1    0    0    0  501  0.00000000000E+00  0.00000000000E+00  0.12810712804E+04  0.12810712804E+04  0.50400001928E-02 0.  1.
        1   -1    0    0  501    0  0.00000000000E+00  0.00000000000E+00 -0.93823053723E+03  0.93823053724E+03  0.50400001928E-02 0. -1.
    10030    2    1    2    0    0  0.00000000000E+00  0.00000000000E+00  0.34284074312E+03  0.22193018176E+04  0.21926606629E+04 0.  0.
        4    1    3    3  502    0 -0.22102934181E+03  0.20418269842E+03 -0.89561539006E+03  0.94481378275E+03  0.12699999809E+01 0. -1.
       -4    1    3    3    0  502  0.22102934181E+03 -0.20418269842E+03  0.12384561332E+04  0.12744880349E+04  0.12699999809E+01 0.  1.
</event>
<event>
 5   0  0.4133418E-05  0.2015112E+04  0.7818609E-02  0.8599588E-01
       -1   -1    0    0    0  501  0.00000000000E+00  0.00000000000E+00  0.62067590243E+03  0.62067590245E+03  0.50400001928E-02 0. -1.
        1   -1    0    0  501    0  0.00000000000E+00  0.00000000000E+00 -0.16355868665E+04  0.16355868666E+04  0.50400001928E-02 0.  1.
    10030    2    1    2    0    0  0.00000000000E+00  0.00000000000E+00 -0.10149109641E+04  0.22562627690E+04  0.20151122593E+04 0.  0.
        4    1    3    3  502    0 -0.99508605286E+03 -0.62126001504E+02 -0.67014275007E+03  0.12013112881E+04  0.12699999809E+01 0.  1.
       -4    1    3    3    0  502  0.99508605286E+03  0.62126001504E+02 -0.34476821404E+03  0.10549514809E+04  0.12699999809E+01 0. -1.
</event>
<event>
 5   0  0.4063293E-05  0.2148738E+04  0.7818609E-02  0.8540072E-01
       -1   -1    0    0    0  501  0.00000000000E+00  0.00000000000E+00  0.47126299054E+03  0.47126299057E+03  0.50400001928E-02 0. -1.
        1   -1    0    0  501    0  0.00000000000E+00  0.00000000000E+00 -0.24493099118E+04  0.24493099118E+04  0.50400001928E-02 0.  1.
    10030    2    1    2    0    0  0.00000000000E+00  0.00000000000E+00 -0.19780469213E+04  0.29205729024E+04  0.21487383404E+04 0.  0.
        1    1    3    3  502    0 -0.35115057866E+03 -0.51549554028E+03  0.19997032590E+03  0.65500420778E+03  0.50400001928E-02 0. -1.
       -1    1    3    3    0  502  0.35115057866E+03  0.51549554028E+03 -0.21780172472E+04  0.22655686946E+04  0.50400001928E-02 0.  1.
</event>
<event>
 5   0  0.9938176E-05  0.2195688E+04  0.7818609E-02  0.8520225E-01
        2   -1    0    0  501    0  0.00000000000E+00  0.00000000000E+00  0.69799557308E+03  0.69799557309E+03  0.25500000920E-02 0. -1.
       -2   -1    0    0    0  501  0.00000000000E+00  0.00000000000E+00 -0.17267471143E+04  0.17267471143E+04  0.25500000920E-02 0.  1.
    10030    2    1    2    0    0  0.00000000000E+00  0.00000000000E+00 -0.10287515412E+04  0.24247426874E+04  0.21956883582E+04 0.  0.
        5    1    3    3  502    0 -0.62905273020E+02  0.91870306857E+03 -0.11744482461E+04  0.14924219157E+04  0.46999998093E+01 0.  1.
       -5    1    3    3    0  502  0.62905273020E+02 -0.91870306857E+03  0.14569670489E+03  0.93232077172E+03  0.46999998093E+01 0. -1.
</event>
<event>
 5   0  0.4063293E-05  0.2232769E+04  0.7818609E-02  0.8504912E-01
        1   -1    0    0  501    0  0.00000000000E+00  0.00000000000E+00  0.12854700115E+04  0.12854700115E+04  0.50400001928E-02 0.  1.
       -1   -1    0    0    0  501  0.00000000000E+00  0.00000000000E+00 -0.96953944006E+03  0.96953944007E+03  0.50400001928E-02 0. -1.
    10030    2    1    2    0    0  0.00000000000E+00  0.00000000000E+00  0.31593057145E+03  0.22550094516E+04  0.22327685731E+04 0.  0.
        1    1    3    3  502    0 -0.26795607981E+03 -0.40547690141E+03 -0.85708427867E+03  0.98529459506E+03  0.50400001928E-02 0. -1.
       -1    1    3    3    0  502  0.26795607981E+03  0.40547690141E+03  0.11730148501E+04  0.12697148565E+04  0.50400001928E-02 0.  1.
</event>
<event>
 5   0  0.9938176E-05  0.2164543E+04  0.7818609E-02  0.8533333E-01
        2   -1    0    0  501    0  0.00000000000E+00  0.00000000000E+00  0.15806403714E+04  0.15806403714E+04  0.25500000920E-02 0. -1.
       -2   -1    0    0    0  501  0.00000000000E+00  0.00000000000E+00 -0.74103585805E+03  0.74103585805E+03  0.25500000920E-02 0.  1.
    10030    2    1    2    0    0  0.00000000000E+00  0.00000000000E+00  0.83960451333E+03  0.23216762294E+04  0.21645426250E+04 0.  0.
        5    1    3    3  502    0  0.94993091042E+03  0.20491551539E+03  0.93075586412E+03  0.13456179516E+04  0.46999998093E+01 0. -1.
       -5    1    3    3    0  502 -0.94993091042E+03 -0.20491551539E+03 -0.91151350794E+02  0.97605827785E+03  0.46999998093E+01 0.  1.
</event>
<event>
 5   0  0.9457742E-05  0.2729433E+04  0.7818609E-02  0.8325518E-01
        2   -1    0    0  501    0  0.00000000000E+00  0.00000000000E+00  0.22207091735E+04  0.22207091735E+04  0.25500000920E-02 0.  1.
       -2   -1    0    0    0  501  0.00000000000E+00  0.00000000000E+00 -0.83867427451E+03  0.83867427451E+03  0.25500000920E-02 0. -1.
    10030    2    1    2    0    0  0.00000000000E+00  0.00000000000E+00  0.13820348990E+04  0.30593834480E+04  0.27294333881E+04 0.  0.
        1    1    3    3  502    0  0.14433190951E+03 -0.56962223257E+03 -0.68960757360E+03  0.90601313099E+03  0.50400001928E-02 0. -1.
       -1    1    3    3    0  502 -0.14433190951E+03  0.56962223257E+03  0.20716424726E+04  0.21533703171E+04  0.50400001928E-02 0.  1.
</event>
<event>
 5   0  0.9442578E-05  0.2148402E+04  0.7818609E-02  0.8540217E-01
       -2   -1    0    0    0  501  0.00000000000E+00  0.00000000000E+00  0.65470960296E+03  0.65470960297E+03  0.25500000920E-02 0.  1.
        2   -1    0    0  501    0  0.00000000000E+00  0.00000000000E+00 -0.17624727761E+04  0.17624727761E+04  0.25500000920E-02 0. -1.
    10030    2    1    2    0    0  0.00000000000E+00  0.00000000000E+00 -0.11077631732E+04  0.24171823791E+04  0.21484020587E+04 0.  0.
        4    1    3    3  502    0  0.55785430417E+03 -0.85410930563E+03 -0.17533344646E+03  0.10351075118E+04  0.12699999809E+01 0.  1.
       -4    1    3    3    0  502 -0.55785430417E+03  0.85410930563E+03 -0.93242972671E+03  0.13820748673E+04  0.12699999809E+01 0. -1.
</event>
<event>
 5   0  0.9938176E-05  0.2145134E+04  0.7818609E-02  0.8541618E-01
       -2   -1    0    0    0  501  0.00000000000E+00  0.00000000000E+00  0.93867693189E+03  0.93867693190E+03  0.25500000920E-02 0. -1.
        2   -1    0    0  501    0  0.00000000000E+00  0.00000000000E+00 -0.12255550373E+04  0.12255550373E+04  0.25500000920E-02 0.  1.
    10030    2    1    2    0    0  0.00000000000E+00  0.00000000000E+00 -0.28687810537E+03  0.21642319692E+04  0.21451342543E+04 0.  0.
        5    1    3    3  502    0  0.65736511852E+03 -0.44412114723E+03 -0.87167238044E+03  0.11786463937E+04  0.46999998093E+01 0.  1.
       -5    1    3    3    0  502 -0.65736511852E+03  0.44412114723E+03  0.58479427508E+03  0.98558557550E+03  0.46999998093E+01 0. -1.
</event>
<event>
 5   0  0.4133418E-05  0.2178381E+04  0.7818609E-02  0.8527481E-01
        1   -1    0    0  501    0  0.00000000000E+00  0.00000000000E+00  0.12517373738E+04  0.12517373738E+04  0.50400001928E-02 0. -1.
       -1   -1    0    0    0  501  0.00000000000E+00  0.00000000000E+00 -0.94775131752E+03  0.94775131753E+03  0.50400001928E-02 0.  1.
    10030    2    1    2    0    0  0.00000000000E+00  0.00000000000E+00  0.30398605627E+03  0.21994886913E+04  0.21783808163E+04 0.  0.
        4    1    3    3  502    0  0.48724167987E+02 -0.53393151104E+03 -0.80528506200E+03  0.96744123698E+03  0.12699999809E+01 0.  1.
       -4    1    3    3    0  502 -0.48724167987E+02  0.53393151104E+03  0.11092711183E+04  0.12320474543E+04  0.12699999809E+01 0. -1.
</event>
<event>
 5   0  0.9457742E-05  0.2201190E+04  0.7818609E-02  0.8517933E-01
        2   -1    0    0  501    0  0.00000000000E+00  0.00000000000E+00  0.15012458858E+04  0.15012458858E+04  0.25500000920E-02 0. -1.
       -2   -1    0    0    0  501  0.00000000000E+00  0.00000000000E+00 -0.80686973582E+03  0.80686973582E+03  0.25500000920E-02 0.  1.
    10030    2    1    2    0    0  0.00000000000E+00  0.00000000000E+00  0.69437614993E+03  0.23081156216E+04  0.22011904699E+04 0.  0.
        1    1    3    3  502    0 -0.24637947707E+03  0.70434319614E+03 -0.50112724893E+03  0.89884965613E+03  0.50400001928E-02 0.  1.
       -1    1    3    3    0  502  0.24637947707E+03 -0.70434319614E+03  0.11955033989E+04  0.14092659655E+04  0.50400001928E-02 0. -1.
</event>
<event>
 5   0  0.4133418E-05  0.2189781E+04  0.7818609E-02  0.8522693E-01
        1   -1    0    0  501    0  0.00000000000E+00  0.00000000000E+00  0.10483570501E+04  0.10483570501E+04  0.50400001928E-02 0.  1.
       -1   -1    0    0    0  501  0.00000000000E+00  0.00000000000E+00 -0.11434896940E+04  0.11434896940E+04  0.50400001928E-02 0. -1.
    10030    2    1    2    0    0  0.00000000000E+00  0.00000000000E+00 -0.95132643963E+02  0.21918467441E+04  0.21897812516E+04 0.  0.
        4    1    3    3  502    0  0.56518865236E+03  0.63317835834E+03 -0.73990569006E+03  0.11259729523E+04  0.12699999809E+01 0. -1.
       -4    1    3    3    0  502 -0.56518865236E+03 -0.63317835834E+03  0.64477304610E+03  0.10658737918E+04  0.12699999809E+01 0.  1.
</event>
<event>
 5   0  0.4174030E-05  0.2164027E+04  0.7818609E-02  0.8533552E-01
       -1   -1    0    0    0  501  0.00000000000E+00  0.00000000000E+00  0.11217926294E+04  0.11217926294E+04  0.50400001928E-02 0. -1.
        1   -1    0    0  501    0  0.00000000000E+00  0.00000000000E+00 -0.10436447578E+04  0.10436447578E+04  0.50400001928E-02 0.  1.
    10030    2    1    2    0    0  0.00000000000E+00  0.00000000000E+00  0.78147871591E+02  0.21654373872E+04  0.21640267993E+04 0.  0.
        2    1    3    3  502    0  0.12139604244E+03 -0.51613611344E+03 -0.90473730493E+03  0.10486577505E+04  0.25500000920E-02 0.  1.
       -2    1    3    3    0  502 -0.12139604244E+03  0.51613611344E+03  0.98288517652E+03  0.11167796367E+04  0.25500000920E-02 0. -1.
</event>
<event>
 5   0  0.4174030E-05  0.2230615E+04  0.7818609E-02  0.8505793E-01
        1   -1    0    0  501    0  0.00000000000E+00  0.00000000000E+00  0.11313596886E+04  0.11313596886E+04  0.50400001928E-02 0. -1.
       -1   -1    0    0    0  501  0.00000000000E+00  0.00000000000E+00 -0.10994826281E+04  0.10994826281E+04  0.50400001928E-02 0.  1.
    10030    2    1    2    0    0  0.00000000000E+00  0.00000000000E+00  0.31877060533E+02  0.22308423167E+04  0.22306145555E+04 0.  0.
        2    1    3    3  502    0 -0.72929137440E+03 -0.44064753934E+02 -0.82682343656E+03  0.11033787231E+04  0.25500000920E-02 0.  1.
       -2    1    3    3    0  502  0.72929137440E+03  0.44064753934E+02  0.85870049709E+03  0.11274635937E+04  0.25500000920E-02 0. -1.
</event>
<event>
 5   0  0.4063293E-05  0.2232914E+04  0.7818609E-02  0.8504852E-01
       -1   -1    0    0    0  501  0.00000000000E+00  0.00000000000E+00  0.51353304682E+03  0.51353304684E+03  0.50400001928E-02 0.  1.
        1   -1    0    0  501    0  0.00000000000E+00  0.00000000000E+00 -0.24272564374E+04  0.24272564374E+04  0.50400001928E-02 0. -1.
    10030    2    1    2    0    0  0.00000000000E+00  0.00000000000E+00 -0.19137233906E+04  0.29407894842E+04  0.22329141441E+04 0.  0.
        1    1    3    3  502    0  0.75077807711E+03 -0.81585734300E+03 -0.11295140875E+04  0.15827485584E+04  0.50400001928E-02 0. -1.
       -1    1    3    3    0  502 -0.75077807711E+03  0.81585734300E+03 -0.78420930303E+03  0.13580409258E+04  0.50400001928E-02 0.  1.
</event>
<event>
 5   0  0.4133418E-05  0.2218143E+04  0.7818609E-02  0.8510914E-01
       -1   -1    0    0    0  501  0.00000000000E+00  0.00000000000E+00  0.17660860115E+04  0.17660860115E+04  0.50400001928E-02 0.  1.
        1   -1    0    0  501    0  0.00000000000E+00  0.00000000000E+00 -0.69647770857E+03  0.69647770858E+03  0.50400001928E-02 0. -1.
    10030    2    1    2    0    0  0.00000000000E+00  0.00000000000E+00  0.10696083029E+04  0.24625637201E+04  0.22181429516E+04 0.  0.
        4    1    3    3  502    0 -0.30049475277E+03 -0.71036196057E+03  0.14195695613E+04  0.16155774707E+04  0.12699999809E+01 0.  1.
       -4    1    3    3    0  502  0.30049475277E+03  0.71036196057E+03 -0.34996125836E+03  0.84698624943E+03  0.12699999809E+01 0. -1.
</event>
<event>
 5   0  0.9442578E-05  0.2216318E+04  0.7818609E-02  0.8511667E-01
       -2   -1    0    0    0  501  0.00000000000E+00  0.00000000000E+00  0.70736477972E+03  0.70736477973E+03  0.25500000920E-02 0.  1.
        2   -1    0    0  501    0  0.00000000000E+00  0.00000000000E+00 -0.17360445567E+04  0.17360445567E+04  0.25500000920E-02 0. -1.
    10030    2    1    2    0    0  0.00000000000E+00  0.00000000000E+00 -0.10286797770E+04  0.24434093365E+04  0.22163183666E+04 0.  0.
        4    1    3    3  502    0  0.76967559755E+03 -0.15160994038E+03 -0.13772446819E+04  0.15849891565E+04  0.12699999809E+01 0. -1.
       -4    1    3    3    0  502 -0.76967559755E+03  0.15160994038E+03  0.34856490492E+03  0.85842017994E+03  0.12699999809E+01 0.  1.
</event>
<event>
 5   0  0.9442578E-05  0.2200265E+04  0.7818609E-02  0.8518318E-01
       -2   -1    0    0    0  501  0.00000000000E+00  0.00000000000E+00  0.46269504243E+03  0.46269504244E+03  0.25500000920E-02 0.  1.
        2   -1    0    0  501    0  0.00000000000E+00  0.00000000000E+00 -0.26157431905E+04  0.26157431905E+04  0.25500000920E-02 0. -1.
    10030    2    1    2    0    0  0.00000000000E+00  0.00000000000E+00 -0.21530481480E+04  0.30784382329E+04  0.22002648991E+04 0.  0.
        4    1    3    3  502    0  0.94877835386E+03  0.36106131135E+02 -0.29902804206E+03  0.99544130931E+03  0.12699999809E+01 0.  1.
       -4    1    3    3    0  502 -0.94877835386E+03 -0.36106131135E+02 -0.18540201060E+04  0.20829969236E+04  0.12699999809E+01 0. -1.
</event>
<event>
 5   0  0.4174075E-05  0.2120501E+04  0.7818609E-02  0.8552266E-01
       -1   -1    0    0    0  501  0.00000000000E+00  0.00000000000E+00  0.69210814415E+03  0.69210814417E+03  0.50400001928E-02 0.  1.
        1   -1    0    0  501    0  0.00000000000E+00  0.00000000000E+00 -0.16242130521E+04  0.16242130521E+04  0.50400001928E-02 0. -1.
    10030    2    1    2    0    0  0.00000000000E+00  0.00000000000E+00 -0.93210490796E+03  0.23163211963E+04  0.21205009608E+04 0.  0.
        5    1    3    3  502    0 -0.66858357512E+03 -0.70931506386E+03 -0.92167624628E+03  0.13415070070E+04  0.46999998093E+01 0. -1.
       -5    1    3    3    0  502  0.66858357512E+03  0.70931506386E+03 -0.10428661677E+02  0.97481418933E+03  0.46999998093E+01 0.  1.
</event>
<event>
 5   0  0.9254673E-05  0.2224102E+04  0.7818609E-02  0.8508463E-01
       -2   -1    0    0    0  501  0.00000000000E+00  0.00000000000E+00  0.78454040915E+03  0.78454040915E+03  0.25500000920E-02 0. -1.
        2   -1    0    0  501    0  0.00000000000E+00  0.00000000000E+00 -0.15762822056E+04  0.15762822056E+04  0.25500000920E-02 0.  1.
    10030    2    1    2    0    0  0.00000000000E+00  0.00000000000E+00 -0.79174179649E+03  0.23608226148E+04  0.22241016942E+04 0.  0.
        2    1    3    3  502    0 -0.20381594507E+03  0.81335217505E+03 -0.11712359153E+04  0.14404430809E+04  0.25500000920E-02 0.  1.
       -2    1    3    3    0  502  0.20381594507E+03 -0.81335217505E+03  0.37949411882E+03  0.92037953385E+03  0.25500000920E-02 0. -1.
</event>
<event>
 5   0  0.4174075E-05  0.2148672E+04  0.7818609E-02  0.8540101E-01
        1   -1    0    0  501    0  0.00000000000E+00  0.00000000000E+00  0.13424519303E+04  0.13424519303E+04  0.50400001928E-02 0. -1.
       -1   -1    0    0    0  501  0.00000000000E+00  0.00000000000E+00 -0.85976824149E+03  0.85976824151E+03  0.50400001928E-02 0.  1.
    10030    2    1    2    0    0  0.00000000000E+00  0.00000000000E+00  0.48268368879E+03  0.22022201718E+04  0.21486717157E+04 0.  0.
        5    1    3    3  502    0 -0.68409901537E+03  0.50222673388E+03  0.91650955114E+03  0.12490936724E+04  0.46999998093E+01 0. -1.
       -5    1    3    3    0  502  0.68409901537E+03 -0.50222673388E+03 -0.43382586235E+03  0.95312649942E+03  0.46999998093E+01 0.  1.
</event>
<event>
 5   0  0.9457742E-05  0.2193537E+04  0.7818609E-02  0.8521123E-01
        2   -1    0    0  501    0  0.00000000000E+00  0.00000000000E+00  0.12421104216E+04  0.12421104216E+04  0.25500000920E-02 0.  1.
       -2   -1    0    0    0  501  0.00000000000E+00  0.00000000000E+00 -0.96843340215E+03  0.96843340216E+03  0.25500000920E-02 0. -1.
    10030    2    1    2    0    0  0.00000000000E+00  0.00000000000E+00  0.27367701947E+03  0.22105438238E+04  0.21935370719E+04 0.  0.
        1    1    3    3  502    0 -0.47926724027E+03 -0.21697304313E+03  0.11066545975E+04  0.12253402740E+04  0.50400001928E-02 0.  1.
       -1    1    3    3    0  502  0.47926724027E+03  0.21697304313E+03 -0.83297757798E+03  0.98520354977E+03  0.50400001928E-02 0. -1.
</event>
<event>
 5   0  0.9442578E-05  0.2210035E+04  0.7818609E-02  0.8514263E-01
       -2   -1    0    0    0  501  0.00000000000E+00  0.00000000000E+00  0.11395394803E+04  0.11395394804E+04  0.25500000920E-02 0. -1.
        2   -1    0    0  501    0  0.00000000000E+00  0.00000000000E+00 -0.10715410021E+04  0.10715410021E+04  0.25500000920E-02 0.  1.
    10030    2    1    2    0    0  0.00000000000E+00  0.00000000000E+00  0.67998478265E+02  0.22110804824E+04  0.22100346393E+04 0.  0.
        4    1    3    3  502    0 -0.75801632912E+02 -0.10947894613E+04  0.16348927759E+03  0.11095225140E+04  0.12699999809E+01 0. -1.
       -4    1    3    3    0  502  0.75801632912E+02  0.10947894613E+04 -0.95490799323E+02  0.11015579685E+04  0.12699999809E+01 0.  1.
</event>
<event>
 5   0  0.4188865E-05  0.2203109E+04  0.7818609E-02  0.8517135E-01
       -1   -1    0    0    0  501  0.00000000000E+00  0.00000000000E+00  0.67707397191E+03  0.67707397193E+03  0.50400001928E-02 0.  1.
        1   -1    0    0  501    0  0.00000000000E+00  0.00000000000E+00 -0.17921566285E+04  0.17921566285E+04  0.50400001928E-02 0. -1.
    10030    2    1    2    0    0  0.00000000000E+00  0.00000000000E+00 -0.11150826566E+04  0.24692306005E+04  0.22031092636E+04 0.  0.
        3    1    3    3  502    0 -0.12845408983E+03  0.31596097829E+03 -0.17314840325E+04  0.17647574219E+04  0.10100000352E+00 0. -1.
       -3    1    3    3    0  502  0.12845408983E+03 -0.31596097829E+03  0.61640137588E+03  0.70447317861E+03  0.10100000352E+00 0.  1.
</event>
<event>
 5   0  0.9442578E-05  0.2171335E+04  0.7818609E-02  0.8530455E-01
       -2   -1    0    0    0  501  0.00000000000E+00  0.00000000000E+00  0.87536470108E+03  0.87536470108E+03  0.25500000920E-02 0.  1.
        2   -1    0    0  501    0  0.00000000000E+00  0.00000000000E+00 -0.13464952461E+04  0.13464952461E+04  0.25500000920E-02 0. -1.
    10030    2    1    2    0    0  0.00000000000E+00  0.00000000000E+00 -0.47113054501E+03  0.22218599472E+04  0.21713354495E+04 0.  0.
        4    1    3    3  502    0  0.48272238419E+03  0.89459217344E+03  0.15456292624E+03  0.10282058977E+04  0.12699999809E+01 0.  1.
       -4    1    3    3    0  502 -0.48272238419E+03 -0.89459217344E+03 -0.62569347125E+03  0.11936540495E+04  0.12699999809E+01 0. -1.
</event>
<event>
 5   0  0.9938176E-05  0.2165608E+04  0.7818609E-02  0.8532881E-01
        2   -1    0    0  501    0  0.00000000000E+00  0.00000000000E+00  0.13105531119E+04  0.13105531119E+04  0.25500000920E-02 0.  1.
       -2   -1    0    0    0  501  0.00000000000E+00  0.00000000000E+00 -0.89463347443E+03  0.89463347444E+03  0.25500000920E-02 0. -1.
    10030    2    1    2    0    0  0.00000000000E+00  0.00000000000E+00  0.41591963746E+03  0.22051865863E+04  0.21656081676E+04 0.  0.
        5    1    3    3  502    0  0.24728228573E+03  0.52686228555E+02 -0.86414409275E+03  0.90038406836E+03  0.46999998093E+01 0. -1.
       -5    1    3    3    0  502 -0.24728228573E+03 -0.52686228555E+02  0.12800637302E+04  0.13048025180E+04  0.46999998093E+01 0.  1.
</event>
<event>
 5   0  0.9457742E-05  0.2207506E+04  0.7818609E-02  0.8515310E-01
       -2   -1    0    0    0  501  0.00000000000E+00  0.00000000000E+00  0.72254661284E+03  0.72254661285E+03  0.25500000920E-02 0.  1.
        2   -1    0    0  501    0  0.00000000000E+00  0.00000000000E+00 -0.16860794447E+04  0.16860794447E+04  0.25500000920E-02 0. -1.
    10030    2    1    2    0    0  0.00000000000E+00  0.00000000000E+00 -0.96353283184E+03  0.24086260575E+04  0.22075062779E+04 0.  0.
        1    1    3    3  502    0 -0.33396578952E+03 -0.91365060665E+03  0.87265003420E+02  0.97668099217E+03  0.50400001928E-02 0. -1.
       -1    1    3    3    0  502  0.33396578952E+03  0.91365060665E+03 -0.10507978353E+04  0.14319450654E+04  0.50400001928E-02 0.  1.
</event>
<event>
 5   0  0.4133418E-05  0.2177632E+04  0.7818609E-02  0.8527796E-01
        1   -1    0    0  501    0  0.00000000000E+00  0.00000000000E+00  0.17304878043E+04  0.17304878043E+04  0.50400001928E-02 0. -1.
       -1   -1    0    0    0  501  0.00000000000E+00  0.00000000000E+00 -0.68507887360E+03  0.68507887362E+03  0.50400001928E-02 0.  1.
    10030    2    1    2    0    0  0.00000000000E+00  0.00000000000E+00  0.10454089307E+04  0.24155666780E+04  0.21776323251E+04 0.  0.
        4    1    3    3  502    0 -0.85402661879E+02 -0.80395684817E+03 -0.28628117573E+03  0.85767053864E+03  0.12699999809E+01 0.  1.
       -4    1    3    3    0  502  0.85402661879E+02  0.80395684817E+03  0.13316901065E+04  0.15578961393E+04  0.12699999809E+01 0. -1.
</event>
<event>
 5   0  0.9457742E-05  0.2220261E+04  0.7818609E-02  0.8510042E-01
        2   -1    0    0  501    0  0.00000000000E+00  0.00000000000E+00  0.17963650717E+04  0.17963650717E+04  0.25500000920E-02 0.  1.
       -2   -1    0    0    0  501  0.00000000000E+00  0.00000000000E+00 -0.68604610074E+03  0.68604610074E+03  0.25500000920E-02 0. -1.
    10030    2    1    2    0    0  0.00000000000E+00  0.00000000000E+00  0.11103189710E+04  0.24824111725E+04  0.22202605730E+04 0.  0.
        1    1    3    3  502    0 -0.82753270244E+03 -0.62410264648E+03  0.99968945335E+03  0.14400324615E+04  0.50400001928E-02 0. -1.
       -1    1    3    3    0  502  0.82753270244E+03  0.62410264648E+03  0.11062951764E+03  0.10423787110E+04  0.50400001928E-02 0.  1.
</event>
<event>
 5   0  0.4174030E-05  0.2281431E+04  0.7818609E-02  0.8485279E-01
        1   -1    0    0  501    0  0.00000000000E+00  0.00000000000E+00  0.17755019246E+04  0.17755019246E+04  0.50400001928E-02 0. -1.
       -1   -1    0    0    0  501  0.00000000000E+00  0.00000000000E+00 -0.73288140099E+03  0.73288140101E+03  0.50400001928E-02 0.  1.
    10030    2    1    2    0    0  0.00000000000E+00  0.00000000000E+00  0.10426205236E+04  0.25083833256E+04  0.22814314261E+04 0.  0.
        2    1    3    3  502    0  0.43596575379E+03 -0.10485954774E+04  0.40282284196E+03  0.12049418474E+04  0.25500000920E-02 0.  1.
       -2    1    3    3    0  502 -0.43596575379E+03  0.10485954774E+04  0.63979768167E+03  0.13034414782E+04  0.25500000920E-02 0. -1.
</event>
<event>
 5   0  0.9179618E-05  0.2223031E+04  0.7818609E-02  0.8508903E-01
       -2   -1    0    0    0  501  0.00000000000E+00  0.00000000000E+00  0.11706235145E+04  0.11706235145E+04  0.25500000920E-02 0.  1.
        2   -1    0    0  501    0  0.00000000000E+00  0.00000000000E+00 -0.10553918435E+04  0.10553918435E+04  0.25500000920E-02 0. -1.
    10030    2    1    2    0    0  0.00000000000E+00  0.00000000000E+00  0.11523167098E+03  0.22260153580E+04  0.22230308221E+04 0.  0.
        3    1    3    3  502    0  0.71970780445E+03  0.62137059777E+03 -0.51881816614E+03  0.10831680586E+04  0.10100000352E+00 0. -1.
       -3    1    3    3    0  502 -0.71970780445E+03 -0.62137059777E+03  0.63404983712E+03  0.11428472994E+04  0.10100000352E+00 0.  1.
</event>
<event>
 5   0  0.4133418E-05  0.2119267E+04  0.7818609E-02  0.8552803E-01
       -1   -1    0    0    0  501  0.00000000000E+00  0.00000000000E+00  0.10349712047E+04  0.10349712047E+04  0.50400001928E-02 0.  1.
        1   -1    0    0  501    0  0.00000000000E+00  0.00000000000E+00 -0.10848832521E+04  0.10848832521E+04  0.50400001928E-02 0. -1.
    10030    2    1    2    0    0  0.00000000000E+00  0.00000000000E+00 -0.49912047395E+02  0.21198544568E+04  0.21192667849E+04 0.  0.
        4    1    3    3  502    0  0.68075987198E+03 -0.75906048795E+03 -0.31350522733E+03  0.10667211295E+04  0.12699999809E+01 0. -1.
       -4    1    3    3    0  502 -0.68075987198E+03  0.75906048795E+03  0.26359317993E+03  0.10531333273E+04  0.12699999809E+01 0.  1.
</event>
<event>
 5   0  0.4063293E-05  0.2227291E+04  0.7818609E-02  0.8507154E-01
       -1   -1    0    0    0  501  0.00000000000E+00  0.00000000000E+00  0.38073582632E+03  0.38073582635E+03  0.50400001928E-02 0. -1.
        1   -1    0    0  501    0  0.00000000000E+00  0.00000000000E+00 -0.32573929734E+04  0.32573929734E+04  0.50400001928E-02 0.  1.
    10030    2    1    2    0    0  0.00000000000E+00  0.00000000000E+00 -0.28766571471E+04  0.36381287997E+04  0.22272909154E+04 0.  0.
        1    1    3    3  502    0 -0.70332433318E+03 -0.33087108328E+03 -0.13560577012E+03  0.78900552363E+03  0.50400001928E-02 0. -1.
       -1    1    3    3    0  502  0.70332433318E+03  0.33087108328E+03 -0.27410513769E+04  0.28491232761E+04  0.50400001928E-02 0.  1.
</event>
<event>
 5   0  0.9457742E-05  0.1696839E+04  0.7818609E-02  0.8763169E-01
       -2   -1    0    0    0  501  0.00000000000E+00  0.00000000000E+00  0.37259808797E+03  0.37259808798E+03  0.25500000920E-02 0.  1.
        2   -1    0    0  501    0  0.00000000000E+00  0.00000000000E+00 -0.19318818483E+04  0.19318818483E+04  0.25500000920E-02 0. -1.
    10030    2    1    2    0    0  0.00000000000E+00  0.00000000000E+00 -0.15592837604E+04  0.23044799363E+04  0.16968388054E+04 0.  0.
        1    1    3    3  502    0 -0.74469431510E+03 -0.21155068746E+03 -0.12510659474E+04  0.14712203510E+04  0.50400001928E-02 0. -1.
       -1    1    3    3    0  502  0.74469431510E+03  0.21155068746E+03 -0.30821781293E+03  0.83325958533E+03  0.50400001928E-02 0.  1.
</event>
<event>
 5   0  0.9442578E-05  0.1943642E+04  0.7818609E-02  0.8633433E-01
        2   -1    0    0  501    0  0.00000000000E+00  0.00000000000E+00  0.14829201965E+04  0.14829201965E+04  0.25500000920E-02 0. -1.
       -2   -1    0    0    0  501  0.00000000000E+00  0.00000000000E+00 -0.63687576322E+03  0.63687576323E+03  0.25500000920E-02 0.  1.
    10030    2    1    2    0    0  0.00000000000E+00  0.00000000000E+00  0.84604443330E+03  0.21197959598E+04  0.19436418723E+04 0.  0.
        4    1    3    3  502    0  0.72868090722E+03 -0.13037810506E+03 -0.26369431756E+03  0.78581844012E+03  0.12699999809E+01 0.  1.
       -4    1    3    3    0  502 -0.72868090722E+03  0.13037810506E+03  0.11097387509E+04  0.13339775196E+04  0.12699999809E+01 0. -1.
</event>
<event>
 5   0  0.4174075E-05  0.2175910E+04  0.7818609E-02  0.8528522E-01
        1   -1    0    0  501    0  0.00000000000E+00  0.00000000000E+00  0.15184812053E+04  0.15184812053E+04  0.50400001928E-02 0. -1.
       -1   -1    0    0    0  501  0.00000000000E+00  0.00000000000E+00 -0.77949355842E+03  0.77949355844E+03  0.50400001928E-02 0.  1.
    10030    2    1    2    0    0  0.00000000000E+00  0.00000000000E+00  0.73898764685E+03  0.22979747637E+04  0.21759102170E+04 0.  0.
        5    1    3    3  502    0  0.83651184872E+02 -0.10287465288E+04  0.62401365636E+01  0.10321714831E+04  0.46999998093E+01 0. -1.
       -5    1    3    3    0  502 -0.83651184872E+02  0.10287465288E+04  0.73274751029E+03  0.12658032806E+04  0.46999998093E+01 0.  1.
</event>
<event>
 5   0  0.9457742E-05  0.2214737E+04  0.7818609E-02  0.8512319E-01
       -2   -1    0    0    0  501  0.00000000000E+00  0.00000000000E+00  0.42007464663E+03  0.42007464664E+03  0.25500000920E-02 0. -1.
        2   -1    0    0  501    0  0.00000000000E+00  0.00000000000E+00 -0.29191597556E+04  0.29191597556E+04  0.25500000920E-02 0.  1.
    10030    2    1    2    0    0  0.00000000000E+00  0.00000000000E+00 -0.24990851089E+04  0.33392344022E+04  0.22147370072E+04 0.  0.
        1    1    3    3  502    0  0.17051346394E+02  0.69734726749E+03  0.47179769719E+02  0.69914940506E+03  0.50400001928E-02 0. -1.
       -1    1    3    3    0  502 -0.17051346394E+02 -0.69734726749E+03 -0.25462648787E+04  0.26400849972E+04  0.50400001928E-02 0.  1.
</event>
<event>
 5   0  0.9179618E-05  0.2175799E+04  0.7818609E-02  0.8528569E-01
        2   -1    0    0  501    0  0.00000000000E+00  0.00000000000E+00  0.12124452481E+04  0.12124452481E+04  0.25500000920E-02 0.  1.
       -2   -1    0    0    0  501  0.00000000000E+00  0.00000000000E+00 -0.97614700695E+03  0.97614700695E+03  0.25500000920E-02 0. -1.
    10030    2    1    2    0    0  0.00000000000E+00  0.00000000000E+00  0.23629824113E+03  0.21885922550E+04  0.21757985201E+04 0.  0.
        3    1    3    3  502    0  0.12773574009E+03 -0.16049141646E+03 -0.95652005870E+03  0.97826609210E+03  0.10100000352E+00 0. -1.
       -3    1    3    3    0  502 -0.12773574009E+03  0.16049141646E+03  0.11928182998E+04  0.12103261629E+04  0.10100000352E+00 0.  1.
</event>
<event>
 5   0  0.4063293E-05  0.2163819E+04  0.7818609E-02  0.8533640E-01
       -1   -1    0    0    0  501  0.00000000000E+00  0.00000000000E+00  0.51445572245E+03  0.51445572248E+03  0.50400001928E-02 0. -1.
        1   -1    0    0  501    0  0.00000000000E+00  0.00000000000E+00 -0.22752742005E+04  0.22752742005E+04  0.50400001928E-02 0.  1.
    10030    2    1    2    0    0  0.00000000000E+00  0.00000000000E+00 -0.17608184780E+04  0.27897299230E+04  0.21638186917E+04 0.  0.
        1    1    3    3  502    0  0.42019888807E+03 -0.46559825762E+03 -0.20169939725E+04  0.21122531875E+04  0.50400001928E-02 0.  1.
       -1    1    3    3    0  502 -0.42019888807E+03  0.46559825762E+03  0.25617549450E+03  0.67747673542E+03  0.50400001928E-02 0. -1.
</event>
<event>
 5   0  0.4063293E-05  0.2157389E+04  0.7818609E-02  0.8536376E-01
        1   -1    0    0  501    0  0.00000000000E+00  0.00000000000E+00  0.10746497836E+04  0.10746497836E+04  0.50400001928E-02 0.  1.
       -1   -1    0    0    0  501  0.00000000000E+00  0.00000000000E+00 -0.10827545825E+04  0.10827545825E+04  0.50400001928E-02 0. -1.
    10030    2    1    2    0    0  0.00000000000E+00  0.00000000000E+00 -0.81047988746E+01  0.21574043662E+04  0.21573891423E+04 0.  0.
        1    1    3    3  502    0  0.40768144122E+03 -0.99521980653E+03 -0.87211611608E+02  0.10790145903E+04  0.50400001928E-02 0. -1.
       -1    1    3    3    0  502 -0.40768144122E+03  0.99521980653E+03  0.79106812733E+02  0.10783897759E+04  0.50400001928E-02 0.  1.
</event>
<event>
 5   0  0.4188865E-05  0.2164413E+04  0.7818609E-02  0.8533388E-01
       -1   -1    0    0    0  501  0.00000000000E+00  0.00000000000E+00  0.13853388809E+04  0.13853388809E+04  0.50400001928E-02 0. -1.
        1   -1    0    0  501    0  0.00000000000E+00  0.00000000000E+00 -0.84540397350E+03  0.84540397351E+03  0.50400001928E-02 0.  1.
    10030    2    1    2    0    0  0.00000000000E+00  0.00000000000E+00  0.53993490740E+03  0.22307428544E+04  0.21644130794E+04 0.  0.
        3    1    3    3  502    0  0.46685020057E+03 -0.97484675759E+03  0.21450690263E+03  0.11019476086E+04  0.10100000352E+00 0.  1.
       -3    1    3    3    0  502 -0.46685020057E+03  0.97484675759E+03  0.32542800477E+03  0.11287952458E+04  0.10100000352E+00 0. -1.
</event>
<event>
 5   0  0.4174075E-05  0.2198793E+04  0.7818609E-02  0.8518930E-01
        1   -1    0    0  501    0  0.00000000000E+00  0.00000000000E+00  0.22999159107E+04  0.22999159108E+04  0.50400001928E-02 0.  1.
       -1   -1    0    0    0  501  0.00000000000E+00  0.00000000000E+00 -0.52552926903E+03  0.52552926905E+03  0.50400001928E-02 0. -1.
    10030    2    1    2    0    0  0.00000000000E+00  0.00000000000E+00  0.17743866417E+04  0.28254451798E+04  0.21987934213E+04 0.  0.
        5    1    3    3  502    0 -0.66630616527E+03  0.13180421516E+03  0.19980403104E+04  0.21103372785E+04  0.46999998093E+01 0.  1.
       -5    1    3    3    0  502  0.66630616527E+03 -0.13180421516E+03 -0.22365366867E+03  0.71510790132E+03  0.46999998093E+01 0. -1.
</event>
<event>
 5   0  0.4188865E-05  0.2194280E+04  0.7818609E-02  0.8520813E-01
        1   -1    0    0  501    0  0.00000000000E+00  0.00000000000E+00  0.15103295442E+04  0.15103295442E+04  0.50400001928E-02 0.  1.
       -1   -1    0    0    0  501  0.00000000000E+00  0.00000000000E+00 -0.79698891516E+03  0.79698891518E+03  0.50400001928E-02 0. -1.
    10030    2    1    2    0    0  0.00000000000E+00  0.00000000000E+00  0.71334062903E+03  0.23073184594E+04  0.21942797497E+04 0.  0.
        3    1    3    3  502    0 -0.80785261093E+03  0.72999017403E+03  0.21479601647E+03  0.11097967535E+04  0.10100000352E+00 0. -1.
       -3    1    3    3    0  502  0.80785261093E+03 -0.72999017403E+03  0.49854461256E+03  0.11975217059E+04  0.10100000352E+00 0.  1.
</event>
<event>
 5   0  0.9442578E-05  0.2189249E+04  0.7818609E-02  0.8522916E-01
        2   -1    0    0  501    0  0.00000000000E+00  0.00000000000E+00  0.14349049984E+04  0.14349049984E+04  0.25500000920E-02 0. -1.
       -2   -1    0    0    0  501  0.00000000000E+00  0.00000000000E+00 -0.83503975419E+03  0.83503975419E+03  0.25500000920E-02 0.  1.
    10030    2    1    2    0    0  0.00000000000E+00  0.00000000000E+00  0.59986524425E+03  0.22699447526E+04  0.21892489280E+04 0.  0.
        4    1    3    3  502    0 -0.90072229743E+03  0.44098944429E+03  0.75476893364E+03  0.12551693524E+04  0.12699999809E+01 0. -1.
       -4    1    3    3    0  502  0.90072229743E+03 -0.44098944429E+03 -0.15490368940E+03  0.10147754003E+04  0.12699999809E+01 0.  1.
</event>
<event>
 5   0  0.9457742E-05  0.2367854E+04  0.7818609E-02  0.8451638E-01
       -2   -1    0    0    0  501  0.00000000000E+00  0.00000000000E+00  0.81279142348E+03  0.81279142348E+03  0.25500000920E-02 0.  1.
        2   -1    0    0  501    0  0.00000000000E+00  0.00000000000E+00 -0.17245293173E+04  0.17245293173E+04  0.25500000920E-02 0. -1.
    10030    2    1    2    0    0  0.00000000000E+00  0.00000000000E+00 -0.91173789382E+03  0.25373207408E+04  0.23678535754E+04 0.  0.
        1    1    3    3  502    0 -0.11782857490E+04  0.26988468585E+02 -0.33560005390E+03  0.12254440338E+04  0.50400001928E-02 0.  1.
       -1    1    3    3    0  502  0.11782857490E+04 -0.26988468585E+02 -0.57613783992E+03  0.13118767070E+04  0.50400001928E-02 0. -1.
</event>
<event>
 5   0  0.4174030E-05  0.2196589E+04  0.7818609E-02  0.8519849E-01
        1   -1    0    0  501    0  0.00000000000E+00  0.00000000000E+00  0.20262073108E+04  0.20262073108E+04  0.50400001928E-02 0.  1.
       -1   -1    0    0    0  501  0.00000000000E+00  0.00000000000E+00 -0.59532439415E+03  0.59532439417E+03  0.50400001928E-02 0. -1.
    10030    2    1    2    0    0  0.00000000000E+00  0.00000000000E+00  0.14308829167E+04  0.26215317050E+04  0.21965888461E+04 0.  0.
        2    1    3    3  502    0 -0.74874314306E+03  0.74824615765E+03  0.36593607109E+03  0.11199990245E+04  0.25500000920E-02 0. -1.
       -2    1    3    3    0  502  0.74874314306E+03 -0.74824615765E+03  0.10649468456E+04  0.15015326805E+04  0.25500000920E-02 0.  1.
</event>
<event>
 5   0  0.9938176E-05  0.2179002E+04  0.7818609E-02  0.8527219E-01
       -2   -1    0    0    0  501  0.00000000000E+00  0.00000000000E+00  0.16844076433E+04  0.16844076433E+04  0.25500000920E-02 0. -1.
        2   -1    0    0  501    0  0.00000000000E+00  0.00000000000E+00 -0.70470609553E+03  0.70470609553E+03  0.25500000920E-02 0.  1.
    10030    2    1    2    0    0  0.00000000000E+00  0.00000000000E+00  0.97970154782E+03  0.23891137389E+04  0.21790019125E+04 0.  0.
        5    1    3    3  502    0  0.18283440538E+03  0.10678061416E+04  0.61654307515E+03  0.12465094582E+04  0.46999998093E+01 0. -1.
       -5    1    3    3    0  502 -0.18283440538E+03 -0.10678061416E+04  0.36315847267E+03  0.11426042807E+04  0.46999998093E+01 0.  1.
</event>
<event>
 5   0  0.4174030E-05  0.2165952E+04  0.7818609E-02  0.8532735E-01
       -1   -1    0    0    0  501  0.00000000000E+00  0.00000000000E+00  0.94798105893E+03  0.94798105894E+03  0.50400001928E-02 0. -1.
        1   -1    0    0  501    0  0.00000000000E+00  0.00000000000E+00 -0.12371950630E+04  0.12371950630E+04  0.50400001928E-02 0.  1.
    10030    2    1    2    0    0  0.00000000000E+00  0.00000000000E+00 -0.28921400407E+03  0.21851761220E+04  0.21659524334E+04 0.  0.
        2    1    3    3  502    0  0.99322039803E+03  0.15503990874E+03 -0.55106404830E+03  0.11463837567E+04  0.25500000920E-02 0.  1.
       -2    1    3    3    0  502 -0.99322039803E+03 -0.15503990874E+03  0.26185004423E+03  0.10387923652E+04  0.25500000920E-02 0. -1.
</event>
<event>
 5   0  0.9254673E-05  0.2216166E+04  0.7818609E-02  0.8511730E-01
        2   -1    0    0  501    0  0.00000000000E+00  0.00000000000E+00  0.57573145338E+03  0.57573145339E+03  0.25500000920E-02 0. -1.
       -2   -1    0    0    0  501  0.00000000000E+00  0.00000000000E+00 -0.21326743134E+04  0.21326743134E+04  0.25500000920E-02 0.  1.
    10030    2    1    2    0    0  0.00000000000E+00  0.00000000000E+00 -0.15569428600E+04  0.27084057668E+04  0.22161657718E+04 0.  0.
        2    1    3    3  502    0 -0.98279185969E+03  0.47753305263E+03 -0.55335687051E+03  0.12247944652E+04  0.25500000920E-02 0. -1.
       -2    1    3    3    0  502  0.98279185969E+03 -0.47753305263E+03 -0.10035859895E+04  0.14836113016E+04  0.25500000920E-02 0.  1.
</event>
<event>
 5   0  0.9179618E-05  0.2197074E+04  0.7818609E-02  0.8519647E-01
       -2   -1    0    0    0  501  0.00000000000E+00  0.00000000000E+00  0.89328998583E+03  0.89328998583E+03  0.25500000920E-02 0. -1.
        2   -1    0    0  501    0  0.00000000000E+00  0.00000000000E+00 -0.13509432310E+04  0.13509432310E+04  0.25500000920E-02 0.  1.
    10030    2    1    2    0    0  0.00000000000E+00  0.00000000000E+00 -0.45765324516E+03  0.22442332168E+04  0.21970744727E+04 0.  0.
        3    1    3    3  502    0 -0.58392707300E+03  0.35606951487E+03 -0.11069460250E+04  0.13011863197E+04  0.10100000352E+00 0.  1.
       -3    1    3    3    0  502  0.58392707300E+03 -0.35606951487E+03  0.64929277987E+03  0.94304689713E+03  0.10100000352E+00 0. -1.
</event>
<event>
 5   0  0.3283125E-05  0.2199747E+04  0.7818609E-02  0.8518533E-01
       -3   -1    0    0    0  501  0.00000000000E+00  0.00000000000E+00  0.13475627245E+04  0.13475627283E+04  0.10100000352E+00 0.  1.
        3   -1    0    0  501    0  0.00000000000E+00  0.00000000000E+00 -0.89771112173E+03  0.89771112741E+03  0.10100000352E+00 0. -1.
    10030    2    1    2    0    0  0.00000000000E+00  0.00000000000E+00  0.44985160276E+03  0.22452738557E+04  0.21997473088E+04 0.  0.
        5    1    3    3  502    0 -0.69948339251E+03  0.84522601740E+03  0.30409347196E+03  0.11384985580E+04  0.46999998093E+01 0.  1.
       -5    1    3    3    0  502  0.69948339251E+03 -0.84522601740E+03  0.14575813080E+03  0.11067752977E+04  0.46999998093E+01 0. -1.
</event>
<event>
 5   0  0.9457742E-05  0.2203353E+04  0.7818609E-02  0.8517034E-01
        2   -1    0    0  501    0  0.00000000000E+00  0.00000000000E+00  0.18907421547E+04  0.18907421547E+04  0.25500000920E-02 0. -1.
       -2   -1    0    0    0  501  0.00000000000E+00  0.00000000000E+00 -0.64191242726E+03  0.64191242727E+03  0.25500000920E-02 0.  1.
    10030    2    1    2    0    0  0.00000000000E+00  0.00000000000E+00  0.12488297274E+04  0.25326545819E+04  0.22033527959E+04 0.  0.
        1    1    3    3  502    0 -0.25027125265E+03 -0.16207871856E+03 -0.59464998734E+03  0.66521712123E+03  0.50400001928E-02 0.  1.
       -1    1    3    3    0  502  0.25027125265E+03  0.16207871856E+03  0.18434797148E+04  0.18674374607E+04  0.50400001928E-02 0. -1.
</event>
<event>
 5   0  0.9442578E-05  0.2141162E+04  0.7818609E-02  0.8543325E-01
        2   -1    0    0  501    0  0.00000000000E+00  0.00000000000E+00  0.15426058040E+04  0.15426058040E+04  0.25500000920E-02 0.  1.
       -2   -1    0    0    0  501  0.00000000000E+00  0.00000000000E+00 -0.74299224451E+03  0.74299224452E+03  0.25500000920E-02 0. -1.
    10030    2    1    2    0    0  0.00000000000E+00  0.00000000000E+00  0.79961355946E+03  0.22855980485E+04  0.21411624401E+04 0.  0.
        4    1    3    3  502    0  0.21927036312E+03 -0.99107908430E+03  0.76309552416E+03  0.12698951277E+04  0.12699999809E+01 0. -1.
       -4    1    3    3    0  502 -0.21927036312E+03  0.99107908430E+03  0.36518035300E+02  0.10157029208E+04  0.12699999809E+01 0.  1.
</event>
<event>
 5   0  0.4174075E-05  0.2213924E+04  0.7818609E-02  0.8512655E-01
        1   -1    0    0  501    0  0.00000000000E+00  0.00000000000E+00  0.14954995442E+04  0.14954995442E+04  0.50400001928E-02 0. -1.
       -1   -1    0    0    0  501  0.00000000000E+00  0.00000000000E+00 -0.81936862811E+03  0.81936862812E+03  0.50400001928E-02 0.  1.
    10030    2    1    2    0    0  0.00000000000E+00  0.00000000000E+00  0.67613091605E+03  0.23148681723E+04  0.22139244882E+04 0.  0.
        5    1    3    3  502    0 -0.10826507221E+04 -0.19968189022E+03  0.21730998959E+03  0.11221636088E+04  0.46999998093E+01 0. -1.
       -5    1    3    3    0  502  0.10826507221E+04  0.19968189022E+03  0.45882092646E+03  0.11927045635E+04  0.46999998093E+01 0.  1.
</event>
<event>
 5   0  0.4133418E-05  0.2212084E+04  0.7818609E-02  0.8513415E-01
        1   -1    0    0  501    0  0.00000000000E+00  0.00000000000E+00  0.14239627082E+04  0.14239627082E+04  0.50400001928E-02 0.  1.
       -1   -1    0    0    0  501  0.00000000000E+00  0.00000000000E+00 -0.85910213384E+03  0.85910213385E+03  0.50400001928E-02 0. -1.
    10030    2    1    2    0    0  0.00000000000E+00  0.00000000000E+00  0.56486057437E+03  0.22830648421E+04  0.22120844479E+04 0.  0.
        4    1    3    3  502    0 -0.38219276386E+03  0.10108659691E+04  0.39491537123E+02  0.10814261466E+04  0.12699999809E+01 0.  1.
       -4    1    3    3    0  502  0.38219276386E+03 -0.10108659691E+04  0.52536903725E+03  0.12016386954E+04  0.12699999809E+01 0. -1.
</event>
<event>
 5   0  0.4174075E-05  0.2184651E+04  0.7818609E-02  0.8524844E-01
        1   -1    0    0  501    0  0.00000000000E+00  0.00000000000E+00  0.11217002161E+04  0.11217002161E+04  0.50400001928E-02 0. -1.
       -1   -1    0    0    0  501  0.00000000000E+00  0.00000000000E+00 -0.10637201713E+04  0.10637201713E+04  0.50400001928E-02 0.  1.
    10030    2    1    2    0    0  0.00000000000E+00  0.00000000000E+00  0.57980044800E+02  0.21854203875E+04  0.21846511356E+04 0.  0.
        5    1    3    3  502    0  0.14353132286E+03 -0.10632407652E+04 -0.17619409869E+03  0.10872665800E+04  0.46999998093E+01 0.  1.
       -5    1    3    3    0  502 -0.14353132286E+03  0.10632407652E+04  0.23417414349E+03  0.10981538075E+04  0.46999998093E+01 0. -1.
</event>
<event>
 5   0  0.9179618E-05  0.2171176E+04  0.7818609E-02  0.8530522E-01
       -2   -1    0    0    0  501  0.00000000000E+00  0.00000000000E+00  0.49750276642E+03  0.49750276643E+03  0.25500000920E-02 0.  1.
        2   -1    0    0  501    0  0.00000000000E+00  0.00000000000E+00 -0.23688345703E+04  0.23688345703E+04  0.25500000920E-02 0. -1.
    10030    2    1    2    0    0  0.00000000000E+00  0.00000000000E+00 -0.18713318039E+04  0.28663373367E+04  0.21711764110E+04 0.  0.
        3    1    3    3  502    0 -0.71975684375E+03 -0.36478442228E+03 -0.18943945984E+04  0.20590892388E+04  0.10100000352E+00 0. -1.
       -3    1    3    3    0  502  0.71975684375E+03  0.36478442228E+03  0.23062794514E+02  0.80724809790E+03  0.10100000352E+00 0.  1.
</event>
<event>
 5   0  0.9254673E-05  0.2220074E+04  0.7818609E-02  0.8510119E-01
       -2   -1    0    0    0  501  0.00000000000E+00  0.00000000000E+00  0.48815342417E+03  0.48815342417E+03  0.25500000920E-02 0.  1.
        2   -1    0    0  501    0  0.00000000000E+00  0.00000000000E+00 -0.25241708697E+04  0.25241708697E+04  0.25500000920E-02 0. -1.
    10030    2    1    2    0    0  0.00000000000E+00  0.00000000000E+00 -0.20360174456E+04  0.30123242939E+04  0.22200744611E+04 0.  0.
        2    1    3    3  502    0  0.66466067640E+03 -0.82748052037E+03 -0.14591122227E+04  0.18043021656E+04  0.25500000920E-02 0. -1.
       -2    1    3    3    0  502 -0.66466067640E+03  0.82748052037E+03 -0.57690522290E+03  0.12080221283E+04  0.25500000920E-02 0.  1.
</event>
<event>
 5   0  0.9938176E-05  0.2168857E+04  0.7818609E-02  0.8531503E-01
        2   -1    0    0  501    0  0.00000000000E+00  0.00000000000E+00  0.21057999164E+04  0.21057999164E+04  0.25500000920E-02 0. -1.
       -2   -1    0    0    0  501  0.00000000000E+00  0.00000000000E+00 -0.55845050331E+03  0.55845050331E+03  0.25500000920E-02 0.  1.
    10030    2    1    2    0    0  0.00000000000E+00  0.00000000000E+00  0.15473494130E+04  0.26642504197E+04  0.21688568631E+04 0.  0.
        5    1    3    3  502    0  0.30240159361E+03 -0.31879656381E+03  0.19915294630E+04  0.20394336628E+04  0.46999998093E+01 0. -1.
       -5    1    3    3    0  502 -0.30240159361E+03  0.31879656381E+03 -0.44418004995E+03  0.62481675689E+03  0.46999998093E+01 0.  1.
</event>
<event>
 5   0  0.4133418E-05  0.2221615E+04  0.7818609E-02  0.8509485E-01
       -1   -1    0    0    0  501  0.00000000000E+00  0.00000000000E+00  0.11757276636E+04  0.11757276636E+04  0.50400001928E-02 0. -1.
        1   -1    0    0  501    0  0.00000000000E+00  0.00000000000E+00 -0.10494716890E+04  0.10494716890E+04  0.50400001928E-02 0.  1.
    10030    2    1    2    0    0  0.00000000000E+00  0.00000000000E+00  0.12625597466E+03  0.22251993526E+04  0.22216146353E+04 0.  0.
        4    1    3    3  502    0 -0.92592550798E+03  0.19386829443E+03  0.64627728109E+03  0.11456870859E+04  0.12699999809E+01 0. -1.
       -4    1    3    3    0  502  0.92592550798E+03 -0.19386829443E+03 -0.52002130643E+03  0.10795122667E+04  0.12699999809E+01 0.  1.
</event>
<event>
 5   0  0.4063293E-05  0.2267505E+04  0.7818609E-02  0.8490845E-01
       -1   -1    0    0    0  501  0.00000000000E+00  0.00000000000E+00  0.12051839382E+04  0.12051839382E+04  0.50400001928E-02 0. -1.
        1   -1    0    0  501    0  0.00000000000E+00  0.00000000000E+00 -0.10665548784E+04  0.10665548784E+04  0.50400001928E-02 0.  1.
    10030    2    1    2    0    0  0.00000000000E+00  0.00000000000E+00  0.13862905977E+03  0.22717388166E+04  0.22675050683E+04 0.  0.
        1    1    3    3  502    0  0.98483056722E+03  0.42190372610E+03  0.44081790017E+03  0.11585397798E+04  0.50400001928E-02 0. -1.
       -1    1    3    3    0  502 -0.98483056722E+03 -0.42190372610E+03 -0.30218884040E+03  0.11131990368E+04  0.50400001928E-02 0.  1.
</event>
<event>
 5   0  0.9254673E-05  0.2249685E+04  0.7818609E-02  0.8498028E-01
        2   -1    0    0  501    0  0.00000000000E+00  0.00000000000E+00  0.11850306145E+04  0.11850306145E+04  0.25500000920E-02 0. -1.
       -2   -1    0    0    0  501  0.00000000000E+00  0.00000000000E+00 -0.10677109511E+04  0.10677109511E+04  0.25500000920E-02 0.  1.
    10030    2    1    2    0    0  0.00000000000E+00  0.00000000000E+00  0.11731966337E+03  0.22527415656E+04  0.22496845685E+04 0.  0.
        2    1    3    3  502    0  0.73416482261E+03  0.50639749732E+03 -0.62771578897E+03  0.10906252903E+04  0.25500000920E-02 0.  1.
       -2    1    3    3    0  502 -0.73416482261E+03 -0.50639749732E+03  0.74503545234E+03  0.11621162753E+04  0.25500000920E-02 0. -1.
</event>
<event>
 5   0  0.3283125E-05  0.2188000E+04  0.7818609E-02  0.8523439E-01
        3   -1    0    0  501    0  0.00000000000E+00  0.00000000000E+00  0.10108859336E+04  0.10108859386E+04  0.10100000352E+00 0. -1.
       -3   -1    0    0    0  501  0.00000000000E+00  0.00000000000E+00 -0.11839477397E+04  0.11839477440E+04  0.10100000352E+00 0.  1.
    10030    2    1    2    0    0  0.00000000000E+00  0.00000000000E+00 -0.17306180606E+03  0.21948336826E+04  0.21880001156E+04 0.  0.
        3    1    3    3  502    0  0.61190206112E+03 -0.58110345993E+03 -0.78493143665E+03  0.11524854593E+04  0.10100000352E+00 0.  1.
       -3    1    3    3    0  502 -0.61190206112E+03  0.58110345993E+03  0.61186963059E+03  0.10423482233E+04  0.10100000352E+00 0. -1.
</event>
<event>
 5   0  0.4133418E-05  0.2208046E+04  0.7818609E-02  0.8515087E-01
       -1   -1    0    0    0  501  0.00000000000E+00  0.00000000000E+00  0.68491598222E+03  0.68491598224E+03  0.50400001928E-02 0. -1.
        1   -1    0    0  501    0  0.00000000000E+00  0.00000000000E+00 -0.17795852304E+04  0.17795852304E+04  0.50400001928E-02 0.  1.
    10030    2    1    2    0    0  0.00000000000E+00  0.00000000000E+00 -0.10946692482E+04  0.24645012126E+04  0.22080456209E+04 0.  0.
        4    1    3    3  502    0 -0.88563586951E+03  0.64966497902E+03 -0.67187008163E+03  0.12875661140E+04  0.12699999809E+01 0. -1.
       -4    1    3    3    0  502  0.88563586951E+03 -0.64966497902E+03 -0.42279916652E+03  0.11769350987E+04  0.12699999809E+01 0.  1.
</event>
<event>
 5   0  0.9442578E-05  0.2189083E+04  0.7818609E-02  0.8522986E-01
        2   -1    0    0  501    0  0.00000000000E+00  0.00000000000E+00  0.10681733555E+04  0.10681733555E+04  0.25500000920E-02 0.  1.
       -2   -1    0    0    0  501  0.00000000000E+00  0.00000000000E+00 -0.11215610063E+04  0.11215610063E+04  0.25500000920E-02 0. -1.
    10030    2    1    2    0    0  0.00000000000E+00  0.00000000000E+00 -0.53387650807E+02  0.21897343618E+04  0.21890834461E+04 0.  0.
        4    1    3    3  502    0  0.10677549132E+04 -0.16478571901E+03 -0.20214575978E+03  0.10991448535E+04  0.12699999809E+01 0. -1.
       -4    1    3    3    0  502 -0.10677549132E+04  0.16478571901E+03  0.14875810897E+03  0.10905895083E+04  0.12699999809E+01 0.  1.
</event>
<event>
 5   0  0.4174075E-05  0.2173687E+04  0.7818609E-02  0.8529461E-01
        1   -1    0    0  501    0  0.00000000000E+00  0.00000000000E+00  0.13438287640E+04  0.13438287640E+04  0.50400001928E-02 0. -1.
       -1   -1    0    0    0  501  0.00000000000E+00  0.00000000000E+00 -0.87900245176E+03  0.87900245177E+03  0.50400001928E-02 0.  1.
    10030    2    1    2    0    0  0.00000000000E+00  0.00000000000E+00  0.46482631222E+03  0.22228312158E+04  0.21736869860E+04 0.  0.
        5    1    3    3  502    0  0.18827743078E+03  0.96994699708E+03 -0.23054871526E+03  0.10146035522E+04  0.46999998093E+01 0.  1.
       -5    1    3    3    0  502 -0.18827743078E+03 -0.96994699708E+03  0.69537502748E+03  0.12082276635E+04  0.46999998093E+01 0. -1.
</event>
<event>
 5   0  0.9938176E-05  0.1672692E+04  0.7818609E-02  0.8777094E-01
        2   -1    0    0  501    0  0.00000000000E+00  0.00000000000E+00  0.12164386117E+04  0.12164386117E+04  0.25500000920E-02 0. -1.
       -2   -1    0    0    0  501  0.00000000000E+00  0.00000000000E+00 -0.57501830893E+03  0.57501830893E+03  0.25500000920E-02 0.  1.
    10030    2    1    2    0    0  0.00000000000E+00  0.00000000000E+00  0.64142030275E+03  0.17914569206E+04  0.16726918107E+04 0.  0.
        5    1    3    3  502    0  0.44169930560E+03  0.49446660109E+03 -0.22524573694E+03  0.70025226038E+03  0.46999998093E+01 0.  1.
       -5    1    3    3    0  502 -0.44169930560E+03 -0.49446660109E+03  0.86666603969E+03  0.10912046602E+04  0.46999998093E+01 0. -1.
</event>
<event>
 5   0  0.9457742E-05  0.2291165E+04  0.7818609E-02  0.8481413E-01
       -2   -1    0    0    0  501  0.00000000000E+00  0.00000000000E+00  0.66380425831E+03  0.66380425831E+03  0.25500000920E-02 0. -1.
        2   -1    0    0  501    0  0.00000000000E+00  0.00000000000E+00 -0.19770277227E+04  0.19770277227E+04  0.25500000920E-02 0.  1.
    10030    2    1    2    0    0  0.00000000000E+00  0.00000000000E+00 -0.13132234644E+04  0.26408319810E+04  0.22911651369E+04 0.  0.
        1    1    3    3  502    0  0.46314760475E+03 -0.89060653680E+03 -0.20399709686E+02  0.10040427557E+04  0.50400001928E-02 0.  1.
       -1    1    3    3    0  502 -0.46314760475E+03  0.89060653680E+03 -0.12928237547E+04  0.16367892252E+04  0.50400001928E-02 0. -1.
</event>
<event>
 5   0  0.4188865E-05  0.2193041E+04  0.7818609E-02  0.8521330E-01
       -1   -1    0    0    0  501  0.00000000000E+00  0.00000000000E+00  0.80738474844E+03  0.80738474846E+03  0.50400001928E-02 0. -1.
        1   -1    0    0  501    0  0.00000000000E+00  0.00000000000E+00 -0.14891998502E+04  0.14891998502E+04  0.50400001928E-02 0.  1.
    10030    2    1    2    0    0  0.00000000000E+00  0.00000000000E+00 -0.68181510176E+03  0.22965845987E+04  0.21930410361E+04 0.  0.
        3    1    3    3  502    0  0.27542487468E+03 -0.72567461920E+03  0.47019022433E+03  0.90749180261E+03  0.10100000352E+00 0. -1.
       -3    1    3    3    0  502 -0.27542487468E+03  0.72567461920E+03 -0.11520053261E+04  0.13890927961E+04  0.10100000352E+00 0.  1.
</event>
<event>
 5   0  0.4133418E-05  0.2251661E+04  0.7818609E-02  0.8497228E-01
        1   -1    0    0  501    0  0.00000000000E+00  0.00000000000E+00  0.54665251280E+03  0.54665251282E+03  0.50400001928E-02 0. -1.
       -1   -1    0    0    0  501  0.00000000000E+00  0.00000000000E+00 -0.23186477789E+04  0.23186477789E+04  0.50400001928E-02 0.  1.
    10030    2    1    2    0    0  0.00000000000E+00  0.00000000000E+00 -0.17719952661E+04  0.28653002917E+04  0.22516612842E+04 0.  0.
        4    1    3    3  502    0  0.17374510256E+03 -0.81595594537E+03 -0.18480160611E+04  0.20275937562E+04  0.12699999809E+01 0.  1.
       -4    1    3    3    0  502 -0.17374510256E+03  0.81595594537E+03  0.76020794959E+02  0.83770653550E+03  0.12699999809E+01 0. -1.
</event>
<event>
 5   0  0.4133418E-05  0.2237076E+04  0.7818609E-02  0.8503153E-01
       -1   -1    0    0    0  501  0.00000000000E+00  0.00000000000E+00  0.77019329363E+03  0.77019329364E+03  0.50400001928E-02 0. -1.
        1   -1    0    0  501    0  0.00000000000E+00  0.00000000000E+00 -0.16244330540E+04  0.16244330540E+04  0.50400001928E-02 0.  1.
    10030    2    1    2    0    0  0.00000000000E+00  0.00000000000E+00 -0.85423976033E+03  0.23946263476E+04  0.22370761669E+04 0.  0.
        4    1    3    3  502    0  0.99491790995E+03 -0.29220063418E+03 -0.87603980833E+03  0.13574572615E+04  0.12699999809E+01 0.  1.
       -4    1    3    3    0  502 -0.99491790995E+03  0.29220063418E+03  0.21800048002E+02  0.10371690861E+04  0.12699999809E+01 0. -1.
</event>
<event>
 5   0  0.4133418E-05  0.1867487E+04  0.7818609E-02  0.8671211E-01
        1   -1    0    0  501    0  0.00000000000E+00  0.00000000000E+00  0.48068272484E+03  0.48068272487E+03  0.50400001928E-02 0. -1.
       -1   -1    0    0    0  501  0.00000000000E+00  0.00000000000E+00 -0.18138308010E+04  0.18138308010E+04  0.50400001928E-02 0.  1.
    10030    2    1    2    0    0  0.00000000000E+00  0.00000000000E+00 -0.13331480761E+04  0.22945135258E+04  0.18674872228E+04 0.  0.
        4    1    3    3  502    0 -0.61849566672E+03 -0.26193109115E+03  0.13038335061E+03  0.68421211424E+03  0.12699999809E+01 0. -1.
       -4    1    3    3    0  502  0.61849566672E+03  0.26193109115E+03 -0.14635314267E+04  0.16103014116E+04  0.12699999809E+01 0.  1.
</event>
<event>
 5   0  0.4188865E-05  0.2231583E+04  0.7818609E-02  0.8505396E-01
       -1   -1    0    0    0  501  0.00000000000E+00  0.00000000000E+00  0.11219216968E+04  0.11219216968E+04  0.50400001928E-02 0.  1.
        1   -1    0    0  501    0  0.00000000000E+00  0.00000000000E+00 -0.11096952513E+04  0.11096952514E+04  0.50400001928E-02 0. -1.
    10030    2    1    2    0    0  0.00000000000E+00  0.00000000000E+00  0.12226445477E+02  0.22316169482E+04  0.22315834552E+04 0.  0.
        3    1    3    3  502    0  0.47000605400E+03  0.98749049037E+03  0.22735851446E+03  0.11170206192E+04  0.10100000352E+00 0.  1.
       -3    1    3    3    0  502 -0.47000605400E+03 -0.98749049037E+03 -0.21513206898E+03  0.11145963290E+04  0.10100000352E+00 0. -1.
</event>
<event>
 5   0  0.9938176E-05  0.2500078E+04  0.7818609E-02  0.8402958E-01
       -2   -1    0    0    0  501  0.00000000000E+00  0.00000000000E+00  0.70396392894E+03  0.70396392894E+03  0.25500000920E-02 0.  1.
        2   -1    0    0  501    0  0.00000000000E+00  0.00000000000E+00 -0.22197118877E+04  0.22197118877E+04  0.25500000920E-02 0. -1.
    10030    2    1    2    0    0  0.00000000000E+00  0.00000000000E+00 -0.15157479588E+04  0.29236758167E+04  0.25000776801E+04 0.  0.
        5    1    3    3  502    0  0.38750942254E+03 -0.47922593932E+03  0.51393801843E+03  0.80248079744E+03  0.46999998093E+01 0.  1.
       -5    1    3    3    0  502 -0.38750942254E+03  0.47922593932E+03 -0.20296859772E+04  0.21211950192E+04  0.46999998093E+01 0. -1.
</event>
<event>
 5   0  0.9254673E-05  0.2286032E+04  0.7818609E-02  0.8483449E-01
       -2   -1    0    0    0  501  0.00000000000E+00  0.00000000000E+00  0.69589705648E+03  0.69589705648E+03  0.25500000920E-02 0. -1.
        2   -1    0    0  501    0  0.00000000000E+00  0.00000000000E+00 -0.18774119287E+04  0.18774119287E+04  0.25500000920E-02 0.  1.
    10030    2    1    2    0    0  0.00000000000E+00  0.00000000000E+00 -0.11815148722E+04  0.25733089852E+04  0.22860318764E+04 0.  0.
        2    1    3    3  502    0 -0.47031701677E+03  0.89832200570E+03 -0.11845983159E+04  0.15593119291E+04  0.25500000920E-02 0.  1.
       -2    1    3    3    0  502  0.47031701677E+03 -0.89832200570E+03  0.30834436482E+01  0.10139970561E+04  0.25500000920E-02 0. -1.
</event>
<event>
 5   0  0.4174030E-05  0.1620952E+04  0.7818609E-02  0.8807779E-01
        1   -1    0    0  501    0  0.00000000000E+00  0.00000000000E+00  0.14442240454E+04  0.14442240454E+04  0.50400001928E-02 0. -1.
       -1   -1    0    0    0  501  0.00000000000E+00  0.00000000000E+00 -0.45482673872E+03  0.45482673874E+03  0.50400001928E-02 0.  1.
    10030    2    1    2    0    0  0.00000000000E+00  0.00000000000E+00  0.98939730667E+03  0.18990507841E+04  0.16209524516E+04 0.  0.
        2    1    3    3  502    0 -0.58067300584E+03  0.54537003707E+03  0.31989547533E+03  0.85845368669E+03  0.25500000920E-02 0. -1.
       -2    1    3    3    0  502  0.58067300584E+03 -0.54537003707E+03  0.66950183134E+03  0.10405970975E+04  0.25500000920E-02 0.  1.
</event>
<event>
 5   0  0.4063293E-05  0.2218002E+04  0.7818609E-02  0.8510972E-01
        1   -1    0    0  501    0  0.00000000000E+00  0.00000000000E+00  0.12622799635E+04  0.12622799635E+04  0.50400001928E-02 0. -1.
       -1   -1    0    0    0  501  0.00000000000E+00  0.00000000000E+00 -0.97433507424E+03  0.97433507425E+03  0.50400001928E-02 0.  1.
    10030    2    1    2    0    0  0.00000000000E+00  0.00000000000E+00  0.28794488922E+03  0.22366150377E+04  0.22180023823E+04 0.  0.
        1    1    3    3  502    0  0.44048291838E+03 -0.21643607125E+03 -0.85886472582E+03  0.98920088536E+03  0.50400001928E-02 0.  1.
       -1    1    3    3    0  502 -0.44048291838E+03  0.21643607125E+03  0.11468096150E+04  0.12474141524E+04  0.50400001928E-02 0. -1.
</event>
<event>
 5   0  0.4188865E-05  0.2180786E+04  0.7818609E-02  0.8526468E-01
        1   -1    0    0  501    0  0.00000000000E+00  0.00000000000E+00  0.15057820090E+04  0.15057820091E+04  0.50400001928E-02 0.  1.
       -1   -1    0    0    0  501  0.00000000000E+00  0.00000000000E+00 -0.78959445979E+03  0.78959445980E+03  0.50400001928E-02 0. -1.
    10030    2    1    2    0    0  0.00000000000E+00  0.00000000000E+00  0.71618754926E+03  0.22953764689E+04  0.21807862179E+04 0.  0.
        3    1    3    3  502    0 -0.72898792221E+03 -0.15960180090E+03  0.11948911839E+04  0.14087799960E+04  0.10100000352E+00 0.  1.
       -3    1    3    3    0  502  0.72898792221E+03  0.15960180090E+03 -0.47870363467E+03  0.88659647283E+03  0.10100000352E+00 0. -1.
</event>
<event>
 5   0  0.4063293E-05  0.2150319E+04  0.7818609E-02  0.8539396E-01
       -1   -1    0    0    0  501  0.00000000000E+00  0.00000000000E+00  0.13318770000E+04  0.13318770000E+04  0.50400001928E-02 0. -1.
        1   -1    0    0  501    0  0.00000000000E+00  0.00000000000E+00 -0.86792414413E+03  0.86792414415E+03  0.50400001928E-02 0.  1.
    10030    2    1    2    0    0  0.00000000000E+00  0.00000000000E+00  0.46395285586E+03  0.21998011441E+04  0.21503192371E+04 0.  0.
        1    1    3    3  502    0  0.10083425316E+04  0.33501577043E+03  0.63947065317E+02  0.10644620494E+04  0.50400001928E-02 0.  1.
       -1    1    3    3    0  502 -0.10083425316E+04 -0.33501577043E+03  0.40000579054E+03  0.11353390947E+04  0.50400001928E-02 0. -1.
</event>
<event>
 5   0  0.4133418E-05  0.2207847E+04  0.7818609E-02  0.8515169E-01
       -1   -1    0    0    0  501  0.00000000000E+00  0.00000000000E+00  0.16549370347E+04  0.16549370347E+04  0.50400001928E-02 0.  1.
        1   -1    0    0  501    0  0.00000000000E+00  0.00000000000E+00 -0.73637048939E+03  0.73637048941E+03  0.50400001928E-02 0. -1.
    10030    2    1    2    0    0  0.00000000000E+00  0.00000000000E+00  0.91856654532E+03  0.23913075241E+04  0.22078467285E+04 0.  0.
        4    1    3    3  502    0 -0.21347320757E+03 -0.67417769170E+03  0.13773995118E+04  0.15483272905E+04  0.12699999809E+01 0.  1.
       -4    1    3    3    0  502  0.21347320757E+03  0.67417769170E+03 -0.45883296649E+03  0.84298023367E+03  0.12699999809E+01 0. -1.
</event>
<event>
 5   0  0.4133418E-05  0.2176332E+04  0.7818609E-02  0.8528344E-01
       -1   -1    0    0    0  501  0.00000000000E+00  0.00000000000E+00  0.11684663604E+04  0.11684663604E+04  0.50400001928E-02 0.  1.
        1   -1    0    0  501    0  0.00000000000E+00  0.00000000000E+00 -0.10133836738E+04  0.10133836738E+04  0.50400001928E-02 0. -1.
    10030    2    1    2    0    0  0.00000000000E+00  0.00000000000E+00  0.15508268658E+03  0.21818500343E+04  0.21763315309E+04 0.  0.
        4    1    3    3  502    0  0.95800020542E+03 -0.12831736796E+03  0.57868223113E+03  0.11265453733E+04  0.12699999809E+01 0. -1.
       -4    1    3    3    0  502 -0.95800020542E+03  0.12831736796E+03 -0.42359954455E+03  0.10553046610E+04  0.12699999809E+01 0.  1.
</event>
<event>
 5   0  0.4188865E-05  0.2194038E+04  0.7818609E-02  0.8520914E-01
        1   -1    0    0  501    0  0.00000000000E+00  0.00000000000E+00  0.17380641076E+04  0.17380641076E+04  0.50400001928E-02 0. -1.
       -1   -1    0    0    0  501  0.00000000000E+00  0.00000000000E+00 -0.69240863661E+03  0.69240863663E+03  0.50400001928E-02 0.  1.
    10030    2    1    2    0    0  0.00000000000E+00  0.00000000000E+00  0.10456554710E+04  0.24304727443E+04  0.21940379205E+04 0.  0.
        3    1    3    3  502    0 -0.19936404272E+03  0.10749088902E+04  0.62360029974E+03  0.12585914698E+04  0.10100000352E+00 0.  1.
       -3    1    3    3    0  502  0.19936404272E+03 -0.10749088902E+04  0.42205517128E+03  0.11718812745E+04  0.10100000352E+00 0. -1.
</event>
<event>
 5   0  0.9254673E-05  0.2211188E+04  0.7818609E-02  0.8513786E-01
       -2   -1    0    0    0  501  0.00000000000E+00  0.00000000000E+00  0.20543946221E+04  0.20543946221E+04  0.25500000920E-02 0. -1.
        2   -1    0    0  501    0  0.00000000000E+00  0.00000000000E+00 -0.59498682990E+03  0.59498682991E+03  0.25500000920E-02 0.  1.
    10030    2    1    2    0    0  0.00000000000E+00  0.00000000000E+00  0.14594077922E+04  0.26493814521E+04  0.22111876841E+04 0.  0.
        2    1    3    3  502    0  0.13173653125E+03 -0.50052840795E+03 -0.44086373163E+03  0.67988530703E+03  0.25500000920E-02 0.  1.
       -2    1    3    3    0  502 -0.13173653125E+03  0.50052840795E+03  0.19002715239E+04  0.19694961450E+04  0.25500000920E-02 0. -1.
</event>
<event>
 5   0  0.4174075E-05  0.2205943E+04  0.7818609E-02  0.8515958E-01
        1   -1    0    0  501    0  0.00000000000E+00  0.00000000000E+00  0.11640462586E+04  0.11640462586E+04  0.50400001928E-02 0. -1.
       -1   -1    0    0    0  501  0.00000000000E+00  0.00000000000E+00 -0.10451014358E+04  0.10451014358E+04  0.50400001928E-02 0.  1.
    10030    2    1    2    0    0  0.00000000000E+00  0.00000000000E+00  0.11894482280E+03  0.22091476944E+04  0.22059432597E+04 0.  0.
        5    1    3    3  502    0 -0.55555620189E+03  0.33352209715E+03  0.95331848061E+03  0.11527002638E+04  0.46999998093E+01 0. -1.
       -5    1    3    3    0  502  0.55555620189E+03 -0.33352209715E+03 -0.83437365781E+03  0.10564474306E+04  0.46999998093E+01 0.  1.
</event>
<event>
 5   0  0.9457742E-05  0.2183009E+04  0.7818609E-02  0.8525534E-01
       -2   -1    0    0    0  501  0.00000000000E+00  0.00000000000E+00  0.96491639747E+03  0.96491639747E+03  0.25500000920E-02 0. -1.
        2   -1    0    0  501    0  0.00000000000E+00  0.00000000000E+00 -0.12346994787E+04  0.12346994787E+04  0.25500000920E-02 0.  1.
    10030    2    1    2    0    0  0.00000000000E+00  0.00000000000E+00 -0.26978308118E+03  0.21996158761E+04  0.21830087246E+04 0.  0.
        1    1    3    3  502    0 -0.97999559281E+03  0.45679085747E+03  0.15686025823E+02  0.10813395863E+04  0.50400001928E-02 0.  1.
       -1    1    3    3    0  502  0.97999559281E+03 -0.45679085747E+03 -0.28546910701E+03  0.11182762899E+04  0.50400001928E-02 0. -1.
</event>
<event>
 5   0  0.4188865E-05  0.2209718E+04  0.7818609E-02  0.8514394E-01
        1   -1    0    0  501    0  0.00000000000E+00  0.00000000000E+00  0.12787559613E+04  0.12787559614E+04  0.50400001928E-02 0.  1.
       -1   -1    0    0    0  501  0.00000000000E+00  0.00000000000E+00 -0.95461029728E+03  0.95461029729E+03  0.50400001928E-02 0. -1.
    10030    2    1    2    0    0  0.00000000000E+00  0.00000000000E+00  0.32414566407E+03  0.22333662586E+04  0.22097181797E+04 0.  0.
        3    1    3    3  502    0  0.68284641415E+03  0.63989469991E+03  0.75569920717E+03  0.12028407019E+04  0.10100000352E+00 0.  1.
       -3    1    3    3    0  502 -0.68284641415E+03 -0.63989469991E+03 -0.43155354310E+03  0.10305255567E+04  0.10100000352E+00 0. -1.
</event>
<event>
 5   0  0.9457742E-05  0.2145548E+04  0.7818609E-02  0.8541440E-01
        2   -1    0    0  501    0  0.00000000000E+00  0.00000000000E+00  0.12463975680E+04  0.12463975680E+04  0.25500000920E-02 0.  1.
       -2   -1    0    0    0  501  0.00000000000E+00  0.00000000000E+00 -0.92333602887E+03  0.92333602887E+03  0.25500000920E-02 0. -1.
    10030    2    1    2    0    0  0.00000000000E+00  0.00000000000E+00  0.32306153910E+03  0.21697335968E+04  0.21455477443E+04 0.  0.
        1    1    3    3  502    0  0.60468760973E+03 -0.78962188257E+03 -0.24511394004E+03  0.10243196115E+04  0.50400001928E-02 0. -1.
       -1    1    3    3    0  502 -0.60468760973E+03  0.78962188257E+03  0.56817547914E+03  0.11454139854E+04  0.50400001928E-02 0.  1.
</event>
<event>
 5   0  0.4063293E-05  0.2228755E+04  0.7818609E-02  0.8506554E-01
       -1   -1    0    0    0  501  0.00000000000E+00  0.00000000000E+00  0.13541022248E+04  0.13541022248E+04  0.50400001928E-02 0.  1.
        1   -1    0    0  501    0  0.00000000000E+00  0.00000000000E+00 -0.91709239632E+03  0.91709239633E+03  0.50400001928E-02 0. -1.
    10030    2    1    2    0    0  0.00000000000E+00  0.00000000000E+00  0.43700982850E+03  0.22711946212E+04  0.22287546785E+04 0.  0.
        1    1    3    3  502    0  0.93655856802E+03  0.52177048712E+03 -0.91341607523E+02  0.10759784765E+04  0.50400001928E-02 0. -1.
       -1    1    3    3    0  502 -0.93655856802E+03 -0.52177048712E+03  0.52835143602E+03  0.11952161447E+04  0.50400001928E-02 0.  1.
</event>
<event>
 5   0  0.9938176E-05  0.2123584E+04  0.7818609E-02  0.8550925E-01
       -2   -1    0    0    0  501  0.00000000000E+00  0.00000000000E+00  0.47945533123E+03  0.47945533123E+03  0.25500000920E-02 0.  1.
        2   -1    0    0  501    0  0.00000000000E+00  0.00000000000E+00 -0.23514226530E+04  0.23514226530E+04  0.25500000920E-02 0. -1.
    10030    2    1    2    0    0  0.00000000000E+00  0.00000000000E+00 -0.18719673218E+04  0.28308779843E+04  0.21235838829E+04 0.  0.
        5    1    3    3  502    0 -0.26836231698E+03  0.66147991069E+03  0.11181491130E+03  0.72256395552E+03  0.46999998093E+01 0.  1.
       -5    1    3    3    0  502  0.26836231698E+03 -0.66147991069E+03 -0.19837822331E+04  0.21083140288E+04  0.46999998093E+01 0. -1.
</event>
<event>
 5   0  0.4174030E-05  0.2209175E+04  0.7818609E-02  0.8514619E-01
       -1   -1    0    0    0  501  0.00000000000E+00  0.00000000000E+00  0.86956050420E+03  0.86956050422E+03  0.50400001928E-02 0. -1.
        1   -1    0    0  501    0  0.00000000000E+00  0.00000000000E+00 -0.14031383266E+04  0.14031383266E+04  0.50400001928E-02 0.  1.
    10030    2    1    2    0    0  0.00000000000E+00  0.00000000000E+00 -0.53357782240E+03  0.22726988308E+04  0.22091751137E+04 0.  0.
        2    1    3    3  502    0 -0.47970356084E+03 -0.31576603430E+03 -0.12374720551E+04  0.13642436666E+04  0.25500000920E-02 0.  1.
       -2    1    3    3    0  502  0.47970356084E+03  0.31576603430E+03  0.70389423266E+03  0.90845516426E+03  0.25500000920E-02 0. -1.
</event>
<event>
 5   0  0.9179618E-05  0.2192149E+04  0.7818609E-02  0.8521703E-01
       -2   -1    0    0    0  501  0.00000000000E+00  0.00000000000E+00  0.10038731702E+04  0.10038731702E+04  0.25500000920E-02 0. -1.
        2   -1    0    0  501    0  0.00000000000E+00  0.00000000000E+00 -0.11967442520E+04  0.11967442520E+04  0.25500000920E-02 0.  1.
    10030    2    1    2    0    0  0.00000000000E+00  0.00000000000E+00 -0.19287108183E+03  0.22006174222E+04  0.21921491247E+04 0.  0.
        3    1    3    3  502    0  0.66225880319E+03 -0.66059547635E+02 -0.97067795960E+03  0.11769308806E+04  0.10100000352E+00 0.  1.
       -3    1    3    3    0  502 -0.66225880319E+03  0.66059547635E+02  0.77780687777E+03  0.10236865416E+04  0.10100000352E+00 0. -1.
</event>
<event>
 5   0  0.9254673E-05  0.2195173E+04  0.7818609E-02  0.8520440E-01
       -2   -1    0    0    0  501  0.00000000000E+00  0.00000000000E+00  0.91341276663E+03  0.91341276664E+03  0.25500000920E-02 0.  1.
        2   -1    0    0  501    0  0.00000000000E+00  0.00000000000E+00 -0.13188954182E+04  0.13188954182E+04  0.25500000920E-02 0. -1.
    10030    2    1    2    0    0  0.00000000000E+00  0.00000000000E+00 -0.40548265152E+03  0.22323081848E+04  0.21951728067E+04 0.  0.
        2    1    3    3  502    0 -0.15995309936E+03  0.24112618266E+03 -0.12794104398E+04  0.13117232571E+04  0.25500000920E-02 0. -1.
       -2    1    3    3    0  502  0.15995309936E+03 -0.24112618266E+03  0.87392778824E+03  0.92058492765E+03  0.25500000920E-02 0.  1.
</event>
<event>
 5   0  0.4174030E-05  0.2204595E+04  0.7818609E-02  0.8516518E-01
        1   -1    0    0  501    0  0.00000000000E+00  0.00000000000E+00  0.10953864647E+04  0.10953864647E+04  0.50400001928E-02 0. -1.
       -1   -1    0    0    0  501  0.00000000000E+00  0.00000000000E+00 -0.11092519357E+04  0.11092519357E+04  0.50400001928E-02 0.  1.
    10030    2    1    2    0    0  0.00000000000E+00  0.00000000000E+00 -0.13865471017E+02  0.22046384004E+04  0.22045947984E+04 0.  0.
        2    1    3    3  502    0  0.92773761876E+03 -0.30389206806E+03 -0.51881401292E+03  0.11055385377E+04  0.25500000920E-02 0.  1.
       -2    1    3    3    0  502 -0.92773761876E+03  0.30389206806E+03  0.50494854191E+03  0.10990998627E+04  0.25500000920E-02 0. -1.
</event>
<event>
 5   0  0.9938176E-05  0.1822885E+04  0.7818609E-02  0.8694223E-01
       -2   -1    0    0    0  501  0.00000000000E+00  0.00000000000E+00  0.35033316286E+03  0.35033316287E+03  0.25500000920E-02 0.  1.
        2   -1    0    0  501    0  0.00000000000E+00  0.00000000000E+00 -0.23712488013E+04  0.23712488013E+04  0.25500000920E-02 0. -1.
    10030    2    1    2    0    0  0.00000000000E+00  0.00000000000E+00 -0.20209156385E+04  0.27215819642E+04  0.18228846288E+04 0.  0.
        5    1    3    3  502    0  0.27730109940E+03  0.86524828823E+03 -0.90326748798E+03  0.12811966066E+04  0.46999998093E+01 0.  1.
       -5    1    3    3    0  502 -0.27730109940E+03 -0.86524828823E+03 -0.11176481505E+04  0.14403853576E+04  0.46999998093E+01 0. -1.
</event>
<event>
 5   0  0.9938176E-05  0.2206933E+04  0.7818609E-02  0.8515548E-01
       -2   -1    0    0    0  501  0.00000000000E+00  0.00000000000E+00  0.86170657356E+03  0.86170657356E+03  0.25500000920E-02 0.  1.
        2   -1    0    0  501    0  0.00000000000E+00  0.00000000000E+00 -0.14130540004E+04  0.14130540004E+04  0.25500000920E-02 0. -1.
    10030    2    1    2    0    0  0.00000000000E+00  0.00000000000E+00 -0.55134742686E+03  0.22747605740E+04  0.22069326414E+04 0.  0.
        5    1    3    3  502    0 -0.21103664196E+02  0.10912264816E+04 -0.10821438037E+03  0.10967921594E+04  0.46999998093E+01 0.  1.
       -5    1    3    3    0  502  0.21103664196E+02 -0.10912264816E+04 -0.44313304650E+03  0.11779684146E+04  0.46999998093E+01 0. -1.
</event>
<event>
 5   0  0.9179618E-05  0.1795773E+04  0.7818609E-02  0.8708551E-01
       -2   -1    0    0    0  501  0.00000000000E+00  0.00000000000E+00  0.79552544356E+03  0.79552544356E+03  0.25500000920E-02 0. -1.
        2   -1    0    0  501    0  0.00000000000E+00  0.00000000000E+00 -0.10134180130E+04  0.10134180130E+04  0.25500000920E-02 0.  1.
    10030    2    1    2    0    0  0.00000000000E+00  0.00000000000E+00 -0.21789256946E+03  0.18089434566E+04  0.17957726073E+04 0.  0.
        3    1    3    3  502    0 -0.72062925466E+03  0.51905735507E+03  0.24207710349E+02  0.88843293724E+03  0.10100000352E+00 0. -1.
       -3    1    3    3    0  502  0.72062925466E+03 -0.51905735507E+03 -0.24210027981E+03  0.92051051934E+03  0.10100000352E+00 0.  1.
</event>
<event>
 5   0  0.9457742E-05  0.2263932E+04  0.7818609E-02  0.8492279E-01
       -2   -1    0    0    0  501  0.00000000000E+00  0.00000000000E+00  0.64823741833E+03  0.64823741833E+03  0.25500000920E-02 0. -1.
        2   -1    0    0  501    0  0.00000000000E+00  0.00000000000E+00 -0.19766635772E+04  0.19766635772E+04  0.25500000920E-02 0.  1.
    10030    2    1    2    0    0  0.00000000000E+00  0.00000000000E+00 -0.13284261588E+04  0.26249009955E+04  0.22639322377E+04 0.  0.
        1    1    3    3  502    0 -0.96878911995E+03  0.77239339055E+02 -0.13371188529E+04  0.16529988207E+04  0.50400001928E-02 0.  1.
       -1    1    3    3    0  502  0.96878911995E+03 -0.77239339055E+02  0.86926940525E+01  0.97190217480E+03  0.50400001928E-02 0. -1.
</event>
<event>
 5   0  0.4174075E-05  0.2197376E+04  0.7818609E-02  0.8519521E-01
        1   -1    0    0  501    0  0.00000000000E+00  0.00000000000E+00  0.89641664075E+03  0.89641664077E+03  0.50400001928E-02 0. -1.
       -1   -1    0    0    0  501  0.00000000000E+00  0.00000000000E+00 -0.13466003743E+04  0.13466003743E+04  0.50400001928E-02 0.  1.
    10030    2    1    2    0    0  0.00000000000E+00  0.00000000000E+00 -0.45018373352E+03  0.22430170150E+04  0.21973756929E+04 0.  0.
        5    1    3    3  502    0  0.29615036464E+03 -0.94065079335E+03  0.26928583737E+03  0.10222846500E+04  0.46999998093E+01 0. -1.
       -5    1    3    3    0  502 -0.29615036464E+03  0.94065079335E+03 -0.71946957089E+03  0.12207323650E+04  0.46999998093E+01 0.  1.
</event>
<event>
 5   0  0.4063293E-05  0.2179847E+04  0.7818609E-02  0.8526863E-01
       -1   -1    0    0    0  501  0.00000000000E+00  0.00000000000E+00  0.65454820428E+03  0.65454820430E+03  0.50400001928E-02 0.  1.
        1   -1    0    0  501    0  0.00000000000E+00  0.00000000000E+00 -0.18148905991E+04  0.18148905991E+04  0.50400001928E-02 0. -1.
    10030    2    1    2    0    0  0.00000000000E+00  0.00000000000E+00 -0.11603423948E+04  0.24694388034E+04  0.21798471347E+04 0.  0.
        1    1    3    3  502    0 -0.92414751369E+02  0.19392910205E+03  0.63032737478E+03  0.66592911208E+03  0.50400001928E-02 0.  1.
       -1    1    3    3    0  502  0.92414751369E+02 -0.19392910205E+03 -0.17906697696E+04  0.18035096913E+04  0.50400001928E-02 0. -1.
</event>
<event>
 5   0  0.9254673E-05  0.2220306E+04  0.7818609E-02  0.8510024E-01
        2   -1    0    0  501    0  0.00000000000E+00  0.00000000000E+00  0.20905867506E+04  0.20905867506E+04  0.25500000920E-02 0.  1.
       -2   -1    0    0    0  501  0.00000000000E+00  0.00000000000E+00 -0.58951852928E+03  0.58951852928E+03  0.25500000920E-02 0. -1.
    10030    2    1    2    0    0  0.00000000000E+00  0.00000000000E+00  0.15010682214E+04  0.26801052799E+04  0.22203059488E+04 0.  0.
        2    1    3    3  502    0 -0.18605712642E+03  0.86745015999E+03 -0.55013147977E+02  0.88888327739E+03  0.25500000920E-02 0. -1.
       -2    1    3    3    0  502  0.18605712642E+03 -0.86745015999E+03  0.15560813693E+04  0.17912220025E+04  0.25500000920E-02 0.  1.
</event>
<event>
 5   0  0.4174030E-05  0.2210824E+04  0.7818609E-02  0.8513937E-01
        1   -1    0    0  501    0  0.00000000000E+00  0.00000000000E+00  0.88617435785E+03  0.88617435786E+03  0.50400001928E-02 0.  1.
       -1   -1    0    0    0  501  0.00000000000E+00  0.00000000000E+00 -0.13788881683E+04  0.13788881683E+04  0.50400001928E-02 0. -1.
    10030    2    1    2    0    0  0.00000000000E+00  0.00000000000E+00 -0.49271381047E+03  0.22650625262E+04  0.22108236810E+04 0.  0.
        2    1    3    3  502    0  0.50929811700E+03 -0.69260219952E+03  0.46556693351E+03  0.97766811769E+03  0.25500000920E-02 0.  1.
       -2    1    3    3    0  502 -0.50929811700E+03  0.69260219952E+03 -0.95828074397E+03  0.12873944085E+04  0.25500000920E-02 0. -1.
</event>
<event>
 5   0  0.9457742E-05  0.2263335E+04  0.7818609E-02  0.8492520E-01
       -2   -1    0    0    0  501  0.00000000000E+00  0.00000000000E+00  0.12524532024E+04  0.12524532024E+04  0.25500000920E-02 0. -1.
        2   -1    0    0  501    0  0.00000000000E+00  0.00000000000E+00 -0.10225300423E+04  0.10225300423E+04  0.25500000920E-02 0.  1.
    10030    2    1    2    0    0  0.00000000000E+00  0.00000000000E+00  0.22992316011E+03  0.22749832447E+04  0.22633347309E+04 0.  0.
        1    1    3    3  502    0  0.78399798357E+03  0.48190256222E+03  0.77697719891E+03  0.12043988066E+04  0.50400001928E-02 0. -1.
       -1    1    3    3    0  502 -0.78399798357E+03 -0.48190256222E+03 -0.54705403880E+03  0.10705844381E+04  0.50400001928E-02 0.  1.
</event>
<event>
 5   0  0.9938176E-05  0.2174287E+04  0.7818609E-02  0.8529207E-01
       -2   -1    0    0    0  501  0.00000000000E+00  0.00000000000E+00  0.52999636475E+03  0.52999636476E+03  0.25500000920E-02 0. -1.
        2   -1    0    0  501    0  0.00000000000E+00  0.00000000000E+00 -0.22299793320E+04  0.22299793320E+04  0.25500000920E-02 0.  1.
    10030    2    1    2    0    0  0.00000000000E+00  0.00000000000E+00 -0.16999829672E+04  0.27599756968E+04  0.21742869539E+04 0.  0.
        5    1    3    3  502    0  0.41734369169E+03 -0.10031321632E+04 -0.80234432109E+03  0.13506399940E+04  0.46999998093E+01 0. -1.
       -5    1    3    3    0  502 -0.41734369169E+03  0.10031321632E+04 -0.89763864615E+03  0.14093357027E+04  0.46999998093E+01 0.  1.
</event>
<event>
 5   0  0.4188865E-05  0.2191673E+04  0.7818609E-02  0.8521902E-01
        1   -1    0    0  501    0  0.00000000000E+00  0.00000000000E+00  0.86533538916E+03  0.86533538918E+03  0.50400001928E-02 0. -1.
       -1   -1    0    0    0  501  0.00000000000E+00  0.00000000000E+00 -0.13877361785E+04  0.13877361785E+04  0.50400001928E-02 0.  1.
    10030    2    1    2    0    0  0.00000000000E+00  0.00000000000E+00 -0.52240078929E+03  0.22530715676E+04  0.21916726271E+04 0.  0.
        3    1    3    3  502    0 -0.90337462863E+03 -0.53430821082E+03  0.62724121137E+02  0.10514301258E+04  0.10100000352E+00 0. -1.
       -3    1    3    3    0  502  0.90337462863E+03  0.53430821082E+03 -0.58512491043E+03  0.12016414419E+04  0.10100000352E+00 0.  1.
</event>
<event>
 5   0  0.4174075E-05  0.2155054E+04  0.7818609E-02  0.8537372E-01
        1   -1    0    0  501    0  0.00000000000E+00  0.00000000000E+00  0.16647126927E+04  0.16647126927E+04  0.50400001928E-02 0. -1.
       -1   -1    0    0    0  501  0.00000000000E+00  0.00000000000E+00 -0.69745610490E+03  0.69745610492E+03  0.50400001928E-02 0.  1.
    10030    2    1    2    0    0  0.00000000000E+00  0.00000000000E+00  0.96725658775E+03  0.23621687976E+04  0.21550536239E+04 0.  0.
        5    1    3    3  502    0  0.85371448286E+03  0.65076341936E+03  0.38126991561E+03  0.11391708760E+04  0.46999998093E+01 0.  1.
       -5    1    3    3    0  502 -0.85371448286E+03 -0.65076341936E+03  0.58598667214E+03  0.12229979216E+04  0.46999998093E+01 0. -1.
</event>
<event>
 5   0  0.9457742E-05  0.2210900E+04  0.7818609E-02  0.8513905E-01
        2   -1    0    0  501    0  0.00000000000E+00  0.00000000000E+00  0.11115635920E+04  0.11115635920E+04  0.25500000920E-02 0.  1.
       -2   -1    0    0    0  501  0.00000000000E+00  0.00000000000E+00 -0.10993705295E+04  0.10993705295E+04  0.25500000920E-02 0. -1.
    10030    2    1    2    0    0  0.00000000000E+00  0.00000000000E+00  0.12193062531E+02  0.22109341215E+04  0.22109004995E+04 0.  0.
        1    1    3    3  502    0 -0.84780146382E+02  0.12257126759E+02 -0.10960465125E+04  0.10993888611E+04  0.50400001928E-02 0. -1.
       -1    1    3    3    0  502  0.84780146382E+02 -0.12257126759E+02  0.11082395750E+04  0.11115452604E+04  0.50400001928E-02 0.  1.
</event>
<event>
 5   0  0.9442578E-05  0.2203983E+04  0.7818609E-02  0.8516772E-01
        2   -1    0    0  501    0  0.00000000000E+00  0.00000000000E+00  0.14478332183E+04  0.14478332183E+04  0.25500000920E-02 0. -1.
       -2   -1    0    0    0  501  0.00000000000E+00  0.00000000000E+00 -0.83876058275E+03  0.83876058276E+03  0.25500000920E-02 0.  1.
    10030    2    1    2    0    0  0.00000000000E+00  0.00000000000E+00  0.60907263552E+03  0.22865938010E+04  0.22039831523E+04 0.  0.
        4    1    3    3  502    0 -0.36470197162E+03 -0.78230094572E+03  0.10153303067E+04  0.13326288090E+04  0.12699999809E+01 0. -1.
       -4    1    3    3    0  502  0.36470197162E+03  0.78230094572E+03 -0.40625767121E+03  0.95396499207E+03  0.12699999809E+01 0.  1.
</event>
<event>
 5   0  0.4174030E-05  0.2007978E+04  0.7818609E-02  0.8602900E-01
        1   -1    0    0  501    0  0.00000000000E+00  0.00000000000E+00  0.28126597810E+04  0.28126597810E+04  0.50400001928E-02 0. -1.
       -1   -1    0    0    0  501  0.00000000000E+00  0.00000000000E+00 -0.35837748182E+03  0.35837748186E+03  0.50400001928E-02 0.  1.
    10030    2    1    2    0    0  0.00000000000E+00  0.00000000000E+00  0.24542822991E+04  0.31710372628E+04  0.20079780174E+04 0.  0.
        2    1    3    3  502    0 -0.83624995712E+03 -0.12725478605E+03  0.37306803578E+03  0.92449312095E+03  0.25500000920E-02 0.  1.
       -2    1    3    3    0  502  0.83624995712E+03  0.12725478605E+03  0.20812142634E+04  0.22465441419E+04  0.25500000920E-02 0. -1.
</event>
<event>
 5   0  0.4133418E-05  0.2193032E+04  0.7818609E-02  0.8521334E-01
        1   -1    0    0  501    0  0.00000000000E+00  0.00000000000E+00  0.16685075517E+04  0.16685075517E+04  0.50400001928E-02 0.  1.
       -1   -1    0    0    0  501  0.00000000000E+00  0.00000000000E+00 -0.72061268109E+03  0.72061268111E+03  0.50400001928E-02 0. -1.
    10030    2    1    2    0    0  0.00000000000E+00  0.00000000000E+00  0.94789487063E+03  0.23891202328E+04  0.21930323302E+04 0.  0.
        4    1    3    3  502    0  0.61401483467E+03  0.80651473193E+03  0.92950732893E+03  0.13753056815E+04  0.12699999809E+01 0. -1.
       -4    1    3    3    0  502 -0.61401483467E+03 -0.80651473193E+03  0.18387541698E+02  0.10138145514E+04  0.12699999809E+01 0.  1.
</event>
<event>
 5   0  0.9179618E-05  0.2232196E+04  0.7818609E-02  0.8505146E-01
        2   -1    0    0  501    0  0.00000000000E+00  0.00000000000E+00  0.22642870886E+04  0.22642870886E+04  0.25500000920E-02 0. -1.
       -2   -1    0    0    0  501  0.00000000000E+00  0.00000000000E+00 -0.55013994925E+03  0.55013994925E+03  0.25500000920E-02 0.  1.
    10030    2    1    2    0    0  0.00000000000E+00  0.00000000000E+00  0.17141471393E+04  0.28144270378E+04  0.22321960344E+04 0.  0.
        3    1    3    3  502    0 -0.47587855997E+03  0.92833310207E+03  0.13573114901E+04  0.17118870418E+04  0.10100000352E+00 0. -1.
       -3    1    3    3    0  502  0.47587855997E+03 -0.92833310207E+03  0.35683564919E+03  0.11025399961E+04  0.10100000352E+00 0.  1.
</event>
<event>
 5   0  0.4063293E-05  0.2234695E+04  0.7818609E-02  0.8504125E-01
       -1   -1    0    0    0  501  0.00000000000E+00  0.00000000000E+00  0.16900435698E+04  0.16900435698E+04  0.50400001928E-02 0.  1.
        1   -1    0    0  501    0  0.00000000000E+00  0.00000000000E+00 -0.73871787608E+03  0.73871787609E+03  0.50400001928E-02 0. -1.
    10030    2    1    2    0    0  0.00000000000E+00  0.00000000000E+00  0.95132569373E+03  0.24287614459E+04  0.22346949648E+04 0.  0.
        1    1    3    3  502    0  0.50626570715E+03  0.47704635582E+03 -0.47467958984E+03  0.84213948065E+03  0.50400001928E-02 0. -1.
       -1    1    3    3    0  502 -0.50626570715E+03 -0.47704635582E+03  0.14260052836E+04  0.15866219653E+04  0.50400001928E-02 0.  1.
</event>
<event>
 5   0  0.9938176E-05  0.2217756E+04  0.7818609E-02  0.8511074E-01
       -2   -1    0    0    0  501  0.00000000000E+00  0.00000000000E+00  0.12464110669E+04  0.12464110669E+04  0.25500000920E-02 0. -1.
        2   -1    0    0  501    0  0.00000000000E+00  0.00000000000E+00 -0.98652092811E+03  0.98652092812E+03  0.25500000920E-02 0.  1.
    10030    2    1    2    0    0  0.00000000000E+00  0.00000000000E+00  0.25989013879E+03  0.22329319950E+04  0.22177561656E+04 0.  0.
        5    1    3    3  502    0  0.39333759833E+03  0.80945623346E+03 -0.52229537078E+03  0.10405519711E+04  0.46999998093E+01 0.  1.
       -5    1    3    3    0  502 -0.39333759833E+03 -0.80945623346E+03  0.78218550957E+03  0.11923800240E+04  0.46999998093E+01 0. -1.
</event>
<event>
 5   0  0.4174030E-05  0.2226913E+04  0.7818609E-02  0.8507309E-01
       -1   -1    0    0    0  501  0.00000000000E+00  0.00000000000E+00  0.11965812666E+04  0.11965812666E+04  0.50400001928E-02 0.  1.
        1   -1    0    0  501    0  0.00000000000E+00  0.00000000000E+00 -0.10361064269E+04  0.10361064269E+04  0.50400001928E-02 0. -1.
    10030    2    1    2    0    0  0.00000000000E+00  0.00000000000E+00  0.16047483971E+03  0.22326876935E+04  0.22269131466E+04 0.  0.
        2    1    3    3  502    0 -0.67272647287E+03 -0.48108280048E+03  0.82767978261E+03  0.11700664044E+04  0.25500000920E-02 0.  1.
       -2    1    3    3    0  502  0.67272647287E+03  0.48108280048E+03 -0.66720494290E+03  0.10626212891E+04  0.25500000920E-02 0. -1.
</event>
<event>
 5   0  0.9457742E-05  0.2190844E+04  0.7818609E-02  0.8522249E-01
       -2   -1    0    0    0  501  0.00000000000E+00  0.00000000000E+00  0.21997383493E+04  0.21997383493E+04  0.25500000920E-02 0. -1.
        2   -1    0    0  501    0  0.00000000000E+00  0.00000000000E+00 -0.54549621496E+03  0.54549621496E+03  0.25500000920E-02 0.  1.
    10030    2    1    2    0    0  0.00000000000E+00  0.00000000000E+00  0.16542421343E+04  0.27452345643E+04  0.21908436215E+04 0.  0.
        1    1    3    3  502    0  0.43579735244E+03  0.75609146511E+03 -0.25027536730E+01  0.87269691177E+03  0.50400001928E-02 0.  1.
       -1    1    3    3    0  502 -0.43579735244E+03 -0.75609146511E+03  0.16567448880E+04  0.18725376525E+04  0.50400001928E-02 0. -1.
</event>
<event>
 5   0  0.9254673E-05  0.2227153E+04  0.7818609E-02  0.8507211E-01
        2   -1    0    0  501    0  0.00000000000E+00  0.00000000000E+00  0.13526320959E+04  0.13526320959E+04  0.25500000920E-02 0.  1.
       -2   -1    0    0    0  501  0.00000000000E+00  0.00000000000E+00 -0.91677013418E+03  0.91677013418E+03  0.25500000920E-02 0. -1.
    10030    2    1    2    0    0  0.00000000000E+00  0.00000000000E+00  0.43586196176E+03  0.22694022301E+04  0.22271530779E+04 0.  0.
        2    1    3    3  502    0  0.72157917709E+03 -0.45016202759E+02 -0.64510098513E+03  0.96894697912E+03  0.25500000920E-02 0. -1.
       -2    1    3    3    0  502 -0.72157917709E+03  0.45016202759E+02  0.10809629469E+04  0.13004552510E+04  0.25500000920E-02 0.  1.
</event>
<event>
 5   0  0.3283125E-05  0.2198667E+04  0.7818609E-02  0.8518983E-01
       -3   -1    0    0    0  501  0.00000000000E+00  0.00000000000E+00  0.16281780274E+04  0.16281780306E+04  0.10100000352E+00 0. -1.
        3   -1    0    0  501    0  0.00000000000E+00  0.00000000000E+00 -0.74226199944E+03  0.74226200632E+03  0.10100000352E+00 0.  1.
    10030    2    1    2    0    0  0.00000000000E+00  0.00000000000E+00  0.88591602799E+03  0.23704400369E+04  0.21986674964E+04 0.  0.
        4    1    3    3  502    0  0.19430858156E+03  0.19469789852E+03 -0.70455984173E+03  0.75635261620E+03  0.12699999809E+01 0.  1.
       -4    1    3    3    0  502 -0.19430858156E+03 -0.19469789852E+03  0.15904758697E+04  0.16140874207E+04  0.12699999809E+01 0. -1.
</event>
<event>
 5   0  0.4133418E-05  0.2131481E+04  0.7818609E-02  0.8547501E-01
       -1   -1    0    0    0  501  0.00000000000E+00  0.00000000000E+00  0.15222611666E+04  0.15222611666E+04  0.50400001928E-02 0.  1.
        1   -1    0    0  501    0  0.00000000000E+00  0.00000000000E+00 -0.74612857531E+03  0.74612857533E+03  0.50400001928E-02 0. -1.
    10030    2    1    2    0    0  0.00000000000E+00  0.00000000000E+00  0.77613259132E+03  0.22683897420E+04  0.21314807581E+04 0.  0.
        4    1    3    3  502    0  0.71405615322E+03 -0.30554453406E+03  0.11647129984E+04  0.13999255815E+04  0.12699999809E+01 0.  1.
       -4    1    3    3    0  502 -0.71405615322E+03  0.30554453406E+03 -0.38858040712E+03  0.86846416042E+03  0.12699999809E+01 0. -1.
</event>
<event>
 5   0  0.3283125E-05  0.2207221E+04  0.7818609E-02  0.8515428E-01
       -3   -1    0    0    0  501  0.00000000000E+00  0.00000000000E+00  0.66365649551E+03  0.66365650320E+03  0.10100000352E+00 0.  1.
        3   -1    0    0  501    0  0.00000000000E+00  0.00000000000E+00 -0.18352211141E+04  0.18352211168E+04  0.10100000352E+00 0. -1.
    10030    2    1    2    0    0  0.00000000000E+00  0.00000000000E+00 -0.11715646185E+04  0.24988776200E+04  0.22072212631E+04 0.  0.
        5    1    3    3  502    0 -0.68284720851E+03 -0.64110219356E+03  0.74984493048E+02  0.93964732583E+03  0.46999998093E+01 0.  1.
       -5    1    3    3    0  502  0.68284720851E+03  0.64110219356E+03 -0.12465491116E+04  0.15592302942E+04  0.46999998093E+01 0. -1.
</event>
<event>
 5   0  0.9442578E-05  0.2244808E+04  0.7818609E-02  0.8500006E-01
        2   -1    0    0  501    0  0.00000000000E+00  0.00000000000E+00  0.14903684574E+04  0.14903684574E+04  0.25500000920E-02 0.  1.
       -2   -1    0    0    0  501  0.00000000000E+00  0.00000000000E+00 -0.84528791945E+03  0.84528791945E+03  0.25500000920E-02 0. -1.
    10030    2    1    2    0    0  0.00000000000E+00  0.00000000000E+00  0.64508053794E+03  0.23356563768E+04  0.22448077446E+04 0.  0.
        4    1    3    3  502    0 -0.54386614134E+03  0.94166106031E+03  0.61177032659E+03  0.12477100936E+04  0.12699999809E+01 0.  1.
       -4    1    3    3    0  502  0.54386614134E+03 -0.94166106031E+03  0.33310211351E+02  0.10879462833E+04  0.12699999809E+01 0. -1.
</event>
<event>
 5   0  0.9938176E-05  0.2207681E+04  0.7818609E-02  0.8515238E-01
       -2   -1    0    0    0  501  0.00000000000E+00  0.00000000000E+00  0.13269053485E+04  0.13269053485E+04  0.25500000920E-02 0. -1.
        2   -1    0    0  501    0  0.00000000000E+00  0.00000000000E+00 -0.91827455692E+03  0.91827455693E+03  0.25500000920E-02 0.  1.
    10030    2    1    2    0    0  0.00000000000E+00  0.00000000000E+00  0.40863079158E+03  0.22451799054E+04  0.22076806118E+04 0.  0.
        5    1    3    3  502    0 -0.54278097207E+03 -0.85727766569E+03 -0.23769939637E+03  0.10421416760E+04  0.46999998093E+01 0.  1.
       -5    1    3    3    0  502  0.54278097207E+03  0.85727766569E+03  0.64633018795E+03  0.12030382295E+04  0.46999998093E+01 0. -1.
</event>
<event>
 5   0  0.4063293E-05  0.2220386E+04  0.7818609E-02  0.8509991E-01
       -1   -1    0    0    0  501  0.00000000000E+00  0.00000000000E+00  0.77122195689E+03  0.77122195691E+03  0.50400001928E-02 0. -1.
        1   -1    0    0  501    0  0.00000000000E+00  0.00000000000E+00 -0.15981498130E+04  0.15981498130E+04  0.50400001928E-02 0.  1.
    10030    2    1    2    0    0  0.00000000000E+00  0.00000000000E+00 -0.82692785609E+03  0.23693717699E+04  0.22203857558E+04 0.  0.
        1    1    3    3  502    0 -0.59128961267E+02  0.79343433049E+03 -0.12396867394E+04  0.14730436120E+04  0.50400001928E-02 0.  1.
       -1    1    3    3    0  502  0.59128961267E+02 -0.79343433049E+03  0.41275888333E+03  0.89632815791E+03  0.50400001928E-02 0. -1.
</event>
<event>
 5   0  0.9442578E-05  0.2225613E+04  0.7818609E-02  0.8507842E-01
       -2   -1    0    0    0  501  0.00000000000E+00  0.00000000000E+00  0.12437315798E+04  0.12437315798E+04  0.25500000920E-02 0.  1.
        2   -1    0    0  501    0  0.00000000000E+00  0.00000000000E+00 -0.99566374064E+03  0.99566374064E+03  0.25500000920E-02 0. -1.
    10030    2    1    2    0    0  0.00000000000E+00  0.00000000000E+00  0.24806783911E+03  0.22393953204E+04  0.22256131174E+04 0.  0.
        4    1    3    3  502    0  0.10161088674E+04 -0.28562268349E+03  0.47874965299E+03  0.11589911091E+04  0.12699999809E+01 0.  1.
       -4    1    3    3    0  502 -0.10161088674E+04  0.28562268349E+03 -0.23068181387E+03  0.10804042113E+04  0.12699999809E+01 0. -1.
</event>
<event>
 5   0  0.3283125E-05  0.2197935E+04  0.7818609E-02  0.8519288E-01
        3   -1    0    0  501    0  0.00000000000E+00  0.00000000000E+00  0.40841614083E+03  0.40841615331E+03  0.10100000352E+00 0. -1.
       -3   -1    0    0    0  501  0.00000000000E+00  0.00000000000E+00 -0.29571044326E+04  0.29571044343E+04  0.10100000352E+00 0.  1.
    10030    2    1    2    0    0  0.00000000000E+00  0.00000000000E+00 -0.25486882918E+04  0.33655205876E+04  0.21979346708E+04 0.  0.
        5    1    3    3  502    0  0.53746618440E+03  0.63256704384E+03 -0.23771371035E+04  0.25178986999E+04  0.46999998093E+01 0.  1.
       -5    1    3    3    0  502 -0.53746618440E+03 -0.63256704384E+03 -0.17155118829E+03  0.84762188771E+03  0.46999998093E+01 0. -1.
</event>
<event>
 5   0  0.4188865E-05  0.2204036E+04  0.7818609E-02  0.8516750E-01
       -1   -1    0    0    0  501  0.00000000000E+00  0.00000000000E+00  0.79040269355E+03  0.79040269356E+03  0.50400001928E-02 0.  1.
        1   -1    0    0  501    0  0.00000000000E+00  0.00000000000E+00 -0.15364871078E+04  0.15364871079E+04  0.50400001928E-02 0. -1.
    10030    2    1    2    0    0  0.00000000000E+00  0.00000000000E+00 -0.74608441430E+03  0.23268898014E+04  0.22040358878E+04 0.  0.
        3    1    3    3  502    0 -0.12519768169E+03  0.22587395912E+03 -0.15040896220E+04  0.15260993107E+04  0.10100000352E+00 0. -1.
       -3    1    3    3    0  502  0.12519768169E+03 -0.22587395912E+03  0.75800520771E+03  0.80079049071E+03  0.10100000352E+00 0.  1.
</event>
<event>
 5   0  0.4174030E-05  0.2100525E+04  0.7818609E-02  0.8561012E-01
        1   -1    0    0  501    0  0.00000000000E+00  0.00000000000E+00  0.15103629715E+04  0.15103629715E+04  0.50400001928E-02 0. -1.
       -1   -1    0    0    0  501  0.00000000000E+00  0.00000000000E+00 -0.73032193381E+03  0.73032193383E+03  0.50400001928E-02 0.  1.
    10030    2    1    2    0    0  0.00000000000E+00  0.00000000000E+00  0.78004103767E+03  0.22406849053E+04  0.21005248926E+04 0.  0.
        2    1    3    3  502    0  0.35033078178E+02 -0.64673975514E+03  0.12719596272E+04  0.14273685301E+04  0.25500000920E-02 0. -1.
       -2    1    3    3    0  502 -0.35033078178E+02  0.64673975514E+03 -0.49191858956E+03  0.81331637522E+03  0.25500000920E-02 0.  1.
</event>
<event>
 5   0  0.4174030E-05  0.2217158E+04  0.7818609E-02  0.8511320E-01
        1   -1    0    0  501    0  0.00000000000E+00  0.00000000000E+00  0.28487921016E+04  0.28487921016E+04  0.50400001928E-02 0.  1.
       -1   -1    0    0    0  501  0.00000000000E+00  0.00000000000E+00 -0.43139231512E+03  0.43139231515E+03  0.50400001928E-02 0. -1.
    10030    2    1    2    0    0  0.00000000000E+00  0.00000000000E+00  0.24173997864E+04  0.32801844167E+04  0.22171576579E+04 0.  0.
        2    1    3    3  502    0  0.24104309462E+03  0.10753206033E+04  0.10303605567E+04  0.15086613437E+04  0.25500000920E-02 0. -1.
       -2    1    3    3    0  502 -0.24104309462E+03 -0.10753206033E+04  0.13870392297E+04  0.17715230730E+04  0.25500000920E-02 0.  1.
</event>
<event>
 5   0  0.4063293E-05  0.2193673E+04  0.7818609E-02  0.8521066E-01
       -1   -1    0    0    0  501  0.00000000000E+00  0.00000000000E+00  0.72849134390E+03  0.72849134392E+03  0.50400001928E-02 0. -1.
        1   -1    0    0  501    0  0.00000000000E+00  0.00000000000E+00 -0.16514270767E+04  0.16514270767E+04  0.50400001928E-02 0.  1.
    10030    2    1    2    0    0  0.00000000000E+00  0.00000000000E+00 -0.92293573282E+03  0.23799184207E+04  0.21936730208E+04 0.  0.
        1    1    3    3  502    0 -0.54867404510E+03 -0.53706343142E+03 -0.13112786399E+04  0.15195170314E+04  0.50400001928E-02 0.  1.
       -1    1    3    3    0  502  0.54867404510E+03  0.53706343142E+03  0.38834290709E+03  0.86040138927E+03  0.50400001928E-02 0. -1.
</event>
<event>
 5   0  0.4174075E-05  0.1920706E+04  0.7818609E-02  0.8644618E-01
        1   -1    0    0  501    0  0.00000000000E+00  0.00000000000E+00  0.95233451530E+03  0.95233451532E+03  0.50400001928E-02 0. -1.
       -1   -1    0    0    0  501  0.00000000000E+00  0.00000000000E+00 -0.96843875787E+03  0.96843875788E+03  0.50400001928E-02 0.  1.
    10030    2    1    2    0    0  0.00000000000E+00  0.00000000000E+00 -0.16104242569E+02  0.19207732732E+04  0.19207057610E+04 0.  0.
        5    1    3    3  502    0  0.49408057935E+03 -0.76156329658E+03 -0.32137015829E+03  0.96301357323E+03  0.46999998093E+01 0. -1.
       -5    1    3    3    0  502 -0.49408057935E+03  0.76156329658E+03  0.30526591572E+03  0.95775969997E+03  0.46999998093E+01 0.  1.
</event>
<event>
 5   0  0.4174030E-05  0.2212296E+04  0.7818609E-02  0.8513328E-01
       -1   -1    0    0    0  501  0.00000000000E+00  0.00000000000E+00  0.12522633872E+04  0.12522633873E+04  0.50400001928E-02 0. -1.
        1   -1    0    0  501    0  0.00000000000E+00  0.00000000000E+00 -0.97708162631E+03  0.97708162632E+03  0.50400001928E-02 0.  1.
    10030    2    1    2    0    0  0.00000000000E+00  0.00000000000E+00  0.27518176093E+03  0.22293450136E+04  0.22122961348E+04 0.  0.
        2    1    3    3  502    0 -0.13632551091E+03  0.91510112294E+03 -0.47335588037E+03  0.10392595920E+04  0.25500000920E-02 0.  1.
       -2    1    3    3    0  502  0.13632551091E+03 -0.91510112294E+03  0.74853764131E+03  0.11900854215E+04  0.25500000920E-02 0. -1.
</event>
<event>
 5   0  0.9442578E-05  0.2163283E+04  0.7818609E-02  0.8533868E-01
       -2   -1    0    0    0  501  0.00000000000E+00  0.00000000000E+00  0.57753092576E+03  0.57753092577E+03  0.25500000920E-02 0.  1.
        2   -1    0    0  501    0  0.00000000000E+00  0.00000000000E+00 -0.20257761198E+04  0.20257761198E+04  0.25500000920E-02 0. -1.
    10030    2    1    2    0    0  0.00000000000E+00  0.00000000000E+00 -0.14482451940E+04  0.26033070456E+04  0.21632830216E+04 0.  0.
        4    1    3    3  502    0 -0.72234654173E+03 -0.14774498212E+03 -0.16765128029E+04  0.18314775176E+04  0.12699999809E+01 0. -1.
       -4    1    3    3    0  502  0.72234654173E+03  0.14774498212E+03  0.22826760891E+03  0.77182952798E+03  0.12699999809E+01 0.  1.
</event>
<event>
 5   0  0.9442578E-05  0.2236124E+04  0.7818609E-02  0.8503541E-01
        2   -1    0    0  501    0  0.00000000000E+00  0.00000000000E+00  0.10629125957E+04  0.10629125957E+04  0.25500000920E-02 0.  1.
       -2   -1    0    0    0  501  0.00000000000E+00  0.00000000000E+00 -0.11760723455E+04  0.11760723455E+04  0.25500000920E-02 0. -1.
    10030    2    1    2    0    0  0.00000000000E+00  0.00000000000E+00 -0.11315974983E+03  0.22389849412E+04  0.22361235293E+04 0.  0.
        4    1    3    3  502    0  0.52561598774E+03  0.59213553599E+03 -0.84699729404E+03  0.11594406792E+04  0.12699999809E+01 0. -1.
       -4    1    3    3    0  502 -0.52561598774E+03 -0.59213553599E+03  0.73383754421E+03  0.10795442621E+04  0.12699999809E+01 0.  1.
</event>
<event>
 5   0  0.9457742E-05  0.1914463E+04  0.7818609E-02  0.8647691E-01
       -2   -1    0    0    0  501  0.00000000000E+00  0.00000000000E+00  0.47481449874E+03  0.47481449874E+03  0.25500000920E-02 0. -1.
        2   -1    0    0  501    0  0.00000000000E+00  0.00000000000E+00 -0.19297890568E+04  0.19297890568E+04  0.25500000920E-02 0.  1.
    10030    2    1    2    0    0  0.00000000000E+00  0.00000000000E+00 -0.14549745581E+04  0.24046035556E+04  0.19144626648E+04 0.  0.
        1    1    3    3  502    0 -0.27306730149E+03  0.13041280384E+03  0.41315501616E+03  0.51212334252E+03  0.50400001928E-02 0. -1.
       -1    1    3    3    0  502  0.27306730149E+03 -0.13041280384E+03 -0.18681295742E+04  0.18924802130E+04  0.50400001928E-02 0.  1.
</event>
<event>
 5   0  0.4133418E-05  0.2179069E+04  0.7818609E-02  0.8527191E-01
        1   -1    0    0  501    0  0.00000000000E+00  0.00000000000E+00  0.76122772557E+03  0.76122772559E+03  0.50400001928E-02 0. -1.
       -1   -1    0    0    0  501  0.00000000000E+00  0.00000000000E+00 -0.15594358346E+04  0.15594358346E+04  0.50400001928E-02 0.  1.
    10030    2    1    2    0    0  0.00000000000E+00  0.00000000000E+00 -0.79820810898E+03  0.23206635601E+04  0.21790693367E+04 0.  0.
        4    1    3    3  502    0  0.10404629737E+04 -0.30561843739E+02 -0.56341266904E+02  0.10424361742E+04  0.12699999809E+01 0. -1.
       -4    1    3    3    0  502 -0.10404629737E+04  0.30561843739E+02 -0.74186684208E+03  0.12782273860E+04  0.12699999809E+01 0.  1.
</event>
<event>
 5   0  0.4133418E-05  0.2209332E+04  0.7818609E-02  0.8514554E-01
        1   -1    0    0  501    0  0.00000000000E+00  0.00000000000E+00  0.15965679300E+04  0.15965679301E+04  0.50400001928E-02 0. -1.
       -1   -1    0    0    0  501  0.00000000000E+00  0.00000000000E+00 -0.76431907021E+03  0.76431907023E+03  0.50400001928E-02 0.  1.
    10030    2    1    2    0    0  0.00000000000E+00  0.00000000000E+00  0.83224885983E+03  0.23608870003E+04  0.22093323117E+04 0.  0.
        4    1    3    3  502    0  0.78131013501E+03  0.76733034563E+03  0.26110662974E+03  0.11257973492E+04  0.12699999809E+01 0. -1.
       -4    1    3    3    0  502 -0.78131013501E+03 -0.76733034563E+03  0.57114223009E+03  0.12350896511E+04  0.12699999809E+01 0.  1.
</event>
<event>
 5   0  0.9938176E-05  0.2127693E+04  0.7818609E-02  0.8549141E-01
       -2   -1    0    0    0  501  0.00000000000E+00  0.00000000000E+00  0.66735854801E+03  0.66735854801E+03  0.25500000920E-02 0.  1.
        2   -1    0    0  501    0  0.00000000000E+00  0.00000000000E+00 -0.16958947833E+04  0.16958947833E+04  0.25500000920E-02 0. -1.
    10030    2    1    2    0    0  0.00000000000E+00  0.00000000000E+00 -0.10285362353E+04  0.23632533313E+04  0.21276934743E+04 0.  0.
        5    1    3    3  502    0  0.54067017370E+03 -0.30862636912E+03 -0.14724286203E+04  0.15986377339E+04  0.46999998093E+01 0. -1.
       -5    1    3    3    0  502 -0.54067017370E+03  0.30862636912E+03  0.44389238495E+03  0.76461559745E+03  0.46999998093E+01 0.  1.
</event>
<event>
 5   0  0.4174075E-05  0.2167859E+04  0.7818609E-02  0.8531926E-01
        1   -1    0    0  501    0  0.00000000000E+00  0.00000000000E+00  0.89148776608E+03  0.89148776609E+03  0.50400001928E-02 0. -1.
       -1   -1    0    0    0  501  0.00000000000E+00  0.00000000000E+00 -0.13179134268E+04  0.13179134268E+04  0.50400001928E-02 0.  1.
    10030    2    1    2    0    0  0.00000000000E+00  0.00000000000E+00 -0.42642566070E+03  0.22094011929E+04  0.21678594943E+04 0.  0.
        5    1    3    3  502    0  0.25283675613E+03 -0.43137570995E+03  0.76691752870E+03  0.91553045510E+03  0.46999998093E+01 0. -1.
       -5    1    3    3    0  502 -0.25283675613E+03  0.43137570995E+03 -0.11933431894E+04  0.12938707378E+04  0.46999998093E+01 0.  1.
</event>
<event>
 5   0  0.4174075E-05  0.2245735E+04  0.7818609E-02  0.8499630E-01
       -1   -1    0    0    0  501  0.00000000000E+00  0.00000000000E+00  0.86806568634E+03  0.86806568635E+03  0.50400001928E-02 0. -1.
        1   -1    0    0  501    0  0.00000000000E+00  0.00000000000E+00 -0.14524612336E+04  0.14524612336E+04  0.50400001928E-02 0.  1.
    10030    2    1    2    0    0  0.00000000000E+00  0.00000000000E+00 -0.58439554723E+03  0.23205269199E+04  0.22457352984E+04 0.  0.
        5    1    3    3  502    0  0.80332984207E+03 -0.20538597412E+03 -0.10745714989E+04  0.13572944521E+04  0.46999998093E+01 0.  1.
       -5    1    3    3    0  502 -0.80332984207E+03  0.20538597412E+03  0.49017595163E+03  0.96323246783E+03  0.46999998093E+01 0. -1.
</event>
<event>
 5   0  0.9254673E-05  0.2197773E+04  0.7818609E-02  0.8519356E-01
       -2   -1    0    0    0  501  0.00000000000E+00  0.00000000000E+00  0.51006931691E+03  0.51006931691E+03  0.25500000920E-02 0. -1.
        2   -1    0    0  501    0  0.00000000000E+00  0.00000000000E+00 -0.23674255052E+04  0.23674255052E+04  0.25500000920E-02 0.  1.
    10030    2    1    2    0    0  0.00000000000E+00  0.00000000000E+00 -0.18573561883E+04  0.28774948221E+04  0.21977726090E+04 0.  0.
        2    1    3    3  502    0  0.10785446647E+04  0.19876154974E+03 -0.83809761683E+03  0.13802798132E+04  0.25500000920E-02 0.  1.
       -2    1    3    3    0  502 -0.10785446647E+04 -0.19876154974E+03 -0.10192585714E+04  0.14972150089E+04  0.25500000920E-02 0. -1.
</event>
<event>
 5   0  0.4188865E-05  0.2200971E+04  0.7818609E-02  0.8518024E-01
        1   -1    0    0  501    0  0.00000000000E+00  0.00000000000E+00  0.11188190126E+04  0.11188190126E+04  0.50400001928E-02 0.  1.
       -1   -1    0    0    0  501  0.00000000000E+00  0.00000000000E+00 -0.10824521306E+04  0.10824521306E+04  0.50400001928E-02 0. -1.
    10030    2    1    2    0    0  0.00000000000E+00  0.00000000000E+00  0.36366881969E+02  0.22012711433E+04  0.22009707168E+04 0.  0.
        3    1    3    3  502    0  0.61118549707E+03 -0.89548117569E+03 -0.17061140652E+03  0.10975165193E+04  0.10100000352E+00 0. -1.
       -3    1    3    3    0  502 -0.61118549707E+03  0.89548117569E+03  0.20697828849E+03  0.11037546240E+04  0.10100000352E+00 0.  1.
</event>
<event>
 5   0  0.9179618E-05  0.1850729E+04  0.7818609E-02  0.8679778E-01
        2   -1    0    0  501    0  0.00000000000E+00  0.00000000000E+00  0.13344429397E+04  0.13344429397E+04  0.25500000920E-02 0. -1.
       -2   -1    0    0    0  501  0.00000000000E+00  0.00000000000E+00 -0.64169080952E+03  0.64169080952E+03  0.25500000920E-02 0.  1.
    10030    2    1    2    0    0  0.00000000000E+00  0.00000000000E+00  0.69275213015E+03  0.19761337492E+04  0.18507293375E+04 0.  0.
        3    1    3    3  502    0 -0.36978792591E+03  0.77682725131E+03 -0.17440264371E+02  0.86052766460E+03  0.10100000352E+00 0.  1.
       -3    1    3    3    0  502  0.36978792591E+03 -0.77682725131E+03  0.71019239452E+03  0.11156060846E+04  0.10100000352E+00 0. -1.
</event>
<event>
 5   0  0.9442578E-05  0.2219552E+04  0.7818609E-02  0.8510334E-01
        2   -1    0    0  501    0  0.00000000000E+00  0.00000000000E+00  0.52184776609E+03  0.52184776610E+03  0.25500000920E-02 0.  1.
       -2   -1    0    0    0  501  0.00000000000E+00  0.00000000000E+00 -0.23600796414E+04  0.23600796414E+04  0.25500000920E-02 0. -1.
    10030    2    1    2    0    0  0.00000000000E+00  0.00000000000E+00 -0.18382318753E+04  0.28819274075E+04  0.22195515661E+04 0.  0.
        4    1    3    3  502    0  0.20031701678E+03  0.73381175890E+02 -0.23332039213E+04  0.23429370148E+04  0.12699999809E+01 0. -1.
       -4    1    3    3    0  502 -0.20031701678E+03 -0.73381175890E+02  0.49497204599E+03  0.53899039267E+03  0.12699999809E+01 0.  1.
</event>
<event>
 5   0  0.9442578E-05  0.2179667E+04  0.7818609E-02  0.8526939E-01
        2   -1    0    0  501    0  0.00000000000E+00  0.00000000000E+00  0.15188097299E+04  0.15188097299E+04  0.25500000920E-02 0. -1.
       -2   -1    0    0    0  501  0.00000000000E+00  0.00000000000E+00 -0.78201803740E+03  0.78201803740E+03  0.25500000920E-02 0.  1.
    10030    2    1    2    0    0  0.00000000000E+00  0.00000000000E+00  0.73679169253E+03  0.23008277673E+04  0.21796665838E+04 0.  0.
        4    1    3    3  502    0  0.17174254589E+03  0.69737040274E+03  0.12336643438E+04  0.14274979183E+04  0.12699999809E+01 0. -1.
       -4    1    3    3    0  502 -0.17174254589E+03 -0.69737040274E+03 -0.49687265129E+03  0.87332984902E+03  0.12699999809E+01 0.  1.
</event>
<event>
 5   0  0.4174030E-05  0.2250058E+04  0.7818609E-02  0.8497877E-01
       -1   -1    0    0    0  501  0.00000000000E+00  0.00000000000E+00  0.79292254238E+03  0.79292254239E+03  0.50400001928E-02 0. -1.
        1   -1    0    0  501    0  0.00000000000E+00  0.00000000000E+00 -0.15962350567E+04  0.15962350567E+04  0.50400001928E-02 0.  1.
    10030    2    1    2    0    0  0.00000000000E+00  0.00000000000E+00 -0.80331251431E+03  0.23891575991E+04  0.22500584520E+04 0.  0.
        2    1    3    3  502    0  0.53929247541E+02 -0.65860256527E+03 -0.13684522168E+04  0.15196470552E+04  0.25500000920E-02 0.  1.
       -2    1    3    3    0  502 -0.53929247541E+02  0.65860256527E+03  0.56513970244E+03  0.86951054393E+03  0.25500000920E-02 0. -1.
</event>
<event>
 5   0  0.9457742E-05  0.2228246E+04  0.7818609E-02  0.8506763E-01
       -2   -1    0    0    0  501  0.00000000000E+00  0.00000000000E+00  0.10078956435E+04  0.10078956435E+04  0.25500000920E-02 0. -1.
        2   -1    0    0  501    0  0.00000000000E+00  0.00000000000E+00 -0.12315460361E+04  0.12315460361E+04  0.25500000920E-02 0.  1.
    10030    2    1    2    0    0  0.00000000000E+00  0.00000000000E+00 -0.22365039262E+03  0.22394416797E+04  0.22282458434E+04 0.  0.
        1    1    3    3  502    0 -0.23525145450E+03 -0.19806255969E+03  0.96439503749E+03  0.10122399976E+04  0.50400001928E-02 0. -1.
       -1    1    3    3    0  502  0.23525145450E+03  0.19806255969E+03 -0.11880454301E+04  0.12272016820E+04  0.50400001928E-02 0.  1.
</event>
<event>
 5   0  0.4063293E-05  0.2203767E+04  0.7818609E-02  0.8516862E-01
       -1   -1    0    0    0  501  0.00000000000E+00  0.00000000000E+00  0.10453252113E+04  0.10453252113E+04  0.50400001928E-02 0. -1.
        1   -1    0    0  501    0  0.00000000000E+00  0.00000000000E+00 -0.11615016658E+04  0.11615016658E+04  0.50400001928E-02 0.  1.
    10030    2    1    2    0    0  0.00000000000E+00  0.00000000000E+00 -0.11617645455E+03  0.22068268771E+04  0.22037667520E+04 0.  0.
        1    1    3    3  502    0 -0.48507163444E+03  0.52044763470E+03 -0.90067609382E+03  0.11477707336E+04  0.50400001928E-02 0.  1.
       -1    1    3    3    0  502  0.48507163444E+03 -0.52044763470E+03  0.78449963928E+03  0.10590561435E+04  0.50400001928E-02 0. -1.
</event>
<event>
 5   0  0.4174075E-05  0.1757869E+04  0.7818609E-02  0.8729031E-01
       -1   -1    0    0    0  501  0.00000000000E+00  0.00000000000E+00  0.63398264349E+03  0.63398264351E+03  0.50400001928E-02 0.  1.
        1   -1    0    0  501    0  0.00000000000E+00  0.00000000000E+00 -0.12185280208E+04  0.12185280208E+04  0.50400001928E-02 0. -1.
    10030    2    1    2    0    0  0.00000000000E+00  0.00000000000E+00 -0.58454537730E+03  0.18525106643E+04  0.17578687275E+04 0.  0.
        5    1    3    3  502    0 -0.69455562989E+03  0.24100342334E+03 -0.79988338693E+03  0.10864279524E+04  0.46999998093E+01 0. -1.
       -5    1    3    3    0  502  0.69455562989E+03 -0.24100342334E+03  0.21533800963E+03  0.76608271190E+03  0.46999998093E+01 0.  1.
</event>
<event>
 5   0  0.9457742E-05  0.2201490E+04  0.7818609E-02  0.8517808E-01
       -2   -1    0    0    0  501  0.00000000000E+00  0.00000000000E+00  0.10049342894E+04  0.10049342894E+04  0.25500000920E-02 0.  1.
        2   -1    0    0  501    0  0.00000000000E+00  0.00000000000E+00 -0.12056899658E+04  0.12056899658E+04  0.25500000920E-02 0. -1.
    10030    2    1    2    0    0  0.00000000000E+00  0.00000000000E+00 -0.20075567641E+03  0.22106242552E+04  0.22014896675E+04 0.  0.
        1    1    3    3  502    0  0.58384734525E+03 -0.16544845517E+03  0.82179443224E+03  0.10215659562E+04  0.50400001928E-02 0.  1.
       -1    1    3    3    0  502 -0.58384734525E+03  0.16544845517E+03 -0.10225501087E+04  0.11890582991E+04  0.50400001928E-02 0. -1.
</event>
<event>
 5   0  0.4174075E-05  0.2205912E+04  0.7818609E-02  0.8515971E-01
        1   -1    0    0  501    0  0.00000000000E+00  0.00000000000E+00  0.98020540094E+03  0.98020540096E+03  0.50400001928E-02 0.  1.
       -1   -1    0    0    0  501  0.00000000000E+00  0.00000000000E+00 -0.12410784579E+04  0.12410784579E+04  0.50400001928E-02 0. -1.
    10030    2    1    2    0    0  0.00000000000E+00  0.00000000000E+00 -0.26087305692E+03  0.22212838588E+04  0.22059118817E+04 0.  0.
        5    1    3    3  502    0  0.40234822742E+03  0.17625202655E+03 -0.11491885647E+04  0.12302866821E+04  0.46999998093E+01 0. -1.
       -5    1    3    3    0  502 -0.40234822742E+03 -0.17625202655E+03  0.88831550776E+03  0.99099717673E+03  0.46999998093E+01 0.  1.
</event>
<event>
 5   0  0.4188865E-05  0.2187073E+04  0.7818609E-02  0.8523828E-01
        1   -1    0    0  501    0  0.00000000000E+00  0.00000000000E+00  0.65663828071E+03  0.65663828073E+03  0.50400001928E-02 0.  1.
       -1   -1    0    0    0  501  0.00000000000E+00  0.00000000000E+00 -0.18211272280E+04  0.18211272280E+04  0.50400001928E-02 0. -1.
    10030    2    1    2    0    0  0.00000000000E+00  0.00000000000E+00 -0.11644889472E+04  0.24777655087E+04  0.21870727944E+04 0.  0.
        3    1    3    3  502    0 -0.72885704013E+03 -0.56011686564E+03 -0.12533068268E+04  0.15542655823E+04  0.10100000352E+00 0. -1.
       -3    1    3    3    0  502  0.72885704013E+03  0.56011686564E+03  0.88817879517E+02  0.92349992639E+03  0.10100000352E+00 0.  1.
</event>
<event>
 5   0  0.4133418E-05  0.2181926E+04  0.7818609E-02  0.8525989E-01
        1   -1    0    0  501    0  0.00000000000E+00  0.00000000000E+00  0.19170124673E+04  0.19170124673E+04  0.50400001928E-02 0.  1.
       -1   -1    0    0    0  501  0.00000000000E+00  0.00000000000E+00 -0.62086208067E+03  0.62086208069E+03  0.50400001928E-02 0. -1.
    10030    2    1    2    0    0  0.00000000000E+00  0.00000000000E+00  0.12961503866E+04  0.25378745480E+04  0.21819260750E+04 0.  0.
        4    1    3    3  502    0 -0.50595281064E+03  0.28484181002E+03  0.17223710147E+04  0.18176046403E+04  0.12699999809E+01 0.  1.
       -4    1    3    3    0  502  0.50595281064E+03 -0.28484181002E+03 -0.42622062802E+03  0.72026990772E+03  0.12699999809E+01 0. -1.
</event>
<event>
 5   0  0.9938176E-05  0.2117404E+04  0.7818609E-02  0.8553615E-01
        2   -1    0    0  501    0  0.00000000000E+00  0.00000000000E+00  0.96116983660E+03  0.96116983661E+03  0.25500000920E-02 0. -1.
       -2   -1    0    0    0  501  0.00000000000E+00  0.00000000000E+00 -0.11661314006E+04  0.11661314006E+04  0.25500000920E-02 0.  1.
    10030    2    1    2    0    0  0.00000000000E+00  0.00000000000E+00 -0.20496156398E+03  0.21273012372E+04  0.21174043806E+04 0.  0.
        5    1    3    3  502    0  0.99584237469E+03 -0.30984383542E+03 -0.28532869974E+03  0.10812676794E+04  0.46999998093E+01 0. -1.
       -5    1    3    3    0  502 -0.99584237469E+03  0.30984383542E+03  0.80367135759E+02  0.10460335578E+04  0.46999998093E+01 0.  1.
</event>
<event>
 5   0  0.9457742E-05  0.2226512E+04  0.7818609E-02  0.8507474E-01
        2   -1    0    0  501    0  0.00000000000E+00  0.00000000000E+00  0.11545697914E+04  0.11545697914E+04  0.25500000920E-02 0. -1.
       -2   -1    0    0    0  501  0.00000000000E+00  0.00000000000E+00 -0.10734203700E+04  0.10734203700E+04  0.25500000920E-02 0.  1.
    10030    2    1    2    0    0  0.00000000000E+00  0.00000000000E+00  0.81149421379E+02  0.22279901614E+04  0.22265118303E+04 0.  0.
        1    1    3    3  502    0 -0.24285277673E+01  0.86036632123E+03  0.74751574348E+03  0.11397437831E+04  0.50400001928E-02 0. -1.
       -1    1    3    3    0  502  0.24285277673E+01 -0.86036632123E+03 -0.66636632210E+03  0.10882463782E+04  0.50400001928E-02 0.  1.
</event>
<event>
 5   0  0.4174030E-05  0.2181964E+04  0.7818609E-02  0.8525973E-01
       -1   -1    0    0    0  501  0.00000000000E+00  0.00000000000E+00  0.91023404434E+03  0.91023404435E+03  0.50400001928E-02 0. -1.
        1   -1    0    0  501    0  0.00000000000E+00  0.00000000000E+00 -0.13076214701E+04  0.13076214701E+04  0.50400001928E-02 0.  1.
    10030    2    1    2    0    0  0.00000000000E+00  0.00000000000E+00 -0.39738742575E+03  0.22178555144E+04  0.21819638670E+04 0.  0.
        2    1    3    3  502    0 -0.10174455372E+04 -0.80956911273E+02 -0.59037914889E+03  0.11791085540E+04  0.25500000920E-02 0.  1.
       -2    1    3    3    0  502  0.10174455372E+04  0.80956911273E+02  0.19299172314E+03  0.10387469605E+04  0.25500000920E-02 0. -1.
</event>
<event>
 5   0  0.4174075E-05  0.2203327E+04  0.7818609E-02  0.8517045E-01
        1   -1    0    0  501    0  0.00000000000E+00  0.00000000000E+00  0.89058602017E+03  0.89058602018E+03  0.50400001928E-02 0.  1.
       -1   -1    0    0    0  501  0.00000000000E+00  0.00000000000E+00 -0.13627677900E+04  0.13627677900E+04  0.50400001928E-02 0. -1.
    10030    2    1    2    0    0  0.00000000000E+00  0.00000000000E+00 -0.47218176984E+03  0.22533538102E+04  0.22033265237E+04 0.  0.
        5    1    3    3  502    0 -0.47092708135E+03  0.28998281903E+03  0.73831575038E+03  0.92249367941E+03  0.46999998093E+01 0.  1.
       -5    1    3    3    0  502  0.47092708135E+03 -0.28998281903E+03 -0.12104975202E+04  0.13308601308E+04  0.46999998093E+01 0. -1.
</event>
<event>
 5   0  0.9179618E-05  0.2168372E+04  0.7818609E-02  0.8531709E-01
        2   -1    0    0  501    0  0.00000000000E+00  0.00000000000E+00  0.19066779810E+04  0.19066779810E+04  0.25500000920E-02 0. -1.
       -2   -1    0    0    0  501  0.00000000000E+00  0.00000000000E+00 -0.61649586480E+03  0.61649586480E+03  0.25500000920E-02 0.  1.
    10030    2    1    2    0    0  0.00000000000E+00  0.00000000000E+00  0.12901821162E+04  0.25231738458E+04  0.21683718231E+04 0.  0.
        3    1    3    3  502    0  0.86719115324E+03  0.21033518474E+03  0.13616406667E+04  0.16279824021E+04  0.10100000352E+00 0. -1.
       -3    1    3    3    0  502 -0.86719115324E+03 -0.21033518474E+03 -0.71458550510E+02  0.89519144368E+03  0.10100000352E+00 0.  1.
</event>
<event>
 5   0  0.9457742E-05  0.2190268E+04  0.7818609E-02  0.8522490E-01
       -2   -1    0    0    0  501  0.00000000000E+00  0.00000000000E+00  0.71515657408E+03  0.71515657409E+03  0.25500000920E-02 0.  1.
        2   -1    0    0  501    0  0.00000000000E+00  0.00000000000E+00 -0.16770005425E+04  0.16770005425E+04  0.25500000920E-02 0. -1.
    10030    2    1    2    0    0  0.00000000000E+00  0.00000000000E+00 -0.96184396837E+03  0.23921571165E+04  0.21902675295E+04 0.  0.
        1    1    3    3  502    0  0.26356947117E+03 -0.49983952461E+03  0.54363525789E+03  0.78412225459E+03  0.50400001928E-02 0.  1.
       -1    1    3    3    0  502 -0.26356947117E+03  0.49983952461E+03 -0.15054792263E+04  0.16080348619E+04  0.50400001928E-02 0. -1.
</event>
<event>
 5   0  0.4174075E-05  0.2391107E+04  0.7818609E-02  0.8442841E-01
       -1   -1    0    0    0  501  0.00000000000E+00  0.00000000000E+00  0.11319745019E+04  0.11319745019E+04  0.50400001928E-02 0.  1.
        1   -1    0    0  501    0  0.00000000000E+00  0.00000000000E+00 -0.12627030450E+04  0.12627030450E+04  0.50400001928E-02 0. -1.
    10030    2    1    2    0    0  0.00000000000E+00  0.00000000000E+00 -0.13072854310E+03  0.23946775470E+04  0.23911065643E+04 0.  0.
        5    1    3    3  502    0  0.24612238591E+03 -0.10989120471E+04 -0.46738829522E+03  0.12192857847E+04  0.46999998093E+01 0. -1.
       -5    1    3    3    0  502 -0.24612238591E+03  0.10989120471E+04  0.33665975212E+03  0.11753917623E+04  0.46999998093E+01 0.  1.
</event>
<event>
 5   0  0.4174030E-05  0.2314541E+04  0.7818609E-02  0.8472210E-01
        1   -1    0    0  501    0  0.00000000000E+00  0.00000000000E+00  0.11938299293E+04  0.11938299293E+04  0.50400001928E-02 0.  1.
       -1   -1    0    0    0  501  0.00000000000E+00  0.00000000000E+00 -0.11218311354E+04  0.11218311354E+04  0.50400001928E-02 0. -1.
    10030    2    1    2    0    0  0.00000000000E+00  0.00000000000E+00  0.71998793889E+02  0.23156610647E+04  0.23145414968E+04 0.  0.
        2    1    3    3  502    0 -0.11357451438E+03 -0.72482033506E+03  0.93142499391E+03  0.11856712056E+04  0.25500000920E-02 0.  1.
       -2    1    3    3    0  502  0.11357451438E+03  0.72482033506E+03 -0.85942620002E+03  0.11299898591E+04  0.25500000920E-02 0. -1.
</event>
<event>
 5   0  0.4174075E-05  0.2243483E+04  0.7818609E-02  0.8500545E-01
       -1   -1    0    0    0  501  0.00000000000E+00  0.00000000000E+00  0.16139171072E+04  0.16139171072E+04  0.50400001928E-02 0.  1.
        1   -1    0    0  501    0  0.00000000000E+00  0.00000000000E+00 -0.77965816010E+03  0.77965816011E+03  0.50400001928E-02 0. -1.
    10030    2    1    2    0    0  0.00000000000E+00  0.00000000000E+00  0.83425894707E+03  0.23935752673E+04  0.22434826876E+04 0.  0.
        5    1    3    3  502    0  0.40071659491E+03 -0.10257115897E+04  0.18924294411E+03  0.11173598510E+04  0.46999998093E+01 0. -1.
       -5    1    3    3    0  502 -0.40071659491E+03  0.10257115897E+04  0.64501600295E+03  0.12762154163E+04  0.46999998093E+01 0.  1.
</event>
<event>
 5   0  0.4174030E-05  0.2201058E+04  0.7818609E-02  0.8517988E-01
        1   -1    0    0  501    0  0.00000000000E+00  0.00000000000E+00  0.20731520460E+04  0.20731520460E+04  0.50400001928E-02 0.  1.
       -1   -1    0    0    0  501  0.00000000000E+00  0.00000000000E+00 -0.58421401041E+03  0.58421401043E+03  0.50400001928E-02 0. -1.
    10030    2    1    2    0    0  0.00000000000E+00  0.00000000000E+00  0.14889380356E+04  0.26573660564E+04  0.22010583554E+04 0.  0.
        2    1    3    3  502    0  0.97457841421E+02 -0.10027030884E+04  0.12793140060E+04  0.16283598620E+04  0.25500000920E-02 0.  1.
       -2    1    3    3    0  502 -0.97457841421E+02  0.10027030884E+04  0.20962402958E+03  0.10290061944E+04  0.25500000920E-02 0. -1.
</event>
<event>
 5   0  0.4174075E-05  0.2182114E+04  0.7818609E-02  0.8525910E-01
        1   -1    0    0  501    0  0.00000000000E+00  0.00000000000E+00  0.17038026693E+04  0.17038026693E+04  0.50400001928E-02 0. -1.
       -1   -1    0    0    0  501  0.00000000000E+00  0.00000000000E+00 -0.69867573680E+03  0.69867573681E+03  0.50400001928E-02 0.  1.
    10030    2    1    2    0    0  0.00000000000E+00  0.00000000000E+00  0.10051269325E+04  0.24024784061E+04  0.21821141907E+04 0.  0.
        5    1    3    3  502    0  0.78911737712E+03  0.51323877799E+02 -0.32504097939E+03  0.85499362780E+03  0.46999998093E+01 0.  1.
       -5    1    3    3    0  502 -0.78911737712E+03 -0.51323877799E+02  0.13301679119E+04  0.15474847783E+04  0.46999998093E+01 0. -1.
</event>
<event>
 5   0  0.4174030E-05  0.2204309E+04  0.7818609E-02  0.8516637E-01
        1   -1    0    0  501    0  0.00000000000E+00  0.00000000000E+00  0.20014199331E+04  0.20014199331E+04  0.50400001928E-02 0.  1.
       -1   -1    0    0    0  501  0.00000000000E+00  0.00000000000E+00 -0.60694153086E+03  0.60694153088E+03  0.50400001928E-02 0. -1.
    10030    2    1    2    0    0  0.00000000000E+00  0.00000000000E+00  0.13944784022E+04  0.26083614640E+04  0.22043093051E+04 0.  0.
        2    1    3    3  502    0  0.96581592990E+02 -0.33396399171E+03  0.19348413656E+04  0.19658257964E+04  0.25500000920E-02 0.  1.
       -2    1    3    3    0  502 -0.96581592990E+02  0.33396399171E+03 -0.54036296338E+03  0.64253566754E+03  0.25500000920E-02 0. -1.
</event>
<event>
 5   0  0.9179618E-05  0.2226619E+04  0.7818609E-02  0.8507430E-01
       -2   -1    0    0    0  501  0.00000000000E+00  0.00000000000E+00  0.13760252695E+04  0.13760252695E+04  0.25500000920E-02 0. -1.
        2   -1    0    0  501    0  0.00000000000E+00  0.00000000000E+00 -0.90075202790E+03  0.90075202791E+03  0.25500000920E-02 0.  1.
    10030    2    1    2    0    0  0.00000000000E+00  0.00000000000E+00  0.47527324164E+03  0.22767772974E+04  0.22266185591E+04 0.  0.
        3    1    3    3  502    0 -0.65962548125E+03  0.30825950600E+03  0.10988251399E+04  0.13181602318E+04  0.10100000352E+00 0. -1.
       -3    1    3    3    0  502  0.65962548125E+03 -0.30825950600E+03 -0.62355189822E+03  0.95861706563E+03  0.10100000352E+00 0.  1.
</event>
<event>
 5   0  0.9254673E-05  0.2224225E+04  0.7818609E-02  0.8508412E-01
        2   -1    0    0  501    0  0.00000000000E+00  0.00000000000E+00  0.10358241703E+04  0.10358241703E+04  0.25500000920E-02 0. -1.
       -2   -1    0    0    0  501  0.00000000000E+00  0.00000000000E+00 -0.11940198024E+04  0.11940198024E+04  0.25500000920E-02 0.  1.
    10030    2    1    2    0    0  0.00000000000E+00  0.00000000000E+00 -0.15819563213E+03  0.22298439727E+04  0.22242253223E+04 0.  0.
        2    1    3    3  502    0  0.25851149217E+03  0.29348614310E+03 -0.11228003363E+04  0.11889671581E+04  0.25500000920E-02 0.  1.
       -2    1    3    3    0  502 -0.25851149217E+03 -0.29348614310E+03  0.96460470419E+03  0.10408768146E+04  0.25500000920E-02 0. -1.
</event>
<event>
 5   0  0.9457742E-05  0.2195262E+04  0.7818609E-02  0.8520403E-01
        2   -1    0    0  501    0  0.00000000000E+00  0.00000000000E+00  0.22461342303E+04  0.22461342303E+04  0.25500000920E-02 0. -1.
       -2   -1    0    0    0  501  0.00000000000E+00  0.00000000000E+00 -0.53638549662E+03  0.53638549663E+03  0.25500000920E-02 0.  1.
    10030    2    1    2    0    0  0.00000000000E+00  0.00000000000E+00  0.17097487337E+04  0.27825197270E+04  0.21952620114E+04 0.  0.
        1    1    3    3  502    0 -0.37738060038E+03 -0.76355457786E+03 -0.22699623829E+02  0.85202522490E+03  0.50400001928E-02 0.  1.
       -1    1    3    3    0  502  0.37738060038E+03  0.76355457786E+03  0.17324483575E+04  0.19304945020E+04  0.50400001928E-02 0. -1.
</event>
<event>
 5   0  0.4174030E-05  0.2224330E+04  0.7818609E-02  0.8508369E-01
        1   -1    0    0  501    0  0.00000000000E+00  0.00000000000E+00  0.11597687475E+04  0.11597687475E+04  0.50400001928E-02 0. -1.
       -1   -1    0    0    0  501  0.00000000000E+00  0.00000000000E+00 -0.10665149439E+04  0.10665149439E+04  0.50400001928E-02 0.  1.
    10030    2    1    2    0    0  0.00000000000E+00  0.00000000000E+00  0.93253803602E+02  0.22262836914E+04  0.22243297424E+04 0.  0.
        2    1    3    3  502    0 -0.10050153216E+04  0.47532618640E+03  0.76983738954E+02  0.11144134224E+04  0.25500000920E-02 0.  1.
       -2    1    3    3    0  502  0.10050153216E+04 -0.47532618640E+03  0.16270064649E+02  0.11118702690E+04  0.25500000920E-02 0. -1.
</event>
<event>
 5   0  0.9442578E-05  0.2150250E+04  0.7818609E-02  0.8539425E-01
        2   -1    0    0  501    0  0.00000000000E+00  0.00000000000E+00  0.15384036395E+04  0.15384036395E+04  0.25500000920E-02 0. -1.
       -2   -1    0    0    0  501  0.00000000000E+00  0.00000000000E+00 -0.75135927882E+03  0.75135927882E+03  0.25500000920E-02 0.  1.
    10030    2    1    2    0    0  0.00000000000E+00  0.00000000000E+00  0.78704436069E+03  0.22897629183E+04  0.21502500777E+04 0.  0.
        4    1    3    3  502    0  0.27329820052E+03 -0.77500179912E+03 -0.34468968633E+03  0.89114100333E+03  0.12699999809E+01 0.  1.
       -4    1    3    3    0  502 -0.27329820052E+03  0.77500179912E+03  0.11317340470E+04  0.13986219150E+04  0.12699999809E+01 0. -1.
</event>
<event>
 5   0  0.4063293E-05  0.2216669E+04  0.7818609E-02  0.8511522E-01
        1   -1    0    0  501    0  0.00000000000E+00  0.00000000000E+00  0.12520677980E+04  0.12520677980E+04  0.50400001928E-02 0.  1.
       -1   -1    0    0    0  501  0.00000000000E+00  0.00000000000E+00 -0.98110128393E+03  0.98110128394E+03  0.50400001928E-02 0. -1.
    10030    2    1    2    0    0  0.00000000000E+00  0.00000000000E+00  0.27096651404E+03  0.22331690819E+04  0.22166689642E+04 0.  0.
        1    1    3    3  502    0  0.48017554658E+03  0.97911122512E+03 -0.63924372979E+02  0.10923889748E+04  0.50400001928E-02 0.  1.
       -1    1    3    3    0  502 -0.48017554658E+03 -0.97911122512E+03  0.33489088702E+03  0.11407801072E+04  0.50400001928E-02 0. -1.
</event>
<event>
 5   0  0.4133418E-05  0.2225495E+04  0.7818609E-02  0.8507891E-01
        1   -1    0    0  501    0  0.00000000000E+00  0.00000000000E+00  0.13166334362E+04  0.13166334362E+04  0.50400001928E-02 0.  1.
       -1   -1    0    0    0  501  0.00000000000E+00  0.00000000000E+00 -0.94043451240E+03  0.94043451242E+03  0.50400001928E-02 0. -1.
    10030    2    1    2    0    0  0.00000000000E+00  0.00000000000E+00  0.37619892383E+03  0.22570679487E+04  0.22254954717E+04 0.  0.
        4    1    3    3  502    0 -0.26303432631E+03 -0.59550613675E+03 -0.72713945844E+03  0.97598566621E+03  0.12699999809E+01 0. -1.
       -4    1    3    3    0  502  0.26303432631E+03  0.59550613675E+03  0.11033383823E+04  0.12810822825E+04  0.12699999809E+01 0.  1.
</event>
<event>
 5   0  0.9179618E-05  0.2228304E+04  0.7818609E-02  0.8506739E-01
        2   -1    0    0  501    0  0.00000000000E+00  0.00000000000E+00  0.10799560977E+04  0.10799560977E+04  0.25500000920E-02 0.  1.
       -2   -1    0    0    0  501  0.00000000000E+00  0.00000000000E+00 -0.11494306564E+04  0.11494306564E+04  0.25500000920E-02 0. -1.
    10030    2    1    2    0    0  0.00000000000E+00  0.00000000000E+00 -0.69474558657E+02  0.22293867541E+04  0.22283039705E+04 0.  0.
        3    1    3    3  502    0 -0.98617469918E+03 -0.31553773568E+03 -0.44631296072E+03  0.11275193431E+04  0.10100000352E+00 0. -1.
       -3    1    3    3    0  502  0.98617469918E+03  0.31553773568E+03  0.37683840206E+03  0.11018674110E+04  0.10100000352E+00 0.  1.
</event>
<event>
 5   0  0.4174075E-05  0.2179856E+04  0.7818609E-02  0.8526859E-01
        1   -1    0    0  501    0  0.00000000000E+00  0.00000000000E+00  0.12758338458E+04  0.12758338458E+04  0.50400001928E-02 0.  1.
       -1   -1    0    0    0  501  0.00000000000E+00  0.00000000000E+00 -0.93111136949E+03  0.93111136951E+03  0.50400001928E-02 0. -1.
    10030    2    1    2    0    0  0.00000000000E+00  0.00000000000E+00  0.34472247626E+03  0.22069452153E+04  0.21798563250E+04 0.  0.
        5    1    3    3  502    0 -0.70943679280E+03  0.69597572050E+03 -0.28067977576E+03  0.10327080870E+04  0.46999998093E+01 0. -1.
       -5    1    3    3    0  502  0.70943679280E+03 -0.69597572050E+03  0.62540225202E+03  0.11742371282E+04  0.46999998093E+01 0.  1.
</event>
<event>
 5   0  0.9179618E-05  0.2182987E+04  0.7818609E-02  0.8525543E-01
        2   -1    0    0  501    0  0.00000000000E+00  0.00000000000E+00  0.97636440382E+03  0.97636440382E+03  0.25500000920E-02 0. -1.
       -2   -1    0    0    0  501  0.00000000000E+00  0.00000000000E+00 -0.12201979524E+04  0.12201979524E+04  0.25500000920E-02 0.  1.
    10030    2    1    2    0    0  0.00000000000E+00  0.00000000000E+00 -0.24383354862E+03  0.21965623563E+04  0.21829868038E+04 0.  0.
        3    1    3    3  502    0  0.67914900398E+03 -0.13992141675E+03  0.72625850658E+03  0.10041278808E+04  0.10100000352E+00 0. -1.
       -3    1    3    3    0  502 -0.67914900398E+03  0.13992141675E+03 -0.97009205519E+03  0.11924344754E+04  0.10100000352E+00 0.  1.
</event>
<event>
 5   0  0.4133418E-05  0.2192974E+04  0.7818609E-02  0.8521358E-01
       -1   -1    0    0    0  501  0.00000000000E+00  0.00000000000E+00  0.11044251254E+04  0.11044251254E+04  0.50400001928E-02 0. -1.
        1   -1    0    0  501    0  0.00000000000E+00  0.00000000000E+00 -0.10886062673E+04  0.10886062673E+04  0.50400001928E-02 0.  1.
    10030    2    1    2    0    0  0.00000000000E+00  0.00000000000E+00  0.15818858118E+02  0.21930313927E+04  0.21929743394E+04 0.  0.
        4    1    3    3  502    0  0.19549948152E+03 -0.96516217944E+03 -0.47431097654E+03  0.10930373257E+04  0.12699999809E+01 0.  1.
       -4    1    3    3    0  502 -0.19549948152E+03  0.96516217944E+03  0.49012983466E+03  0.10999940671E+04  0.12699999809E+01 0. -1.
</event>
<event>
 5   0  0.4174075E-05  0.2227978E+04  0.7818609E-02  0.8506872E-01
       -1   -1    0    0    0  501  0.00000000000E+00  0.00000000000E+00  0.47839457573E+03  0.47839457576E+03  0.50400001928E-02 0. -1.
        1   -1    0    0  501    0  0.00000000000E+00  0.00000000000E+00 -0.25940340791E+04  0.25940340791E+04  0.50400001928E-02 0.  1.
    10030    2    1    2    0    0  0.00000000000E+00  0.00000000000E+00 -0.21156395034E+04  0.30724286549E+04  0.22279783058E+04 0.  0.
        5    1    3    3  502    0 -0.77080288738E+03 -0.30482401495E+03 -0.31495572962E+02  0.82949914551E+03  0.46999998093E+01 0. -1.
       -5    1    3    3    0  502  0.77080288738E+03  0.30482401495E+03 -0.20841439304E+04  0.22429295094E+04  0.46999998093E+01 0.  1.
</event>
<event>
 5   0  0.9938176E-05  0.2168367E+04  0.7818609E-02  0.8531711E-01
        2   -1    0    0  501    0  0.00000000000E+00  0.00000000000E+00  0.10102284631E+04  0.10102284631E+04  0.25500000920E-02 0. -1.
       -2   -1    0    0    0  501  0.00000000000E+00  0.00000000000E+00 -0.11635522930E+04  0.11635522930E+04  0.25500000920E-02 0.  1.
    10030    2    1    2    0    0  0.00000000000E+00  0.00000000000E+00 -0.15332382995E+03  0.21737807561E+04  0.21683667998E+04 0.  0.
        5    1    3    3  502    0 -0.40122658895E+03  0.91468968684E+03 -0.49936805455E+03  0.11167052175E+04  0.46999998093E+01 0. -1.
       -5    1    3    3    0  502  0.40122658895E+03 -0.91468968684E+03  0.34604422460E+03  0.10570755386E+04  0.46999998093E+01 0.  1.
</event>
<event>
 5   0  0.4063293E-05  0.2086920E+04  0.7818609E-02  0.8567027E-01
       -1   -1    0    0    0  501  0.00000000000E+00  0.00000000000E+00  0.14829108122E+04  0.14829108122E+04  0.50400001928E-02 0.  1.
        1   -1    0    0  501    0  0.00000000000E+00  0.00000000000E+00 -0.73423770362E+03  0.73423770363E+03  0.50400001928E-02 0. -1.
    10030    2    1    2    0    0  0.00000000000E+00  0.00000000000E+00  0.74867310861E+03  0.22171485159E+04  0.20869202471E+04 0.  0.
        1    1    3    3  502    0  0.23853415876E+03  0.18719121707E+03  0.14350746862E+04  0.14667578027E+04  0.50400001928E-02 0.  1.
       -1    1    3    3    0  502 -0.23853415876E+03 -0.18719121707E+03 -0.68640157762E+03  0.75039071318E+03  0.50400001928E-02 0. -1.
</event>
<event>
 5   0  0.9938176E-05  0.2219512E+04  0.7818609E-02  0.8510351E-01
       -2   -1    0    0    0  501  0.00000000000E+00  0.00000000000E+00  0.72920294244E+03  0.72920294244E+03  0.25500000920E-02 0.  1.
        2   -1    0    0  501    0  0.00000000000E+00  0.00000000000E+00 -0.16889098818E+04  0.16889098818E+04  0.25500000920E-02 0. -1.
    10030    2    1    2    0    0  0.00000000000E+00  0.00000000000E+00 -0.95970693939E+03  0.24181128243E+04  0.22195117079E+04 0.  0.
        5    1    3    3  502    0 -0.91119783367E+03  0.51452203033E+02  0.20799323196E+03  0.93606201494E+03  0.46999998093E+01 0.  1.
       -5    1    3    3    0  502  0.91119783367E+03 -0.51452203033E+02 -0.11677001713E+04  0.14820508093E+04  0.46999998093E+01 0. -1.
</event>
<event>
 5   0  0.4174030E-05  0.2189718E+04  0.7818609E-02  0.8522720E-01
        1   -1    0    0  501    0  0.00000000000E+00  0.00000000000E+00  0.93654142388E+03  0.93654142390E+03  0.50400001928E-02 0.  1.
       -1   -1    0    0    0  501  0.00000000000E+00  0.00000000000E+00 -0.12799392799E+04  0.12799392799E+04  0.50400001928E-02 0. -1.
    10030    2    1    2    0    0  0.00000000000E+00  0.00000000000E+00 -0.34339785603E+03  0.22164807038E+04  0.21897179323E+04 0.  0.
        2    1    3    3  502    0 -0.40571236519E+03 -0.99838111645E+01  0.85759397907E+03  0.94877269812E+03  0.25500000920E-02 0.  1.
       -2    1    3    3    0  502  0.40571236519E+03  0.99838111645E+01 -0.12009918351E+04  0.12677080057E+04  0.25500000920E-02 0. -1.
</event>
<event>
 5   0  0.4188865E-05  0.2035669E+04  0.7818609E-02  0.8590124E-01
       -1   -1    0    0    0  501  0.00000000000E+00  0.00000000000E+00  0.18037254431E+04  0.18037254431E+04  0.50400001928E-02 0. -1.
        1   -1    0    0  501    0  0.00000000000E+00  0.00000000000E+00 -0.57435958039E+03  0.57435958041E+03  0.50400001928E-02 0.  1.
    10030    2    1    2    0    0  0.00000000000E+00  0.00000000000E+00  0.12293658627E+04  0.23780850235E+04  0.20356689207E+04 0.  0.
        3    1    3    3  502    0  0.45918859196E+03 -0.18778206188E+02 -0.44625345279E+03  0.64058484086E+03  0.10100000352E+00 0.  1.
       -3    1    3    3    0  502 -0.45918859196E+03  0.18778206188E+02  0.16756193155E+04  0.17375001826E+04  0.10100000352E+00 0. -1.
</event>
<event>
 5   0  0.4174075E-05  0.2157254E+04  0.7818609E-02  0.8536434E-01
       -1   -1    0    0    0  501  0.00000000000E+00  0.00000000000E+00  0.55594775970E+03  0.55594775972E+03  0.50400001928E-02 0.  1.
        1   -1    0    0  501    0  0.00000000000E+00  0.00000000000E+00 -0.20927079668E+04  0.20927079668E+04  0.50400001928E-02 0. -1.
    10030    2    1    2    0    0  0.00000000000E+00  0.00000000000E+00 -0.15367602071E+04  0.26486557265E+04  0.21572540934E+04 0.  0.
        5    1    3    3  502    0 -0.97556980351E+03  0.43806065006E+03 -0.94106103938E+03  0.14245180043E+04  0.46999998093E+01 0. -1.
       -5    1    3    3    0  502  0.97556980351E+03 -0.43806065006E+03 -0.59569916773E+03  0.12241377223E+04  0.46999998093E+01 0.  1.
</event>
<event>
 5   0  0.9254673E-05  0.2014636E+04  0.7818609E-02  0.8599808E-01
       -2   -1    0    0    0  501  0.00000000000E+00  0.00000000000E+00  0.79935433402E+03  0.79935433403E+03  0.25500000920E-02 0. -1.
        2   -1    0    0  501    0  0.00000000000E+00  0.00000000000E+00 -0.12693869833E+04  0.12693869833E+04  0.25500000920E-02 0.  1.
    10030    2    1    2    0    0  0.00000000000E+00  0.00000000000E+00 -0.47003264927E+03  0.20687413173E+04  0.20146364304E+04 0.  0.
        2    1    3    3  502    0 -0.48825086950E+03  0.85814845364E+03 -0.29947501403E+02  0.98777757259E+03  0.25500000920E-02 0. -1.
       -2    1    3    3    0  502  0.48825086950E+03 -0.85814845364E+03 -0.44008514787E+03  0.10809637447E+04  0.25500000920E-02 0.  1.
</event>
<event>
 5   0  0.9457742E-05  0.2287165E+04  0.7818609E-02  0.8482999E-01
       -2   -1    0    0    0  501  0.00000000000E+00  0.00000000000E+00  0.12973282480E+04  0.12973282480E+04  0.25500000920E-02 0.  1.
        2   -1    0    0  501    0  0.00000000000E+00  0.00000000000E+00 -0.10080572202E+04  0.10080572202E+04  0.25500000920E-02 0. -1.
    10030    2    1    2    0    0  0.00000000000E+00  0.00000000000E+00  0.28927102787E+03  0.23053854682E+04  0.22871651513E+04 0.  0.
        1    1    3    3  502    0 -0.34135229063E+03  0.43424866163E+03 -0.86468452551E+03  0.10260470823E+04  0.50400001928E-02 0. -1.
       -1    1    3    3    0  502  0.34135229063E+03 -0.43424866163E+03  0.11539555534E+04  0.12793383859E+04  0.50400001928E-02 0.  1.
</event>
<event>
 5   0  0.4063293E-05  0.2121260E+04  0.7818609E-02  0.8551936E-01
        1   -1    0    0  501    0  0.00000000000E+00  0.00000000000E+00  0.18871705312E+04  0.18871705312E+04  0.50400001928E-02 0. -1.
       -1   -1    0    0    0  501  0.00000000000E+00  0.00000000000E+00 -0.59609660677E+03  0.59609660679E+03  0.50400001928E-02 0.  1.
    10030    2    1    2    0    0  0.00000000000E+00  0.00000000000E+00  0.12910739244E+04  0.24832671380E+04  0.21212599559E+04 0.  0.
        1    1    3    3  502    0 -0.24006862742E+03  0.76431357647E+03  0.14592298957E+04  0.16646801727E+04  0.50400001928E-02 0. -1.
       -1    1    3    3    0  502  0.24006862742E+03 -0.76431357647E+03 -0.16815597122E+03  0.81858696528E+03  0.50400001928E-02 0.  1.
</event>
<event>
 5   0  0.4188865E-05  0.2219896E+04  0.7818609E-02  0.8510192E-01
        1   -1    0    0  501    0  0.00000000000E+00  0.00000000000E+00  0.14215573822E+04  0.14215573822E+04  0.50400001928E-02 0.  1.
       -1   -1    0    0    0  501  0.00000000000E+00  0.00000000000E+00 -0.86664397012E+03  0.86664397014E+03  0.50400001928E-02 0. -1.
    10030    2    1    2    0    0  0.00000000000E+00  0.00000000000E+00  0.55491341208E+03  0.22882013523E+04  0.22198956133E+04 0.  0.
        3    1    3    3  502    0  0.97032007057E+03  0.12803013542E+03 -0.26217010475E+03  0.10132353769E+04  0.10100000352E+00 0. -1.
       -3    1    3    3    0  502 -0.97032007057E+03 -0.12803013542E+03  0.81708351683E+03  0.12749659755E+04  0.10100000352E+00 0.  1.
</event>
<event>
 5   0  0.4188865E-05  0.2141518E+04  0.7818609E-02  0.8543172E-01
        1   -1    0    0  501    0  0.00000000000E+00  0.00000000000E+00  0.13461155943E+04  0.13461155943E+04  0.50400001928E-02 0. -1.
       -1   -1    0    0    0  501  0.00000000000E+00  0.00000000000E+00 -0.85172862751E+03  0.85172862752E+03  0.50400001928E-02 0.  1.
    10030    2    1    2    0    0  0.00000000000E+00  0.00000000000E+00  0.49438696683E+03  0.21978442219E+04  0.21415183283E+04 0.  0.
        3    1    3    3  502    0 -0.28660766104E+03  0.50068277868E+03 -0.67858424985E+03  0.89067603009E+03  0.10100000352E+00 0.  1.
       -3    1    3    3    0  502  0.28660766104E+03 -0.50068277868E+03  0.11729712167E+04  0.13071681918E+04  0.10100000352E+00 0. -1.
</event>
<event>
 5   0  0.4133418E-05  0.2221328E+04  0.7818609E-02  0.8509603E-01
       -1   -1    0    0    0  501  0.00000000000E+00  0.00000000000E+00  0.66562659658E+03  0.66562659660E+03  0.50400001928E-02 0.  1.
        1   -1    0    0  501    0  0.00000000000E+00  0.00000000000E+00 -0.18532524941E+04  0.18532524941E+04  0.50400001928E-02 0. -1.
    10030    2    1    2    0    0  0.00000000000E+00  0.00000000000E+00 -0.11876258976E+04  0.25188790907E+04  0.22213276663E+04 0.  0.
        4    1    3    3  502    0 -0.94294687035E+03  0.58481623975E+03 -0.64952338960E+03  0.12857064522E+04  0.12699999809E+01 0. -1.
       -4    1    3    3    0  502  0.94294687035E+03 -0.58481623975E+03 -0.53810250797E+03  0.12331726386E+04  0.12699999809E+01 0.  1.
</event>
<event>
 5   0  0.9457742E-05  0.2223959E+04  0.7818609E-02  0.8508521E-01
       -2   -1    0    0    0  501  0.00000000000E+00  0.00000000000E+00  0.66955796161E+03  0.66955796162E+03  0.25500000920E-02 0. -1.
        2   -1    0    0  501    0  0.00000000000E+00  0.00000000000E+00 -0.18467387580E+04  0.18467387580E+04  0.25500000920E-02 0.  1.
    10030    2    1    2    0    0  0.00000000000E+00  0.00000000000E+00 -0.11771807964E+04  0.25162967196E+04  0.22239592069E+04 0.  0.
        1    1    3    3  502    0  0.92077910394E+02 -0.42212993859E+03  0.57070422931E+03  0.71580398435E+03  0.50400001928E-02 0. -1.
       -1    1    3    3    0  502 -0.92077910394E+02  0.42212993859E+03 -0.17478850257E+04  0.18004927353E+04  0.50400001928E-02 0.  1.
</event>
<event>
 5   0  0.9179618E-05  0.2162777E+04  0.7818609E-02  0.8534083E-01
       -2   -1    0    0    0  501  0.00000000000E+00  0.00000000000E+00  0.12916242481E+04  0.12916242481E+04  0.25500000920E-02 0. -1.
        2   -1    0    0  501    0  0.00000000000E+00  0.00000000000E+00 -0.90537246295E+03  0.90537246295E+03  0.25500000920E-02 0.  1.
    10030    2    1    2    0    0  0.00000000000E+00  0.00000000000E+00  0.38625178516E+03  0.21969967111E+04  0.21627769434E+04 0.  0.
        3    1    3    3  502    0  0.10351266086E+04  0.11121360183E+03 -0.10398333965E+03  0.10462638798E+04  0.10100000352E+00 0.  1.
       -3    1    3    3    0  502 -0.10351266086E+04 -0.11121360183E+03  0.49023512481E+03  0.11507328312E+04  0.10100000352E+00 0. -1.
</event>
<event>
 5   0  0.4188865E-05  0.2184005E+04  0.7818609E-02  0.8525115E-01
        1   -1    0    0  501    0  0.00000000000E+00  0.00000000000E+00  0.15907915640E+04  0.15907915640E+04  0.50400001928E-02 0. -1.
       -1   -1    0    0    0  501  0.00000000000E+00  0.00000000000E+00 -0.74960779576E+03  0.74960779578E+03  0.50400001928E-02 0.  1.
    10030    2    1    2    0    0  0.00000000000E+00  0.00000000000E+00  0.84118376821E+03  0.23403993598E+04  0.21840052727E+04 0.  0.
        3    1    3    3  502    0  0.38786933401E+03 -0.45797259567E+03 -0.55703506405E+03  0.81882207557E+03  0.10100000352E+00 0.  1.
       -3    1    3    3    0  502 -0.38786933401E+03  0.45797259567E+03  0.13982188323E+04  0.15215772842E+04  0.10100000352E+00 0. -1.
</event>
<event>
 5   0  0.9442578E-05  0.2190731E+04  0.7818609E-02  0.8522296E-01
        2   -1    0    0  501    0  0.00000000000E+00  0.00000000000E+00  0.12612575896E+04  0.12612575896E+04  0.25500000920E-02 0. -1.
       -2   -1    0    0    0  501  0.00000000000E+00  0.00000000000E+00 -0.95129278282E+03  0.95129278282E+03  0.25500000920E-02 0.  1.
    10030    2    1    2    0    0  0.00000000000E+00  0.00000000000E+00  0.30996480681E+03  0.22125503724E+04  0.21907306930E+04 0.  0.
        4    1    3    3  502    0 -0.12510726847E+03 -0.33455671937E+03  0.12007878657E+04  0.12527861503E+04  0.12699999809E+01 0. -1.
       -4    1    3    3    0  502  0.12510726847E+03  0.33455671937E+03 -0.89082305885E+03  0.95976422218E+03  0.12699999809E+01 0.  1.
</event>
<event>
 5   0  0.4188865E-05  0.2190050E+04  0.7818609E-02  0.8522581E-01
       -1   -1    0    0    0  501  0.00000000000E+00  0.00000000000E+00  0.89511622001E+03  0.89511622002E+03  0.50400001928E-02 0. -1.
        1   -1    0    0  501    0  0.00000000000E+00  0.00000000000E+00 -0.13395803229E+04  0.13395803229E+04  0.50400001928E-02 0.  1.
    10030    2    1    2    0    0  0.00000000000E+00  0.00000000000E+00 -0.44446410285E+03  0.22346965429E+04  0.21900502962E+04 0.  0.
        3    1    3    3  502    0 -0.93240791668E+03  0.48415971284E+03 -0.53720738307E+03  0.11799944632E+04  0.10100000352E+00 0.  1.
       -3    1    3    3    0  502  0.93240791668E+03 -0.48415971284E+03  0.92743280215E+02  0.10547020797E+04  0.10100000352E+00 0. -1.
</event>
<event>
 5   0  0.4188865E-05  0.1678771E+04  0.7818609E-02  0.8773566E-01
        1   -1    0    0  501    0  0.00000000000E+00  0.00000000000E+00  0.18594420432E+04  0.18594420432E+04  0.50400001928E-02 0.  1.
       -1   -1    0    0    0  501  0.00000000000E+00  0.00000000000E+00 -0.37891350740E+03  0.37891350744E+03  0.50400001928E-02 0. -1.
    10030    2    1    2    0    0  0.00000000000E+00  0.00000000000E+00  0.14805285358E+04  0.22383555507E+04  0.16787706293E+04 0.  0.
        3    1    3    3  502    0 -0.50871895485E+02  0.35803785599E+03 -0.26971784757E+03  0.45113942808E+03  0.10100000352E+00 0. -1.
       -3    1    3    3    0  502  0.50871895485E+02 -0.35803785599E+03  0.17502463834E+04  0.17872161226E+04  0.10100000352E+00 0.  1.
</event>
<event>
 5   0  0.9938176E-05  0.2116787E+04  0.7818609E-02  0.8553885E-01
        2   -1    0    0  501    0  0.00000000000E+00  0.00000000000E+00  0.17181540604E+04  0.17181540604E+04  0.25500000920E-02 0. -1.
       -2   -1    0    0    0  501  0.00000000000E+00  0.00000000000E+00 -0.65197680458E+03  0.65197680458E+03  0.25500000920E-02 0.  1.
    10030    2    1    2    0    0  0.00000000000E+00  0.00000000000E+00  0.10661772558E+04  0.23701308650E+04  0.21167868047E+04 0.  0.
        5    1    3    3  502    0  0.95370922644E+03 -0.44588398007E+03  0.65472093396E+03  0.12397803852E+04  0.46999998093E+01 0. -1.
       -5    1    3    3    0  502 -0.95370922644E+03  0.44588398007E+03  0.41145632189E+03  0.11303504798E+04  0.46999998093E+01 0.  1.
</event>
<event>
 5   0  0.4133418E-05  0.2221177E+04  0.7818609E-02  0.8509665E-01
       -1   -1    0    0    0  501  0.00000000000E+00  0.00000000000E+00  0.90657339768E+03  0.90657339769E+03  0.50400001928E-02 0.  1.
        1   -1    0    0  501    0  0.00000000000E+00  0.00000000000E+00 -0.13605149353E+04  0.13605149353E+04  0.50400001928E-02 0. -1.
    10030    2    1    2    0    0  0.00000000000E+00  0.00000000000E+00 -0.45394153757E+03  0.22670883330E+04  0.22211768480E+04 0.  0.
        4    1    3    3  502    0  0.18770694958E+03  0.28106341898E+03  0.85280656120E+03  0.91733918925E+03  0.12699999809E+01 0.  1.
       -4    1    3    3    0  502 -0.18770694958E+03 -0.28106341898E+03 -0.13067480988E+04  0.13497491437E+04  0.12699999809E+01 0. -1.
</event>
<event>
 5   0  0.4188865E-05  0.1890025E+04  0.7818609E-02  0.8659837E-01
        1   -1    0    0  501    0  0.00000000000E+00  0.00000000000E+00  0.17833369148E+04  0.17833369149E+04  0.50400001928E-02 0. -1.
       -1   -1    0    0    0  501  0.00000000000E+00  0.00000000000E+00 -0.50077402780E+03  0.50077402783E+03  0.50400001928E-02 0.  1.
    10030    2    1    2    0    0  0.00000000000E+00  0.00000000000E+00  0.12825628870E+04  0.22841109427E+04  0.18900251954E+04 0.  0.
        3    1    3    3  502    0  0.35441247648E+03 -0.48390883129E+02 -0.41579986784E+03  0.54848830557E+03  0.10100000352E+00 0.  1.
       -3    1    3    3    0  502 -0.35441247648E+03  0.48390883129E+02  0.16983627549E+04  0.17356226371E+04  0.10100000352E+00 0. -1.
</event>
<event>
 5   0  0.9254673E-05  0.2189787E+04  0.7818609E-02  0.8522691E-01
       -2   -1    0    0    0  501  0.00000000000E+00  0.00000000000E+00  0.10170826358E+04  0.10170826358E+04  0.25500000920E-02 0.  1.
        2   -1    0    0  501    0  0.00000000000E+00  0.00000000000E+00 -0.11786569465E+04  0.11786569465E+04  0.25500000920E-02 0. -1.
    10030    2    1    2    0    0  0.00000000000E+00  0.00000000000E+00 -0.16157431070E+03  0.21957395823E+04  0.21897867603E+04 0.  0.
        2    1    3    3  502    0 -0.71133549326E+03 -0.74486278371E+03  0.29166945497E+03  0.10704624335E+04  0.25500000920E-02 0.  1.
       -2    1    3    3    0  502  0.71133549326E+03  0.74486278371E+03 -0.45324376567E+03  0.11252771488E+04  0.25500000920E-02 0. -1.
</event>
<event>
 5   0  0.4133418E-05  0.2150907E+04  0.7818609E-02  0.8539144E-01
       -1   -1    0    0    0  501  0.00000000000E+00  0.00000000000E+00  0.65552933193E+03  0.65552933195E+03  0.50400001928E-02 0.  1.
        1   -1    0    0  501    0  0.00000000000E+00  0.00000000000E+00 -0.17643756270E+04  0.17643756270E+04  0.50400001928E-02 0. -1.
    10030    2    1    2    0    0  0.00000000000E+00  0.00000000000E+00 -0.11088462951E+04  0.24199049590E+04  0.21509067633E+04 0.  0.
        4    1    3    3  502    0 -0.41281191784E+03 -0.57048321456E+03 -0.14689362157E+04  0.16289996919E+04  0.12699999809E+01 0. -1.
       -4    1    3    3    0  502  0.41281191784E+03  0.57048321456E+03  0.36008992062E+03  0.79090526704E+03  0.12699999809E+01 0.  1.
</event>
<event>
 5   0  0.9457742E-05  0.1951595E+04  0.7818609E-02  0.8629592E-01
        2   -1    0    0  501    0  0.00000000000E+00  0.00000000000E+00  0.19372444763E+04  0.19372444763E+04  0.25500000920E-02 0.  1.
       -2   -1    0    0    0  501  0.00000000000E+00  0.00000000000E+00 -0.49151297835E+03  0.49151297836E+03  0.25500000920E-02 0. -1.
    10030    2    1    2    0    0  0.00000000000E+00  0.00000000000E+00  0.14457314979E+04  0.24287574546E+04  0.19515950424E+04 0.  0.
        1    1    3    3  502    0 -0.82458907071E+03 -0.51896151086E+03  0.79002968375E+03  0.12543584362E+04  0.50400001928E-02 0. -1.
       -1    1    3    3    0  502  0.82458907071E+03  0.51896151086E+03  0.65570181416E+03  0.11743990184E+04  0.50400001928E-02 0.  1.
</event>
<event>
 5   0  0.4174030E-05  0.2241959E+04  0.7818609E-02  0.8501164E-01
       -1   -1    0    0    0  501  0.00000000000E+00  0.00000000000E+00  0.89578374041E+03  0.89578374043E+03  0.50400001928E-02 0. -1.
        1   -1    0    0  501    0  0.00000000000E+00  0.00000000000E+00 -0.14027878019E+04  0.14027878019E+04  0.50400001928E-02 0.  1.
    10030    2    1    2    0    0  0.00000000000E+00  0.00000000000E+00 -0.50700406147E+03  0.22985715423E+04  0.22419585225E+04 0.  0.
        2    1    3    3  502    0  0.25827245928E+03 -0.10109036887E+04  0.16668051163E+03  0.10566046204E+04  0.25500000920E-02 0. -1.
       -2    1    3    3    0  502 -0.25827245928E+03  0.10109036887E+04 -0.67368457310E+03  0.12419669219E+04  0.25500000920E-02 0.  1.
</event>
<event>
 5   0  0.4133418E-05  0.2207387E+04  0.7818609E-02  0.8515360E-01
       -1   -1    0    0    0  501  0.00000000000E+00  0.00000000000E+00  0.13460329027E+04  0.13460329027E+04  0.50400001928E-02 0. -1.
        1   -1    0    0  501    0  0.00000000000E+00  0.00000000000E+00 -0.90498502469E+03  0.90498502471E+03  0.50400001928E-02 0.  1.
    10030    2    1    2    0    0  0.00000000000E+00  0.00000000000E+00  0.44104787801E+03  0.22510179274E+04  0.22073872517E+04 0.  0.
        4    1    3    3  502    0  0.79507455424E+03 -0.58034320525E+03  0.72958649356E+03  0.12252509323E+04  0.12699999809E+01 0.  1.
       -4    1    3    3    0  502 -0.79507455424E+03  0.58034320525E+03 -0.28853861555E+03  0.10257669951E+04  0.12699999809E+01 0. -1.
</event>
<event>
 5   0  0.9179618E-05  0.2210823E+04  0.7818609E-02  0.8513937E-01
       -2   -1    0    0    0  501  0.00000000000E+00  0.00000000000E+00  0.67482795388E+03  0.67482795388E+03  0.25500000920E-02 0.  1.
        2   -1    0    0  501    0  0.00000000000E+00  0.00000000000E+00 -0.18107345271E+04  0.18107345271E+04  0.25500000920E-02 0. -1.
    10030    2    1    2    0    0  0.00000000000E+00  0.00000000000E+00 -0.11359065733E+04  0.24855624810E+04  0.22108227210E+04 0.  0.
        3    1    3    3  502    0  0.96297347762E+02  0.85964123410E+03  0.20581760636E+03  0.88916653549E+03  0.10100000352E+00 0.  1.
       -3    1    3    3    0  502 -0.96297347762E+02 -0.85964123410E+03 -0.13417241796E+04  0.15963959455E+04  0.10100000352E+00 0. -1.
</event>
<event>
 5   0  0.4188865E-05  0.2238602E+04  0.7818609E-02  0.8502531E-01
       -1   -1    0    0    0  501  0.00000000000E+00  0.00000000000E+00  0.62552789854E+03  0.62552789856E+03  0.50400001928E-02 0. -1.
        1   -1    0    0  501    0  0.00000000000E+00  0.00000000000E+00 -0.20028447188E+04  0.20028447188E+04  0.50400001928E-02 0.  1.
    10030    2    1    2    0    0  0.00000000000E+00  0.00000000000E+00 -0.13773168203E+04  0.26283726174E+04  0.22386024641E+04 0.  0.
        3    1    3    3  502    0  0.51182457776E+02 -0.92072632481E+02  0.61969473167E+03  0.62858458802E+03  0.10100000352E+00 0. -1.
       -3    1    3    3    0  502 -0.51182457776E+02  0.92072632481E+02 -0.19970115519E+04  0.19997880294E+04  0.10100000352E+00 0.  1.
</event>
<event>
 5   0  0.9254673E-05  0.2191740E+04  0.7818609E-02  0.8521874E-01
       -2   -1    0    0    0  501  0.00000000000E+00  0.00000000000E+00  0.67865181813E+03  0.67865181814E+03  0.25500000920E-02 0. -1.
        2   -1    0    0  501    0  0.00000000000E+00  0.00000000000E+00 -0.17695828801E+04  0.17695828801E+04  0.25500000920E-02 0.  1.
    10030    2    1    2    0    0  0.00000000000E+00  0.00000000000E+00 -0.10909310619E+04  0.24482346982E+04  0.21917396186E+04 0.  0.
        2    1    3    3  502    0  0.28472727857E+03  0.33127468100E+02 -0.17269642413E+04  0.17505920550E+04  0.25500000920E-02 0.  1.
       -2    1    3    3    0  502 -0.28472727857E+03 -0.33127468100E+02  0.63603317939E+03  0.69764264318E+03  0.25500000920E-02 0. -1.
</event>
<event>
 5   0  0.9179618E-05  0.2053728E+04  0.7818609E-02  0.8581905E-01
        2   -1    0    0  501    0  0.00000000000E+00  0.00000000000E+00  0.10606712989E+04  0.10606712989E+04  0.25500000920E-02 0. -1.
       -2   -1    0    0    0  501  0.00000000000E+00  0.00000000000E+00 -0.99413436416E+03  0.99413436416E+03  0.25500000920E-02 0.  1.
    10030    2    1    2    0    0  0.00000000000E+00  0.00000000000E+00  0.66536934714E+02  0.20548056630E+04  0.20537281098E+04 0.  0.
        3    1    3    3  502    0 -0.55082447146E+03 -0.11699085169E+03  0.89241296961E+03  0.10552229036E+04  0.10100000352E+00 0. -1.
       -3    1    3    3    0  502  0.55082447146E+03  0.11699085169E+03 -0.82587603490E+03  0.99958275944E+03  0.10100000352E+00 0.  1.
</event>
<event>
 5   0  0.9254673E-05  0.2173822E+04  0.7818609E-02  0.8529404E-01
        2   -1    0    0  501    0  0.00000000000E+00  0.00000000000E+00  0.90465400640E+03  0.90465400641E+03  0.25500000920E-02 0. -1.
       -2   -1    0    0    0  501  0.00000000000E+00  0.00000000000E+00 -0.13058865610E+04  0.13058865610E+04  0.25500000920E-02 0.  1.
    10030    2    1    2    0    0  0.00000000000E+00  0.00000000000E+00 -0.40123255464E+03  0.22105405674E+04  0.21738219884E+04 0.  0.
        2    1    3    3  502    0 -0.10767959123E+04  0.14569827718E+03 -0.22670275225E+03  0.11100052084E+04  0.25500000920E-02 0.  1.
       -2    1    3    3    0  502  0.10767959123E+04 -0.14569827718E+03 -0.17452980239E+03  0.11005353591E+04  0.25500000920E-02 0. -1.
</event>
<event>
 5   0  0.9254673E-05  0.2147963E+04  0.7818609E-02  0.8540405E-01
       -2   -1    0    0    0  501  0.00000000000E+00  0.00000000000E+00  0.99947217315E+03  0.99947217315E+03  0.25500000920E-02 0. -1.
        2   -1    0    0  501    0  0.00000000000E+00  0.00000000000E+00 -0.11540450584E+04  0.11540450584E+04  0.25500000920E-02 0.  1.
    10030    2    1    2    0    0  0.00000000000E+00  0.00000000000E+00 -0.15457288522E+03  0.21535172315E+04  0.21479626835E+04 0.  0.
        2    1    3    3  502    0 -0.87443421202E+03  0.47248326482E+03  0.33065677381E+03  0.10474776985E+04  0.25500000920E-02 0. -1.
       -2    1    3    3    0  502  0.87443421202E+03 -0.47248326482E+03 -0.48522965903E+03  0.11060395331E+04  0.25500000920E-02 0.  1.
</event>
<event>
 5   0  0.4174075E-05  0.2201252E+04  0.7818609E-02  0.8517907E-01
       -1   -1    0    0    0  501  0.00000000000E+00  0.00000000000E+00  0.61914673567E+03  0.61914673569E+03  0.50400001928E-02 0.  1.
        1   -1    0    0  501    0  0.00000000000E+00  0.00000000000E+00 -0.19565269288E+04  0.19565269288E+04  0.50400001928E-02 0. -1.
    10030    2    1    2    0    0  0.00000000000E+00  0.00000000000E+00 -0.13373801931E+04  0.25756736645E+04  0.22012516996E+04 0.  0.
        5    1    3    3  502    0  0.38635501963E+03 -0.83204376502E+03 -0.13802273190E+04  0.16572919387E+04  0.46999998093E+01 0. -1.
       -5    1    3    3    0  502 -0.38635501963E+03  0.83204376502E+03  0.42847125814E+02  0.91838172580E+03  0.46999998093E+01 0.  1.
</event>
<event>
 5   0  0.4133418E-05  0.2214264E+04  0.7818609E-02  0.8512514E-01
       -1   -1    0    0    0  501  0.00000000000E+00  0.00000000000E+00  0.97404170509E+03  0.97404170511E+03  0.50400001928E-02 0. -1.
        1   -1    0    0  501    0  0.00000000000E+00  0.00000000000E+00 -0.12584078341E+04  0.12584078341E+04  0.50400001928E-02 0.  1.
    10030    2    1    2    0    0  0.00000000000E+00  0.00000000000E+00 -0.28436612904E+03  0.22324495392E+04  0.22142644038E+04 0.  0.
        4    1    3    3  502    0  0.13502695625E+03  0.23076297468E+03 -0.12253697024E+04  0.12541994857E+04  0.12699999809E+01 0.  1.
       -4    1    3    3    0  502 -0.13502695625E+03 -0.23076297468E+03  0.94100357335E+03  0.97825005359E+03  0.12699999809E+01 0. -1.
</event>
<event>
 5   0  0.9254673E-05  0.2313502E+04  0.7818609E-02  0.8472617E-01
       -2   -1    0    0    0  501  0.00000000000E+00  0.00000000000E+00  0.87320019138E+03  0.87320019138E+03  0.25500000920E-02 0. -1.
        2   -1    0    0  501    0  0.00000000000E+00  0.00000000000E+00 -0.15323777392E+04  0.15323777392E+04  0.25500000920E-02 0.  1.
    10030    2    1    2    0    0  0.00000000000E+00  0.00000000000E+00 -0.65917754784E+03  0.24055779306E+04  0.23135017053E+04 0.  0.
        2    1    3    3  502    0  0.43455024842E+03  0.26466168646E+03  0.75059867841E+03  0.90679551318E+03  0.25500000920E-02 0. -1.
       -2    1    3    3    0  502 -0.43455024842E+03 -0.26466168646E+03 -0.14097762262E+04  0.14987824174E+04  0.25500000920E-02 0.  1.
</event>
<event>
 5   0  0.9254673E-05  0.2158260E+04  0.7818609E-02  0.8536005E-01
       -2   -1    0    0    0  501  0.00000000000E+00  0.00000000000E+00  0.53043294634E+03  0.53043294634E+03  0.25500000920E-02 0. -1.
        2   -1    0    0  501    0  0.00000000000E+00  0.00000000000E+00 -0.21954176826E+04  0.21954176826E+04  0.25500000920E-02 0.  1.
    10030    2    1    2    0    0  0.00000000000E+00  0.00000000000E+00 -0.16649847363E+04  0.27258506290E+04  0.21582602900E+04 0.  0.
        2    1    3    3  502    0 -0.49508202664E+03 -0.70221812008E+03 -0.78633097856E+01  0.85923124531E+03  0.25500000920E-02 0. -1.
       -2    1    3    3    0  502  0.49508202664E+03  0.70221812008E+03 -0.16571214265E+04  0.18666193837E+04  0.25500000920E-02 0.  1.
</event>
<event>
 5   0  0.3283125E-05  0.2189969E+04  0.7818609E-02  0.8522615E-01
       -3   -1    0    0    0  501  0.00000000000E+00  0.00000000000E+00  0.12659919102E+04  0.12659919142E+04  0.10100000352E+00 0.  1.
        3   -1    0    0  501    0  0.00000000000E+00  0.00000000000E+00 -0.94707641243E+03  0.94707641782E+03  0.10100000352E+00 0. -1.
    10030    2    1    2    0    0  0.00000000000E+00  0.00000000000E+00  0.31891549774E+03  0.22130683320E+04  0.21899690289E+04 0.  0.
        3    1    3    3  502    0  0.53339475642E+03 -0.97408706055E+02  0.11208029834E+04  0.12450693796E+04  0.10100000352E+00 0.  1.
       -3    1    3    3    0  502 -0.53339475642E+03  0.97408706055E+02 -0.80188748561E+03  0.96799895247E+03  0.10100000352E+00 0. -1.
</event>
<event>
 5   0  0.9179618E-05  0.2187415E+04  0.7818609E-02  0.8523685E-01
       -2   -1    0    0    0  501  0.00000000000E+00  0.00000000000E+00  0.62363197836E+03  0.62363197837E+03  0.25500000920E-02 0.  1.
        2   -1    0    0  501    0  0.00000000000E+00  0.00000000000E+00 -0.19181119907E+04  0.19181119907E+04  0.25500000920E-02 0. -1.
    10030    2    1    2    0    0  0.00000000000E+00  0.00000000000E+00 -0.12944800123E+04  0.25417439690E+04  0.21874148902E+04 0.  0.
        3    1    3    3  502    0  0.70358339492E+03  0.44678783318E+03 -0.14701578088E+04  0.16899742467E+04  0.10100000352E+00 0. -1.
       -3    1    3    3    0  502 -0.70358339492E+03 -0.44678783318E+03  0.17567779652E+03  0.85176972233E+03  0.10100000352E+00 0.  1.
</event>
<event>
 5   0  0.4174030E-05  0.2201815E+04  0.7818609E-02  0.8517673E-01
       -1   -1    0    0    0  501  0.00000000000E+00  0.00000000000E+00  0.11803842371E+04  0.11803842371E+04  0.50400001928E-02 0.  1.
        1   -1    0    0  501    0  0.00000000000E+00  0.00000000000E+00 -0.10267818358E+04  0.10267818358E+04  0.50400001928E-02 0. -1.
    10030    2    1    2    0    0  0.00000000000E+00  0.00000000000E+00  0.15360240127E+03  0.22071660729E+04  0.22018147914E+04 0.  0.
        2    1    3    3  502    0 -0.78365992976E+03  0.60724361037E+03  0.55663920435E+03  0.11369762054E+04  0.25500000920E-02 0.  1.
       -2    1    3    3    0  502  0.78365992976E+03 -0.60724361037E+03 -0.40303680308E+03  0.10701898675E+04  0.25500000920E-02 0. -1.
</event>
<event>
 5   0  0.4063293E-05  0.2014508E+04  0.7818609E-02  0.8599868E-01
        1   -1    0    0  501    0  0.00000000000E+00  0.00000000000E+00  0.83047491498E+03  0.83047491500E+03  0.50400001928E-02 0. -1.
       -1   -1    0    0    0  501  0.00000000000E+00  0.00000000000E+00 -0.12216629900E+04  0.12216629900E+04  0.50400001928E-02 0.  1.
    10030    2    1    2    0    0  0.00000000000E+00  0.00000000000E+00 -0.39118807505E+03  0.20521379050E+04  0.20145078484E+04 0.  0.
        1    1    3    3  502    0  0.26724611976E+03  0.31327272114E+03 -0.11320039012E+04  0.12045717574E+04  0.50400001928E-02 0.  1.
       -1    1    3    3    0  502 -0.26724611976E+03 -0.31327272114E+03  0.74081582615E+03  0.84756614765E+03  0.50400001928E-02 0. -1.
</event>
<event>
 5   0  0.9254673E-05  0.2104854E+04  0.7818609E-02  0.8559108E-01
       -2   -1    0    0    0  501  0.00000000000E+00  0.00000000000E+00  0.64459621949E+03  0.64459621950E+03  0.25500000920E-02 0.  1.
        2   -1    0    0  501    0  0.00000000000E+00  0.00000000000E+00 -0.17182895787E+04  0.17182895787E+04  0.25500000920E-02 0. -1.
    10030    2    1    2    0    0  0.00000000000E+00  0.00000000000E+00 -0.10736933592E+04  0.23628857982E+04  0.21048543573E+04 0.  0.
        2    1    3    3  502    0 -0.53070472505E+03  0.88631479338E+03 -0.31120481213E+03  0.10789114205E+04  0.25500000920E-02 0.  1.
       -2    1    3    3    0  502  0.53070472505E+03 -0.88631479338E+03 -0.76248854706E+03  0.12839743777E+04  0.25500000920E-02 0. -1.
</event>
<event>
 5   0  0.9938176E-05  0.2204162E+04  0.7818609E-02  0.8516698E-01
       -2   -1    0    0    0  501  0.00000000000E+00  0.00000000000E+00  0.80810867565E+03  0.80810867565E+03  0.25500000920E-02 0. -1.
        2   -1    0    0  501    0  0.00000000000E+00  0.00000000000E+00 -0.15029934483E+04  0.15029934483E+04  0.25500000920E-02 0.  1.
    10030    2    1    2    0    0  0.00000000000E+00  0.00000000000E+00 -0.69488477263E+03  0.23111021239E+04  0.22041615594E+04 0.  0.
        5    1    3    3  502    0 -0.49019127054E+03  0.52873598683E+03  0.52648976271E+03  0.89278372841E+03  0.46999998093E+01 0. -1.
       -5    1    3    3    0  502  0.49019127054E+03 -0.52873598683E+03 -0.12213745353E+04  0.14183183955E+04  0.46999998093E+01 0.  1.
</event>
<event>
 5   0  0.4174030E-05  0.2247881E+04  0.7818609E-02  0.8498759E-01
       -1   -1    0    0    0  501  0.00000000000E+00  0.00000000000E+00  0.98860676039E+03  0.98860676040E+03  0.50400001928E-02 0.  1.
        1   -1    0    0  501    0  0.00000000000E+00  0.00000000000E+00 -0.12778009802E+04  0.12778009802E+04  0.50400001928E-02 0. -1.
    10030    2    1    2    0    0  0.00000000000E+00  0.00000000000E+00 -0.28919421980E+03  0.22664077406E+04  0.22478813914E+04 0.  0.
        2    1    3    3  502    0 -0.15762119425E+03 -0.90970636465E+03 -0.79084195124E+03  0.12156648809E+04  0.25500000920E-02 0. -1.
       -2    1    3    3    0  502  0.15762119425E+03  0.90970636465E+03  0.50164773144E+03  0.10507428597E+04  0.25500000920E-02 0.  1.
</event>
<event>
 5   0  0.4174075E-05  0.2224844E+04  0.7818609E-02  0.8508158E-01
       -1   -1    0    0    0  501  0.00000000000E+00  0.00000000000E+00  0.83039863847E+03  0.83039863848E+03  0.50400001928E-02 0.  1.
        1   -1    0    0  501    0  0.00000000000E+00  0.00000000000E+00 -0.14902268394E+04  0.14902268394E+04  0.50400001928E-02 0. -1.
    10030    2    1    2    0    0  0.00000000000E+00  0.00000000000E+00 -0.65982820097E+03  0.23206254779E+04  0.22248436696E+04 0.  0.
        5    1    3    3  502    0  0.13565272885E+03  0.90824557820E+03  0.32492639015E+03  0.97412059940E+03  0.46999998093E+01 0.  1.
       -5    1    3    3    0  502 -0.13565272885E+03 -0.90824557820E+03 -0.98475459111E+03  0.13465048785E+04  0.46999998093E+01 0. -1.
</event>
<event>
 5   0  0.9442578E-05  0.2220412E+04  0.7818609E-02  0.8509980E-01
       -2   -1    0    0    0  501  0.00000000000E+00  0.00000000000E+00  0.89542321484E+03  0.89542321484E+03  0.25500000920E-02 0. -1.
        2   -1    0    0  501    0  0.00000000000E+00  0.00000000000E+00 -0.13765079701E+04  0.13765079701E+04  0.25500000920E-02 0.  1.
    10030    2    1    2    0    0  0.00000000000E+00  0.00000000000E+00 -0.48108475528E+03  0.22719311850E+04  0.22204118464E+04 0.  0.
        4    1    3    3  502    0  0.73135671011E+03 -0.14003320576E+03 -0.10830946735E+04  0.13143772749E+04  0.12699999809E+01 0.  1.
       -4    1    3    3    0  502 -0.73135671011E+03  0.14003320576E+03  0.60200991822E+03  0.95755391006E+03  0.12699999809E+01 0. -1.
</event>
<event>
 5   0  0.4188865E-05  0.2218682E+04  0.7818609E-02  0.8510692E-01
       -1   -1    0    0    0  501  0.00000000000E+00  0.00000000000E+00  0.95609000430E+03  0.95609000431E+03  0.50400001928E-02 0.  1.
        1   -1    0    0  501    0  0.00000000000E+00  0.00000000000E+00 -0.12871562270E+04  0.12871562271E+04  0.50400001928E-02 0. -1.
    10030    2    1    2    0    0  0.00000000000E+00  0.00000000000E+00 -0.33106622275E+03  0.22432462314E+04  0.22186817732E+04 0.  0.
        3    1    3    3  502    0  0.70280586952E+03  0.85630892874E+03 -0.22480054784E+03  0.11303700138E+04  0.10100000352E+00 0. -1.
       -3    1    3    3    0  502 -0.70280586952E+03 -0.85630892874E+03 -0.10626567490E+03  0.11128762175E+04  0.10100000352E+00 0.  1.
</event>
<event>
 5   0  0.4174030E-05  0.2181622E+04  0.7818609E-02  0.8526117E-01
       -1   -1    0    0    0  501  0.00000000000E+00  0.00000000000E+00  0.50337640505E+03  0.50337640507E+03  0.50400001928E-02 0.  1.
        1   -1    0    0  501    0  0.00000000000E+00  0.00000000000E+00 -0.23637745904E+04  0.23637745904E+04  0.50400001928E-02 0. -1.
    10030    2    1    2    0    0  0.00000000000E+00  0.00000000000E+00 -0.18603981853E+04  0.28671509955E+04  0.21816217414E+04 0.  0.
        2    1    3    3  502    0  0.22877351689E+03  0.91552781893E+03 -0.21115855093E+03  0.96701418961E+03  0.25500000920E-02 0.  1.
       -2    1    3    3    0  502 -0.22877351689E+03 -0.91552781893E+03 -0.16492396344E+04  0.19001368059E+04  0.25500000920E-02 0. -1.
</event>
<event>
 5   0  0.9254673E-05  0.2220101E+04  0.7818609E-02  0.8510108E-01
        2   -1    0    0  501    0  0.00000000000E+00  0.00000000000E+00  0.18336727227E+04  0.18336727227E+04  0.25500000920E-02 0.  1.
       -2   -1    0    0    0  501  0.00000000000E+00  0.00000000000E+00 -0.67199120640E+03  0.67199120641E+03  0.25500000920E-02 0. -1.
    10030    2    1    2    0    0  0.00000000000E+00  0.00000000000E+00  0.11616815163E+04  0.25056639291E+04  0.22201008491E+04 0.  0.
        2    1    3    3  502    0 -0.56578219406E+03 -0.16681761696E+03 -0.48047259557E+03  0.76078349321E+03  0.25500000920E-02 0. -1.
       -2    1    3    3    0  502  0.56578219406E+03  0.16681761696E+03  0.16421541118E+04  0.17448804359E+04  0.25500000920E-02 0.  1.
</event>
<event>
 5   0  0.9938176E-05  0.2199523E+04  0.7818609E-02  0.8518627E-01
        2   -1    0    0  501    0  0.00000000000E+00  0.00000000000E+00  0.91526034018E+03  0.91526034019E+03  0.25500000920E-02 0. -1.
       -2   -1    0    0    0  501  0.00000000000E+00  0.00000000000E+00 -0.13214546572E+04  0.13214546572E+04  0.25500000920E-02 0.  1.
    10030    2    1    2    0    0  0.00000000000E+00  0.00000000000E+00 -0.40619431699E+03  0.22367149974E+04  0.21995227110E+04 0.  0.
        5    1    3    3  502    0 -0.91211512362E+03  0.60238583145E+03 -0.80096276061E+02  0.10960201604E+04  0.46999998093E+01 0. -1.
       -5    1    3    3    0  502  0.91211512362E+03 -0.60238583145E+03 -0.32609804093E+03  0.11406948369E+04  0.46999998093E+01 0.  1.
</event>
<event>
 5   0  0.4133418E-05  0.2188185E+04  0.7818609E-02  0.8523362E-01
       -1   -1    0    0    0  501  0.00000000000E+00  0.00000000000E+00  0.75197854134E+03  0.75197854136E+03  0.50400001928E-02 0.  1.
        1   -1    0    0  501    0  0.00000000000E+00  0.00000000000E+00 -0.15918523511E+04  0.15918523511E+04  0.50400001928E-02 0. -1.
    10030    2    1    2    0    0  0.00000000000E+00  0.00000000000E+00 -0.83987380973E+03  0.23438308924E+04  0.21881853752E+04 0.  0.
        4    1    3    3  502    0 -0.23677069722E+03 -0.73115769016E+03  0.41415994853E+03  0.87303035847E+03  0.12699999809E+01 0.  1.
       -4    1    3    3    0  502  0.23677069722E+03  0.73115769016E+03 -0.12540337583E+04  0.14708005340E+04  0.12699999809E+01 0. -1.
</event>
<event>
 5   0  0.9938176E-05  0.2174918E+04  0.7818609E-02  0.8528941E-01
       -2   -1    0    0    0  501  0.00000000000E+00  0.00000000000E+00  0.84977153361E+03  0.84977153362E+03  0.25500000920E-02 0. -1.
        2   -1    0    0  501    0  0.00000000000E+00  0.00000000000E+00 -0.13916297498E+04  0.13916297498E+04  0.25500000920E-02 0.  1.
    10030    2    1    2    0    0  0.00000000000E+00  0.00000000000E+00 -0.54185821619E+03  0.22414012834E+04  0.21749182483E+04 0.  0.
        5    1    3    3  502    0  0.10785961716E+03 -0.29637785630E+03  0.80159061747E+03  0.86141925840E+03  0.46999998093E+01 0. -1.
       -5    1    3    3    0  502 -0.10785961716E+03  0.29637785630E+03 -0.13434488337E+04  0.13799820250E+04  0.46999998093E+01 0.  1.
</event>
<event>
 5   0  0.4188865E-05  0.2183092E+04  0.7818609E-02  0.8525499E-01
        1   -1    0    0  501    0  0.00000000000E+00  0.00000000000E+00  0.17241237540E+04  0.17241237540E+04  0.50400001928E-02 0.  1.
       -1   -1    0    0    0  501  0.00000000000E+00  0.00000000000E+00 -0.69106010964E+03  0.69106010966E+03  0.50400001928E-02 0. -1.
    10030    2    1    2    0    0  0.00000000000E+00  0.00000000000E+00  0.10330636444E+04  0.24151838637E+04  0.21830924401E+04 0.  0.
        3    1    3    3  502    0 -0.55636483087E+03  0.83848990273E+03  0.98441988812E+03  0.14077249974E+04  0.10100000352E+00 0.  1.
       -3    1    3    3    0  502  0.55636483087E+03 -0.83848990273E+03  0.48643756255E+02  0.10074588663E+04  0.10100000352E+00 0. -1.
</event>
<event>
 5   0  0.9254673E-05  0.2203476E+04  0.7818609E-02  0.8516983E-01
        2   -1    0    0  501    0  0.00000000000E+00  0.00000000000E+00  0.79921504024E+03  0.79921504025E+03  0.25500000920E-02 0. -1.
       -2   -1    0    0    0  501  0.00000000000E+00  0.00000000000E+00 -0.15187730653E+04  0.15187730653E+04  0.25500000920E-02 0.  1.
    10030    2    1    2    0    0  0.00000000000E+00  0.00000000000E+00 -0.71955802507E+03  0.23179881056E+04  0.22034756877E+04 0.  0.
        2    1    3    3  502    0 -0.33326439466E+03 -0.88181693711E+03 -0.95964122319E+03  0.13452053912E+04  0.25500000920E-02 0.  1.
       -2    1    3    3    0  502  0.33326439466E+03  0.88181693711E+03  0.24008319811E+03  0.97278271435E+03  0.25500000920E-02 0. -1.
</event>
<event>
 5   0  0.9179618E-05  0.2178459E+04  0.7818609E-02  0.8527448E-01
        2   -1    0    0  501    0  0.00000000000E+00  0.00000000000E+00  0.68145860461E+03  0.68145860461E+03  0.25500000920E-02 0. -1.
       -2   -1    0    0    0  501  0.00000000000E+00  0.00000000000E+00 -0.17410022753E+04  0.17410022753E+04  0.25500000920E-02 0.  1.
    10030    2    1    2    0    0  0.00000000000E+00  0.00000000000E+00 -0.10595436707E+04  0.24224608799E+04  0.21784590711E+04 0.  0.
        3    1    3    3  502    0 -0.33575113140E+02 -0.59773332221E+03 -0.15416419758E+04  0.16538054313E+04  0.10100000352E+00 0.  1.
       -3    1    3    3    0  502  0.33575113140E+02  0.59773332221E+03  0.48209830513E+03  0.76865544863E+03  0.10100000352E+00 0. -1.
</event>
<event>
 5   0  0.9457742E-05  0.2206371E+04  0.7818609E-02  0.8515781E-01
       -2   -1    0    0    0  501  0.00000000000E+00  0.00000000000E+00  0.15223173254E+04  0.15223173254E+04  0.25500000920E-02 0.  1.
        2   -1    0    0  501    0  0.00000000000E+00  0.00000000000E+00 -0.79945102566E+03  0.79945102566E+03  0.25500000920E-02 0. -1.
    10030    2    1    2    0    0  0.00000000000E+00  0.00000000000E+00  0.72286629972E+03  0.23217683510E+04  0.22063709091E+04 0.  0.
        1    1    3    3  502    0 -0.56096768420E+03  0.68280459165E+02  0.13584419831E+04  0.14712958864E+04  0.50400001928E-02 0.  1.
       -1    1    3    3    0  502  0.56096768420E+03 -0.68280459165E+02 -0.63557568337E+03  0.85047246466E+03  0.50400001928E-02 0. -1.
</event>
<event>
 5   0  0.4063293E-05  0.2218076E+04  0.7818609E-02  0.8510942E-01
        1   -1    0    0  501    0  0.00000000000E+00  0.00000000000E+00  0.14736082115E+04  0.14736082115E+04  0.50400001928E-02 0.  1.
       -1   -1    0    0    0  501  0.00000000000E+00  0.00000000000E+00 -0.83466237374E+03  0.83466237375E+03  0.50400001928E-02 0. -1.
    10030    2    1    2    0    0  0.00000000000E+00  0.00000000000E+00  0.63894583773E+03  0.23082705852E+04  0.22180760382E+04 0.  0.
        1    1    3    3  502    0 -0.48146130776E+02  0.10833338928E+04  0.56137949918E+03  0.12210967674E+04  0.50400001928E-02 0.  1.
       -1    1    3    3    0  502  0.48146130776E+02 -0.10833338928E+04  0.77566338547E+02  0.10871738178E+04  0.50400001928E-02 0. -1.
</event>
<event>
 5   0  0.9179618E-05  0.2206740E+04  0.7818609E-02  0.8515628E-01
        2   -1    0    0  501    0  0.00000000000E+00  0.00000000000E+00  0.11821474759E+04  0.11821474759E+04  0.25500000920E-02 0.  1.
       -2   -1    0    0    0  501  0.00000000000E+00  0.00000000000E+00 -0.10298425760E+04  0.10298425760E+04  0.25500000920E-02 0. -1.
    10030    2    1    2    0    0  0.00000000000E+00  0.00000000000E+00  0.15230489993E+03  0.22119900520E+04  0.22067404033E+04 0.  0.
        3    1    3    3  502    0 -0.16951457880E+03 -0.33156447986E+02  0.11685115156E+04  0.11812085822E+04  0.10100000352E+00 0.  1.
       -3    1    3    3    0  502  0.16951457880E+03  0.33156447986E+02 -0.10162066156E+04  0.10307814697E+04  0.10100000352E+00 0. -1.
</event>
<event>
 5   0  0.4133418E-05  0.2204106E+04  0.7818609E-02  0.8516721E-01
        1   -1    0    0  501    0  0.00000000000E+00  0.00000000000E+00  0.11749191274E+04  0.11749191275E+04  0.50400001928E-02 0.  1.
       -1   -1    0    0    0  501  0.00000000000E+00  0.00000000000E+00 -0.10337055601E+04  0.10337055601E+04  0.50400001928E-02 0. -1.
    10030    2    1    2    0    0  0.00000000000E+00  0.00000000000E+00  0.14121356731E+03  0.22086246876E+04  0.22041056551E+04 0.  0.
        4    1    3    3  502    0  0.13064152725E+03  0.51682642897E+02  0.11659080244E+04  0.11743429816E+04  0.12699999809E+01 0.  1.
       -4    1    3    3    0  502 -0.13064152725E+03 -0.51682642897E+02 -0.10246944570E+04  0.10342817060E+04  0.12699999809E+01 0. -1.
</event>
<event>
 5   0  0.9938176E-05  0.2182023E+04  0.7818609E-02  0.8525948E-01
        2   -1    0    0  501    0  0.00000000000E+00  0.00000000000E+00  0.18434559847E+04  0.18434559847E+04  0.25500000920E-02 0.  1.
       -2   -1    0    0    0  501  0.00000000000E+00  0.00000000000E+00 -0.64569252130E+03  0.64569252130E+03  0.25500000920E-02 0. -1.
    10030    2    1    2    0    0  0.00000000000E+00  0.00000000000E+00  0.11977634634E+04  0.24891485060E+04  0.21820226788E+04 0.  0.
        5    1    3    3  502    0 -0.63285494496E+03 -0.76016516288E+03  0.73729888197E+02  0.99187430788E+03  0.46999998093E+01 0.  1.
       -5    1    3    3    0  502  0.63285494496E+03  0.76016516288E+03  0.11240335752E+04  0.14972741982E+04  0.46999998093E+01 0. -1.
</event>
<event>
 5   0  0.4133418E-05  0.2194635E+04  0.7818609E-02  0.8520665E-01
       -1   -1    0    0    0  501  0.00000000000E+00  0.00000000000E+00  0.11011035302E+04  0.11011035302E+04  0.50400001928E-02 0. -1.
        1   -1    0    0  501    0  0.00000000000E+00  0.00000000000E+00 -0.10935443529E+04  0.10935443529E+04  0.50400001928E-02 0.  1.
    10030    2    1    2    0    0  0.00000000000E+00  0.00000000000E+00  0.75591772561E+01  0.21946478831E+04  0.21946348648E+04 0.  0.
        4    1    3    3  502    0 -0.51287787211E+03 -0.86617987965E+03 -0.43302116964E+03  0.10958194385E+04  0.12699999809E+01 0.  1.
       -4    1    3    3    0  502  0.51287787211E+03  0.86617987965E+03  0.44058034690E+03  0.10988284446E+04  0.12699999809E+01 0. -1.
</event>
<event>
 5   0  0.4188865E-05  0.2569076E+04  0.7818609E-02  0.8378782E-01
       -1   -1    0    0    0  501  0.00000000000E+00  0.00000000000E+00  0.13191978083E+04  0.13191978083E+04  0.50400001928E-02 0.  1.
        1   -1    0    0  501    0  0.00000000000E+00  0.00000000000E+00 -0.12507886018E+04  0.12507886018E+04  0.50400001928E-02 0. -1.
    10030    2    1    2    0    0  0.00000000000E+00  0.00000000000E+00  0.68409206453E+02  0.25699864101E+04  0.25690757732E+04 0.  0.
        3    1    3    3  502    0  0.97289846371E+03  0.48226831016E+02 -0.80345731790E+03  0.12626958936E+04  0.10100000352E+00 0. -1.
       -3    1    3    3    0  502 -0.97289846371E+03 -0.48226831016E+02  0.87186652436E+03  0.13072905165E+04  0.10100000352E+00 0.  1.
</event>
<event>
 5   0  0.9457742E-05  0.2217329E+04  0.7818609E-02  0.8511250E-01
        2   -1    0    0  501    0  0.00000000000E+00  0.00000000000E+00  0.92685659546E+03  0.92685659547E+03  0.25500000920E-02 0. -1.
       -2   -1    0    0    0  501  0.00000000000E+00  0.00000000000E+00 -0.13261346022E+04  0.13261346022E+04  0.25500000920E-02 0.  1.
    10030    2    1    2    0    0  0.00000000000E+00  0.00000000000E+00 -0.39927800674E+03  0.22529911977E+04  0.22173286653E+04 0.  0.
        1    1    3    3  502    0 -0.59784000490E+03  0.10559153170E+03 -0.11422307323E+04  0.12935429211E+04  0.50400001928E-02 0.  1.
       -1    1    3    3    0  502  0.59784000490E+03 -0.10559153170E+03  0.74295272551E+03  0.95944827656E+03  0.50400001928E-02 0. -1.
</event>
<event>
 5   0  0.9442578E-05  0.2373922E+04  0.7818609E-02  0.8449332E-01
       -2   -1    0    0    0  501  0.00000000000E+00  0.00000000000E+00  0.70361430847E+03  0.70361430847E+03  0.25500000920E-02 0.  1.
        2   -1    0    0  501    0  0.00000000000E+00  0.00000000000E+00 -0.20023425953E+04  0.20023425953E+04  0.25500000920E-02 0. -1.
    10030    2    1    2    0    0  0.00000000000E+00  0.00000000000E+00 -0.12987282869E+04  0.27059569038E+04  0.23739224086E+04 0.  0.
        4    1    3    3  502    0 -0.39591852747E+03  0.30583403031E+03  0.57756398225E+03  0.76411236149E+03  0.12699999809E+01 0.  1.
       -4    1    3    3    0  502  0.39591852747E+03 -0.30583403031E+03 -0.18762922691E+04  0.19418445423E+04  0.12699999809E+01 0. -1.
</event>
<event>
 5   0  0.9179618E-05  0.1696475E+04  0.7818609E-02  0.8763378E-01
        2   -1    0    0  501    0  0.00000000000E+00  0.00000000000E+00  0.44244187975E+03  0.44244187976E+03  0.25500000920E-02 0. -1.
       -2   -1    0    0    0  501  0.00000000000E+00  0.00000000000E+00 -0.16262169701E+04  0.16262169701E+04  0.25500000920E-02 0.  1.
    10030    2    1    2    0    0  0.00000000000E+00  0.00000000000E+00 -0.11837750903E+04  0.20686588498E+04  0.16964745717E+04 0.  0.
        3    1    3    3  502    0  0.67693667813E+03 -0.27439508332E+03 -0.11177396475E+04  0.13352444936E+04  0.10100000352E+00 0.  1.
       -3    1    3    3    0  502 -0.67693667813E+03  0.27439508332E+03 -0.66035442788E+02  0.73341435618E+03  0.10100000352E+00 0. -1.
</event>
<event>
 5   0  0.4133418E-05  0.2207561E+04  0.7818609E-02  0.8515288E-01
        1   -1    0    0  501    0  0.00000000000E+00  0.00000000000E+00  0.98648694127E+03  0.98648694129E+03  0.50400001928E-02 0.  1.
       -1   -1    0    0    0  501  0.00000000000E+00  0.00000000000E+00 -0.12350201460E+04  0.12350201460E+04  0.50400001928E-02 0. -1.
    10030    2    1    2    0    0  0.00000000000E+00  0.00000000000E+00 -0.24853320476E+03  0.22215070873E+04  0.22075608678E+04 0.  0.
        4    1    3    3  502    0 -0.18461859202E+03 -0.13692256859E+03 -0.12106690834E+04  0.12322958479E+04  0.12699999809E+01 0. -1.
       -4    1    3    3    0  502  0.18461859202E+03  0.13692256859E+03  0.96213587866E+03  0.98921123943E+03  0.12699999809E+01 0.  1.
</event>
<event>
 5   0  0.4174030E-05  0.2227199E+04  0.7818609E-02  0.8507192E-01
       -1   -1    0    0    0  501  0.00000000000E+00  0.00000000000E+00  0.62305508760E+03  0.62305508762E+03  0.50400001928E-02 0. -1.
        1   -1    0    0  501    0  0.00000000000E+00  0.00000000000E+00 -0.19903602236E+04  0.19903602236E+04  0.50400001928E-02 0.  1.
    10030    2    1    2    0    0  0.00000000000E+00  0.00000000000E+00 -0.13673051360E+04  0.26134153112E+04  0.22271991949E+04 0.  0.
        2    1    3    3  502    0  0.28880010770E+03  0.78818843169E+02  0.57495421476E+03  0.64822084302E+03  0.25500000920E-02 0. -1.
       -2    1    3    3    0  502 -0.28880010770E+03 -0.78818843169E+02 -0.19422593507E+04  0.19651944682E+04  0.25500000920E-02 0.  1.
</event>
<event>
 5   0  0.9938176E-05  0.2198301E+04  0.7818609E-02  0.8519136E-01
       -2   -1    0    0    0  501  0.00000000000E+00  0.00000000000E+00  0.10994862869E+04  0.10994862869E+04  0.25500000920E-02 0.  1.
        2   -1    0    0  501    0  0.00000000000E+00  0.00000000000E+00 -0.10988147788E+04  0.10988147788E+04  0.25500000920E-02 0. -1.
    10030    2    1    2    0    0  0.00000000000E+00  0.00000000000E+00  0.67150810245E+00  0.21983010657E+04  0.21983009631E+04 0.  0.
        5    1    3    3  502    0  0.66006308774E+03 -0.35571463438E+03  0.80401079442E+03  0.10993960289E+04  0.46999998093E+01 0.  1.
       -5    1    3    3    0  502 -0.66006308774E+03  0.35571463438E+03 -0.80333928631E+03  0.10989050368E+04  0.46999998093E+01 0. -1.
</event>
<event>
 5   0  0.4063293E-05  0.2011836E+04  0.7818609E-02  0.8601107E-01
        1   -1    0    0  501    0  0.00000000000E+00  0.00000000000E+00  0.83127920846E+03  0.83127920847E+03  0.50400001928E-02 0.  1.
       -1   -1    0    0    0  501  0.00000000000E+00  0.00000000000E+00 -0.12172462503E+04  0.12172462503E+04  0.50400001928E-02 0. -1.
    10030    2    1    2    0    0  0.00000000000E+00  0.00000000000E+00 -0.38596704182E+03  0.20485254588E+04  0.20118364739E+04 0.  0.
        1    1    3    3  502    0  0.58807818852E+03 -0.73419870282E+03 -0.55583567210E+03  0.10926284755E+04  0.50400001928E-02 0.  1.
       -1    1    3    3    0  502 -0.58807818852E+03  0.73419870282E+03  0.16986863028E+03  0.95589698327E+03  0.50400001928E-02 0. -1.
</event>
<event>
 5   0  0.9179618E-05  0.2222607E+04  0.7818609E-02  0.8509077E-01
       -2   -1    0    0    0  501  0.00000000000E+00  0.00000000000E+00  0.12681197503E+04  0.12681197503E+04  0.25500000920E-02 0.  1.
        2   -1    0    0  501    0  0.00000000000E+00  0.00000000000E+00 -0.97387886062E+03  0.97387886062E+03  0.25500000920E-02 0. -1.
    10030    2    1    2    0    0  0.00000000000E+00  0.00000000000E+00  0.29424088964E+03  0.22419986109E+04  0.22226065936E+04 0.  0.
        3    1    3    3  502    0  0.67695549613E+03  0.54337293715E+03 -0.55281552159E+03  0.10291393995E+04  0.10100000352E+00 0. -1.
       -3    1    3    3    0  502 -0.67695549613E+03 -0.54337293715E+03  0.84705641123E+03  0.12128592114E+04  0.10100000352E+00 0.  1.
</event>
<event>
 5   0  0.4174030E-05  0.2152090E+04  0.7818609E-02  0.8538638E-01
        1   -1    0    0  501    0  0.00000000000E+00  0.00000000000E+00  0.10726651509E+04  0.10726651509E+04  0.50400001928E-02 0. -1.
       -1   -1    0    0    0  501  0.00000000000E+00  0.00000000000E+00 -0.10794353000E+04  0.10794353000E+04  0.50400001928E-02 0.  1.
    10030    2    1    2    0    0  0.00000000000E+00  0.00000000000E+00 -0.67701491462E+01  0.21521004509E+04  0.21520898020E+04 0.  0.
        2    1    3    3  502    0  0.79884915572E+03 -0.41810234423E+03 -0.59067248154E+03  0.10778977337E+04  0.25500000920E-02 0.  1.
       -2    1    3    3    0  502 -0.79884915572E+03  0.41810234423E+03  0.58390233239E+03  0.10742027172E+04  0.25500000920E-02 0. -1.
</event>
<event>
 5   0  0.4133418E-05  0.2158597E+04  0.7818609E-02  0.8535861E-01
       -1   -1    0    0    0  501  0.00000000000E+00  0.00000000000E+00  0.81732779390E+03  0.81732779392E+03  0.50400001928E-02 0. -1.
        1   -1    0    0  501    0  0.00000000000E+00  0.00000000000E+00 -0.14252362228E+04  0.14252362228E+04  0.50400001928E-02 0.  1.
    10030    2    1    2    0    0  0.00000000000E+00  0.00000000000E+00 -0.60790842887E+03  0.22425640167E+04  0.21585969311E+04 0.  0.
        4    1    3    3  502    0  0.77150402798E+03 -0.33911884319E+03 -0.10044706742E+04  0.13111761908E+04  0.12699999809E+01 0.  1.
       -4    1    3    3    0  502 -0.77150402798E+03  0.33911884319E+03  0.39656224532E+03  0.93138782594E+03  0.12699999809E+01 0. -1.
</event>
<event>
 5   0  0.4174075E-05  0.2153761E+04  0.7818609E-02  0.8537924E-01
        1   -1    0    0  501    0  0.00000000000E+00  0.00000000000E+00  0.12047999568E+04  0.12047999568E+04  0.50400001928E-02 0. -1.
       -1   -1    0    0    0  501  0.00000000000E+00  0.00000000000E+00 -0.96254284780E+03  0.96254284782E+03  0.50400001928E-02 0.  1.
    10030    2    1    2    0    0  0.00000000000E+00  0.00000000000E+00  0.24225710903E+03  0.21673428047E+04  0.21537609724E+04 0.  0.
        5    1    3    3  502    0 -0.42599959245E+02 -0.10759735874E+04  0.13194689460E+03  0.10848806341E+04  0.46999998093E+01 0. -1.
       -5    1    3    3    0  502  0.42599959245E+02  0.10759735874E+04  0.11031021443E+03  0.10824621706E+04  0.46999998093E+01 0.  1.
</event>
<event>
 5   0  0.9442578E-05  0.2176444E+04  0.7818609E-02  0.8528297E-01
       -2   -1    0    0    0  501  0.00000000000E+00  0.00000000000E+00  0.80599053557E+03  0.80599053558E+03  0.25500000920E-02 0.  1.
        2   -1    0    0  501    0  0.00000000000E+00  0.00000000000E+00 -0.14692814423E+04  0.14692814423E+04  0.25500000920E-02 0. -1.
    10030    2    1    2    0    0  0.00000000000E+00  0.00000000000E+00 -0.66329090676E+03  0.22752719779E+04  0.21764438303E+04 0.  0.
        4    1    3    3  502    0 -0.10808078757E+04 -0.12613658720E+03 -0.31804627192E+03  0.11336715339E+04  0.12699999809E+01 0. -1.
       -4    1    3    3    0  502  0.10808078757E+04  0.12613658720E+03 -0.34524463484E+03  0.11416004440E+04  0.12699999809E+01 0.  1.
</event>
<event>
 5   0  0.4174075E-05  0.2188315E+04  0.7818609E-02  0.8523307E-01
       -1   -1    0    0    0  501  0.00000000000E+00  0.00000000000E+00  0.12525610487E+04  0.12525610487E+04  0.50400001928E-02 0.  1.
        1   -1    0    0  501    0  0.00000000000E+00  0.00000000000E+00 -0.95578661675E+03  0.95578661676E+03  0.50400001928E-02 0. -1.
    10030    2    1    2    0    0  0.00000000000E+00  0.00000000000E+00  0.29677443197E+03  0.22083476655E+04  0.21883154133E+04 0.  0.
        5    1    3    3  502    0  0.80604082687E+02 -0.24976289251E+03  0.12203163228E+04  0.12482277590E+04  0.46999998093E+01 0.  1.
       -5    1    3    3    0  502 -0.80604082687E+02  0.24976289251E+03 -0.92354189086E+03  0.96011990647E+03  0.46999998093E+01 0. -1.
</event>
<event>
 5   0  0.9254673E-05  0.2127116E+04  0.7818609E-02  0.8549392E-01
       -2   -1    0    0    0  501  0.00000000000E+00  0.00000000000E+00  0.37344587406E+03  0.37344587406E+03  0.25500000920E-02 0. -1.
        2   -1    0    0  501    0  0.00000000000E+00  0.00000000000E+00 -0.30289687166E+04  0.30289687166E+04  0.25500000920E-02 0.  1.
    10030    2    1    2    0    0  0.00000000000E+00  0.00000000000E+00 -0.26555228426E+04  0.34024145907E+04  0.21271162355E+04 0.  0.
        2    1    3    3  502    0  0.11794541380E+03 -0.86819508850E+03 -0.22921176427E+04  0.24538698255E+04  0.25500000920E-02 0.  1.
       -2    1    3    3    0  502 -0.11794541380E+03  0.86819508850E+03 -0.36340519986E+03  0.94854476522E+03  0.25500000920E-02 0. -1.
</event>
<event>
 5   0  0.4133418E-05  0.2145621E+04  0.7818609E-02  0.8541409E-01
       -1   -1    0    0    0  501  0.00000000000E+00  0.00000000000E+00  0.12524233427E+04  0.12524233427E+04  0.50400001928E-02 0. -1.
        1   -1    0    0  501    0  0.00000000000E+00  0.00000000000E+00 -0.91895610006E+03  0.91895610007E+03  0.50400001928E-02 0.  1.
    10030    2    1    2    0    0  0.00000000000E+00  0.00000000000E+00  0.33346724259E+03  0.21713794427E+04  0.21456207220E+04 0.  0.
        4    1    3    3  502    0  0.12005721471E+03  0.32347433661E+03 -0.86127199340E+03  0.92781487418E+03  0.12699999809E+01 0.  1.
       -4    1    3    3    0  502 -0.12005721471E+03 -0.32347433661E+03  0.11947392360E+04  0.12435645686E+04  0.12699999809E+01 0. -1.
</event>
<event>
 5   0  0.4063293E-05  0.2200517E+04  0.7818609E-02  0.8518213E-01
       -1   -1    0    0    0  501  0.00000000000E+00  0.00000000000E+00  0.82675362992E+03  0.82675362993E+03  0.50400001928E-02 0.  1.
        1   -1    0    0  501    0  0.00000000000E+00  0.00000000000E+00 -0.14642442003E+04  0.14642442003E+04  0.50400001928E-02 0. -1.
    10030    2    1    2    0    0  0.00000000000E+00  0.00000000000E+00 -0.63749057035E+03  0.22909978302E+04  0.22005174007E+04 0.  0.
        1    1    3    3  502    0 -0.78543615370E+03  0.44839202327E+03 -0.97108999912E+03  0.13270196474E+04  0.50400001928E-02 0. -1.
       -1    1    3    3    0  502  0.78543615370E+03 -0.44839202327E+03  0.33359942877E+03  0.96397818284E+03  0.50400001928E-02 0.  1.
</event>
<event>
 5   0  0.9254673E-05  0.2203353E+04  0.7818609E-02  0.8517034E-01
        2   -1    0    0  501    0  0.00000000000E+00  0.00000000000E+00  0.12194541153E+04  0.12194541153E+04  0.25500000920E-02 0.  1.
       -2   -1    0    0    0  501  0.00000000000E+00  0.00000000000E+00 -0.99527375758E+03  0.99527375759E+03  0.25500000920E-02 0. -1.
    10030    2    1    2    0    0  0.00000000000E+00  0.00000000000E+00  0.22418035776E+03  0.22147278729E+04  0.22033526087E+04 0.  0.
        2    1    3    3  502    0 -0.50820151648E+03 -0.49787354813E+03 -0.73340870934E+03  0.10217804002E+04  0.25500000920E-02 0. -1.
       -2    1    3    3    0  502  0.50820151648E+03  0.49787354813E+03  0.95758906709E+03  0.11929474727E+04  0.25500000920E-02 0.  1.
</event>
<event>
 5   0  0.9457742E-05  0.2193489E+04  0.7818609E-02  0.8521143E-01
       -2   -1    0    0    0  501  0.00000000000E+00  0.00000000000E+00  0.13004552550E+04  0.13004552550E+04  0.25500000920E-02 0. -1.
        2   -1    0    0  501    0  0.00000000000E+00  0.00000000000E+00 -0.92494377297E+03  0.92494377298E+03  0.25500000920E-02 0.  1.
    10030    2    1    2    0    0  0.00000000000E+00  0.00000000000E+00  0.37551148206E+03  0.22253990280E+04  0.21934885367E+04 0.  0.
        1    1    3    3  502    0 -0.73802994648E+03 -0.14745213751E+03 -0.62160779533E+03  0.97612836553E+03  0.50400001928E-02 0.  1.
       -1    1    3    3    0  502  0.73802994648E+03  0.14745213751E+03  0.99711927739E+03  0.12492706625E+04  0.50400001928E-02 0. -1.
</event>
<event>
 5   0  0.4174030E-05  0.2162830E+04  0.7818609E-02  0.8534060E-01
        1   -1    0    0  501    0  0.00000000000E+00  0.00000000000E+00  0.13549491777E+04  0.13549491777E+04  0.50400001928E-02 0.  1.
       -1   -1    0    0    0  501  0.00000000000E+00  0.00000000000E+00 -0.86310151042E+03  0.86310151043E+03  0.50400001928E-02 0. -1.
    10030    2    1    2    0    0  0.00000000000E+00  0.00000000000E+00  0.49184766726E+03  0.22180506881E+04  0.21628302586E+04 0.  0.
        2    1    3    3  502    0  0.23763049555E+03  0.52065224026E+03 -0.69506028909E+03  0.90036426694E+03  0.25500000920E-02 0. -1.
       -2    1    3    3    0  502 -0.23763049555E+03 -0.52065224026E+03  0.11869079564E+04  0.13176864212E+04  0.25500000920E-02 0.  1.
</event>
<event>
 5   0  0.4063293E-05  0.2174172E+04  0.7818609E-02  0.8529256E-01
        1   -1    0    0  501    0  0.00000000000E+00  0.00000000000E+00  0.14239074169E+04  0.14239074169E+04  0.50400001928E-02 0.  1.
       -1   -1    0    0    0  501  0.00000000000E+00  0.00000000000E+00 -0.82993909525E+03  0.82993909527E+03  0.50400001928E-02 0. -1.
    10030    2    1    2    0    0  0.00000000000E+00  0.00000000000E+00  0.59396832164E+03  0.22538465122E+04  0.21741724249E+04 0.  0.
        1    1    3    3  502    0  0.74599457618E+03  0.31871305180E+03 -0.45318536059E+03  0.92922703801E+03  0.50400001928E-02 0. -1.
       -1    1    3    3    0  502 -0.74599457618E+03 -0.31871305180E+03  0.10471536822E+04  0.13246194742E+04  0.50400001928E-02 0.  1.
</event>
<event>
 5   0  0.4133418E-05  0.1770158E+04  0.7818609E-02  0.8722332E-01
       -1   -1    0    0    0  501  0.00000000000E+00  0.00000000000E+00  0.89390632958E+03  0.89390632960E+03  0.50400001928E-02 0. -1.
        1   -1    0    0  501    0  0.00000000000E+00  0.00000000000E+00 -0.87633901146E+03  0.87633901147E+03  0.50400001928E-02 0.  1.
    10030    2    1    2    0    0  0.00000000000E+00  0.00000000000E+00  0.17567318126E+02  0.17702453411E+04  0.17701581728E+04 0.  0.
        4    1    3    3  502    0  0.66458442625E+03 -0.28835589753E+03 -0.49971143092E+03  0.88007653664E+03  0.12699999809E+01 0.  1.
       -4    1    3    3    0  502 -0.66458442625E+03  0.28835589753E+03  0.51727874904E+03  0.89016880442E+03  0.12699999809E+01 0. -1.
</event>
<event>
 5   0  0.9442578E-05  0.2180678E+04  0.7818609E-02  0.8526514E-01
       -2   -1    0    0    0  501  0.00000000000E+00  0.00000000000E+00  0.76588489518E+03  0.76588489519E+03  0.25500000920E-02 0. -1.
        2   -1    0    0  501    0  0.00000000000E+00  0.00000000000E+00 -0.15522426587E+04  0.15522426587E+04  0.25500000920E-02 0.  1.
    10030    2    1    2    0    0  0.00000000000E+00  0.00000000000E+00 -0.78635776352E+03  0.23181275539E+04  0.21806780652E+04 0.  0.
        4    1    3    3  502    0 -0.29442766265E+03 -0.48601238754E+03 -0.13823926491E+04  0.14946259527E+04  0.12699999809E+01 0.  1.
       -4    1    3    3    0  502  0.29442766265E+03  0.48601238754E+03  0.59603488559E+03  0.82350160116E+03  0.12699999809E+01 0. -1.
</event>
<event>
 5   0  0.4188865E-05  0.2186135E+04  0.7818609E-02  0.8524221E-01
        1   -1    0    0  501    0  0.00000000000E+00  0.00000000000E+00  0.13909156416E+04  0.13909156416E+04  0.50400001928E-02 0. -1.
       -1   -1    0    0    0  501  0.00000000000E+00  0.00000000000E+00 -0.85899997438E+03  0.85899997440E+03  0.50400001928E-02 0.  1.
    10030    2    1    2    0    0  0.00000000000E+00  0.00000000000E+00  0.53191566717E+03  0.22499156160E+04  0.21861349460E+04 0.  0.
        3    1    3    3  502    0  0.58588026139E+03  0.23800987326E+03  0.11835366030E+04  0.13418879541E+04  0.10100000352E+00 0. -1.
       -3    1    3    3    0  502 -0.58588026139E+03 -0.23800987326E+03 -0.65162093586E+03  0.90802766186E+03  0.10100000352E+00 0.  1.
</event>
<event>
 5   0  0.4063293E-05  0.2180830E+04  0.7818609E-02  0.8526450E-01
        1   -1    0    0  501    0  0.00000000000E+00  0.00000000000E+00  0.77192994028E+03  0.77192994030E+03  0.50400001928E-02 0.  1.
       -1   -1    0    0    0  501  0.00000000000E+00  0.00000000000E+00 -0.15403021275E+04  0.15403021275E+04  0.50400001928E-02 0. -1.
    10030    2    1    2    0    0  0.00000000000E+00  0.00000000000E+00 -0.76837218724E+03  0.23122320678E+04  0.21808304192E+04 0.  0.
        1    1    3    3  502    0 -0.68890515677E+03  0.15129257414E+03 -0.12658714866E+04  0.14491067520E+04  0.50400001928E-02 0. -1.
       -1    1    3    3    0  502  0.68890515677E+03 -0.15129257414E+03  0.49749929934E+03  0.86312531586E+03  0.50400001928E-02 0.  1.
</event>
<event>
 5   0  0.4063293E-05  0.1977606E+04  0.7818609E-02  0.8617163E-01
        1   -1    0    0  501    0  0.00000000000E+00  0.00000000000E+00  0.17568692507E+04  0.17568692507E+04  0.50400001928E-02 0. -1.
       -1   -1    0    0    0  501  0.00000000000E+00  0.00000000000E+00 -0.55651894747E+03  0.55651894749E+03  0.50400001928E-02 0.  1.
    10030    2    1    2    0    0  0.00000000000E+00  0.00000000000E+00  0.12003503032E+04  0.23133881982E+04  0.19776056495E+04 0.  0.
        1    1    3    3  502    0  0.62584506861E+03 -0.46558222736E+03  0.13110415541E+04  0.15255421387E+04  0.50400001928E-02 0. -1.
       -1    1    3    3    0  502 -0.62584506861E+03  0.46558222736E+03 -0.11069125093E+03  0.78784605945E+03  0.50400001928E-02 0.  1.
</event>
<event>
 5   0  0.9442578E-05  0.2179313E+04  0.7818609E-02  0.8527088E-01
        2   -1    0    0  501    0  0.00000000000E+00  0.00000000000E+00  0.17596157574E+04  0.17596157574E+04  0.25500000920E-02 0.  1.
       -2   -1    0    0    0  501  0.00000000000E+00  0.00000000000E+00 -0.67477869831E+03  0.67477869831E+03  0.25500000920E-02 0. -1.
    10030    2    1    2    0    0  0.00000000000E+00  0.00000000000E+00  0.10848370591E+04  0.24343944557E+04  0.21793129471E+04 0.  0.
        4    1    3    3  502    0 -0.27134853730E+03  0.55195414168E+02  0.17196570637E+04  0.17418089999E+04  0.12699999809E+01 0.  1.
       -4    1    3    3    0  502  0.27134853730E+03 -0.55195414168E+02 -0.63482000462E+03  0.69258545582E+03  0.12699999809E+01 0. -1.
</event>
<event>
 5   0  0.9179618E-05  0.2112560E+04  0.7818609E-02  0.8555731E-01
        2   -1    0    0  501    0  0.00000000000E+00  0.00000000000E+00  0.17046460895E+04  0.17046460895E+04  0.25500000920E-02 0. -1.
       -2   -1    0    0    0  501  0.00000000000E+00  0.00000000000E+00 -0.65452133928E+03  0.65452133929E+03  0.25500000920E-02 0.  1.
    10030    2    1    2    0    0  0.00000000000E+00  0.00000000000E+00  0.10501247502E+04  0.23591674288E+04  0.21125598136E+04 0.  0.
        3    1    3    3  502    0 -0.31651598919E+03 -0.48502984566E+03 -0.46139431598E+03  0.74048703406E+03  0.10100000352E+00 0.  1.
       -3    1    3    3    0  502  0.31651598919E+03  0.48502984566E+03  0.15115190662E+04  0.16186803947E+04  0.10100000352E+00 0. -1.
</event>
<event>
 5   0  0.9938176E-05  0.2220187E+04  0.7818609E-02  0.8510073E-01
       -2   -1    0    0    0  501  0.00000000000E+00  0.00000000000E+00  0.86205089572E+03  0.86205089572E+03  0.25500000920E-02 0. -1.
        2   -1    0    0  501    0  0.00000000000E+00  0.00000000000E+00 -0.14295064087E+04  0.14295064088E+04  0.25500000920E-02 0.  1.
    10030    2    1    2    0    0  0.00000000000E+00  0.00000000000E+00 -0.56745551303E+03  0.22915573045E+04  0.22201867310E+04 0.  0.
        5    1    3    3  502    0  0.79873130606E+03 -0.44977478203E+03  0.36251128432E+03  0.98575127446E+03  0.46999998093E+01 0. -1.
       -5    1    3    3    0  502 -0.79873130606E+03  0.44977478203E+03 -0.92996679735E+03  0.13058060300E+04  0.46999998093E+01 0.  1.
</event>
<event>
 5   0  0.9179618E-05  0.2203690E+04  0.7818609E-02  0.8516894E-01
        2   -1    0    0  501    0  0.00000000000E+00  0.00000000000E+00  0.10575218947E+04  0.10575218947E+04  0.25500000920E-02 0. -1.
       -2   -1    0    0    0  501  0.00000000000E+00  0.00000000000E+00 -0.11480256669E+04  0.11480256669E+04  0.25500000920E-02 0.  1.
    10030    2    1    2    0    0  0.00000000000E+00  0.00000000000E+00 -0.90503772255E+02  0.22055475616E+04  0.22036898861E+04 0.  0.
        3    1    3    3  502    0 -0.12298742530E+03  0.10837181459E+04 -0.20188090858E+03  0.11092009908E+04  0.10100000352E+00 0. -1.
       -3    1    3    3    0  502  0.12298742530E+03 -0.10837181459E+04  0.11137713633E+03  0.10963465708E+04  0.10100000352E+00 0.  1.
</event>
<event>
 5   0  0.4174075E-05  0.2188633E+04  0.7818609E-02  0.8523174E-01
       -1   -1    0    0    0  501  0.00000000000E+00  0.00000000000E+00  0.46320738453E+03  0.46320738456E+03  0.50400001928E-02 0.  1.
        1   -1    0    0  501    0  0.00000000000E+00  0.00000000000E+00 -0.25852965583E+04  0.25852965583E+04  0.50400001928E-02 0. -1.
    10030    2    1    2    0    0  0.00000000000E+00  0.00000000000E+00 -0.21220891738E+04  0.30485039429E+04  0.21886328674E+04 0.  0.
        5    1    3    3  502    0 -0.90113532975E+03 -0.97395112245E+02 -0.19151150822E+04  0.21187776095E+04  0.46999998093E+01 0. -1.
       -5    1    3    3    0  502  0.90113532975E+03  0.97395112245E+02 -0.20697409159E+03  0.92972633339E+03  0.46999998093E+01 0.  1.
</event>
<event>
 5   0  0.9938176E-05  0.2196963E+04  0.7818609E-02  0.8519693E-01
       -2   -1    0    0    0  501  0.00000000000E+00  0.00000000000E+00  0.85603576907E+03  0.85603576907E+03  0.25500000920E-02 0. -1.
        2   -1    0    0  501    0  0.00000000000E+00  0.00000000000E+00 -0.14095919027E+04  0.14095919027E+04  0.25500000920E-02 0.  1.
    10030    2    1    2    0    0  0.00000000000E+00  0.00000000000E+00 -0.55355613368E+03  0.22656276718E+04  0.21969625291E+04 0.  0.
        5    1    3    3  502    0 -0.10035474908E+04  0.34467935190E+03  0.16228159053E+02  0.10612242294E+04  0.46999998093E+01 0. -1.
       -5    1    3    3    0  502  0.10035474908E+04 -0.34467935190E+03 -0.56978429273E+03  0.12044034424E+04  0.46999998093E+01 0.  1.
</event>
<event>
 5   0  0.9254673E-05  0.2226925E+04  0.7818609E-02  0.8507304E-01
       -2   -1    0    0    0  501  0.00000000000E+00  0.00000000000E+00  0.85845984230E+03  0.85845984231E+03  0.25500000920E-02 0.  1.
        2   -1    0    0  501    0  0.00000000000E+00  0.00000000000E+00 -0.14442125904E+04  0.14442125904E+04  0.25500000920E-02 0. -1.
    10030    2    1    2    0    0  0.00000000000E+00  0.00000000000E+00 -0.58575274811E+03  0.23026724327E+04  0.22269247968E+04 0.  0.
        2    1    3    3  502    0 -0.57661842743E+03 -0.67046627018E+02 -0.12753612228E+04  0.14012602576E+04  0.25500000920E-02 0. -1.
       -2    1    3    3    0  502  0.57661842743E+03  0.67046627018E+02  0.68960847468E+03  0.90141217509E+03  0.25500000920E-02 0.  1.
</event>
<event>
 5   0  0.9938176E-05  0.2192913E+04  0.7818609E-02  0.8521383E-01
       -2   -1    0    0    0  501  0.00000000000E+00  0.00000000000E+00  0.62358170757E+03  0.62358170758E+03  0.25500000920E-02 0. -1.
        2   -1    0    0  501    0  0.00000000000E+00  0.00000000000E+00 -0.19279226495E+04  0.19279226495E+04  0.25500000920E-02 0.  1.
    10030    2    1    2    0    0  0.00000000000E+00  0.00000000000E+00 -0.13043409419E+04  0.25515043571E+04  0.21929134026E+04 0.  0.
        5    1    3    3  502    0 -0.89467400501E+03 -0.56023599288E+03 -0.99710982714E+03  0.14520867882E+04  0.46999998093E+01 0.  1.
       -5    1    3    3    0  502  0.89467400501E+03  0.56023599288E+03 -0.30723111479E+03  0.10994175689E+04  0.46999998093E+01 0. -1.
</event>
<event>
 5   0  0.4063293E-05  0.2215021E+04  0.7818609E-02  0.8512202E-01
       -1   -1    0    0    0  501  0.00000000000E+00  0.00000000000E+00  0.11141396301E+04  0.11141396301E+04  0.50400001928E-02 0. -1.
        1   -1    0    0  501    0  0.00000000000E+00  0.00000000000E+00 -0.11009205832E+04  0.11009205833E+04  0.50400001928E-02 0.  1.
    10030    2    1    2    0    0  0.00000000000E+00  0.00000000000E+00  0.13219046866E+02  0.22150602134E+04  0.22150207687E+04 0.  0.
        1    1    3    3  502    0  0.18950071896E+03  0.10900050612E+04 -0.43965040985E+02  0.11072282876E+04  0.50400001928E-02 0.  1.
       -1    1    3    3    0  502 -0.18950071896E+03 -0.10900050612E+04  0.57184087852E+02  0.11078319258E+04  0.50400001928E-02 0. -1.
</event>
<event>
 5   0  0.9254673E-05  0.2201837E+04  0.7818609E-02  0.8517664E-01
        2   -1    0    0  501    0  0.00000000000E+00  0.00000000000E+00  0.79863772614E+03  0.79863772614E+03  0.25500000920E-02 0. -1.
       -2   -1    0    0    0  501  0.00000000000E+00  0.00000000000E+00 -0.15176107842E+04  0.15176107842E+04  0.25500000920E-02 0.  1.
    10030    2    1    2    0    0  0.00000000000E+00  0.00000000000E+00 -0.71897305805E+03  0.23162485103E+04  0.22018367113E+04 0.  0.
        2    1    3    3  502    0 -0.26507627840E+03  0.10457316624E+04 -0.12853095850E+03  0.10864346968E+04  0.25500000920E-02 0. -1.
       -2    1    3    3    0  502  0.26507627840E+03 -0.10457316624E+04 -0.59044209954E+03  0.12298138135E+04  0.25500000920E-02 0.  1.
</event>
<event>
 5   0  0.4174075E-05  0.2220445E+04  0.7818609E-02  0.8509966E-01
        1   -1    0    0  501    0  0.00000000000E+00  0.00000000000E+00  0.94622402681E+03  0.94622402682E+03  0.50400001928E-02 0.  1.
       -1   -1    0    0    0  501  0.00000000000E+00  0.00000000000E+00 -0.13026449216E+04  0.13026449216E+04  0.50400001928E-02 0. -1.
    10030    2    1    2    0    0  0.00000000000E+00  0.00000000000E+00 -0.35642089482E+03  0.22488689485E+04  0.22204449313E+04 0.  0.
        5    1    3    3  502    0 -0.94971021960E+03  0.20895447577E+03  0.36433371462E+03  0.10384472157E+04  0.46999998093E+01 0.  1.
       -5    1    3    3    0  502  0.94971021960E+03 -0.20895447577E+03 -0.72075460944E+03  0.12104217328E+04  0.46999998093E+01 0. -1.
</event>
<event>
 5   0  0.4188865E-05  0.1706731E+04  0.7818609E-02  0.8757535E-01
        1   -1    0    0  501    0  0.00000000000E+00  0.00000000000E+00  0.13155011378E+04  0.13155011378E+04  0.50400001928E-02 0. -1.
       -1   -1    0    0    0  501  0.00000000000E+00  0.00000000000E+00 -0.55357796927E+03  0.55357796929E+03  0.50400001928E-02 0.  1.
    10030    2    1    2    0    0  0.00000000000E+00  0.00000000000E+00  0.76192316856E+03  0.18690791071E+04  0.17067307327E+04 0.  0.
        3    1    3    3  502    0 -0.50401846709E+03  0.20041147790E+03  0.11024412257E+04  0.12286480546E+04  0.10100000352E+00 0. -1.
       -3    1    3    3    0  502  0.50401846709E+03 -0.20041147790E+03 -0.34051805715E+03  0.64043105256E+03  0.10100000352E+00 0.  1.
</event>
<event>
 5   0  0.9442578E-05  0.1825103E+04  0.7818609E-02  0.8693063E-01
        2   -1    0    0  501    0  0.00000000000E+00  0.00000000000E+00  0.13048479685E+04  0.13048479685E+04  0.25500000920E-02 0.  1.
       -2   -1    0    0    0  501  0.00000000000E+00  0.00000000000E+00 -0.63819730779E+03  0.63819730780E+03  0.25500000920E-02 0. -1.
    10030    2    1    2    0    0  0.00000000000E+00  0.00000000000E+00  0.66665066070E+03  0.19430452763E+04  0.18251032415E+04 0.  0.
        4    1    3    3  502    0  0.71720081399E+03  0.46976169709E+03  0.56357676472E+00  0.85735348028E+03  0.12699999809E+01 0.  1.
       -4    1    3    3    0  502 -0.71720081399E+03 -0.46976169709E+03  0.66608708394E+03  0.10856917960E+04  0.12699999809E+01 0. -1.
</event>
<event>
 5   0  0.4188865E-05  0.2061780E+04  0.7818609E-02  0.8578269E-01
       -1   -1    0    0    0  501  0.00000000000E+00  0.00000000000E+00  0.59898629269E+03  0.59898629271E+03  0.50400001928E-02 0.  1.
        1   -1    0    0  501    0  0.00000000000E+00  0.00000000000E+00 -0.17742216117E+04  0.17742216117E+04  0.50400001928E-02 0. -1.
    10030    2    1    2    0    0  0.00000000000E+00  0.00000000000E+00 -0.11752353190E+04  0.23732079044E+04  0.20617802265E+04 0.  0.
        3    1    3    3  502    0  0.95727327209E+03 -0.22977578461E+03 -0.93970549818E+03  0.13609612273E+04  0.10100000352E+00 0. -1.
       -3    1    3    3    0  502 -0.95727327209E+03  0.22977578461E+03 -0.23552982082E+03  0.10122466771E+04  0.10100000352E+00 0.  1.
</event>
<event>
 5   0  0.4063293E-05  0.2212016E+04  0.7818609E-02  0.8513443E-01
       -1   -1    0    0    0  501  0.00000000000E+00  0.00000000000E+00  0.41086996349E+03  0.41086996352E+03  0.50400001928E-02 0. -1.
        1   -1    0    0  501    0  0.00000000000E+00  0.00000000000E+00 -0.29772282867E+04  0.29772282867E+04  0.50400001928E-02 0.  1.
    10030    2    1    2    0    0  0.00000000000E+00  0.00000000000E+00 -0.25663583232E+04  0.33880982502E+04  0.22120159832E+04 0.  0.
        1    1    3    3  502    0  0.93054102932E+03 -0.59490921466E+03 -0.13728850408E+04  0.17619979899E+04  0.50400001928E-02 0.  1.
       -1    1    3    3    0  502 -0.93054102932E+03  0.59490921466E+03 -0.11934732824E+04  0.16261002604E+04  0.50400001928E-02 0. -1.
</event>
<event>
 5   0  0.4188865E-05  0.2172870E+04  0.7818609E-02  0.8529806E-01
       -1   -1    0    0    0  501  0.00000000000E+00  0.00000000000E+00  0.11501026273E+04  0.11501026273E+04  0.50400001928E-02 0.  1.
        1   -1    0    0  501    0  0.00000000000E+00  0.00000000000E+00 -0.10262916869E+04  0.10262916869E+04  0.50400001928E-02 0. -1.
    10030    2    1    2    0    0  0.00000000000E+00  0.00000000000E+00  0.12381094043E+03  0.21763943142E+04  0.21728697756E+04 0.  0.
        3    1    3    3  502    0  0.33974562601E+03 -0.36803739431E+03  0.10275554508E+04  0.11431311511E+04  0.10100000352E+00 0.  1.
       -3    1    3    3    0  502 -0.33974562601E+03  0.36803739431E+03 -0.90374451034E+03  0.10332631631E+04  0.10100000352E+00 0. -1.
</event>
<event>
 5   0  0.9938176E-05  0.2125189E+04  0.7818609E-02  0.8550228E-01
        2   -1    0    0  501    0  0.00000000000E+00  0.00000000000E+00  0.87668080783E+03  0.87668080783E+03  0.25500000920E-02 0.  1.
       -2   -1    0    0    0  501  0.00000000000E+00  0.00000000000E+00 -0.12879339882E+04  0.12879339882E+04  0.25500000920E-02 0. -1.
    10030    2    1    2    0    0  0.00000000000E+00  0.00000000000E+00 -0.41125318034E+03  0.21646147960E+04  0.21251889414E+04 0.  0.
        5    1    3    3  502    0 -0.57157287090E+03 -0.86230991601E+03 -0.45263531172E+03  0.11292363585E+04  0.46999998093E+01 0. -1.
       -5    1    3    3    0  502  0.57157287090E+03  0.86230991601E+03  0.41382131379E+02  0.10353784375E+04  0.46999998093E+01 0.  1.
</event>
<event>
 5   0  0.4133418E-05  0.2172909E+04  0.7818609E-02  0.8529789E-01
        1   -1    0    0  501    0  0.00000000000E+00  0.00000000000E+00  0.84367644022E+03  0.84367644024E+03  0.50400001928E-02 0. -1.
       -1   -1    0    0    0  501  0.00000000000E+00  0.00000000000E+00 -0.13990947961E+04  0.13990947961E+04  0.50400001928E-02 0.  1.
    10030    2    1    2    0    0  0.00000000000E+00  0.00000000000E+00 -0.55541835585E+03  0.22427712363E+04  0.21729089416E+04 0.  0.
        4    1    3    3  502    0  0.42686519485E+03  0.11754741587E+03 -0.13017524647E+04  0.13749881388E+04  0.12699999809E+01 0.  1.
       -4    1    3    3    0  502 -0.42686519485E+03 -0.11754741587E+03  0.74633410881E+03  0.86778309757E+03  0.12699999809E+01 0. -1.
</event>
<event>
 5   0  0.4174075E-05  0.2201206E+04  0.7818609E-02  0.8517926E-01
       -1   -1    0    0    0  501  0.00000000000E+00  0.00000000000E+00  0.16176093349E+04  0.16176093350E+04  0.50400001928E-02 0.  1.
        1   -1    0    0  501    0  0.00000000000E+00  0.00000000000E+00 -0.74883780211E+03  0.74883780213E+03  0.50400001928E-02 0. -1.
    10030    2    1    2    0    0  0.00000000000E+00  0.00000000000E+00  0.86877153283E+03  0.23664471371E+04  0.22012060504E+04 0.  0.
        5    1    3    3  502    0  0.91034964863E+03 -0.26476740502E+03 -0.16656370484E+03  0.96260262793E+03  0.46999998093E+01 0. -1.
       -5    1    3    3    0  502 -0.91034964863E+03  0.26476740502E+03  0.10353352377E+04  0.14038445092E+04  0.46999998093E+01 0.  1.
</event>
<event>
 5   0  0.9938176E-05  0.2151570E+04  0.7818609E-02  0.8538861E-01
       -2   -1    0    0    0  501  0.00000000000E+00  0.00000000000E+00  0.83388004739E+03  0.83388004739E+03  0.25500000920E-02 0.  1.
        2   -1    0    0  501    0  0.00000000000E+00  0.00000000000E+00 -0.13878653490E+04  0.13878653490E+04  0.25500000920E-02 0. -1.
    10030    2    1    2    0    0  0.00000000000E+00  0.00000000000E+00 -0.55398530160E+03  0.22217453964E+04  0.21515698669E+04 0.  0.
        5    1    3    3  502    0  0.92478417955E+03 -0.52652764163E+03 -0.43972059827E+03  0.11514484056E+04  0.46999998093E+01 0.  1.
       -5    1    3    3    0  502 -0.92478417955E+03  0.52652764163E+03 -0.11426470333E+03  0.10702969908E+04  0.46999998093E+01 0. -1.
</event>
<event>
 5   0  0.4174075E-05  0.2246223E+04  0.7818609E-02  0.8499432E-01
        1   -1    0    0  501    0  0.00000000000E+00  0.00000000000E+00  0.22409349364E+04  0.22409349364E+04  0.50400001928E-02 0. -1.
       -1   -1    0    0    0  501  0.00000000000E+00  0.00000000000E+00 -0.56288068242E+03  0.56288068244E+03  0.50400001928E-02 0.  1.
    10030    2    1    2    0    0  0.00000000000E+00  0.00000000000E+00  0.16780542539E+04  0.28038156188E+04  0.22462225947E+04 0.  0.
        5    1    3    3  502    0 -0.33821883645E+03  0.66448064830E+03  0.18874192267E+04  0.20293594902E+04  0.46999998093E+01 0. -1.
       -5    1    3    3    0  502  0.33821883645E+03 -0.66448064830E+03 -0.20936497274E+03  0.77445612859E+03  0.46999998093E+01 0.  1.
</event>
<event>
 5   0  0.9442578E-05  0.1956522E+04  0.7818609E-02  0.8627222E-01
        2   -1    0    0  501    0  0.00000000000E+00  0.00000000000E+00  0.84893491875E+03  0.84893491875E+03  0.25500000920E-02 0.  1.
       -2   -1    0    0    0  501  0.00000000000E+00  0.00000000000E+00 -0.11272889655E+04  0.11272889655E+04  0.25500000920E-02 0. -1.
    10030    2    1    2    0    0  0.00000000000E+00  0.00000000000E+00 -0.27835404677E+03  0.19762238843E+04  0.19565223907E+04 0.  0.
        4    1    3    3  502    0  0.78120919323E+03 -0.42421695740E+03  0.27327972380E+03  0.93001680140E+03  0.12699999809E+01 0.  1.
       -4    1    3    3    0  502 -0.78120919323E+03  0.42421695740E+03 -0.55163377057E+03  0.10462070829E+04  0.12699999809E+01 0. -1.
</event>
<event>
 5   0  0.4133418E-05  0.2175095E+04  0.7818609E-02  0.8528866E-01
        1   -1    0    0  501    0  0.00000000000E+00  0.00000000000E+00  0.98268723599E+03  0.98268723601E+03  0.50400001928E-02 0.  1.
       -1   -1    0    0    0  501  0.00000000000E+00  0.00000000000E+00 -0.12035968556E+04  0.12035968556E+04  0.50400001928E-02 0. -1.
    10030    2    1    2    0    0  0.00000000000E+00  0.00000000000E+00 -0.22090961962E+03  0.21862840916E+04  0.21750947265E+04 0.  0.
        4    1    3    3  502    0  0.40444967601E+03 -0.62600046537E+03  0.68564330058E+03  0.10127015708E+04  0.12699999809E+01 0.  1.
       -4    1    3    3    0  502 -0.40444967601E+03  0.62600046537E+03 -0.90655292020E+03  0.11735825208E+04  0.12699999809E+01 0. -1.
</event>
<event>
 5   0  0.4174030E-05  0.2010714E+04  0.7818609E-02  0.8601628E-01
        1   -1    0    0  501    0  0.00000000000E+00  0.00000000000E+00  0.11387626927E+04  0.11387626927E+04  0.50400001928E-02 0. -1.
       -1   -1    0    0    0  501  0.00000000000E+00  0.00000000000E+00 -0.88758002568E+03  0.88758002569E+03  0.50400001928E-02 0.  1.
    10030    2    1    2    0    0  0.00000000000E+00  0.00000000000E+00  0.25118266700E+03  0.20263427184E+04  0.20107143209E+04 0.  0.
        2    1    3    3  502    0 -0.57821992622E+03  0.96181159614E+02 -0.69755216170E+03  0.91113561935E+03  0.25500000920E-02 0.  1.
       -2    1    3    3    0  502  0.57821992622E+03 -0.96181159614E+02  0.94873482870E+03  0.11152070990E+04  0.25500000920E-02 0. -1.
</event>
<event>
 5   0  0.4188865E-05  0.2136590E+04  0.7818609E-02  0.8545294E-01
       -1   -1    0    0    0  501  0.00000000000E+00  0.00000000000E+00  0.81121808853E+03  0.81121808855E+03  0.50400001928E-02 0.  1.
        1   -1    0    0  501    0  0.00000000000E+00  0.00000000000E+00 -0.14068400832E+04  0.14068400833E+04  0.50400001928E-02 0. -1.
    10030    2    1    2    0    0  0.00000000000E+00  0.00000000000E+00 -0.59562199471E+03  0.22180581718E+04  0.21365899216E+04 0.  0.
        3    1    3    3  502    0  0.74551080129E+03 -0.57898397241E+03 -0.81713062468E+03  0.12484835854E+04  0.10100000352E+00 0. -1.
       -3    1    3    3    0  502 -0.74551080129E+03  0.57898397241E+03  0.22150862997E+03  0.96957458635E+03  0.10100000352E+00 0.  1.
</event>
<event>
 5   0  0.9179618E-05  0.2215258E+04  0.7818609E-02  0.8512104E-01
        2   -1    0    0  501    0  0.00000000000E+00  0.00000000000E+00  0.22817778278E+04  0.22817778278E+04  0.25500000920E-02 0.  1.
       -2   -1    0    0    0  501  0.00000000000E+00  0.00000000000E+00 -0.53766939240E+03  0.53766939241E+03  0.25500000920E-02 0. -1.
    10030    2    1    2    0    0  0.00000000000E+00  0.00000000000E+00  0.17441084354E+04  0.28194472202E+04  0.22152580872E+04 0.  0.
        3    1    3    3  502    0  0.16762404108E+03 -0.97838826493E+03  0.24659526964E+03  0.10228150631E+04  0.10100000352E+00 0. -1.
       -3    1    3    3    0  502 -0.16762404108E+03  0.97838826493E+03  0.14975131657E+04  0.17966321571E+04  0.10100000352E+00 0.  1.
</event>
<event>
 5   0  0.4174030E-05  0.2050797E+04  0.7818609E-02  0.8583233E-01
       -1   -1    0    0    0  501  0.00000000000E+00  0.00000000000E+00  0.77018066524E+03  0.77018066525E+03  0.50400001928E-02 0. -1.
        1   -1    0    0  501    0  0.00000000000E+00  0.00000000000E+00 -0.13651892055E+04  0.13651892055E+04  0.50400001928E-02 0.  1.
    10030    2    1    2    0    0  0.00000000000E+00  0.00000000000E+00 -0.59500854030E+03  0.21353698708E+04  0.20507972406E+04 0.  0.
        2    1    3    3  502    0 -0.86584700449E+03  0.26735445497E+02 -0.86879867732E+03  0.12268728381E+04  0.25500000920E-02 0.  1.
       -2    1    3    3    0  502  0.86584700449E+03 -0.26735445497E+02  0.27379013702E+03  0.90849703267E+03  0.25500000920E-02 0. -1.
</event>
<event>
 5   0  0.4174030E-05  0.2205012E+04  0.7818609E-02  0.8516345E-01
       -1   -1    0    0    0  501  0.00000000000E+00  0.00000000000E+00  0.88354732317E+03  0.88354732318E+03  0.50400001928E-02 0.  1.
        1   -1    0    0  501    0  0.00000000000E+00  0.00000000000E+00 -0.13757259085E+04  0.13757259085E+04  0.50400001928E-02 0. -1.
    10030    2    1    2    0    0  0.00000000000E+00  0.00000000000E+00 -0.49217858537E+03  0.22592732317E+04  0.22050115137E+04 0.  0.
        2    1    3    3  502    0 -0.33949153198E+03  0.59087743150E+02  0.82695163440E+03  0.89587659157E+03  0.25500000920E-02 0.  1.
       -2    1    3    3    0  502  0.33949153198E+03 -0.59087743150E+02 -0.13191302198E+04  0.13633966402E+04  0.25500000920E-02 0. -1.
</event>
<event>
 5   0  0.9938176E-05  0.2161450E+04  0.7818609E-02  0.8534647E-01
        2   -1    0    0  501    0  0.00000000000E+00  0.00000000000E+00  0.13894916052E+04  0.13894916052E+04  0.25500000920E-02 0. -1.
       -2   -1    0    0    0  501  0.00000000000E+00  0.00000000000E+00 -0.84057137415E+03  0.84057137415E+03  0.25500000920E-02 0.  1.
    10030    2    1    2    0    0  0.00000000000E+00  0.00000000000E+00  0.54892023102E+03  0.22300629793E+04  0.21614503167E+04 0.  0.
        5    1    3    3  502    0  0.88903521183E+03  0.59671998339E+03  0.12322452119E+03  0.10778055108E+04  0.46999998093E+01 0.  1.
       -5    1    3    3    0  502 -0.88903521183E+03 -0.59671998339E+03  0.42569570983E+03  0.11522574685E+04  0.46999998093E+01 0. -1.
</event>
<event>
 5   0  0.9442578E-05  0.2230547E+04  0.7818609E-02  0.8505820E-01
        2   -1    0    0  501    0  0.00000000000E+00  0.00000000000E+00  0.25089111785E+04  0.25089111785E+04  0.25500000920E-02 0. -1.
       -2   -1    0    0    0  501  0.00000000000E+00  0.00000000000E+00 -0.49576704039E+03  0.49576704040E+03  0.25500000920E-02 0.  1.
    10030    2    1    2    0    0  0.00000000000E+00  0.00000000000E+00  0.20131441381E+04  0.30046782189E+04  0.22305474392E+04 0.  0.
        4    1    3    3  502    0 -0.57153178698E+03  0.89559199774E+03  0.54956319634E+03  0.11961416846E+04  0.12699999809E+01 0.  1.
       -4    1    3    3    0  502  0.57153178698E+03 -0.89559199774E+03  0.14635809418E+04  0.18085365343E+04  0.12699999809E+01 0. -1.
</event>
<event>
 5   0  0.4174030E-05  0.2201745E+04  0.7818609E-02  0.8517702E-01
        1   -1    0    0  501    0  0.00000000000E+00  0.00000000000E+00  0.11079881259E+04  0.11079881259E+04  0.50400001928E-02 0.  1.
       -1   -1    0    0    0  501  0.00000000000E+00  0.00000000000E+00 -0.10938027892E+04  0.10938027892E+04  0.50400001928E-02 0. -1.
    10030    2    1    2    0    0  0.00000000000E+00  0.00000000000E+00  0.14185336671E+02  0.22017909151E+04  0.22017452191E+04 0.  0.
        2    1    3    3  502    0  0.34133838071E+03 -0.55007342298E+03 -0.88333461752E+03  0.10951587590E+04  0.25500000920E-02 0. -1.
       -2    1    3    3    0  502 -0.34133838071E+03  0.55007342298E+03  0.89751995419E+03  0.11066321561E+04  0.25500000920E-02 0.  1.
</event>
<event>
 5   0  0.4188865E-05  0.2186613E+04  0.7818609E-02  0.8524021E-01
        1   -1    0    0  501    0  0.00000000000E+00  0.00000000000E+00  0.13248933308E+04  0.13248933308E+04  0.50400001928E-02 0. -1.
       -1   -1    0    0    0  501  0.00000000000E+00  0.00000000000E+00 -0.90220040886E+03  0.90220040887E+03  0.50400001928E-02 0.  1.
    10030    2    1    2    0    0  0.00000000000E+00  0.00000000000E+00  0.42269292191E+03  0.22270937396E+04  0.21866131846E+04 0.  0.
        3    1    3    3  502    0 -0.43053564578E+03 -0.72434172851E+03  0.92086875823E+03  0.12482111849E+04  0.10100000352E+00 0. -1.
       -3    1    3    3    0  502  0.43053564578E+03  0.72434172851E+03 -0.49817583632E+03  0.97888255478E+03  0.10100000352E+00 0.  1.
</event>
<event>
 5   0  0.4188865E-05  0.2199425E+04  0.7818609E-02  0.8518668E-01
       -1   -1    0    0    0  501  0.00000000000E+00  0.00000000000E+00  0.84613058928E+03  0.84613058929E+03  0.50400001928E-02 0.  1.
        1   -1    0    0  501    0  0.00000000000E+00  0.00000000000E+00 -0.14292913677E+04  0.14292913677E+04  0.50400001928E-02 0. -1.
    10030    2    1    2    0    0  0.00000000000E+00  0.00000000000E+00 -0.58316077839E+03  0.22754219570E+04  0.21994246040E+04 0.  0.
        3    1    3    3  502    0  0.12663777811E+02  0.60546666480E+03  0.65807916954E+03  0.89432569964E+03  0.10100000352E+00 0.  1.
       -3    1    3    3    0  502 -0.12663777811E+02 -0.60546666480E+03 -0.12412399479E+04  0.13810962573E+04  0.10100000352E+00 0. -1.
</event>
<event>
 5   0  0.9254673E-05  0.2223568E+04  0.7818609E-02  0.8508682E-01
        2   -1    0    0  501    0  0.00000000000E+00  0.00000000000E+00  0.17039827108E+04  0.17039827108E+04  0.25500000920E-02 0. -1.
       -2   -1    0    0    0  501  0.00000000000E+00  0.00000000000E+00 -0.72539666333E+03  0.72539666333E+03  0.25500000920E-02 0.  1.
    10030    2    1    2    0    0  0.00000000000E+00  0.00000000000E+00  0.97858604748E+03  0.24293793741E+04  0.22235677393E+04 0.  0.
        2    1    3    3  502    0 -0.70626249596E+03  0.75036394902E+03  0.94531132060E+03  0.13983798704E+04  0.25500000920E-02 0. -1.
       -2    1    3    3    0  502  0.70626249596E+03 -0.75036394902E+03  0.33274726879E+02  0.10309995037E+04  0.25500000920E-02 0.  1.
</event>
<event>
 5   0  0.4063293E-05  0.2032991E+04  0.7818609E-02  0.8591350E-01
       -1   -1    0    0    0  501  0.00000000000E+00  0.00000000000E+00  0.68608441188E+03  0.68608441190E+03  0.50400001928E-02 0. -1.
        1   -1    0    0  501    0  0.00000000000E+00  0.00000000000E+00 -0.15060288576E+04  0.15060288576E+04  0.50400001928E-02 0.  1.
    10030    2    1    2    0    0  0.00000000000E+00  0.00000000000E+00 -0.81994444576E+03  0.21921132695E+04  0.20329908245E+04 0.  0.
        1    1    3    3  502    0  0.58143585749E+03 -0.33522068284E+03 -0.12331538624E+04  0.14039618979E+04  0.50400001928E-02 0.  1.
       -1    1    3    3    0  502 -0.58143585749E+03  0.33522068284E+03  0.41320941660E+03  0.78815137161E+03  0.50400001928E-02 0. -1.
</event>
<event>
 5   0  0.9938176E-05  0.1657671E+04  0.7818609E-02  0.8785881E-01
       -2   -1    0    0    0  501  0.00000000000E+00  0.00000000000E+00  0.82180241276E+03  0.82180241277E+03  0.25500000920E-02 0.  1.
        2   -1    0    0  501    0  0.00000000000E+00  0.00000000000E+00 -0.83592881850E+03  0.83592881850E+03  0.25500000920E-02 0. -1.
    10030    2    1    2    0    0  0.00000000000E+00  0.00000000000E+00 -0.14126405738E+02  0.16577312313E+04  0.16576710409E+04 0.  0.
        5    1    3    3  502    0 -0.51638723065E+03 -0.35002857960E+03  0.53864008284E+03  0.82421538894E+03  0.46999998093E+01 0.  1.
       -5    1    3    3    0  502  0.51638723065E+03  0.35002857960E+03 -0.55276648858E+03  0.83351584233E+03  0.46999998093E+01 0. -1.
</event>
<event>
 5   0  0.4188865E-05  0.2355121E+04  0.7818609E-02  0.8456499E-01
       -1   -1    0    0    0  501  0.00000000000E+00  0.00000000000E+00  0.13966138908E+04  0.13966138909E+04  0.50400001928E-02 0. -1.
        1   -1    0    0  501    0  0.00000000000E+00  0.00000000000E+00 -0.99286501391E+03  0.99286501392E+03  0.50400001928E-02 0.  1.
    10030    2    1    2    0    0  0.00000000000E+00  0.00000000000E+00  0.40374887694E+03  0.23894789048E+04  0.23551212879E+04 0.  0.
        3    1    3    3  502    0  0.10949438109E+04 -0.33220682637E+03 -0.80366742055E+02  0.11470493224E+04  0.10100000352E+00 0.  1.
       -3    1    3    3    0  502 -0.10949438109E+04  0.33220682637E+03  0.48411561900E+03  0.12424295824E+04  0.10100000352E+00 0. -1.
</event>
<event>
 5   0  0.9254673E-05  0.2196740E+04  0.7818609E-02  0.8519786E-01
        2   -1    0    0  501    0  0.00000000000E+00  0.00000000000E+00  0.20694600906E+04  0.20694600906E+04  0.25500000920E-02 0.  1.
       -2   -1    0    0    0  501  0.00000000000E+00  0.00000000000E+00 -0.58296186192E+03  0.58296186193E+03  0.25500000920E-02 0. -1.
    10030    2    1    2    0    0  0.00000000000E+00  0.00000000000E+00  0.14864982287E+04  0.26524219525E+04  0.21967396820E+04 0.  0.
        2    1    3    3  502    0 -0.10300367736E+03  0.45818716169E+03 -0.45562637379E+03  0.65432455646E+03  0.25500000920E-02 0. -1.
       -2    1    3    3    0  502  0.10300367736E+03 -0.45818716169E+03  0.19421246025E+04  0.19980973961E+04  0.25500000920E-02 0.  1.
</event>
<event>
 5   0  0.3283125E-05  0.2177382E+04  0.7818609E-02  0.8527902E-01
        3   -1    0    0  501    0  0.00000000000E+00  0.00000000000E+00  0.43928104604E+03  0.43928105765E+03  0.10100000352E+00 0. -1.
       -3   -1    0    0    0  501  0.00000000000E+00  0.00000000000E+00 -0.26981542743E+04  0.26981542762E+04  0.10100000352E+00 0.  1.
    10030    2    1    2    0    0  0.00000000000E+00  0.00000000000E+00 -0.22588732283E+04  0.31374353338E+04  0.21773819630E+04 0.  0.
        1    1    3    3  502    0 -0.97892909467E+03  0.47628337258E+03 -0.11150252600E+04  0.15583418604E+04  0.50400001928E-02 0.  1.
       -1    1    3    3    0  502  0.97892909467E+03 -0.47628337258E+03 -0.11438479682E+04  0.15790934734E+04  0.50400001928E-02 0. -1.
</event>
<event>
 5   0  0.9938176E-05  0.2182728E+04  0.7818609E-02  0.8525651E-01
       -2   -1    0    0    0  501  0.00000000000E+00  0.00000000000E+00  0.80740232030E+03  0.80740232031E+03  0.25500000920E-02 0.  1.
        2   -1    0    0  501    0  0.00000000000E+00  0.00000000000E+00 -0.14751948858E+04  0.14751948858E+04  0.25500000920E-02 0. -1.
    10030    2    1    2    0    0  0.00000000000E+00  0.00000000000E+00 -0.66779256551E+03  0.22825972061E+04  0.21827283603E+04 0.  0.
        5    1    3    3  502    0 -0.15591347433E+03  0.44878035217E+02 -0.14625022422E+04  0.14714815487E+04  0.46999998093E+01 0. -1.
       -5    1    3    3    0  502  0.15591347433E+03 -0.44878035217E+02  0.79470967671E+03  0.81111565746E+03  0.46999998093E+01 0.  1.
</event>
<event>
 5   0  0.4063293E-05  0.2190423E+04  0.7818609E-02  0.8522425E-01
       -1   -1    0    0    0  501  0.00000000000E+00  0.00000000000E+00  0.57217772111E+03  0.57217772113E+03  0.50400001928E-02 0.  1.
        1   -1    0    0  501    0  0.00000000000E+00  0.00000000000E+00 -0.20963556680E+04  0.20963556680E+04  0.50400001928E-02 0. -1.
    10030    2    1    2    0    0  0.00000000000E+00  0.00000000000E+00 -0.15241779469E+04  0.26685333892E+04  0.21904227983E+04 0.  0.
        1    1    3    3  502    0  0.36296461544E+03  0.71534469835E+03  0.14634318016E+03  0.81540031636E+03  0.50400001928E-02 0.  1.
       -1    1    3    3    0  502 -0.36296461544E+03 -0.71534469835E+03 -0.16705211271E+04  0.18531330728E+04  0.50400001928E-02 0. -1.
</event>
<event>
 5   0  0.4133418E-05  0.2195330E+04  0.7818609E-02  0.8520374E-01
       -1   -1    0    0    0  501  0.00000000000E+00  0.00000000000E+00  0.11248222772E+04  0.11248222772E+04  0.50400001928E-02 0.  1.
        1   -1    0    0  501    0  0.00000000000E+00  0.00000000000E+00 -0.10711632278E+04  0.10711632278E+04  0.50400001928E-02 0. -1.
    10030    2    1    2    0    0  0.00000000000E+00  0.00000000000E+00  0.53659049412E+02  0.21959855050E+04  0.21953298259E+04 0.  0.
        4    1    3    3  502    0 -0.27646742190E+03 -0.87550675350E+03 -0.57494830736E+03  0.10832882718E+04  0.12699999809E+01 0. -1.
       -4    1    3    3    0  502  0.27646742190E+03  0.87550675350E+03  0.62860735677E+03  0.11126972332E+04  0.12699999809E+01 0.  1.
</event>
<event>
 5   0  0.9179618E-05  0.2178684E+04  0.7818609E-02  0.8527353E-01
       -2   -1    0    0    0  501  0.00000000000E+00  0.00000000000E+00  0.57847715917E+03  0.57847715918E+03  0.25500000920E-02 0. -1.
        2   -1    0    0  501    0  0.00000000000E+00  0.00000000000E+00 -0.20513610394E+04  0.20513610394E+04  0.25500000920E-02 0.  1.
    10030    2    1    2    0    0  0.00000000000E+00  0.00000000000E+00 -0.14728838802E+04  0.26298381985E+04  0.21786835534E+04 0.  0.
        3    1    3    3  502    0  0.63909582212E+03  0.46706506096E+03  0.16690983826E+03  0.80898216626E+03  0.10100000352E+00 0. -1.
       -3    1    3    3    0  502 -0.63909582212E+03 -0.46706506096E+03 -0.16397937185E+04  0.18208560323E+04  0.10100000352E+00 0.  1.
</event>
<event>
 5   0  0.4174075E-05  0.2202810E+04  0.7818609E-02  0.8517259E-01
        1   -1    0    0  501    0  0.00000000000E+00  0.00000000000E+00  0.18524668893E+04  0.18524668893E+04  0.50400001928E-02 0. -1.
       -1   -1    0    0    0  501  0.00000000000E+00  0.00000000000E+00 -0.65485301042E+03  0.65485301044E+03  0.50400001928E-02 0.  1.
    10030    2    1    2    0    0  0.00000000000E+00  0.00000000000E+00  0.11976138789E+04  0.25073198997E+04  0.22028104950E+04 0.  0.
        5    1    3    3  502    0  0.10118714023E+04 -0.17663509050E+03  0.10512295515E+04  0.14697582624E+04  0.46999998093E+01 0.  1.
       -5    1    3    3    0  502 -0.10118714023E+04  0.17663509050E+03  0.14638432736E+03  0.10375616373E+04  0.46999998093E+01 0. -1.
</event>
<event>
 5   0  0.9457742E-05  0.2173314E+04  0.7818609E-02  0.8529618E-01
        2   -1    0    0  501    0  0.00000000000E+00  0.00000000000E+00  0.15949455918E+04  0.15949455918E+04  0.25500000920E-02 0. -1.
       -2   -1    0    0    0  501  0.00000000000E+00  0.00000000000E+00 -0.74035371649E+03  0.74035371649E+03  0.25500000920E-02 0.  1.
    10030    2    1    2    0    0  0.00000000000E+00  0.00000000000E+00  0.85459187527E+03  0.23352993083E+04  0.21733144241E+04 0.  0.
        1    1    3    3  502    0  0.90960712145E+03 -0.14489868099E+03 -0.19225737701E+03  0.94092701214E+03  0.50400001928E-02 0.  1.
       -1    1    3    3    0  502 -0.90960712145E+03  0.14489868099E+03  0.10468492523E+04  0.13943722961E+04  0.50400001928E-02 0. -1.
</event>
<event>
 5   0  0.4063293E-05  0.2200489E+04  0.7818609E-02  0.8518225E-01
        1   -1    0    0  501    0  0.00000000000E+00  0.00000000000E+00  0.12974212587E+04  0.12974212587E+04  0.50400001928E-02 0. -1.
       -1   -1    0    0    0  501  0.00000000000E+00  0.00000000000E+00 -0.93303400267E+03  0.93303400269E+03  0.50400001928E-02 0.  1.
    10030    2    1    2    0    0  0.00000000000E+00  0.00000000000E+00  0.36438725606E+03  0.22304552614E+04  0.22004891731E+04 0.  0.
        1    1    3    3  502    0 -0.36040274596E+03 -0.10325599178E+04  0.60272510018E+02  0.10953094990E+04  0.50400001928E-02 0.  1.
       -1    1    3    3    0  502  0.36040274596E+03  0.10325599178E+04  0.30411474605E+03  0.11351457624E+04  0.50400001928E-02 0. -1.
</event>
<event>
 5   0  0.9254673E-05  0.2252976E+04  0.7818609E-02  0.8496696E-01
       -2   -1    0    0    0  501  0.00000000000E+00  0.00000000000E+00  0.12270554852E+04  0.12270554852E+04  0.25500000920E-02 0.  1.
        2   -1    0    0  501    0  0.00000000000E+00  0.00000000000E+00 -0.10341627295E+04  0.10341627295E+04  0.25500000920E-02 0. -1.
    10030    2    1    2    0    0  0.00000000000E+00  0.00000000000E+00  0.19289275567E+03  0.22612182148E+04  0.22529758542E+04 0.  0.
        2    1    3    3  502    0 -0.36800060919E+03 -0.95519034905E+03 -0.37555274423E+03  0.10903453192E+04  0.25500000920E-02 0. -1.
       -2    1    3    3    0  502  0.36800060919E+03  0.95519034905E+03  0.56844549990E+03  0.11708728956E+04  0.25500000920E-02 0.  1.
</event>
<event>
 5   0  0.4188865E-05  0.2194009E+04  0.7818609E-02  0.8520926E-01
       -1   -1    0    0    0  501  0.00000000000E+00  0.00000000000E+00  0.11181137646E+04  0.11181137646E+04  0.50400001928E-02 0. -1.
        1   -1    0    0  501    0  0.00000000000E+00  0.00000000000E+00 -0.10762937826E+04  0.10762937826E+04  0.50400001928E-02 0.  1.
    10030    2    1    2    0    0  0.00000000000E+00  0.00000000000E+00  0.41819982034E+02  0.21944075472E+04  0.21940090182E+04 0.  0.
        3    1    3    3  502    0 -0.71140082253E+03 -0.45675044768E+03 -0.67829265390E+03  0.10838787000E+04  0.10100000352E+00 0.  1.
       -3    1    3    3    0  502  0.71140082253E+03  0.45675044768E+03  0.72011263594E+03  0.11105288472E+04  0.10100000352E+00 0. -1.
</event>
<event>
 5   0  0.9442578E-05  0.2197102E+04  0.7818609E-02  0.8519635E-01
       -2   -1    0    0    0  501  0.00000000000E+00  0.00000000000E+00  0.12569998457E+04  0.12569998457E+04  0.25500000920E-02 0.  1.
        2   -1    0    0  501    0  0.00000000000E+00  0.00000000000E+00 -0.96007555671E+03  0.96007555672E+03  0.25500000920E-02 0. -1.
    10030    2    1    2    0    0  0.00000000000E+00  0.00000000000E+00  0.29692428902E+03  0.22170754024E+04  0.21971024798E+04 0.  0.
        4    1    3    3  502    0 -0.97151844439E+03  0.11968517084E+03 -0.35470950062E+03  0.10411498790E+04  0.12699999809E+01 0. -1.
       -4    1    3    3    0  502  0.97151844439E+03 -0.11968517084E+03  0.65163378963E+03  0.11759255234E+04  0.12699999809E+01 0.  1.
</event>
<event>
 5   0  0.9457742E-05  0.2182968E+04  0.7818609E-02  0.8525551E-01
        2   -1    0    0  501    0  0.00000000000E+00  0.00000000000E+00  0.13692189559E+04  0.13692189559E+04  0.25500000920E-02 0.  1.
       -2   -1    0    0    0  501  0.00000000000E+00  0.00000000000E+00 -0.87008548733E+03  0.87008548734E+03  0.25500000920E-02 0. -1.
    10030    2    1    2    0    0  0.00000000000E+00  0.00000000000E+00  0.49913346852E+03  0.22393044432E+04  0.21829682018E+04 0.  0.
        1    1    3    3  502    0 -0.10019342809E+04 -0.25263403264E+03 -0.11113438253E+03  0.10392531494E+04  0.50400001928E-02 0.  1.
       -1    1    3    3    0  502  0.10019342809E+04  0.25263403264E+03  0.61026785105E+03  0.12000512938E+04  0.50400001928E-02 0. -1.
</event>
<event>
 5   0  0.4188865E-05  0.2127870E+04  0.7818609E-02  0.8549065E-01
       -1   -1    0    0    0  501  0.00000000000E+00  0.00000000000E+00  0.80083335023E+03  0.80083335025E+03  0.50400001928E-02 0.  1.
        1   -1    0    0  501    0  0.00000000000E+00  0.00000000000E+00 -0.14134743123E+04  0.14134743123E+04  0.50400001928E-02 0. -1.
    10030    2    1    2    0    0  0.00000000000E+00  0.00000000000E+00 -0.61264096208E+03  0.22143076626E+04  0.21278697037E+04 0.  0.
        3    1    3    3  502    0  0.53795797107E+03 -0.88546530528E+03 -0.55803434680E+03  0.11767964683E+04  0.10100000352E+00 0. -1.
       -3    1    3    3    0  502 -0.53795797107E+03  0.88546530528E+03 -0.54606615276E+02  0.10375111942E+04  0.10100000352E+00 0.  1.
</event>
<event>
 5   0  0.4174075E-05  0.2213469E+04  0.7818609E-02  0.8512843E-01
        1   -1    0    0  501    0  0.00000000000E+00  0.00000000000E+00  0.12762644360E+04  0.12762644361E+04  0.50400001928E-02 0. -1.
       -1   -1    0    0    0  501  0.00000000000E+00  0.00000000000E+00 -0.95972329723E+03  0.95972329724E+03  0.50400001928E-02 0.  1.
    10030    2    1    2    0    0  0.00000000000E+00  0.00000000000E+00  0.31654113881E+03  0.22359877333E+04  0.22134685114E+04 0.  0.
        5    1    3    3  502    0 -0.62216210322E+02 -0.10459760833E+04  0.51812757196E+03  0.11689375922E+04  0.46999998093E+01 0. -1.
       -5    1    3    3    0  502  0.62216210322E+02  0.10459760833E+04 -0.20158643315E+03  0.10670501411E+04  0.46999998093E+01 0.  1.
</event>
<event>
 5   0  0.4188865E-05  0.2023083E+04  0.7818609E-02  0.8595904E-01
        1   -1    0    0  501    0  0.00000000000E+00  0.00000000000E+00  0.19136341520E+04  0.19136341520E+04  0.50400001928E-02 0.  1.
       -1   -1    0    0    0  501  0.00000000000E+00  0.00000000000E+00 -0.53469791058E+03  0.53469791060E+03  0.50400001928E-02 0. -1.
    10030    2    1    2    0    0  0.00000000000E+00  0.00000000000E+00  0.13789362415E+04  0.24483320626E+04  0.20230829768E+04 0.  0.
        3    1    3    3  502    0 -0.68512155383E+03 -0.21822312471E+03 -0.17156351601E+03  0.73922048531E+03  0.10100000352E+00 0. -1.
       -3    1    3    3    0  502  0.68512155383E+03  0.21822312471E+03  0.15504997575E+04  0.17091115773E+04  0.10100000352E+00 0.  1.
</event>
<event>
 5   0  0.4174075E-05  0.2184535E+04  0.7818609E-02  0.8524893E-01
        1   -1    0    0  501    0  0.00000000000E+00  0.00000000000E+00  0.14755179274E+04  0.14755179274E+04  0.50400001928E-02 0. -1.
       -1   -1    0    0    0  501  0.00000000000E+00  0.00000000000E+00 -0.80856221441E+03  0.80856221442E+03  0.50400001928E-02 0.  1.
    10030    2    1    2    0    0  0.00000000000E+00  0.00000000000E+00  0.66695571296E+03  0.22840801418E+04  0.21845347722E+04 0.  0.
        5    1    3    3  502    0  0.86337211442E+03  0.17968355116E+03 -0.34034877716E+03  0.94528142192E+03  0.46999998093E+01 0.  1.
       -5    1    3    3    0  502 -0.86337211442E+03 -0.17968355116E+03  0.10073044901E+04  0.13387987199E+04  0.46999998093E+01 0. -1.
</event>
<event>
 5   0  0.9254673E-05  0.2047892E+04  0.7818609E-02  0.8584551E-01
       -2   -1    0    0    0  501  0.00000000000E+00  0.00000000000E+00  0.62575324162E+03  0.62575324162E+03  0.25500000920E-02 0. -1.
        2   -1    0    0  501    0  0.00000000000E+00  0.00000000000E+00 -0.16755250335E+04  0.16755250335E+04  0.25500000920E-02 0.  1.
    10030    2    1    2    0    0  0.00000000000E+00  0.00000000000E+00 -0.10497717919E+04  0.23012782751E+04  0.20478918147E+04 0.  0.
        2    1    3    3  502    0  0.71345716322E+02  0.96593367391E+03 -0.89817273900E+03  0.13209210206E+04  0.25500000920E-02 0.  1.
       -2    1    3    3    0  502 -0.71345716322E+02 -0.96593367391E+03 -0.15159905291E+03  0.98035725452E+03  0.25500000920E-02 0. -1.
</event>
<event>
 5   0  0.4188865E-05  0.2160620E+04  0.7818609E-02  0.8535000E-01
        1   -1    0    0  501    0  0.00000000000E+00  0.00000000000E+00  0.17995614901E+04  0.17995614901E+04  0.50400001928E-02 0. -1.
       -1   -1    0    0    0  501  0.00000000000E+00  0.00000000000E+00 -0.64852986351E+03  0.64852986353E+03  0.50400001928E-02 0.  1.
    10030    2    1    2    0    0  0.00000000000E+00  0.00000000000E+00  0.11510316265E+04  0.24480913536E+04  0.21606196959E+04 0.  0.
        3    1    3    3  502    0  0.84313685540E+03  0.56296093682E+03  0.99834955127E+03  0.14228515769E+04  0.10100000352E+00 0. -1.
       -3    1    3    3    0  502 -0.84313685540E+03 -0.56296093682E+03  0.15268207528E+03  0.10252397766E+04  0.10100000352E+00 0.  1.
</event>
<event>
 5   0  0.9457742E-05  0.2175302E+04  0.7818609E-02  0.8528779E-01
       -2   -1    0    0    0  501  0.00000000000E+00  0.00000000000E+00  0.31105041819E+04  0.31105041819E+04  0.25500000920E-02 0. -1.
        2   -1    0    0  501    0  0.00000000000E+00  0.00000000000E+00 -0.38031913131E+03  0.38031913132E+03  0.25500000920E-02 0.  1.
    10030    2    1    2    0    0  0.00000000000E+00  0.00000000000E+00  0.27301850506E+04  0.34908233132E+04  0.21753015868E+04 0.  0.
        1    1    3    3  502    0 -0.61370885554E+03 -0.31500100290E+03  0.15648207118E+02  0.69000656346E+03  0.50400001928E-02 0.  1.
       -1    1    3    3    0  502  0.61370885554E+03  0.31500100290E+03  0.27145368434E+04  0.28008167497E+04  0.50400001928E-02 0. -1.
</event>
<event>
 5   0  0.9442578E-05  0.2198793E+04  0.7818609E-02  0.8518931E-01
        2   -1    0    0  501    0  0.00000000000E+00  0.00000000000E+00  0.92565717606E+03  0.92565717607E+03  0.25500000920E-02 0.  1.
       -2   -1    0    0    0  501  0.00000000000E+00  0.00000000000E+00 -0.13057458312E+04  0.13057458312E+04  0.25500000920E-02 0. -1.
    10030    2    1    2    0    0  0.00000000000E+00  0.00000000000E+00 -0.38008865518E+03  0.22314030073E+04  0.21987933043E+04 0.  0.
        4    1    3    3  502    0  0.10597519556E+04  0.15395919636E+03  0.62429861711E+02  0.10726960157E+04  0.12699999809E+01 0.  1.
       -4    1    3    3    0  502 -0.10597519556E+04 -0.15395919636E+03 -0.44251851689E+03  0.11587069916E+04  0.12699999809E+01 0. -1.
</event>
<event>
 5   0  0.4188865E-05  0.2021837E+04  0.7818609E-02  0.8596479E-01
        1   -1    0    0  501    0  0.00000000000E+00  0.00000000000E+00  0.15208326349E+04  0.15208326349E+04  0.50400001928E-02 0.  1.
       -1   -1    0    0    0  501  0.00000000000E+00  0.00000000000E+00 -0.67197118910E+03  0.67197118911E+03  0.50400001928E-02 0. -1.
    10030    2    1    2    0    0  0.00000000000E+00  0.00000000000E+00  0.84886144584E+03  0.21928038241E+04  0.20218365059E+04 0.  0.
        3    1    3    3  502    0 -0.35536350170E+03  0.38951150038E+03  0.13598936407E+04  0.14585311624E+04  0.10100000352E+00 0.  1.
       -3    1    3    3    0  502  0.35536350170E+03 -0.38951150038E+03 -0.51103219490E+03  0.73427266169E+03  0.10100000352E+00 0. -1.
</event>
<event>
 5   0  0.9179618E-05  0.2195535E+04  0.7818609E-02  0.8520289E-01
        2   -1    0    0  501    0  0.00000000000E+00  0.00000000000E+00  0.90856733200E+03  0.90856733200E+03  0.25500000920E-02 0. -1.
       -2   -1    0    0    0  501  0.00000000000E+00  0.00000000000E+00 -0.13263662373E+04  0.13263662373E+04  0.25500000920E-02 0.  1.
    10030    2    1    2    0    0  0.00000000000E+00  0.00000000000E+00 -0.41779890526E+03  0.22349335693E+04  0.21955345895E+04 0.  0.
        3    1    3    3  502    0 -0.53574331537E+03 -0.72751739011E+03 -0.84361947253E+03  0.12361214655E+04  0.10100000352E+00 0.  1.
       -3    1    3    3    0  502  0.53574331537E+03  0.72751739011E+03  0.42582056727E+03  0.99881210375E+03  0.10100000352E+00 0. -1.
</event>
<event>
 5   0  0.9179618E-05  0.2160131E+04  0.7818609E-02  0.8535208E-01
        2   -1    0    0  501    0  0.00000000000E+00  0.00000000000E+00  0.16185761906E+04  0.16185761906E+04  0.25500000920E-02 0.  1.
       -2   -1    0    0    0  501  0.00000000000E+00  0.00000000000E+00 -0.72072101587E+03  0.72072101588E+03  0.25500000920E-02 0. -1.
    10030    2    1    2    0    0  0.00000000000E+00  0.00000000000E+00  0.89785517473E+03  0.23392972065E+04  0.21601313630E+04 0.  0.
        3    1    3    3  502    0  0.65382379427E+03  0.85501361908E+03  0.35201774065E+03  0.11324532408E+04  0.10100000352E+00 0. -1.
       -3    1    3    3    0  502 -0.65382379427E+03 -0.85501361908E+03  0.54583743407E+03  0.12068439656E+04  0.10100000352E+00 0.  1.
</event>
<event>
 5   0  0.4174030E-05  0.2177828E+04  0.7818609E-02  0.8527714E-01
       -1   -1    0    0    0  501  0.00000000000E+00  0.00000000000E+00  0.10483717731E+04  0.10483717731E+04  0.50400001928E-02 0.  1.
        1   -1    0    0  501    0  0.00000000000E+00  0.00000000000E+00 -0.11310238769E+04  0.11310238769E+04  0.50400001928E-02 0. -1.
    10030    2    1    2    0    0  0.00000000000E+00  0.00000000000E+00 -0.82652103820E+02  0.21793956501E+04  0.21778278236E+04 0.  0.
        2    1    3    3  502    0 -0.68148924728E+03 -0.67376026954E+03  0.47610808667E+03  0.10700744858E+04  0.25500000920E-02 0.  1.
       -2    1    3    3    0  502  0.68148924728E+03  0.67376026954E+03 -0.55876019049E+03  0.11093211643E+04  0.25500000920E-02 0. -1.
</event>
<event>
 5   0  0.4174075E-05  0.2124413E+04  0.7818609E-02  0.8550565E-01
        1   -1    0    0  501    0  0.00000000000E+00  0.00000000000E+00  0.24418452397E+04  0.24418452397E+04  0.50400001928E-02 0.  1.
       -1   -1    0    0    0  501  0.00000000000E+00  0.00000000000E+00 -0.46206165619E+03  0.46206165622E+03  0.50400001928E-02 0. -1.
    10030    2    1    2    0    0  0.00000000000E+00  0.00000000000E+00  0.19797835835E+04  0.29039068959E+04  0.21244133832E+04 0.  0.
        5    1    3    3  502    0  0.41494275481E+03 -0.80837059882E+03  0.17418484277E+04  0.19646115519E+04  0.46999998093E+01 0.  1.
       -5    1    3    3    0  502 -0.41494275481E+03  0.80837059882E+03  0.23793515572E+03  0.93929534394E+03  0.46999998093E+01 0. -1.
</event>
<event>
 5   0  0.4063293E-05  0.2212308E+04  0.7818609E-02  0.8513323E-01
        1   -1    0    0  501    0  0.00000000000E+00  0.00000000000E+00  0.11366855282E+04  0.11366855282E+04  0.50400001928E-02 0. -1.
       -1   -1    0    0    0  501  0.00000000000E+00  0.00000000000E+00 -0.10764426257E+04  0.10764426257E+04  0.50400001928E-02 0.  1.
    10030    2    1    2    0    0  0.00000000000E+00  0.00000000000E+00  0.60242902533E+02  0.22131281539E+04  0.22123080749E+04 0.  0.
        1    1    3    3  502    0  0.44459637521E+03 -0.92309649473E+03 -0.38693077248E+03  0.10952116225E+04  0.50400001928E-02 0.  1.
       -1    1    3    3    0  502 -0.44459637521E+03  0.92309649473E+03  0.44717367501E+03  0.11179165314E+04  0.50400001928E-02 0. -1.
</event>
<event>
 5   0  0.9938176E-05  0.2260668E+04  0.7818609E-02  0.8493593E-01
       -2   -1    0    0    0  501  0.00000000000E+00  0.00000000000E+00  0.72010874238E+03  0.72010874238E+03  0.25500000920E-02 0.  1.
        2   -1    0    0  501    0  0.00000000000E+00  0.00000000000E+00 -0.17742528140E+04  0.17742528140E+04  0.25500000920E-02 0. -1.
    10030    2    1    2    0    0  0.00000000000E+00  0.00000000000E+00 -0.10541440716E+04  0.24943615564E+04  0.22606680097E+04 0.  0.
        5    1    3    3  502    0 -0.34686455460E+03 -0.61034005963E+03  0.45039676788E+03  0.83409192907E+03  0.46999998093E+01 0.  1.
       -5    1    3    3    0  502  0.34686455460E+03  0.61034005963E+03 -0.15045408395E+04  0.16602696273E+04  0.46999998093E+01 0. -1.
</event>
<event>
 5   0  0.9179618E-05  0.2197377E+04  0.7818609E-02  0.8519521E-01
        2   -1    0    0  501    0  0.00000000000E+00  0.00000000000E+00  0.26279454749E+04  0.26279454749E+04  0.25500000920E-02 0.  1.
       -2   -1    0    0    0  501  0.00000000000E+00  0.00000000000E+00 -0.45933854230E+03  0.45933854231E+03  0.25500000920E-02 0. -1.
    10030    2    1    2    0    0  0.00000000000E+00  0.00000000000E+00  0.21686069326E+04  0.30872840172E+04  0.21973772036E+04 0.  0.
        3    1    3    3  502    0 -0.25137646718E+03  0.47463668532E+03 -0.26232002888E+03  0.59773064089E+03  0.10100000352E+00 0. -1.
       -3    1    3    3    0  502  0.25137646718E+03 -0.47463668532E+03  0.24309269615E+04  0.24895533763E+04  0.10100000352E+00 0.  1.
</event>
<event>
 5   0  0.9442578E-05  0.2142278E+04  0.7818609E-02  0.8542845E-01
        2   -1    0    0  501    0  0.00000000000E+00  0.00000000000E+00  0.16468791129E+04  0.16468791129E+04  0.25500000920E-02 0. -1.
       -2   -1    0    0    0  501  0.00000000000E+00  0.00000000000E+00 -0.69667463933E+03  0.69667463933E+03  0.25500000920E-02 0.  1.
    10030    2    1    2    0    0  0.00000000000E+00  0.00000000000E+00  0.95020447358E+03  0.23435537522E+04  0.21422781444E+04 0.  0.
        4    1    3    3  502    0 -0.75759343234E+03 -0.20505297362E+03  0.12725209975E+04  0.14950939210E+04  0.12699999809E+01 0. -1.
       -4    1    3    3    0  502  0.75759343234E+03  0.20505297362E+03 -0.32231652391E+03  0.84845983122E+03  0.12699999809E+01 0.  1.
</event>
<event>
 5   0  0.9179618E-05  0.2186803E+04  0.7818609E-02  0.8523941E-01
       -2   -1    0    0    0  501  0.00000000000E+00  0.00000000000E+00  0.59703368356E+03  0.59703368357E+03  0.25500000920E-02 0. -1.
        2   -1    0    0  501    0  0.00000000000E+00  0.00000000000E+00 -0.20024448439E+04  0.20024448439E+04  0.25500000920E-02 0.  1.
    10030    2    1    2    0    0  0.00000000000E+00  0.00000000000E+00 -0.14054111603E+04  0.25994785275E+04  0.21868031656E+04 0.  0.
        3    1    3    3  502    0  0.98943796469E+03 -0.45743540773E+03 -0.80421608180E+03  0.13546210373E+04  0.10100000352E+00 0. -1.
       -3    1    3    3    0  502 -0.98943796469E+03  0.45743540773E+03 -0.60119507853E+03  0.12448574902E+04  0.10100000352E+00 0.  1.
</event>
<event>
 5   0  0.4174075E-05  0.2197242E+04  0.7818609E-02  0.8519577E-01
        1   -1    0    0  501    0  0.00000000000E+00  0.00000000000E+00  0.10401803350E+04  0.10401803351E+04  0.50400001928E-02 0.  1.
       -1   -1    0    0    0  501  0.00000000000E+00  0.00000000000E+00 -0.11603450965E+04  0.11603450965E+04  0.50400001928E-02 0. -1.
    10030    2    1    2    0    0  0.00000000000E+00  0.00000000000E+00 -0.12016476148E+03  0.22005254316E+04  0.21972420452E+04 0.  0.
        5    1    3    3  502    0 -0.23240506435E+02  0.10021947022E+03  0.10353354248E+04  0.10404449025E+04  0.46999998093E+01 0.  1.
       -5    1    3    3    0  502  0.23240506435E+02 -0.10021947022E+03 -0.11555001863E+04  0.11600805290E+04  0.46999998093E+01 0. -1.
</event>
<event>
 5   0  0.4133418E-05  0.2202417E+04  0.7818609E-02  0.8517423E-01
        1   -1    0    0  501    0  0.00000000000E+00  0.00000000000E+00  0.12722237655E+04  0.12722237655E+04  0.50400001928E-02 0.  1.
       -1   -1    0    0    0  501  0.00000000000E+00  0.00000000000E+00 -0.95318115111E+03  0.95318115112E+03  0.50400001928E-02 0. -1.
    10030    2    1    2    0    0  0.00000000000E+00  0.00000000000E+00  0.31904261437E+03  0.22254049166E+04  0.22024165939E+04 0.  0.
        4    1    3    3  502    0  0.79348677764E+03  0.37376145380E+02 -0.61109226296E+03  0.10022243308E+04  0.12699999809E+01 0. -1.
       -4    1    3    3    0  502 -0.79348677764E+03 -0.37376145380E+02  0.93013487733E+03  0.12231805858E+04  0.12699999809E+01 0.  1.
</event>
<event>
 5   0  0.4174075E-05  0.2147889E+04  0.7818609E-02  0.8540436E-01
        1   -1    0    0  501    0  0.00000000000E+00  0.00000000000E+00  0.18602591345E+04  0.18602591345E+04  0.50400001928E-02 0.  1.
       -1   -1    0    0    0  501  0.00000000000E+00  0.00000000000E+00 -0.61999801242E+03  0.61999801244E+03  0.50400001928E-02 0. -1.
    10030    2    1    2    0    0  0.00000000000E+00  0.00000000000E+00  0.12402611221E+04  0.24802571470E+04  0.21478891648E+04 0.  0.
        5    1    3    3  502    0 -0.71076422806E+03  0.35026921037E+03  0.14571873213E+04  0.16587016872E+04  0.46999998093E+01 0.  1.
       -5    1    3    3    0  502  0.71076422806E+03 -0.35026921037E+03 -0.21692619922E+03  0.82155545980E+03  0.46999998093E+01 0. -1.
</event>
<event>
 5   0  0.4133418E-05  0.2193846E+04  0.7818609E-02  0.8520994E-01
        1   -1    0    0  501    0  0.00000000000E+00  0.00000000000E+00  0.27151489979E+04  0.27151489980E+04  0.50400001928E-02 0.  1.
       -1   -1    0    0    0  501  0.00000000000E+00  0.00000000000E+00 -0.44315785832E+03  0.44315785835E+03  0.50400001928E-02 0. -1.
    10030    2    1    2    0    0  0.00000000000E+00  0.00000000000E+00  0.22719911396E+04  0.31583068563E+04  0.21938455871E+04 0.  0.
        4    1    3    3  502    0 -0.36476959627E+03  0.35723307119E+03 -0.26167260692E+03  0.57371290000E+03  0.12699999809E+01 0. -1.
       -4    1    3    3    0  502  0.36476959627E+03 -0.35723307119E+03  0.25336637465E+04  0.25845939563E+04  0.12699999809E+01 0.  1.
</event>
<event>
 5   0  0.9179618E-05  0.2183242E+04  0.7818609E-02  0.8525436E-01
       -2   -1    0    0    0  501  0.00000000000E+00  0.00000000000E+00  0.56985725562E+03  0.56985725563E+03  0.25500000920E-02 0. -1.
        2   -1    0    0  501    0  0.00000000000E+00  0.00000000000E+00 -0.20911132762E+04  0.20911132762E+04  0.25500000920E-02 0.  1.
    10030    2    1    2    0    0  0.00000000000E+00  0.00000000000E+00 -0.15212560206E+04  0.26609705319E+04  0.21832416933E+04 0.  0.
        3    1    3    3  502    0  0.44324722994E+03  0.84317771146E+03 -0.14104060558E+04  0.17019582875E+04  0.10100000352E+00 0.  1.
       -3    1    3    3    0  502 -0.44324722994E+03 -0.84317771146E+03 -0.11084996483E+03  0.95901224437E+03  0.10100000352E+00 0. -1.
</event>
<event>
 5   0  0.4188865E-05  0.2178177E+04  0.7818609E-02  0.8527566E-01
       -1   -1    0    0    0  501  0.00000000000E+00  0.00000000000E+00  0.87612285644E+03  0.87612285645E+03  0.50400001928E-02 0. -1.
        1   -1    0    0  501    0  0.00000000000E+00  0.00000000000E+00 -0.13538216046E+04  0.13538216046E+04  0.50400001928E-02 0.  1.
    10030    2    1    2    0    0  0.00000000000E+00  0.00000000000E+00 -0.47769874815E+03  0.22299444611E+04  0.21781772667E+04 0.  0.
        3    1    3    3  502    0  0.26250594852E+03  0.19755416102E+03 -0.13018802074E+04  0.13426947174E+04  0.10100000352E+00 0.  1.
       -3    1    3    3    0  502 -0.26250594852E+03 -0.19755416102E+03  0.82418145927E+03  0.88724974362E+03  0.10100000352E+00 0. -1.
</event>
<event>
 5   0  0.3283125E-05  0.2194441E+04  0.7818609E-02  0.8520745E-01
        4   -1    0    0  501    0  0.00000000000E+00  0.00000000000E+00  0.66186027034E+03  0.66186148880E+03  0.12699999809E+01 0.  1.
       -4   -1    0    0    0  501  0.00000000000E+00  0.00000000000E+00 -0.18189503020E+04  0.18189507453E+04  0.12699999809E+01 0. -1.
    10030    2    1    2    0    0  0.00000000000E+00  0.00000000000E+00 -0.11570900316E+04  0.24808122341E+04  0.21944411589E+04 0.  0.
        1    1    3    3  502    0 -0.15214959952E+03  0.65049447459E+03 -0.15625336072E+04  0.16993539466E+04  0.50400001928E-02 0. -1.
       -1    1    3    3    0  502  0.15214959952E+03 -0.65049447459E+03  0.40544357560E+03  0.78145828752E+03  0.50400001928E-02 0.  1.
</event>
<event>
 5   0  0.9179618E-05  0.2222490E+04  0.7818609E-02  0.8509125E-01
       -2   -1    0    0    0  501  0.00000000000E+00  0.00000000000E+00  0.55329075530E+03  0.55329075530E+03  0.25500000920E-02 0.  1.
        2   -1    0    0  501    0  0.00000000000E+00  0.00000000000E+00 -0.22318553078E+04  0.22318553078E+04  0.25500000920E-02 0. -1.
    10030    2    1    2    0    0  0.00000000000E+00  0.00000000000E+00 -0.16785645525E+04  0.27851460632E+04  0.22224895131E+04 0.  0.
        3    1    3    3  502    0 -0.30862504532E+03  0.49210562536E+03  0.34788738610E+03  0.67708419618E+03  0.10100000352E+00 0.  1.
       -3    1    3    3    0  502  0.30862504532E+03 -0.49210562536E+03 -0.20264519386E+04  0.21080618670E+04  0.10100000352E+00 0. -1.
</event>
<event>
 5   0  0.4188865E-05  0.2207981E+04  0.7818609E-02  0.8515114E-01
        1   -1    0    0  501    0  0.00000000000E+00  0.00000000000E+00  0.43386333120E+03  0.43386333123E+03  0.50400001928E-02 0. -1.
       -1   -1    0    0    0  501  0.00000000000E+00  0.00000000000E+00 -0.28091669797E+04  0.28091669797E+04  0.50400001928E-02 0.  1.
    10030    2    1    2    0    0  0.00000000000E+00  0.00000000000E+00 -0.23753036485E+04  0.32430303110E+04  0.22079805649E+04 0.  0.
        3    1    3    3  502    0 -0.50828264866E+03 -0.12629125113E+03  0.23977981183E+03  0.57601657911E+03  0.10100000352E+00 0. -1.
       -3    1    3    3    0  502  0.50828264866E+03  0.12629125113E+03 -0.26150834604E+04  0.26670137319E+04  0.10100000352E+00 0.  1.
</event>
<event>
 5   0  0.9442578E-05  0.2201892E+04  0.7818609E-02  0.8517641E-01
       -2   -1    0    0    0  501  0.00000000000E+00  0.00000000000E+00  0.77967116236E+03  0.77967116236E+03  0.25500000920E-02 0.  1.
        2   -1    0    0  501    0  0.00000000000E+00  0.00000000000E+00 -0.15546072012E+04  0.15546072012E+04  0.25500000920E-02 0. -1.
    10030    2    1    2    0    0  0.00000000000E+00  0.00000000000E+00 -0.77493603889E+03  0.23342783636E+04  0.22018922804E+04 0.  0.
        4    1    3    3  502    0 -0.65097631552E+02 -0.43179016944E+03 -0.14588752538E+04  0.15228260147E+04  0.12699999809E+01 0. -1.
       -4    1    3    3    0  502  0.65097631552E+02  0.43179016944E+03  0.68393921487E+03  0.81145234893E+03  0.12699999809E+01 0.  1.
</event>
<event>
 5   0  0.3283125E-05  0.2225390E+04  0.7818609E-02  0.8507934E-01
       -4   -1    0    0    0  501  0.00000000000E+00  0.00000000000E+00  0.81317660033E+03  0.81317759206E+03  0.12699999809E+01 0.  1.
        4   -1    0    0  501    0  0.00000000000E+00  0.00000000000E+00 -0.15225329664E+04  0.15225334961E+04  0.12699999809E+01 0. -1.
    10030    2    1    2    0    0  0.00000000000E+00  0.00000000000E+00 -0.70935636607E+03  0.23357110881E+04  0.22253898160E+04 0.  0.
        5    1    3    3  502    0  0.91178824685E+03  0.29230944015E+03  0.24022309767E+03  0.98718379370E+03  0.46999998093E+01 0.  1.
       -5    1    3    3    0  502 -0.91178824685E+03 -0.29230944015E+03 -0.94957946374E+03  0.13485272944E+04  0.46999998093E+01 0. -1.
</event>
<event>
 5   0  0.4174030E-05  0.2201186E+04  0.7818609E-02  0.8517935E-01
        1   -1    0    0  501    0  0.00000000000E+00  0.00000000000E+00  0.20317977089E+04  0.20317977089E+04  0.50400001928E-02 0. -1.
       -1   -1    0    0    0  501  0.00000000000E+00  0.00000000000E+00 -0.59617404382E+03  0.59617404384E+03  0.50400001928E-02 0.  1.
    10030    2    1    2    0    0  0.00000000000E+00  0.00000000000E+00  0.14356236651E+04  0.26279717527E+04  0.22011860951E+04 0.  0.
        2    1    3    3  502    0 -0.35026269024E+03 -0.46342688674E+03  0.18338627880E+04  0.19236686712E+04  0.25500000920E-02 0. -1.
       -2    1    3    3    0  502  0.35026269024E+03  0.46342688674E+03 -0.39823912294E+03  0.70430308148E+03  0.25500000920E-02 0.  1.
</event>
<event>
 5   0  0.4133418E-05  0.2815454E+04  0.7818609E-02  0.8298487E-01
       -1   -1    0    0    0  501  0.00000000000E+00  0.00000000000E+00  0.13934500171E+04  0.13934500171E+04  0.50400001928E-02 0. -1.
        1   -1    0    0  501    0  0.00000000000E+00  0.00000000000E+00 -0.14221498769E+04  0.14221498769E+04  0.50400001928E-02 0.  1.
    10030    2    1    2    0    0  0.00000000000E+00  0.00000000000E+00 -0.28699859801E+02  0.28155998941E+04  0.28154536192E+04 0.  0.
        4    1    3    3  502    0 -0.10256287840E+04 -0.94585625936E+03 -0.20180217034E+03  0.14097106777E+04  0.12699999809E+01 0. -1.
       -4    1    3    3    0  502  0.10256287840E+04  0.94585625936E+03  0.17310231054E+03  0.14058892164E+04  0.12699999809E+01 0.  1.
</event>
<event>
 5   0  0.4188865E-05  0.2141612E+04  0.7818609E-02  0.8543131E-01
        1   -1    0    0  501    0  0.00000000000E+00  0.00000000000E+00  0.21195032845E+04  0.21195032845E+04  0.50400001928E-02 0. -1.
       -1   -1    0    0    0  501  0.00000000000E+00  0.00000000000E+00 -0.54098805376E+03  0.54098805378E+03  0.50400001928E-02 0.  1.
    10030    2    1    2    0    0  0.00000000000E+00  0.00000000000E+00  0.15785152307E+04  0.26604913383E+04  0.21416124363E+04 0.  0.
        3    1    3    3  502    0 -0.17661068429E+03  0.97318615187E+03  0.27955258264E+03  0.10278289141E+04  0.10100000352E+00 0. -1.
       -3    1    3    3    0  502  0.17661068429E+03 -0.97318615187E+03  0.12989626481E+04  0.16326624242E+04  0.10100000352E+00 0.  1.
</event>
<event>
 5   0  0.4174075E-05  0.2170781E+04  0.7818609E-02  0.8530689E-01
       -1   -1    0    0    0  501  0.00000000000E+00  0.00000000000E+00  0.15673726546E+04  0.15673726546E+04  0.50400001928E-02 0.  1.
        1   -1    0    0  501    0  0.00000000000E+00  0.00000000000E+00 -0.75162242171E+03  0.75162242173E+03  0.50400001928E-02 0. -1.
    10030    2    1    2    0    0  0.00000000000E+00  0.00000000000E+00  0.81575023289E+03  0.23189950763E+04  0.21707809013E+04 0.  0.
        5    1    3    3  502    0  0.24070290334E+03  0.39690700536E+02  0.15376945264E+04  0.15569328136E+04  0.46999998093E+01 0.  1.
       -5    1    3    3    0  502 -0.24070290334E+03 -0.39690700536E+02 -0.72194429352E+03  0.76206226277E+03  0.46999998093E+01 0. -1.
</event>
<event>
 5   0  0.9179618E-05  0.2173827E+04  0.7818609E-02  0.8529402E-01
        2   -1    0    0  501    0  0.00000000000E+00  0.00000000000E+00  0.78475463122E+03  0.78475463123E+03  0.25500000920E-02 0. -1.
       -2   -1    0    0    0  501  0.00000000000E+00  0.00000000000E+00 -0.15054137556E+04  0.15054137556E+04  0.25500000920E-02 0.  1.
    10030    2    1    2    0    0  0.00000000000E+00  0.00000000000E+00 -0.72065912440E+03  0.22901683869E+04  0.21738265033E+04 0.  0.
        3    1    3    3  502    0 -0.55773895009E+02 -0.69912161455E+03 -0.12351305107E+04  0.14203623298E+04  0.10100000352E+00 0.  1.
       -3    1    3    3    0  502  0.55773895009E+02  0.69912161455E+03  0.51447138631E+03  0.86980605703E+03  0.10100000352E+00 0. -1.
</event>
<event>
 5   0  0.4063293E-05  0.2022226E+04  0.7818609E-02  0.8596299E-01
        1   -1    0    0  501    0  0.00000000000E+00  0.00000000000E+00  0.16153230526E+04  0.16153230526E+04  0.50400001928E-02 0.  1.
       -1   -1    0    0    0  501  0.00000000000E+00  0.00000000000E+00 -0.63290715872E+03  0.63290715874E+03  0.50400001928E-02 0. -1.
    10030    2    1    2    0    0  0.00000000000E+00  0.00000000000E+00  0.98241589391E+03  0.22482302114E+04  0.20222260246E+04 0.  0.
        1    1    3    3  502    0 -0.37383781661E+03 -0.91854208186E+03  0.71041155905E+03  0.12199011651E+04  0.50400001928E-02 0. -1.
       -1    1    3    3    0  502  0.37383781661E+03  0.91854208186E+03  0.27200433486E+03  0.10283290463E+04  0.50400001928E-02 0.  1.
</event>
<event>
 5   0  0.9457742E-05  0.2182877E+04  0.7818609E-02  0.8525589E-01
       -2   -1    0    0    0  501  0.00000000000E+00  0.00000000000E+00  0.82706296761E+03  0.82706296761E+03  0.25500000920E-02 0.  1.
        2   -1    0    0  501    0  0.00000000000E+00  0.00000000000E+00 -0.14403228446E+04  0.14403228446E+04  0.25500000920E-02 0. -1.
    10030    2    1    2    0    0  0.00000000000E+00  0.00000000000E+00 -0.61325987699E+03  0.22673858122E+04  0.21828767131E+04 0.  0.
        1    1    3    3  502    0  0.24175924562E+03  0.10381926159E+04 -0.63148853466E+02  0.10678385731E+04  0.50400001928E-02 0.  1.
       -1    1    3    3    0  502 -0.24175924562E+03 -0.10381926159E+04 -0.55011102352E+03  0.11995472391E+04  0.50400001928E-02 0. -1.
</event>
<event>
 5   0  0.4188865E-05  0.2225145E+04  0.7818609E-02  0.8508034E-01
        1   -1    0    0  501    0  0.00000000000E+00  0.00000000000E+00  0.10736101108E+04  0.10736101108E+04  0.50400001928E-02 0. -1.
       -1   -1    0    0    0  501  0.00000000000E+00  0.00000000000E+00 -0.11529491963E+04  0.11529491963E+04  0.50400001928E-02 0.  1.
    10030    2    1    2    0    0  0.00000000000E+00  0.00000000000E+00 -0.79339085464E+02  0.22265593071E+04  0.22251453116E+04 0.  0.
        3    1    3    3  502    0 -0.19068282635E+03 -0.72699043253E+03 -0.86052178650E+03  0.11425291176E+04  0.10100000352E+00 0.  1.
       -3    1    3    3    0  502  0.19068282635E+03  0.72699043253E+03  0.78118270103E+03  0.10840301895E+04  0.10100000352E+00 0. -1.
</event>
<event>
 5   0  0.4174030E-05  0.2205842E+04  0.7818609E-02  0.8516001E-01
       -1   -1    0    0    0  501  0.00000000000E+00  0.00000000000E+00  0.80641963388E+03  0.80641963390E+03  0.50400001928E-02 0.  1.
        1   -1    0    0  501    0  0.00000000000E+00  0.00000000000E+00 -0.15084385831E+04  0.15084385831E+04  0.50400001928E-02 0. -1.
    10030    2    1    2    0    0  0.00000000000E+00  0.00000000000E+00 -0.70201894918E+03  0.23148582170E+04  0.22058417803E+04 0.  0.
        2    1    3    3  502    0  0.66448609974E+03 -0.75242742969E+03 -0.83047654128E+03  0.13028354076E+04  0.25500000920E-02 0.  1.
       -2    1    3    3    0  502 -0.66448609974E+03  0.75242742969E+03  0.12845759210E+03  0.10120228094E+04  0.25500000920E-02 0. -1.
</event>
<event>
 5   0  0.4174075E-05  0.2184914E+04  0.7818609E-02  0.8524733E-01
       -1   -1    0    0    0  501  0.00000000000E+00  0.00000000000E+00  0.12638904269E+04  0.12638904269E+04  0.50400001928E-02 0.  1.
        1   -1    0    0  501    0  0.00000000000E+00  0.00000000000E+00 -0.94427713965E+03  0.94427713966E+03  0.50400001928E-02 0. -1.
    10030    2    1    2    0    0  0.00000000000E+00  0.00000000000E+00  0.31961328721E+03  0.22081675665E+04  0.21849144946E+04 0.  0.
        5    1    3    3  502    0 -0.10035381380E+04 -0.41284352799E+03  0.32320688628E+02  0.10856312864E+04  0.46999998093E+01 0. -1.
       -5    1    3    3    0  502  0.10035381380E+04  0.41284352799E+03  0.28729259858E+03  0.11225362802E+04  0.46999998093E+01 0.  1.
</event>
<event>
 5   0  0.9938176E-05  0.2184573E+04  0.7818609E-02  0.8524877E-01
        2   -1    0    0  501    0  0.00000000000E+00  0.00000000000E+00  0.29761801337E+04  0.29761801337E+04  0.25500000920E-02 0. -1.
       -2   -1    0    0    0  501  0.00000000000E+00  0.00000000000E+00 -0.40087943040E+03  0.40087943041E+03  0.25500000920E-02 0.  1.
    10030    2    1    2    0    0  0.00000000000E+00  0.00000000000E+00  0.25753007033E+04  0.33770595641E+04  0.21845726326E+04 0.  0.
        5    1    3    3  502    0  0.10537341934E+04 -0.93816144524E+02  0.17079161903E+04  0.20090189204E+04  0.46999998093E+01 0. -1.
       -5    1    3    3    0  502 -0.10537341934E+04  0.93816144524E+02  0.86738451295E+03  0.13680406437E+04  0.46999998093E+01 0.  1.
</event>
<event>
 5   0  0.9938176E-05  0.2224544E+04  0.7818609E-02  0.8508281E-01
        2   -1    0    0  501    0  0.00000000000E+00  0.00000000000E+00  0.94652003332E+03  0.94652003333E+03  0.25500000920E-02 0.  1.
       -2   -1    0    0    0  501  0.00000000000E+00  0.00000000000E+00 -0.13070495653E+04  0.13070495653E+04  0.25500000920E-02 0. -1.
    10030    2    1    2    0    0  0.00000000000E+00  0.00000000000E+00 -0.36052953202E+03  0.22535695987E+04  0.22245436369E+04 0.  0.
        5    1    3    3  502    0  0.46760096529E+03  0.36619329099E+03  0.77241971223E+03  0.97437287059E+03  0.46999998093E+01 0.  1.
       -5    1    3    3    0  502 -0.46760096529E+03 -0.36619329099E+03 -0.11329492442E+04  0.12791967281E+04  0.46999998093E+01 0. -1.
</event>
<event>
 5   0  0.9938176E-05  0.2206064E+04  0.7818609E-02  0.8515909E-01
       -2   -1    0    0    0  501  0.00000000000E+00  0.00000000000E+00  0.87913865102E+03  0.87913865103E+03  0.25500000920E-02 0.  1.
        2   -1    0    0  501    0  0.00000000000E+00  0.00000000000E+00 -0.13839444481E+04  0.13839444481E+04  0.25500000920E-02 0. -1.
    10030    2    1    2    0    0  0.00000000000E+00  0.00000000000E+00 -0.50480579705E+03  0.22630830991E+04  0.22060635124E+04 0.  0.
        5    1    3    3  502    0 -0.90701890982E+02 -0.10869007430E+04 -0.42120661984E+03  0.11691950927E+04  0.46999998093E+01 0. -1.
       -5    1    3    3    0  502  0.90701890982E+02  0.10869007430E+04 -0.83599177215E+02  0.10938880064E+04  0.46999998093E+01 0.  1.
</event>
<event>
 5   0  0.4133418E-05  0.2204625E+04  0.7818609E-02  0.8516505E-01
        1   -1    0    0  501    0  0.00000000000E+00  0.00000000000E+00  0.13067167369E+04  0.13067167369E+04  0.50400001928E-02 0. -1.
       -1   -1    0    0    0  501  0.00000000000E+00  0.00000000000E+00 -0.92988265855E+03  0.92988265856E+03  0.50400001928E-02 0.  1.
    10030    2    1    2    0    0  0.00000000000E+00  0.00000000000E+00  0.37683407834E+03  0.22365993955E+04  0.22046253498E+04 0.  0.
        4    1    3    3  502    0  0.94127582584E+03 -0.24705278377E+03  0.71366752891E+03  0.12067966743E+04  0.12699999809E+01 0. -1.
       -4    1    3    3    0  502 -0.94127582584E+03  0.24705278377E+03 -0.33683345057E+03  0.10298027212E+04  0.12699999809E+01 0.  1.
</event>
<event>
 5   0  0.9254673E-05  0.2107708E+04  0.7818609E-02  0.8557856E-01
       -2   -1    0    0    0  501  0.00000000000E+00  0.00000000000E+00  0.88248518281E+03  0.88248518281E+03  0.25500000920E-02 0. -1.
        2   -1    0    0  501    0  0.00000000000E+00  0.00000000000E+00 -0.12585003298E+04  0.12585003298E+04  0.25500000920E-02 0.  1.
    10030    2    1    2    0    0  0.00000000000E+00  0.00000000000E+00 -0.37601514703E+03  0.21409855126E+04  0.21077076587E+04 0.  0.
        2    1    3    3  502    0 -0.48355799467E+03  0.50682539166E+03 -0.98778074024E+03  0.12109546245E+04  0.25500000920E-02 0.  1.
       -2    1    3    3    0  502  0.48355799467E+03 -0.50682539166E+03  0.61176559321E+03  0.93003088813E+03  0.25500000920E-02 0. -1.
</event>
<event>
 5   0  0.9179618E-05  0.2197317E+04  0.7818609E-02  0.8519546E-01
        2   -1    0    0  501    0  0.00000000000E+00  0.00000000000E+00  0.89330621782E+03  0.89330621782E+03  0.25500000920E-02 0.  1.
       -2   -1    0    0    0  501  0.00000000000E+00  0.00000000000E+00 -0.13512170706E+04  0.13512170706E+04  0.25500000920E-02 0. -1.
    10030    2    1    2    0    0  0.00000000000E+00  0.00000000000E+00 -0.45791085279E+03  0.22445232884E+04  0.21973171012E+04 0.  0.
        3    1    3    3  502    0  0.71352367081E+03  0.50169018139E+03  0.45340899554E+03  0.98305075878E+03  0.10100000352E+00 0.  1.
       -3    1    3    3    0  502 -0.71352367081E+03 -0.50169018139E+03 -0.91131984833E+03  0.12614725297E+04  0.10100000352E+00 0. -1.
</event>
<event>
 5   0  0.4063293E-05  0.2205899E+04  0.7818609E-02  0.8515977E-01
       -1   -1    0    0    0  501  0.00000000000E+00  0.00000000000E+00  0.14038633740E+04  0.14038633740E+04  0.50400001928E-02 0.  1.
        1   -1    0    0  501    0  0.00000000000E+00  0.00000000000E+00 -0.86653578618E+03  0.86653578620E+03  0.50400001928E-02 0. -1.
    10030    2    1    2    0    0  0.00000000000E+00  0.00000000000E+00  0.53732758777E+03  0.22703991602E+04  0.22058992293E+04 0.  0.
        1    1    3    3  502    0  0.22778494594E+03  0.10308668105E+04 -0.59928937297E+02  0.10574326646E+04  0.50400001928E-02 0.  1.
       -1    1    3    3    0  502 -0.22778494594E+03 -0.10308668105E+04  0.59725652507E+03  0.12129664956E+04  0.50400001928E-02 0. -1.
</event>
<event>
 5   0  0.9179618E-05  0.2179743E+04  0.7818609E-02  0.8526907E-01
        2   -1    0    0  501    0  0.00000000000E+00  0.00000000000E+00  0.13187653257E+04  0.13187653257E+04  0.25500000920E-02 0.  1.
       -2   -1    0    0    0  501  0.00000000000E+00  0.00000000000E+00 -0.90070628140E+03  0.90070628141E+03  0.25500000920E-02 0. -1.
    10030    2    1    2    0    0  0.00000000000E+00  0.00000000000E+00  0.41805904425E+03  0.22194716071E+04  0.21797432991E+04 0.  0.
        3    1    3    3  502    0 -0.35288131838E+03 -0.96572114163E+03 -0.15905275504E+03  0.10404039299E+04  0.10100000352E+00 0. -1.
       -3    1    3    3    0  502  0.35288131838E+03  0.96572114163E+03  0.57711179929E+03  0.11790676772E+04  0.10100000352E+00 0.  1.
</event>
<event>
 5   0  0.4133418E-05  0.2203146E+04  0.7818609E-02  0.8517120E-01
        1   -1    0    0  501    0  0.00000000000E+00  0.00000000000E+00  0.20252104020E+04  0.20252104020E+04  0.50400001928E-02 0. -1.
       -1   -1    0    0    0  501  0.00000000000E+00  0.00000000000E+00 -0.59917860304E+03  0.59917860306E+03  0.50400001928E-02 0.  1.
    10030    2    1    2    0    0  0.00000000000E+00  0.00000000000E+00  0.14260317989E+04  0.26243890050E+04  0.22031456961E+04 0.  0.
        4    1    3    3  502    0  0.44505158823E+03  0.65054831601E+03 -0.20364940820E+03  0.81409994596E+03  0.12699999809E+01 0.  1.
       -4    1    3    3    0  502 -0.44505158823E+03 -0.65054831601E+03  0.16296812071E+04  0.18102890591E+04  0.12699999809E+01 0. -1.
</event>
<event>
 5   0  0.9938176E-05  0.1834752E+04  0.7818609E-02  0.8688034E-01
       -2   -1    0    0    0  501  0.00000000000E+00  0.00000000000E+00  0.13099040612E+04  0.13099040612E+04  0.25500000920E-02 0.  1.
        2   -1    0    0  501    0  0.00000000000E+00  0.00000000000E+00 -0.64247337638E+03  0.64247337639E+03  0.25500000920E-02 0. -1.
    10030    2    1    2    0    0  0.00000000000E+00  0.00000000000E+00  0.66743068483E+03  0.19523774376E+04  0.18347517379E+04 0.  0.
        5    1    3    3  502    0 -0.53190389159E+03 -0.54023980342E+03 -0.21590085737E+03  0.78829947692E+03  0.46999998093E+01 0. -1.
       -5    1    3    3    0  502  0.53190389159E+03  0.54023980342E+03  0.88333154220E+03  0.11640779607E+04  0.46999998093E+01 0.  1.
</event>
<event>
 5   0  0.4188865E-05  0.2167019E+04  0.7818609E-02  0.8532282E-01
       -1   -1    0    0    0  501  0.00000000000E+00  0.00000000000E+00  0.47795542688E+03  0.47795542691E+03  0.50400001928E-02 0. -1.
        1   -1    0    0  501    0  0.00000000000E+00  0.00000000000E+00 -0.24562810500E+04  0.24562810500E+04  0.50400001928E-02 0.  1.
    10030    2    1    2    0    0  0.00000000000E+00  0.00000000000E+00 -0.19783256231E+04  0.29342364769E+04  0.21670190196E+04 0.  0.
        3    1    3    3  502    0 -0.10495370967E+04  0.25904871723E+03 -0.89004454437E+03  0.14002905614E+04  0.10100000352E+00 0. -1.
       -3    1    3    3    0  502  0.10495370967E+04 -0.25904871723E+03 -0.10882810787E+04  0.15339459155E+04  0.10100000352E+00 0.  1.
</event>
<event>
 5   0  0.9254673E-05  0.2187197E+04  0.7818609E-02  0.8523776E-01
       -2   -1    0    0    0  501  0.00000000000E+00  0.00000000000E+00  0.20802016546E+04  0.20802016546E+04  0.25500000920E-02 0. -1.
        2   -1    0    0  501    0  0.00000000000E+00  0.00000000000E+00 -0.57492372201E+03  0.57492372201E+03  0.25500000920E-02 0.  1.
    10030    2    1    2    0    0  0.00000000000E+00  0.00000000000E+00  0.15052779325E+04  0.26551253766E+04  0.21871966329E+04 0.  0.
        2    1    3    3  502    0 -0.44823388059E+03 -0.77204900232E+03  0.15194263297E+04  0.17622796727E+04  0.25500000920E-02 0. -1.
       -2    1    3    3    0  502  0.44823388059E+03  0.77204900232E+03 -0.14148397115E+02  0.89284570382E+03  0.25500000920E-02 0.  1.
</event>
<event>
 5   0  0.4174075E-05  0.2205707E+04  0.7818609E-02  0.8516057E-01
       -1   -1    0    0    0  501  0.00000000000E+00  0.00000000000E+00  0.79896074823E+03  0.79896074825E+03  0.50400001928E-02 0. -1.
        1   -1    0    0  501    0  0.00000000000E+00  0.00000000000E+00 -0.15223344930E+04  0.15223344930E+04  0.50400001928E-02 0.  1.
    10030    2    1    2    0    0  0.00000000000E+00  0.00000000000E+00 -0.72337374474E+03  0.23212952412E+04  0.22057066945E+04 0.  0.
        5    1    3    3  502    0  0.98150317270E+03 -0.44215717106E+03 -0.61385132133E+03  0.12392283795E+04  0.46999998093E+01 0.  1.
       -5    1    3    3    0  502 -0.98150317270E+03  0.44215717106E+03 -0.10952242340E+03  0.10820668617E+04  0.46999998093E+01 0. -1.
</event>
<event>
 5   0  0.4174030E-05  0.2238024E+04  0.7818609E-02  0.8502766E-01
        1   -1    0    0  501    0  0.00000000000E+00  0.00000000000E+00  0.10284120112E+04  0.10284120112E+04  0.50400001928E-02 0.  1.
       -1   -1    0    0    0  501  0.00000000000E+00  0.00000000000E+00 -0.12175937770E+04  0.12175937770E+04  0.50400001928E-02 0. -1.
    10030    2    1    2    0    0  0.00000000000E+00  0.00000000000E+00 -0.18918176580E+03  0.22460057881E+04  0.22380241866E+04 0.  0.
        2    1    3    3  502    0 -0.64585925661E+03  0.88063256515E+03 -0.33946965195E+03  0.11436291089E+04  0.25500000920E-02 0. -1.
       -2    1    3    3    0  502  0.64585925661E+03 -0.88063256515E+03  0.15028788616E+03  0.11023766792E+04  0.25500000920E-02 0.  1.
</event>
<event>
 5   0  0.4174075E-05  0.2206716E+04  0.7818609E-02  0.8515638E-01
       -1   -1    0    0    0  501  0.00000000000E+00  0.00000000000E+00  0.92719292286E+03  0.92719292288E+03  0.50400001928E-02 0.  1.
        1   -1    0    0  501    0  0.00000000000E+00  0.00000000000E+00 -0.13129941949E+04  0.13129941949E+04  0.50400001928E-02 0. -1.
    10030    2    1    2    0    0  0.00000000000E+00  0.00000000000E+00 -0.38580127208E+03  0.22401871178E+04  0.22067160446E+04 0.  0.
        5    1    3    3  502    0 -0.16204436151E+03 -0.93942701354E+03  0.37103888247E+03  0.10229728399E+04  0.46999998093E+01 0.  1.
       -5    1    3    3    0  502  0.16204436151E+03  0.93942701354E+03 -0.75684015455E+03  0.12172142779E+04  0.46999998093E+01 0. -1.
</event>
<event>
 5   0  0.9938176E-05  0.2190617E+04  0.7818609E-02  0.8522344E-01
        2   -1    0    0  501    0  0.00000000000E+00  0.00000000000E+00  0.13765776205E+04  0.13765776205E+04  0.25500000920E-02 0.  1.
       -2   -1    0    0    0  501  0.00000000000E+00  0.00000000000E+00 -0.87151000525E+03  0.87151000525E+03  0.25500000920E-02 0. -1.
    10030    2    1    2    0    0  0.00000000000E+00  0.00000000000E+00  0.50506761521E+03  0.22480876257E+04  0.21906174191E+04 0.  0.
        5    1    3    3  502    0 -0.43253489585E+03 -0.98308456488E+03  0.32102554598E+02  0.10745205265E+04  0.46999998093E+01 0. -1.
       -5    1    3    3    0  502  0.43253489585E+03  0.98308456488E+03  0.47296506061E+03  0.11735670992E+04  0.46999998093E+01 0.  1.
</event>
<event>
 5   0  0.4174075E-05  0.2207536E+04  0.7818609E-02  0.8515298E-01
       -1   -1    0    0    0  501  0.00000000000E+00  0.00000000000E+00  0.70754747034E+03  0.70754747036E+03  0.50400001928E-02 0.  1.
        1   -1    0    0  501    0  0.00000000000E+00  0.00000000000E+00 -0.17218684717E+04  0.17218684718E+04  0.50400001928E-02 0. -1.
    10030    2    1    2    0    0  0.00000000000E+00  0.00000000000E+00 -0.10143210014E+04  0.24294159421E+04  0.22075358946E+04 0.  0.
        5    1    3    3  502    0  0.74206569430E+03 -0.75759136100E+03 -0.84398753605E+03  0.13553387827E+04  0.46999998093E+01 0. -1.
       -5    1    3    3    0  502 -0.74206569430E+03  0.75759136100E+03 -0.17033346536E+03  0.10740771594E+04  0.46999998093E+01 0.  1.
</event>
<event>
 5   0  0.9457742E-05  0.2202986E+04  0.7818609E-02  0.8517187E-01
        2   -1    0    0  501    0  0.00000000000E+00  0.00000000000E+00  0.14720878790E+04  0.14720878790E+04  0.25500000920E-02 0.  1.
       -2   -1    0    0    0  501  0.00000000000E+00  0.00000000000E+00 -0.82419419239E+03  0.82419419240E+03  0.25500000920E-02 0. -1.
    10030    2    1    2    0    0  0.00000000000E+00  0.00000000000E+00  0.64789368665E+03  0.22962820714E+04  0.22029855021E+04 0.  0.
        1    1    3    3  502    0  0.63933953503E+03 -0.79459369115E+03  0.75768485513E+03  0.12705197813E+04  0.50400001928E-02 0.  1.
       -1    1    3    3    0  502 -0.63933953503E+03  0.79459369115E+03 -0.10979116848E+03  0.10257622901E+04  0.50400001928E-02 0. -1.
</event>
<event>
 5   0  0.9938176E-05  0.2179427E+04  0.7818609E-02  0.8527040E-01
        2   -1    0    0  501    0  0.00000000000E+00  0.00000000000E+00  0.25749458624E+04  0.25749458624E+04  0.25500000920E-02 0. -1.
       -2   -1    0    0    0  501  0.00000000000E+00  0.00000000000E+00 -0.46116513225E+03  0.46116513225E+03  0.25500000920E-02 0.  1.
    10030    2    1    2    0    0  0.00000000000E+00  0.00000000000E+00  0.21137807302E+04  0.30361109947E+04  0.21794267587E+04 0.  0.
        5    1    3    3  502    0  0.10282683066E+04 -0.25068338555E+03  0.14182196422E+04  0.17696177309E+04  0.46999998093E+01 0. -1.
       -5    1    3    3    0  502 -0.10282683066E+04  0.25068338555E+03  0.69556108800E+03  0.12664932638E+04  0.46999998093E+01 0.  1.
</event>
<event>
 5   0  0.9938176E-05  0.2186280E+04  0.7818609E-02  0.8524160E-01
       -2   -1    0    0    0  501  0.00000000000E+00  0.00000000000E+00  0.12845596775E+04  0.12845596775E+04  0.25500000920E-02 0.  1.
        2   -1    0    0  501    0  0.00000000000E+00  0.00000000000E+00 -0.93024499691E+03  0.93024499692E+03  0.25500000920E-02 0. -1.
    10030    2    1    2    0    0  0.00000000000E+00  0.00000000000E+00  0.35431468063E+03  0.22148046745E+04  0.21862801406E+04 0.  0.
        5    1    3    3  502    0 -0.86335483083E+03 -0.57595941847E+03 -0.17057363919E+03  0.10517738692E+04  0.46999998093E+01 0. -1.
       -5    1    3    3    0  502  0.86335483083E+03  0.57595941847E+03  0.52488831982E+03  0.11630308052E+04  0.46999998093E+01 0.  1.
</event>
<event>
 5   0  0.4174075E-05  0.2204964E+04  0.7818609E-02  0.8516365E-01
       -1   -1    0    0    0  501  0.00000000000E+00  0.00000000000E+00  0.76410233594E+03  0.76410233595E+03  0.50400001928E-02 0.  1.
        1   -1    0    0  501    0  0.00000000000E+00  0.00000000000E+00 -0.15907118455E+04  0.15907118455E+04  0.50400001928E-02 0. -1.
    10030    2    1    2    0    0  0.00000000000E+00  0.00000000000E+00 -0.82660950957E+03  0.23548141815E+04  0.22049640695E+04 0.  0.
        5    1    3    3  502    0  0.20425487204E+03  0.25436613688E+03 -0.15379751865E+04  0.15721997165E+04  0.46999998093E+01 0. -1.
       -5    1    3    3    0  502 -0.20425487204E+03 -0.25436613688E+03  0.71136567696E+03  0.78261446492E+03  0.46999998093E+01 0.  1.
</event>
<event>
 5   0  0.4174075E-05  0.2200765E+04  0.7818609E-02  0.8518110E-01
       -1   -1    0    0    0  501  0.00000000000E+00  0.00000000000E+00  0.74573841859E+03  0.74573841860E+03  0.50400001928E-02 0.  1.
        1   -1    0    0  501    0  0.00000000000E+00  0.00000000000E+00 -0.16236821886E+04  0.16236821886E+04  0.50400001928E-02 0. -1.
    10030    2    1    2    0    0  0.00000000000E+00  0.00000000000E+00 -0.87794377000E+03  0.23694206072E+04  0.22007654919E+04 0.  0.
        5    1    3    3  502    0  0.21992082962E+03 -0.85976996181E+03 -0.11394057792E+04  0.14442427698E+04  0.46999998093E+01 0. -1.
       -5    1    3    3    0  502 -0.21992082962E+03  0.85976996181E+03  0.26146200919E+03  0.92517783738E+03  0.46999998093E+01 0.  1.
</event>
<event>
 5   0  0.9938176E-05  0.2194324E+04  0.7818609E-02  0.8520794E-01
       -2   -1    0    0    0  501  0.00000000000E+00  0.00000000000E+00  0.85475135287E+03  0.85475135288E+03  0.25500000920E-02 0. -1.
        2   -1    0    0  501    0  0.00000000000E+00  0.00000000000E+00 -0.14083211735E+04  0.14083211735E+04  0.25500000920E-02 0.  1.
    10030    2    1    2    0    0  0.00000000000E+00  0.00000000000E+00 -0.55356982062E+03  0.22630725264E+04  0.21943239764E+04 0.  0.
        5    1    3    3  502    0  0.10568072421E+04  0.25613732065E+03 -0.12628678710E+03  0.10947229405E+04  0.46999998093E+01 0. -1.
       -5    1    3    3    0  502 -0.10568072421E+04 -0.25613732065E+03 -0.42728303353E+03  0.11683495858E+04  0.46999998093E+01 0.  1.
</event>
<event>
 5   0  0.4133418E-05  0.2139582E+04  0.7818609E-02  0.8544005E-01
        1   -1    0    0  501    0  0.00000000000E+00  0.00000000000E+00  0.63763358787E+03  0.63763358789E+03  0.50400001928E-02 0. -1.
       -1   -1    0    0    0  501  0.00000000000E+00  0.00000000000E+00 -0.17948445422E+04  0.17948445423E+04  0.50400001928E-02 0.  1.
    10030    2    1    2    0    0  0.00000000000E+00  0.00000000000E+00 -0.11572109544E+04  0.24324781301E+04  0.21395823566E+04 0.  0.
        4    1    3    3  502    0  0.55766704855E+03 -0.14876228363E+03 -0.16026489226E+04  0.17034106775E+04  0.12699999809E+01 0.  1.
       -4    1    3    3    0  502 -0.55766704855E+03  0.14876228363E+03  0.44543796824E+03  0.72906745266E+03  0.12699999809E+01 0. -1.
</event>
<event>
 5   0  0.9457742E-05  0.2177076E+04  0.7818609E-02  0.8528030E-01
       -2   -1    0    0    0  501  0.00000000000E+00  0.00000000000E+00  0.53847928575E+03  0.53847928575E+03  0.25500000920E-02 0.  1.
        2   -1    0    0  501    0  0.00000000000E+00  0.00000000000E+00 -0.22004846521E+04  0.22004846521E+04  0.25500000920E-02 0. -1.
    10030    2    1    2    0    0  0.00000000000E+00  0.00000000000E+00 -0.16620053663E+04  0.27389639378E+04  0.21770763916E+04 0.  0.
        1    1    3    3  502    0  0.12179394192E+03  0.12298705690E+03 -0.21830607149E+04  0.21899117940E+04  0.50400001928E-02 0. -1.
       -1    1    3    3    0  502 -0.12179394192E+03 -0.12298705690E+03  0.52105534853E+03  0.54905214389E+03  0.50400001928E-02 0.  1.
</event>
<event>
 5   0  0.4174075E-05  0.2254557E+04  0.7818609E-02  0.8496057E-01
       -1   -1    0    0    0  501  0.00000000000E+00  0.00000000000E+00  0.98334751048E+03  0.98334751049E+03  0.50400001928E-02 0.  1.
        1   -1    0    0  501    0  0.00000000000E+00  0.00000000000E+00 -0.12922769623E+04  0.12922769623E+04  0.50400001928E-02 0. -1.
    10030    2    1    2    0    0  0.00000000000E+00  0.00000000000E+00 -0.30892945181E+03  0.22756244728E+04  0.22545574588E+04 0.  0.
        5    1    3    3  502    0 -0.27184410185E+03  0.67289506981E+03  0.71617772412E+03  0.10196173857E+04  0.46999998093E+01 0.  1.
       -5    1    3    3    0  502  0.27184410185E+03 -0.67289506981E+03 -0.10251071759E+04  0.12560070871E+04  0.46999998093E+01 0. -1.
</event>
<event>
 5   0  0.4063293E-05  0.2255086E+04  0.7818609E-02  0.8495844E-01
        1   -1    0    0  501    0  0.00000000000E+00  0.00000000000E+00  0.95361519365E+03  0.95361519367E+03  0.50400001928E-02 0. -1.
       -1   -1    0    0    0  501  0.00000000000E+00  0.00000000000E+00 -0.13331929224E+04  0.13331929224E+04  0.50400001928E-02 0.  1.
    10030    2    1    2    0    0  0.00000000000E+00  0.00000000000E+00 -0.37957772872E+03  0.22868081161E+04  0.22550858315E+04 0.  0.
        1    1    3    3  502    0 -0.40178888428E+03  0.42555680423E+03 -0.11670991221E+04  0.13056237061E+04  0.50400001928E-02 0.  1.
       -1    1    3    3    0  502  0.40178888428E+03 -0.42555680423E+03  0.78752139340E+03  0.98118440991E+03  0.50400001928E-02 0. -1.
</event>
<event>
 5   0  0.4063293E-05  0.2143896E+04  0.7818609E-02  0.8542149E-01
        1   -1    0    0  501    0  0.00000000000E+00  0.00000000000E+00  0.22502491913E+04  0.22502491913E+04  0.50400001928E-02 0.  1.
       -1   -1    0    0    0  501  0.00000000000E+00  0.00000000000E+00 -0.51064246451E+03  0.51064246453E+03  0.50400001928E-02 0. -1.
    10030    2    1    2    0    0  0.00000000000E+00  0.00000000000E+00  0.17396067268E+04  0.27608916558E+04  0.21438962595E+04 0.  0.
        1    1    3    3  502    0  0.92397853325E+03  0.17802574797E+03  0.15310355171E+04  0.17970807582E+04  0.50400001928E-02 0.  1.
       -1    1    3    3    0  502 -0.92397853325E+03 -0.17802574797E+03  0.20857120968E+03  0.96381089763E+03  0.50400001928E-02 0. -1.
</event>
<event>
 5   0  0.4133418E-05  0.2268288E+04  0.7818609E-02  0.8490531E-01
       -1   -1    0    0    0  501  0.00000000000E+00  0.00000000000E+00  0.11113691453E+04  0.11113691453E+04  0.50400001928E-02 0. -1.
        1   -1    0    0  501    0  0.00000000000E+00  0.00000000000E+00 -0.11573850776E+04  0.11573850776E+04  0.50400001928E-02 0.  1.
    10030    2    1    2    0    0  0.00000000000E+00  0.00000000000E+00 -0.46015932291E+02  0.22687542229E+04  0.22682875166E+04 0.  0.
        4    1    3    3  502    0 -0.68341424390E+03  0.77913370411E+03 -0.48372850456E+03  0.11437216605E+04  0.12699999809E+01 0.  1.
       -4    1    3    3    0  502  0.68341424390E+03 -0.77913370411E+03  0.43771257227E+03  0.11250325624E+04  0.12699999809E+01 0. -1.
</event>
<event>
 5   0  0.9442578E-05  0.2212672E+04  0.7818609E-02  0.8513172E-01
        2   -1    0    0  501    0  0.00000000000E+00  0.00000000000E+00  0.66221827921E+03  0.66221827922E+03  0.25500000920E-02 0.  1.
       -2   -1    0    0    0  501  0.00000000000E+00  0.00000000000E+00 -0.18483016596E+04  0.18483016596E+04  0.25500000920E-02 0. -1.
    10030    2    1    2    0    0  0.00000000000E+00  0.00000000000E+00 -0.11860833803E+04  0.25105199388E+04  0.22126718188E+04 0.  0.
        4    1    3    3  502    0  0.16671856810E+02  0.79572688853E+03 -0.14649350107E+04  0.16671818828E+04  0.12699999809E+01 0. -1.
       -4    1    3    3    0  502 -0.16671856810E+02 -0.79572688853E+03  0.27885163038E+03  0.84333805594E+03  0.12699999809E+01 0.  1.
</event>
<event>
 5   0  0.9179618E-05  0.2188352E+04  0.7818609E-02  0.8523292E-01
       -2   -1    0    0    0  501  0.00000000000E+00  0.00000000000E+00  0.10298946900E+04  0.10298946900E+04  0.25500000920E-02 0.  1.
        2   -1    0    0  501    0  0.00000000000E+00  0.00000000000E+00 -0.11624691120E+04  0.11624691120E+04  0.25500000920E-02 0. -1.
    10030    2    1    2    0    0  0.00000000000E+00  0.00000000000E+00 -0.13257442202E+03  0.21923638019E+04  0.21883516771E+04 0.  0.
        3    1    3    3  502    0 -0.84085278995E+03  0.80524422727E+01  0.63508382369E+03  0.10537692961E+04  0.10100000352E+00 0.  1.
       -3    1    3    3    0  502  0.84085278995E+03 -0.80524422727E+01 -0.76765824571E+03  0.11385945058E+04  0.10100000352E+00 0. -1.
</event>
<event>
 5   0  0.4133418E-05  0.2014654E+04  0.7818609E-02  0.8599800E-01
        1   -1    0    0  501    0  0.00000000000E+00  0.00000000000E+00  0.76531352704E+03  0.76531352706E+03  0.50400001928E-02 0. -1.
       -1   -1    0    0    0  501  0.00000000000E+00  0.00000000000E+00 -0.13258724737E+04  0.13258724737E+04  0.50400001928E-02 0.  1.
    10030    2    1    2    0    0  0.00000000000E+00  0.00000000000E+00 -0.56055894663E+03  0.20911860007E+04  0.20146544510E+04 0.  0.
        4    1    3    3  502    0 -0.31418485729E+03 -0.41860950788E+03  0.61308977277E+03  0.80611830832E+03  0.12699999809E+01 0. -1.
       -4    1    3    3    0  502  0.31418485729E+03  0.41860950788E+03 -0.11736487194E+04  0.12850676924E+04  0.12699999809E+01 0.  1.
</event>
<event>
 5   0  0.9938176E-05  0.2179720E+04  0.7818609E-02  0.8526917E-01
        2   -1    0    0  501    0  0.00000000000E+00  0.00000000000E+00  0.69531795730E+03  0.69531795730E+03  0.25500000920E-02 0. -1.
       -2   -1    0    0    0  501  0.00000000000E+00  0.00000000000E+00 -0.17082762992E+04  0.17082762992E+04  0.25500000920E-02 0.  1.
    10030    2    1    2    0    0  0.00000000000E+00  0.00000000000E+00 -0.10129583419E+04  0.24035942565E+04  0.21797203370E+04 0.  0.
        5    1    3    3  502    0  0.64726832568E+03  0.81809133964E+03 -0.15856945741E+03  0.10551758565E+04  0.46999998093E+01 0. -1.
       -5    1    3    3    0  502 -0.64726832568E+03 -0.81809133964E+03 -0.85438888453E+03  0.13484184000E+04  0.46999998093E+01 0.  1.
</event>
<event>
 5   0  0.9179618E-05  0.2258479E+04  0.7818609E-02  0.8494475E-01
       -2   -1    0    0    0  501  0.00000000000E+00  0.00000000000E+00  0.88966359042E+03  0.88966359042E+03  0.25500000920E-02 0. -1.
        2   -1    0    0  501    0  0.00000000000E+00  0.00000000000E+00 -0.14333298223E+04  0.14333298223E+04  0.25500000920E-02 0.  1.
    10030    2    1    2    0    0  0.00000000000E+00  0.00000000000E+00 -0.54366623190E+03  0.23229934127E+04  0.22584785640E+04 0.  0.
        3    1    3    3  502    0 -0.36878394465E+03 -0.59111658091E+03 -0.11859039031E+04  0.13754230214E+04  0.10100000352E+00 0.  1.
       -3    1    3    3    0  502  0.36878394465E+03  0.59111658091E+03  0.64223767123E+03  0.94757039137E+03  0.10100000352E+00 0. -1.
</event>
<event>
 5   0  0.9442578E-05  0.2217699E+04  0.7818609E-02  0.8511097E-01
       -2   -1    0    0    0  501  0.00000000000E+00  0.00000000000E+00  0.76158259362E+03  0.76158259363E+03  0.25500000920E-02 0. -1.
        2   -1    0    0  501    0  0.00000000000E+00  0.00000000000E+00 -0.16144636478E+04  0.16144636478E+04  0.25500000920E-02 0.  1.
    10030    2    1    2    0    0  0.00000000000E+00  0.00000000000E+00 -0.85288105422E+03  0.23760462415E+04  0.22176991791E+04 0.  0.
        4    1    3    3  502    0  0.27685355065E+03 -0.29105515142E+03 -0.15337664106E+04  0.15854973998E+04  0.12699999809E+01 0.  1.
       -4    1    3    3    0  502 -0.27685355065E+03  0.29105515142E+03  0.68088535635E+03  0.79054884167E+03  0.12699999809E+01 0. -1.
</event>
<event>
 5   0  0.9254673E-05  0.2250066E+04  0.7818609E-02  0.8497874E-01
        2   -1    0    0  501    0  0.00000000000E+00  0.00000000000E+00  0.99194990567E+03  0.99194990567E+03  0.25500000920E-02 0.  1.
       -2   -1    0    0    0  501  0.00000000000E+00  0.00000000000E+00 -0.12759706864E+04  0.12759706864E+04  0.25500000920E-02 0. -1.
    10030    2    1    2    0    0  0.00000000000E+00  0.00000000000E+00 -0.28402078069E+03  0.22679205920E+04  0.22500657786E+04 0.  0.
        2    1    3    3  502    0 -0.27919400915E+03  0.24014198710E+03  0.92947812110E+03  0.99977349751E+03  0.25500000920E-02 0.  1.
       -2    1    3    3    0  502  0.27919400915E+03 -0.24014198710E+03 -0.12134989018E+04  0.12681470945E+04  0.25500000920E-02 0. -1.
</event>
<event>
 5   0  0.9254673E-05  0.2178922E+04  0.7818609E-02  0.8527253E-01
        2   -1    0    0  501    0  0.00000000000E+00  0.00000000000E+00  0.26522657444E+04  0.26522657444E+04  0.25500000920E-02 0.  1.
       -2   -1    0    0    0  501  0.00000000000E+00  0.00000000000E+00 -0.44751365669E+03  0.44751365669E+03  0.25500000920E-02 0. -1.
    10030    2    1    2    0    0  0.00000000000E+00  0.00000000000E+00  0.22047520878E+04  0.30997794011E+04  0.21789218819E+04 0.  0.
        2    1    3    3  502    0  0.35293291293E+03 -0.89643908568E+03  0.18260419133E+04  0.20646049851E+04  0.25500000920E-02 0. -1.
       -2    1    3    3    0  502 -0.35293291293E+03  0.89643908568E+03  0.37871017444E+03  0.10351744160E+04  0.25500000920E-02 0.  1.
</event>
<event>
 5   0  0.9254673E-05  0.2191138E+04  0.7818609E-02  0.8522126E-01
        2   -1    0    0  501    0  0.00000000000E+00  0.00000000000E+00  0.22930713676E+04  0.22930713676E+04  0.25500000920E-02 0.  1.
       -2   -1    0    0    0  501  0.00000000000E+00  0.00000000000E+00 -0.52343394582E+03  0.52343394583E+03  0.25500000920E-02 0. -1.
    10030    2    1    2    0    0  0.00000000000E+00  0.00000000000E+00  0.17696374218E+04  0.28165053134E+04  0.21911379637E+04 0.  0.
        2    1    3    3  502    0  0.10141129929E+04  0.22732677805E+03  0.13304099617E+04  0.16882219323E+04  0.25500000920E-02 0.  1.
       -2    1    3    3    0  502 -0.10141129929E+04 -0.22732677805E+03  0.43922746011E+03  0.11282833812E+04  0.25500000920E-02 0. -1.
</event>
<event>
 5   0  0.9179618E-05  0.2169863E+04  0.7818609E-02  0.8531078E-01
        2   -1    0    0  501    0  0.00000000000E+00  0.00000000000E+00  0.12593710849E+04  0.12593710849E+04  0.25500000920E-02 0.  1.
       -2   -1    0    0    0  501  0.00000000000E+00  0.00000000000E+00 -0.93465387554E+03  0.93465387554E+03  0.25500000920E-02 0. -1.
    10030    2    1    2    0    0  0.00000000000E+00  0.00000000000E+00  0.32471720933E+03  0.21940249604E+04  0.21698627286E+04 0.  0.
        3    1    3    3  502    0 -0.59871952066E+03 -0.59101859487E+03  0.85504759953E+03  0.11995309298E+04  0.10100000352E+00 0.  1.
       -3    1    3    3    0  502  0.59871952066E+03  0.59101859487E+03 -0.53033039021E+03  0.99449403059E+03  0.10100000352E+00 0. -1.
</event>
<event>
 5   0  0.9442578E-05  0.2252413E+04  0.7818609E-02  0.8496924E-01
       -2   -1    0    0    0  501  0.00000000000E+00  0.00000000000E+00  0.75310161006E+03  0.75310161007E+03  0.25500000920E-02 0.  1.
        2   -1    0    0  501    0  0.00000000000E+00  0.00000000000E+00 -0.16841568038E+04  0.16841568038E+04  0.25500000920E-02 0. -1.
    10030    2    1    2    0    0  0.00000000000E+00  0.00000000000E+00 -0.93105519377E+03  0.24372584139E+04  0.22524131065E+04 0.  0.
        4    1    3    3  502    0  0.43346819531E+03 -0.51855879735E+02  0.65781889361E+03  0.78950048658E+03  0.12699999809E+01 0.  1.
       -4    1    3    3    0  502 -0.43346819531E+03  0.51855879735E+02 -0.15888740874E+04  0.16477579273E+04  0.12699999809E+01 0. -1.
</event>
<event>
 5   0  0.9457742E-05  0.2149021E+04  0.7818609E-02  0.8539951E-01
       -2   -1    0    0    0  501  0.00000000000E+00  0.00000000000E+00  0.11926293223E+04  0.11926293223E+04  0.25500000920E-02 0.  1.
        2   -1    0    0  501    0  0.00000000000E+00  0.00000000000E+00 -0.96809046988E+03  0.96809046988E+03  0.25500000920E-02 0. -1.
    10030    2    1    2    0    0  0.00000000000E+00  0.00000000000E+00  0.22453885246E+03  0.21607197922E+04  0.21490212480E+04 0.  0.
        1    1    3    3  502    0 -0.16197154285E+03 -0.44955284439E+03 -0.85538354261E+03  0.97980280954E+03  0.50400001928E-02 0. -1.
       -1    1    3    3    0  502  0.16197154285E+03  0.44955284439E+03  0.10799223951E+04  0.11809169827E+04  0.50400001928E-02 0.  1.
</event>
<event>
 5   0  0.4063293E-05  0.2205354E+04  0.7818609E-02  0.8516203E-01
        1   -1    0    0  501    0  0.00000000000E+00  0.00000000000E+00  0.15891966542E+04  0.15891966542E+04  0.50400001928E-02 0. -1.
       -1   -1    0    0    0  501  0.00000000000E+00  0.00000000000E+00 -0.76510110857E+03  0.76510110858E+03  0.50400001928E-02 0.  1.
    10030    2    1    2    0    0  0.00000000000E+00  0.00000000000E+00  0.82409554560E+03  0.23542977628E+04  0.22053535969E+04 0.  0.
        1    1    3    3  502    0  0.22687475245E+03 -0.10389847926E+04  0.10092958372E+03  0.10682454462E+04  0.50400001928E-02 0.  1.
       -1    1    3    3    0  502 -0.22687475245E+03  0.10389847926E+04  0.72316596188E+03  0.12860523166E+04  0.50400001928E-02 0. -1.
</event>
<event>
 5   0  0.4188865E-05  0.2189896E+04  0.7818609E-02  0.8522645E-01
        1   -1    0    0  501    0  0.00000000000E+00  0.00000000000E+00  0.16872125332E+04  0.16872125332E+04  0.50400001928E-02 0. -1.
       -1   -1    0    0    0  501  0.00000000000E+00  0.00000000000E+00 -0.71058678022E+03  0.71058678024E+03  0.50400001928E-02 0.  1.
    10030    2    1    2    0    0  0.00000000000E+00  0.00000000000E+00  0.97662575300E+03  0.23977993135E+04  0.21898958163E+04 0.  0.
        3    1    3    3  502    0 -0.19330307862E+03 -0.99142649001E+03  0.25556502482E+02  0.10104185817E+04  0.10100000352E+00 0.  1.
       -3    1    3    3    0  502  0.19330307862E+03  0.99142649001E+03  0.95106925051E+03  0.13873807317E+04  0.10100000352E+00 0. -1.
</event>
<event>
 5   0  0.4063293E-05  0.2219295E+04  0.7818609E-02  0.8510440E-01
        1   -1    0    0  501    0  0.00000000000E+00  0.00000000000E+00  0.26347887366E+04  0.26347887366E+04  0.50400001928E-02 0. -1.
       -1   -1    0    0    0  501  0.00000000000E+00  0.00000000000E+00 -0.46733059677E+03  0.46733059680E+03  0.50400001928E-02 0.  1.
    10030    2    1    2    0    0  0.00000000000E+00  0.00000000000E+00  0.21674581399E+04  0.31021193334E+04  0.22192948364E+04 0.  0.
        1    1    3    3  502    0 -0.39724153098E+03  0.96002213682E+03  0.16284640858E+04  0.19316673150E+04  0.50400001928E-02 0. -1.
       -1    1    3    3    0  502  0.39724153098E+03 -0.96002213682E+03  0.53899405409E+03  0.11704520185E+04  0.50400001928E-02 0.  1.
</event>
<event>
 5   0  0.9442578E-05  0.2089368E+04  0.7818609E-02  0.8565942E-01
       -2   -1    0    0    0  501  0.00000000000E+00  0.00000000000E+00  0.87770921542E+03  0.87770921542E+03  0.25500000920E-02 0.  1.
        2   -1    0    0  501    0  0.00000000000E+00  0.00000000000E+00 -0.12434235580E+04  0.12434235581E+04  0.25500000920E-02 0. -1.
    10030    2    1    2    0    0  0.00000000000E+00  0.00000000000E+00 -0.36571434263E+03  0.21211327735E+04  0.20893676704E+04 0.  0.
        4    1    3    3  502    0  0.72898141656E+03 -0.63568285589E+03  0.21793099620E+03  0.99146463929E+03  0.12699999809E+01 0.  1.
       -4    1    3    3    0  502 -0.72898141656E+03  0.63568285589E+03 -0.58364533883E+03  0.11296681342E+04  0.12699999809E+01 0. -1.
</event>
<event>
 5   0  0.9254673E-05  0.2213240E+04  0.7818609E-02  0.8512938E-01
        2   -1    0    0  501    0  0.00000000000E+00  0.00000000000E+00  0.11371249380E+04  0.11371249380E+04  0.25500000920E-02 0. -1.
       -2   -1    0    0    0  501  0.00000000000E+00  0.00000000000E+00 -0.10769332248E+04  0.10769332249E+04  0.25500000920E-02 0.  1.
    10030    2    1    2    0    0  0.00000000000E+00  0.00000000000E+00  0.60191713133E+02  0.22140581628E+04  0.22132398212E+04 0.  0.
        2    1    3    3  502    0 -0.42490084953E+03  0.72712382259E+01 -0.99205198558E+03  0.10792408188E+04  0.25500000920E-02 0.  1.
       -2    1    3    3    0  502  0.42490084953E+03 -0.72712382259E+01  0.10522436987E+04  0.11348173440E+04  0.25500000920E-02 0. -1.
</event>
<event>
 5   0  0.9254673E-05  0.2243012E+04  0.7818609E-02  0.8500736E-01
        2   -1    0    0  501    0  0.00000000000E+00  0.00000000000E+00  0.15708611270E+04  0.15708611270E+04  0.25500000920E-02 0.  1.
       -2   -1    0    0    0  501  0.00000000000E+00  0.00000000000E+00 -0.80069164128E+03  0.80069164128E+03  0.25500000920E-02 0. -1.
    10030    2    1    2    0    0  0.00000000000E+00  0.00000000000E+00  0.77016948574E+03  0.23715527683E+04  0.22430117022E+04 0.  0.
        2    1    3    3  502    0  0.90053853773E+03 -0.22322634317E+03 -0.28108242286E+03  0.96943642735E+03  0.25500000920E-02 0. -1.
       -2    1    3    3    0  502 -0.90053853773E+03  0.22322634317E+03  0.10512519086E+04  0.14021163410E+04  0.25500000920E-02 0.  1.
</event>
<event>
 5   0  0.9457742E-05  0.2194692E+04  0.7818609E-02  0.8520641E-01
       -2   -1    0    0    0  501  0.00000000000E+00  0.00000000000E+00  0.11276911268E+04  0.11276911268E+04  0.25500000920E-02 0. -1.
        2   -1    0    0  501    0  0.00000000000E+00  0.00000000000E+00 -0.10678175846E+04  0.10678175846E+04  0.25500000920E-02 0.  1.
    10030    2    1    2    0    0  0.00000000000E+00  0.00000000000E+00  0.59873542187E+02  0.21955087114E+04  0.21946921563E+04 0.  0.
        1    1    3    3  502    0  0.21573059978E+03  0.57540086483E+03  0.93941889186E+03  0.11225567698E+04  0.50400001928E-02 0. -1.
       -1    1    3    3    0  502 -0.21573059978E+03 -0.57540086483E+03 -0.87954534967E+03  0.10729519416E+04  0.50400001928E-02 0.  1.
</event>
<event>
 5   0  0.9938176E-05  0.2207166E+04  0.7818609E-02  0.8515451E-01
        2   -1    0    0  501    0  0.00000000000E+00  0.00000000000E+00  0.30597679247E+04  0.30597679247E+04  0.25500000920E-02 0.  1.
       -2   -1    0    0    0  501  0.00000000000E+00  0.00000000000E+00 -0.39803529475E+03  0.39803529476E+03  0.25500000920E-02 0. -1.
    10030    2    1    2    0    0  0.00000000000E+00  0.00000000000E+00  0.26617326300E+04  0.34578032195E+04  0.22071661721E+04 0.  0.
        5    1    3    3  502    0  0.62629926552E+03 -0.90725723242E+03  0.12524241602E+04  0.16685187511E+04  0.46999998093E+01 0. -1.
       -5    1    3    3    0  502 -0.62629926552E+03  0.90725723242E+03  0.14093084698E+04  0.17892844684E+04  0.46999998093E+01 0.  1.
</event>
<event>
 5   0  0.4174030E-05  0.2207635E+04  0.7818609E-02  0.8515257E-01
        1   -1    0    0  501    0  0.00000000000E+00  0.00000000000E+00  0.10089375722E+04  0.10089375722E+04  0.50400001928E-02 0. -1.
       -1   -1    0    0    0  501  0.00000000000E+00  0.00000000000E+00 -0.12076195458E+04  0.12076195458E+04  0.50400001928E-02 0.  1.
    10030    2    1    2    0    0  0.00000000000E+00  0.00000000000E+00 -0.19868197359E+03  0.22165571180E+04  0.22076346914E+04 0.  0.
        2    1    3    3  502    0 -0.35147949128E+03 -0.79005740814E+02  0.94825171221E+03  0.10143771732E+04  0.25500000920E-02 0. -1.
       -2    1    3    3    0  502  0.35147949128E+03  0.79005740814E+02 -0.11469336858E+04  0.12021799447E+04  0.25500000920E-02 0.  1.
</event>
<event>
 5   0  0.4188865E-05  0.2242371E+04  0.7818609E-02  0.8500996E-01
        1   -1    0    0  501    0  0.00000000000E+00  0.00000000000E+00  0.14212296965E+04  0.14212296965E+04  0.50400001928E-02 0.  1.
       -1   -1    0    0    0  501  0.00000000000E+00  0.00000000000E+00 -0.88448539978E+03  0.88448539979E+03  0.50400001928E-02 0. -1.
    10030    2    1    2    0    0  0.00000000000E+00  0.00000000000E+00  0.53674429670E+03  0.23057150963E+04  0.22423709919E+04 0.  0.
        3    1    3    3  502    0 -0.79000865747E+03  0.51578995360E+03 -0.35446480358E+03  0.10078681770E+04  0.10100000352E+00 0. -1.
       -3    1    3    3    0  502  0.79000865747E+03 -0.51578995360E+03  0.89120910028E+03  0.12978469192E+04  0.10100000352E+00 0.  1.
</event>
<event>
 5   0  0.4063293E-05  0.2209405E+04  0.7818609E-02  0.8514524E-01
       -1   -1    0    0    0  501  0.00000000000E+00  0.00000000000E+00  0.78540915703E+03  0.78540915704E+03  0.50400001928E-02 0.  1.
        1   -1    0    0  501    0  0.00000000000E+00  0.00000000000E+00 -0.15537992428E+04  0.15537992428E+04  0.50400001928E-02 0. -1.
    10030    2    1    2    0    0  0.00000000000E+00  0.00000000000E+00 -0.76839008575E+03  0.23392083998E+04  0.22094054888E+04 0.  0.
        1    1    3    3  502    0  0.74257898246E+02  0.41496945988E+03 -0.14652895190E+04  0.15247253072E+04  0.50400001928E-02 0. -1.
       -1    1    3    3    0  502 -0.74257898246E+02 -0.41496945988E+03  0.69689943321E+03  0.81448309260E+03  0.50400001928E-02 0.  1.
</event>
<event>
 5   0  0.4174030E-05  0.2197169E+04  0.7818609E-02  0.8519607E-01
        1   -1    0    0  501    0  0.00000000000E+00  0.00000000000E+00  0.22817290137E+04  0.22817290137E+04  0.50400001928E-02 0. -1.
       -1   -1    0    0    0  501  0.00000000000E+00  0.00000000000E+00 -0.52893563033E+03  0.52893563035E+03  0.50400001928E-02 0.  1.
    10030    2    1    2    0    0  0.00000000000E+00  0.00000000000E+00  0.17527933834E+04  0.28106646440E+04  0.21971688821E+04 0.  0.
        2    1    3    3  502    0 -0.93602869830E+03  0.46285708072E+03  0.13130242192E+04  0.16776230213E+04  0.25500000920E-02 0.  1.
       -2    1    3    3    0  502  0.93602869830E+03 -0.46285708072E+03  0.43976916414E+03  0.11330416228E+04  0.25500000920E-02 0. -1.
</event>
<event>
 5   0  0.9179618E-05  0.2185730E+04  0.7818609E-02  0.8524391E-01
       -2   -1    0    0    0  501  0.00000000000E+00  0.00000000000E+00  0.56410750799E+03  0.56410750800E+03  0.25500000920E-02 0.  1.
        2   -1    0    0  501    0  0.00000000000E+00  0.00000000000E+00 -0.21172446725E+04  0.21172446725E+04  0.25500000920E-02 0. -1.
    10030    2    1    2    0    0  0.00000000000E+00  0.00000000000E+00 -0.15531371645E+04  0.26813521805E+04  0.21857297326E+04 0.  0.
        3    1    3    3  502    0 -0.37993797970E+03  0.30413149542E+03  0.42383663168E+03  0.64535752532E+03  0.10100000352E+00 0.  1.
       -3    1    3    3    0  502  0.37993797970E+03 -0.30413149542E+03 -0.19769737962E+04  0.20359946552E+04  0.10100000352E+00 0. -1.
</event>
<event>
 5   0  0.4174030E-05  0.2209151E+04  0.7818609E-02  0.8514629E-01
       -1   -1    0    0    0  501  0.00000000000E+00  0.00000000000E+00  0.85386568918E+03  0.85386568920E+03  0.50400001928E-02 0.  1.
        1   -1    0    0  501    0  0.00000000000E+00  0.00000000000E+00 -0.14288978290E+04  0.14288978290E+04  0.50400001928E-02 0. -1.
    10030    2    1    2    0    0  0.00000000000E+00  0.00000000000E+00 -0.57503213977E+03  0.22827635182E+04  0.22091508138E+04 0.  0.
        2    1    3    3  502    0 -0.21652900319E+03  0.76534851699E+03  0.50447205809E+03  0.94187855856E+03  0.25500000920E-02 0.  1.
       -2    1    3    3    0  502  0.21652900319E+03 -0.76534851699E+03 -0.10795041979E+04  0.13408849596E+04  0.25500000920E-02 0. -1.
</event>
<event>
 5   0  0.9938176E-05  0.2215301E+04  0.7818609E-02  0.8512086E-01
       -2   -1    0    0    0  501  0.00000000000E+00  0.00000000000E+00  0.53399294824E+03  0.53399294824E+03  0.25500000920E-02 0. -1.
        2   -1    0    0  501    0  0.00000000000E+00  0.00000000000E+00 -0.22975769493E+04  0.22975769493E+04  0.25500000920E-02 0.  1.
    10030    2    1    2    0    0  0.00000000000E+00  0.00000000000E+00 -0.17635840011E+04  0.28315698976E+04  0.22153012337E+04 0.  0.
        5    1    3    3  502    0  0.36970675857E+03 -0.18424980794E+03 -0.21954282620E+04  0.22339557790E+04  0.46999998093E+01 0.  1.
       -5    1    3    3    0  502 -0.36970675857E+03  0.18424980794E+03  0.43184426088E+03  0.59761411857E+03  0.46999998093E+01 0. -1.
</event>
<event>
 5   0  0.9457742E-05  0.2211222E+04  0.7818609E-02  0.8513772E-01
       -2   -1    0    0    0  501  0.00000000000E+00  0.00000000000E+00  0.74915451539E+03  0.74915451539E+03  0.25500000920E-02 0.  1.
        2   -1    0    0  501    0  0.00000000000E+00  0.00000000000E+00 -0.16316729157E+04  0.16316729157E+04  0.25500000920E-02 0. -1.
    10030    2    1    2    0    0  0.00000000000E+00  0.00000000000E+00 -0.88251840032E+03  0.23808274311E+04  0.22112215017E+04 0.  0.
        1    1    3    3  502    0  0.46737666503E+03  0.99507279791E+03 -0.31493896451E+03  0.11435896867E+04  0.50400001928E-02 0. -1.
       -1    1    3    3    0  502 -0.46737666503E+03 -0.99507279791E+03 -0.56757943581E+03  0.12372377444E+04  0.50400001928E-02 0.  1.
</event>
<event>
 5   0  0.4174075E-05  0.2178223E+04  0.7818609E-02  0.8527547E-01
       -1   -1    0    0    0  501  0.00000000000E+00  0.00000000000E+00  0.58642540150E+03  0.58642540152E+03  0.50400001928E-02 0.  1.
        1   -1    0    0  501    0  0.00000000000E+00  0.00000000000E+00 -0.20227016751E+04  0.20227016752E+04  0.50400001928E-02 0. -1.
    10030    2    1    2    0    0  0.00000000000E+00  0.00000000000E+00 -0.14362762736E+04  0.26091270767E+04  0.21782228004E+04 0.  0.
        5    1    3    3  502    0  0.48858046671E+03 -0.79450459602E+03 -0.44589216182E+02  0.93378729578E+03  0.46999998093E+01 0.  1.
       -5    1    3    3    0  502 -0.48858046671E+03  0.79450459602E+03 -0.13916870575E+04  0.16753397809E+04  0.46999998093E+01 0. -1.
</event>
<event>
 5   0  0.4188865E-05  0.2188103E+04  0.7818609E-02  0.8523396E-01
       -1   -1    0    0    0  501  0.00000000000E+00  0.00000000000E+00  0.91776737510E+03  0.91776737512E+03  0.50400001928E-02 0. -1.
        1   -1    0    0  501    0  0.00000000000E+00  0.00000000000E+00 -0.13041957090E+04  0.13041957090E+04  0.50400001928E-02 0.  1.
    10030    2    1    2    0    0  0.00000000000E+00  0.00000000000E+00 -0.38642833390E+03  0.22219630841E+04  0.21881026233E+04 0.  0.
        3    1    3    3  502    0 -0.89365181298E+03 -0.34624827189E+03 -0.72906053857E+03  0.12041722085E+04  0.10100000352E+00 0.  1.
       -3    1    3    3    0  502  0.89365181298E+03  0.34624827189E+03  0.34263220467E+03  0.10177908756E+04  0.10100000352E+00 0. -1.
</event>
<event>
 5   0  0.4063293E-05  0.2138449E+04  0.7818609E-02  0.8544493E-01
       -1   -1    0    0    0  501  0.00000000000E+00  0.00000000000E+00  0.75192992086E+03  0.75192992088E+03  0.50400001928E-02 0.  1.
        1   -1    0    0  501    0  0.00000000000E+00  0.00000000000E+00 -0.15204091728E+04  0.15204091729E+04  0.50400001928E-02 0. -1.
    10030    2    1    2    0    0  0.00000000000E+00  0.00000000000E+00 -0.76847925198E+03  0.22723390937E+04  0.21384491100E+04 0.  0.
        1    1    3    3  502    0 -0.74313962874E+02 -0.48657298734E+02 -0.15164817383E+04  0.15190809591E+04  0.50400001928E-02 0. -1.
       -1    1    3    3    0  502  0.74313962874E+02  0.48657298734E+02  0.74800248631E+03  0.75325813460E+03  0.50400001928E-02 0.  1.
</event>
<event>
 5   0  0.4174075E-05  0.2196437E+04  0.7818609E-02  0.8519913E-01
       -1   -1    0    0    0  501  0.00000000000E+00  0.00000000000E+00  0.11059506192E+04  0.11059506192E+04  0.50400001928E-02 0.  1.
        1   -1    0    0  501    0  0.00000000000E+00  0.00000000000E+00 -0.10905399626E+04  0.10905399626E+04  0.50400001928E-02 0. -1.
    10030    2    1    2    0    0  0.00000000000E+00  0.00000000000E+00  0.15410656570E+02  0.21964905818E+04  0.21964365203E+04 0.  0.
        5    1    3    3  502    0 -0.28873427986E+03 -0.41900684290E+03  0.98093380226E+03  0.11050734967E+04  0.46999998093E+01 0.  1.
       -5    1    3    3    0  502  0.28873427986E+03  0.41900684290E+03 -0.96552314569E+03  0.10914170851E+04  0.46999998093E+01 0. -1.
</event>
<event>
 5   0  0.9254673E-05  0.2211167E+04  0.7818609E-02  0.8513794E-01
       -2   -1    0    0    0  501  0.00000000000E+00  0.00000000000E+00  0.64693456168E+03  0.64693456169E+03  0.25500000920E-02 0.  1.
        2   -1    0    0  501    0  0.00000000000E+00  0.00000000000E+00 -0.18893950811E+04  0.18893950811E+04  0.25500000920E-02 0. -1.
    10030    2    1    2    0    0  0.00000000000E+00  0.00000000000E+00 -0.12424605195E+04  0.25363296428E+04  0.22111670933E+04 0.  0.
        2    1    3    3  502    0  0.68865679686E+03 -0.33857730803E+02  0.37010672627E+03  0.78254298197E+03  0.25500000920E-02 0.  1.
       -2    1    3    3    0  502 -0.68865679686E+03  0.33857730803E+02 -0.16125672457E+04  0.17537866609E+04  0.25500000920E-02 0. -1.
</event>
<event>
 5   0  0.4174030E-05  0.1870485E+04  0.7818609E-02  0.8669689E-01
       -1   -1    0    0    0  501  0.00000000000E+00  0.00000000000E+00  0.91562634322E+03  0.91562634324E+03  0.50400001928E-02 0. -1.
        1   -1    0    0  501    0  0.00000000000E+00  0.00000000000E+00 -0.95527927433E+03  0.95527927434E+03  0.50400001928E-02 0.  1.
    10030    2    1    2    0    0  0.00000000000E+00  0.00000000000E+00 -0.39652931108E+02  0.18709056176E+04  0.18704853581E+04 0.  0.
        2    1    3    3  502    0  0.89509495302E+03  0.27036609416E+03 -0.17341388760E+00  0.93503627195E+03  0.25500000920E-02 0.  1.
       -2    1    3    3    0  502 -0.89509495302E+03 -0.27036609416E+03 -0.39479517220E+02  0.93586934562E+03  0.25500000920E-02 0. -1.
</event>
<event>
 5   0  0.9938176E-05  0.2185715E+04  0.7818609E-02  0.8524397E-01
       -2   -1    0    0    0  501  0.00000000000E+00  0.00000000000E+00  0.22380611326E+04  0.22380611326E+04  0.25500000920E-02 0. -1.
        2   -1    0    0  501    0  0.00000000000E+00  0.00000000000E+00 -0.53364844559E+03  0.53364844559E+03  0.25500000920E-02 0.  1.
    10030    2    1    2    0    0  0.00000000000E+00  0.00000000000E+00  0.17044126870E+04  0.27717095782E+04  0.21857153013E+04 0.  0.
        5    1    3    3  502    0  0.74476661162E+03  0.51138451502E+03  0.72427515617E+02  0.90634389886E+03  0.46999998093E+01 0.  1.
       -5    1    3    3    0  502 -0.74476661162E+03 -0.51138451502E+03  0.16319851714E+04  0.18653656793E+04  0.46999998093E+01 0. -1.
</event>
<event>
 5   0  0.4063293E-05  0.2272490E+04  0.7818609E-02  0.8488848E-01
        1   -1    0    0  501    0  0.00000000000E+00  0.00000000000E+00  0.14550866021E+04  0.14550866021E+04  0.50400001928E-02 0. -1.
       -1   -1    0    0    0  501  0.00000000000E+00  0.00000000000E+00 -0.88726854354E+03  0.88726854355E+03  0.50400001928E-02 0.  1.
    10030    2    1    2    0    0  0.00000000000E+00  0.00000000000E+00  0.56781805855E+03  0.23423551456E+04  0.22724898857E+04 0.  0.
        1    1    3    3  502    0  0.93863077489E+03  0.63140358899E+03  0.39374177831E+03  0.11978024928E+04  0.50400001928E-02 0. -1.
       -1    1    3    3    0  502 -0.93863077489E+03 -0.63140358899E+03  0.17407628024E+03  0.11445526528E+04  0.50400001928E-02 0.  1.
</event>
<event>
 5   0  0.9179618E-05  0.2269512E+04  0.7818609E-02  0.8490040E-01
       -2   -1    0    0    0  501  0.00000000000E+00  0.00000000000E+00  0.62873207185E+03  0.62873207186E+03  0.25500000920E-02 0. -1.
        2   -1    0    0  501    0  0.00000000000E+00  0.00000000000E+00 -0.20480437968E+04  0.20480437968E+04  0.25500000920E-02 0.  1.
    10030    2    1    2    0    0  0.00000000000E+00  0.00000000000E+00 -0.14193117249E+04  0.26767758687E+04  0.22695116828E+04 0.  0.
        3    1    3    3  502    0 -0.57568711324E+03 -0.51595913811E+03  0.27009834206E+03  0.81889108503E+03  0.10100000352E+00 0. -1.
       -3    1    3    3    0  502  0.57568711324E+03  0.51595913811E+03 -0.16894100670E+04  0.18578847836E+04  0.10100000352E+00 0.  1.
</event>
<event>
 5   0  0.9938176E-05  0.2200653E+04  0.7818609E-02  0.8518156E-01
        2   -1    0    0  501    0  0.00000000000E+00  0.00000000000E+00  0.53592481484E+03  0.53592481484E+03  0.25500000920E-02 0.  1.
       -2   -1    0    0    0  501  0.00000000000E+00  0.00000000000E+00 -0.22591202829E+04  0.22591202829E+04  0.25500000920E-02 0. -1.
    10030    2    1    2    0    0  0.00000000000E+00  0.00000000000E+00 -0.17231954681E+04  0.27950450978E+04  0.22006531933E+04 0.  0.
        5    1    3    3  502    0  0.75184164733E+03 -0.61278758968E+03 -0.15214646953E+04  0.18043423737E+04  0.46999998093E+01 0. -1.
       -5    1    3    3    0  502 -0.75184164733E+03  0.61278758968E+03 -0.20173077284E+03  0.99070272404E+03  0.46999998093E+01 0.  1.
</event>
<event>
 5   0  0.9938176E-05  0.2193243E+04  0.7818609E-02  0.8521246E-01
        2   -1    0    0  501    0  0.00000000000E+00  0.00000000000E+00  0.16537868023E+04  0.16537868023E+04  0.25500000920E-02 0.  1.
       -2   -1    0    0    0  501  0.00000000000E+00  0.00000000000E+00 -0.72716669745E+03  0.72716669745E+03  0.25500000920E-02 0. -1.
    10030    2    1    2    0    0  0.00000000000E+00  0.00000000000E+00  0.92662010488E+03  0.23809534998E+04  0.21932429755E+04 0.  0.
        5    1    3    3  502    0  0.85522160534E+03  0.18856497242E+03  0.11797932919E+04  0.14693178842E+04  0.46999998093E+01 0.  1.
       -5    1    3    3    0  502 -0.85522160534E+03 -0.18856497242E+03 -0.25317318703E+03  0.91163561563E+03  0.46999998093E+01 0. -1.
</event>
<event>
 5   0  0.9179618E-05  0.2204348E+04  0.7818609E-02  0.8516621E-01
        2   -1    0    0  501    0  0.00000000000E+00  0.00000000000E+00  0.13295721450E+04  0.13295721450E+04  0.25500000920E-02 0.  1.
       -2   -1    0    0    0  501  0.00000000000E+00  0.00000000000E+00 -0.91366761218E+03  0.91366761218E+03  0.25500000920E-02 0. -1.
    10030    2    1    2    0    0  0.00000000000E+00  0.00000000000E+00  0.41590453278E+03  0.22432397571E+04  0.22043475288E+04 0.  0.
        3    1    3    3  502    0 -0.89056415563E+03 -0.57280632397E+03 -0.10334583144E+03  0.10639041175E+04  0.10100000352E+00 0. -1.
       -3    1    3    3    0  502  0.89056415563E+03  0.57280632397E+03  0.51925036422E+03  0.11793356397E+04  0.10100000352E+00 0.  1.
</event>
<event>
 5   0  0.4063293E-05  0.2159425E+04  0.7818609E-02  0.8535509E-01
        1   -1    0    0  501    0  0.00000000000E+00  0.00000000000E+00  0.71278666920E+03  0.71278666922E+03  0.50400001928E-02 0. -1.
       -1   -1    0    0    0  501  0.00000000000E+00  0.00000000000E+00 -0.16355235236E+04  0.16355235236E+04  0.50400001928E-02 0.  1.
    10030    2    1    2    0    0  0.00000000000E+00  0.00000000000E+00 -0.92273685435E+03  0.23483101928E+04  0.21594252613E+04 0.  0.
        1    1    3    3  502    0  0.13184431198E+03  0.36672722160E+03 -0.15563743597E+04  0.16044229259E+04  0.50400001928E-02 0.  1.
       -1    1    3    3    0  502 -0.13184431198E+03 -0.36672722160E+03  0.63363750532E+03  0.74388726689E+03  0.50400001928E-02 0. -1.
</event>
<event>
 5   0  0.4133418E-05  0.2179689E+04  0.7818609E-02  0.8526930E-01
        1   -1    0    0  501    0  0.00000000000E+00  0.00000000000E+00  0.16368974407E+04  0.16368974407E+04  0.50400001928E-02 0.  1.
       -1   -1    0    0    0  501  0.00000000000E+00  0.00000000000E+00 -0.72561716711E+03  0.72561716713E+03  0.50400001928E-02 0. -1.
    10030    2    1    2    0    0  0.00000000000E+00  0.00000000000E+00  0.91128027363E+03  0.23625146079E+04  0.21796888620E+04 0.  0.
        4    1    3    3  502    0 -0.75893949951E+03 -0.72095765940E+02  0.12997933678E+04  0.15068680683E+04  0.12699999809E+01 0.  1.
       -4    1    3    3    0  502  0.75893949951E+03  0.72095765940E+02 -0.38851309420E+03  0.85564653955E+03  0.12699999809E+01 0. -1.
</event>
<event>
 5   0  0.4174075E-05  0.2469099E+04  0.7818609E-02  0.8414078E-01
       -1   -1    0    0    0  501  0.00000000000E+00  0.00000000000E+00  0.71045564606E+03  0.71045564608E+03  0.50400001928E-02 0. -1.
        1   -1    0    0  501    0  0.00000000000E+00  0.00000000000E+00 -0.21452608810E+04  0.21452608810E+04  0.50400001928E-02 0.  1.
    10030    2    1    2    0    0  0.00000000000E+00  0.00000000000E+00 -0.14348052349E+04  0.28557165270E+04  0.24690991922E+04 0.  0.
        5    1    3    3  502    0 -0.11549358894E+04  0.34468833550E+03 -0.40834689575E+03  0.12725785769E+04  0.46999998093E+01 0.  1.
       -5    1    3    3    0  502  0.11549358894E+04 -0.34468833550E+03 -0.10264583392E+04  0.15831379501E+04  0.46999998093E+01 0. -1.
</event>
<event>
 5   0  0.9254673E-05  0.2218570E+04  0.7818609E-02  0.8510739E-01
       -2   -1    0    0    0  501  0.00000000000E+00  0.00000000000E+00  0.86658211305E+03  0.86658211305E+03  0.25500000920E-02 0. -1.
        2   -1    0    0  501    0  0.00000000000E+00  0.00000000000E+00 -0.14199609211E+04  0.14199609211E+04  0.25500000920E-02 0.  1.
    10030    2    1    2    0    0  0.00000000000E+00  0.00000000000E+00 -0.55337880805E+03  0.22865430342E+04  0.22185695711E+04 0.  0.
        2    1    3    3  502    0  0.34419971082E+03 -0.93531085554E+03  0.22529911498E+03  0.10217825251E+04  0.25500000920E-02 0. -1.
       -2    1    3    3    0  502 -0.34419971082E+03  0.93531085554E+03 -0.77867792303E+03  0.12647605090E+04  0.25500000920E-02 0.  1.
</event>
<event>
 5   0  0.4188865E-05  0.2174222E+04  0.7818609E-02  0.8529235E-01
        1   -1    0    0  501    0  0.00000000000E+00  0.00000000000E+00  0.19901003006E+04  0.19901003006E+04  0.50400001928E-02 0.  1.
       -1   -1    0    0    0  501  0.00000000000E+00  0.00000000000E+00 -0.59384476333E+03  0.59384476335E+03  0.50400001928E-02 0. -1.
    10030    2    1    2    0    0  0.00000000000E+00  0.00000000000E+00  0.13962555373E+04  0.25839450640E+04  0.21742222904E+04 0.  0.
        3    1    3    3  502    0  0.97716147530E+03 -0.47113479237E+03  0.61410801801E+03  0.12465717827E+04  0.10100000352E+00 0. -1.
       -3    1    3    3    0  502 -0.97716147530E+03  0.47113479237E+03  0.78214751928E+03  0.13373732813E+04  0.10100000352E+00 0.  1.
</event>
<event>
 5   0  0.4133418E-05  0.2189296E+04  0.7818609E-02  0.8522896E-01
       -1   -1    0    0    0  501  0.00000000000E+00  0.00000000000E+00  0.10345459561E+04  0.10345459561E+04  0.50400001928E-02 0.  1.
        1   -1    0    0  501    0  0.00000000000E+00  0.00000000000E+00 -0.11582421258E+04  0.11582421259E+04  0.50400001928E-02 0. -1.
    10030    2    1    2    0    0  0.00000000000E+00  0.00000000000E+00 -0.12369616977E+03  0.21927880819E+04  0.21892964235E+04 0.  0.
        4    1    3    3  502    0  0.34994467010E+03  0.91971303705E+03  0.41841613841E+03  0.10693021184E+04  0.12699999809E+01 0.  1.
       -4    1    3    3    0  502 -0.34994467010E+03 -0.91971303705E+03 -0.54211230819E+03  0.11234859635E+04  0.12699999809E+01 0. -1.
</event>
<event>
 5   0  0.9442578E-05  0.2223693E+04  0.7818609E-02  0.8508631E-01
       -2   -1    0    0    0  501  0.00000000000E+00  0.00000000000E+00  0.76569880713E+03  0.76569880714E+03  0.25500000920E-02 0.  1.
        2   -1    0    0  501    0  0.00000000000E+00  0.00000000000E+00 -0.16144760580E+04  0.16144760580E+04  0.25500000920E-02 0. -1.
    10030    2    1    2    0    0  0.00000000000E+00  0.00000000000E+00 -0.84877725089E+03  0.23801748652E+04  0.22236927771E+04 0.  0.
        4    1    3    3  502    0 -0.92595410307E+03 -0.49820695509E+03 -0.37572103558E+02  0.10521475405E+04  0.12699999809E+01 0.  1.
       -4    1    3    3    0  502  0.92595410307E+03  0.49820695509E+03 -0.81120514733E+03  0.13280273247E+04  0.12699999809E+01 0. -1.
</event>
<event>
 5   0  0.4133418E-05  0.2227519E+04  0.7818609E-02  0.8507061E-01
        1   -1    0    0  501    0  0.00000000000E+00  0.00000000000E+00  0.13254585726E+04  0.13254585727E+04  0.50400001928E-02 0.  1.
       -1   -1    0    0    0  501  0.00000000000E+00  0.00000000000E+00 -0.93587252042E+03  0.93587252043E+03  0.50400001928E-02 0. -1.
    10030    2    1    2    0    0  0.00000000000E+00  0.00000000000E+00  0.38958605222E+03  0.22613310931E+04  0.22275190281E+04 0.  0.
        4    1    3    3  502    0 -0.53127910189E+03  0.38471506159E+02 -0.79817532879E+03  0.95959523200E+03  0.12699999809E+01 0. -1.
       -4    1    3    3    0  502  0.53127910189E+03 -0.38471506159E+02  0.11877613810E+04  0.13017358611E+04  0.12699999809E+01 0.  1.
</event>
<event>
 5   0  0.4133418E-05  0.2209880E+04  0.7818609E-02  0.8514327E-01
       -1   -1    0    0    0  501  0.00000000000E+00  0.00000000000E+00  0.99253417584E+03  0.99253417586E+03  0.50400001928E-02 0. -1.
        1   -1    0    0  501    0  0.00000000000E+00  0.00000000000E+00 -0.12300757288E+04  0.12300757288E+04  0.50400001928E-02 0.  1.
    10030    2    1    2    0    0  0.00000000000E+00  0.00000000000E+00 -0.23754155298E+03  0.22226099047E+04  0.22098798155E+04 0.  0.
        4    1    3    3  502    0 -0.12755917075E+03 -0.96967808724E+03  0.39833457581E+03  0.10560392900E+04  0.12699999809E+01 0. -1.
       -4    1    3    3    0  502  0.12755917075E+03  0.96967808724E+03 -0.63587612879E+03  0.11665706147E+04  0.12699999809E+01 0.  1.
</event>
<event>
 5   0  0.4063293E-05  0.2210168E+04  0.7818609E-02  0.8514208E-01
       -1   -1    0    0    0  501  0.00000000000E+00  0.00000000000E+00  0.14211705873E+04  0.14211705873E+04  0.50400001928E-02 0.  1.
        1   -1    0    0  501    0  0.00000000000E+00  0.00000000000E+00 -0.85929879356E+03  0.85929879357E+03  0.50400001928E-02 0. -1.
    10030    2    1    2    0    0  0.00000000000E+00  0.00000000000E+00  0.56187179371E+03  0.22804693808E+04  0.22101675693E+04 0.  0.
        1    1    3    3  502    0  0.78040125633E+03  0.53420657207E+01  0.10882265529E+04  0.13391384130E+04  0.50400001928E-02 0.  1.
       -1    1    3    3    0  502 -0.78040125633E+03 -0.53420657207E+01 -0.52635475921E+03  0.94133096789E+03  0.50400001928E-02 0. -1.
</event>
<event>
 5   0  0.9457742E-05  0.1836940E+04  0.7818609E-02  0.8686898E-01
        2   -1    0    0  501    0  0.00000000000E+00  0.00000000000E+00  0.22932636305E+04  0.22932636305E+04  0.25500000920E-02 0. -1.
       -2   -1    0    0    0  501  0.00000000000E+00  0.00000000000E+00 -0.36785432536E+03  0.36785432537E+03  0.25500000920E-02 0.  1.
    10030    2    1    2    0    0  0.00000000000E+00  0.00000000000E+00  0.19254093051E+04  0.26611179559E+04  0.18369397875E+04 0.  0.
        1    1    3    3  502    0 -0.47076868605E+03 -0.63884799433E+03  0.29280359808E+03  0.84586279188E+03  0.50400001928E-02 0.  1.
       -1    1    3    3    0  502  0.47076868605E+03  0.63884799433E+03  0.16326057071E+04  0.18152551640E+04  0.50400001928E-02 0. -1.
</event>
<event>
 5   0  0.4188865E-05  0.2200884E+04  0.7818609E-02  0.8518060E-01
        1   -1    0    0  501    0  0.00000000000E+00  0.00000000000E+00  0.88000513256E+03  0.88000513258E+03  0.50400001928E-02 0.  1.
       -1   -1    0    0    0  501  0.00000000000E+00  0.00000000000E+00 -0.13760975526E+04  0.13760975526E+04  0.50400001928E-02 0. -1.
    10030    2    1    2    0    0  0.00000000000E+00  0.00000000000E+00 -0.49609242000E+03  0.22561026851E+04  0.22008842852E+04 0.  0.
        3    1    3    3  502    0 -0.61940755395E+03 -0.13887258402E+03  0.67340667593E+03  0.92543388411E+03  0.10100000352E+00 0.  1.
       -3    1    3    3    0  502  0.61940755395E+03  0.13887258402E+03 -0.11694990959E+04  0.13306688010E+04  0.10100000352E+00 0. -1.
</event>
<event>
 5   0  0.9254673E-05  0.2241376E+04  0.7818609E-02  0.8501401E-01
        2   -1    0    0  501    0  0.00000000000E+00  0.00000000000E+00  0.11782618606E+04  0.11782618606E+04  0.25500000920E-02 0.  1.
       -2   -1    0    0    0  501  0.00000000000E+00  0.00000000000E+00 -0.10659274711E+04  0.10659274711E+04  0.25500000920E-02 0. -1.
    10030    2    1    2    0    0  0.00000000000E+00  0.00000000000E+00  0.11233438951E+03  0.22441893318E+04  0.22413760822E+04 0.  0.
        2    1    3    3  502    0 -0.85683690599E+03  0.33783852978E+02  0.77862038129E+03  0.11582575406E+04  0.25500000920E-02 0.  1.
       -2    1    3    3    0  502  0.85683690599E+03 -0.33783852978E+02 -0.66628599178E+03  0.10859317912E+04  0.25500000920E-02 0. -1.
</event>
<event>
 5   0  0.9179618E-05  0.2077849E+04  0.7818609E-02  0.8571064E-01
        2   -1    0    0  501    0  0.00000000000E+00  0.00000000000E+00  0.57370789920E+03  0.57370789921E+03  0.25500000920E-02 0.  1.
       -2   -1    0    0    0  501  0.00000000000E+00  0.00000000000E+00 -0.18813820427E+04  0.18813820428E+04  0.25500000920E-02 0. -1.
    10030    2    1    2    0    0  0.00000000000E+00  0.00000000000E+00 -0.13076741435E+04  0.24550899420E+04  0.20778486368E+04 0.  0.
        3    1    3    3  502    0  0.11145393303E+03  0.22757571498E+03  0.53663396042E+03  0.59345488701E+03  0.10100000352E+00 0.  1.
       -3    1    3    3    0  502 -0.11145393303E+03 -0.22757571498E+03 -0.18443081040E+04  0.18616350549E+04  0.10100000352E+00 0. -1.
</event>
<event>
 5   0  0.3283125E-05  0.2178555E+04  0.7818609E-02  0.8527408E-01
        3   -1    0    0  501    0  0.00000000000E+00  0.00000000000E+00  0.10098443843E+04  0.10098443894E+04  0.10100000352E+00 0.  1.
       -3   -1    0    0    0  501  0.00000000000E+00  0.00000000000E+00 -0.11749581796E+04  0.11749581839E+04  0.10100000352E+00 0. -1.
    10030    2    1    2    0    0  0.00000000000E+00  0.00000000000E+00 -0.16511379526E+03  0.21848025733E+04  0.21785545022E+04 0.  0.
        3    1    3    3  502    0  0.50816672328E+03  0.79538006900E+03 -0.62786450797E+03  0.11336122456E+04  0.10100000352E+00 0. -1.
       -3    1    3    3    0  502 -0.50816672328E+03 -0.79538006900E+03  0.46275071271E+03  0.10511903277E+04  0.10100000352E+00 0.  1.
</event>
<event>
 5   0  0.4174075E-05  0.2196058E+04  0.7818609E-02  0.8520071E-01
        1   -1    0    0  501    0  0.00000000000E+00  0.00000000000E+00  0.14575900709E+04  0.14575900709E+04  0.50400001928E-02 0. -1.
       -1   -1    0    0    0  501  0.00000000000E+00  0.00000000000E+00 -0.82716498232E+03  0.82716498233E+03  0.50400001928E-02 0.  1.
    10030    2    1    2    0    0  0.00000000000E+00  0.00000000000E+00  0.63042508855E+03  0.22847550532E+04  0.21960578000E+04 0.  0.
        5    1    3    3  502    0  0.10366694747E+04  0.18395848119E+03 -0.90169885845E+01  0.10529139179E+04  0.46999998093E+01 0.  1.
       -5    1    3    3    0  502 -0.10366694747E+04 -0.18395848119E+03  0.63944207713E+03  0.12318411353E+04  0.46999998093E+01 0. -1.
</event>
<event>
 5   0  0.9442578E-05  0.2174482E+04  0.7818609E-02  0.8529125E-01
        2   -1    0    0  501    0  0.00000000000E+00  0.00000000000E+00  0.10673350992E+04  0.10673350992E+04  0.25500000920E-02 0.  1.
       -2   -1    0    0    0  501  0.00000000000E+00  0.00000000000E+00 -0.11075179894E+04  0.11075179894E+04  0.25500000920E-02 0. -1.
    10030    2    1    2    0    0  0.00000000000E+00  0.00000000000E+00 -0.40182890201E+02  0.21748530887E+04  0.21744818446E+04 0.  0.
        4    1    3    3  502    0 -0.68518782877E+03 -0.73591032304E+03  0.39355484718E+03  0.10797839575E+04  0.12699999809E+01 0.  1.
       -4    1    3    3    0  502  0.68518782877E+03  0.73591032304E+03 -0.43373773738E+03  0.10950691311E+04  0.12699999809E+01 0. -1.
</event>
<event>
 5   0  0.9442578E-05  0.2176460E+04  0.7818609E-02  0.8528290E-01
        2   -1    0    0  501    0  0.00000000000E+00  0.00000000000E+00  0.17394002231E+04  0.17394002231E+04  0.25500000920E-02 0.  1.
       -2   -1    0    0    0  501  0.00000000000E+00  0.00000000000E+00 -0.68083522928E+03  0.68083522928E+03  0.25500000920E-02 0. -1.
    10030    2    1    2    0    0  0.00000000000E+00  0.00000000000E+00  0.10585649938E+04  0.24202354523E+04  0.21764603830E+04 0.  0.
        4    1    3    3  502    0  0.10701376867E+04  0.16567449143E+03  0.40951260420E+03  0.11577326512E+04  0.12699999809E+01 0. -1.
       -4    1    3    3    0  502 -0.10701376867E+04 -0.16567449143E+03  0.64905238958E+03  0.12625028012E+04  0.12699999809E+01 0.  1.
</event>
<event>
 5   0  0.9254673E-05  0.1778510E+04  0.7818609E-02  0.8717812E-01
       -2   -1    0    0    0  501  0.00000000000E+00  0.00000000000E+00  0.76597872177E+03  0.76597872178E+03  0.25500000920E-02 0. -1.
        2   -1    0    0  501    0  0.00000000000E+00  0.00000000000E+00 -0.10323712925E+04  0.10323712925E+04  0.25500000920E-02 0.  1.
    10030    2    1    2    0    0  0.00000000000E+00  0.00000000000E+00 -0.26639257070E+03  0.17983500143E+04  0.17785099865E+04 0.  0.
        2    1    3    3  502    0 -0.16946399966E+03  0.72456527087E+03 -0.62551742846E+03  0.97210335471E+03  0.25500000920E-02 0.  1.
       -2    1    3    3    0  502  0.16946399966E+03 -0.72456527087E+03  0.35912485776E+03  0.82624665954E+03  0.25500000920E-02 0. -1.
</event>
<event>
 5   0  0.4174075E-05  0.2175357E+04  0.7818609E-02  0.8528756E-01
        1   -1    0    0  501    0  0.00000000000E+00  0.00000000000E+00  0.12642888431E+04  0.12642888432E+04  0.50400001928E-02 0. -1.
       -1   -1    0    0    0  501  0.00000000000E+00  0.00000000000E+00 -0.93573914693E+03  0.93573914694E+03  0.50400001928E-02 0.  1.
    10030    2    1    2    0    0  0.00000000000E+00  0.00000000000E+00  0.32854969622E+03  0.22000279901E+04  0.21753570407E+04 0.  0.
        5    1    3    3  502    0 -0.48854017878E+03 -0.79878533638E+03  0.72398883712E+03  0.11836010503E+04  0.46999998093E+01 0. -1.
       -5    1    3    3    0  502  0.48854017878E+03  0.79878533638E+03 -0.39543914090E+03  0.10164269398E+04  0.46999998093E+01 0.  1.
</event>
<event>
 5   0  0.9179618E-05  0.2051866E+04  0.7818609E-02  0.8582748E-01
        2   -1    0    0  501    0  0.00000000000E+00  0.00000000000E+00  0.15129819803E+04  0.15129819803E+04  0.25500000920E-02 0. -1.
       -2   -1    0    0    0  501  0.00000000000E+00  0.00000000000E+00 -0.69567165348E+03  0.69567165348E+03  0.25500000920E-02 0.  1.
    10030    2    1    2    0    0  0.00000000000E+00  0.00000000000E+00  0.81731032682E+03  0.22086536338E+04  0.20518661515E+04 0.  0.
        3    1    3    3  502    0  0.71881605681E+02 -0.12400585705E+03  0.15021512301E+04  0.15089740708E+04  0.10100000352E+00 0. -1.
       -3    1    3    3    0  502 -0.71881605681E+02  0.12400585705E+03 -0.68484090333E+03  0.69967956301E+03  0.10100000352E+00 0.  1.
</event>
<event>
 5   0  0.3283125E-05  0.2204307E+04  0.7818609E-02  0.8516638E-01
       -3   -1    0    0    0  501  0.00000000000E+00  0.00000000000E+00  0.14944471020E+04  0.14944471054E+04  0.10100000352E+00 0.  1.
        3   -1    0    0  501    0  0.00000000000E+00  0.00000000000E+00 -0.81283744083E+03  0.81283744710E+03  0.10100000352E+00 0. -1.
    10030    2    1    2    0    0  0.00000000000E+00  0.00000000000E+00  0.68160966116E+03  0.23072845525E+04  0.22043072100E+04 0.  0.
        2    1    3    3  502    0  0.42531740980E+03 -0.13835309418E+03  0.13951897143E+04  0.14651248468E+04  0.25500000920E-02 0.  1.
       -2    1    3    3    0  502 -0.42531740980E+03  0.13835309418E+03 -0.71358005313E+03  0.84215970574E+03  0.25500000920E-02 0. -1.
</event>
<event>
 5   0  0.4188865E-05  0.2121590E+04  0.7818609E-02  0.8551792E-01
        1   -1    0    0  501    0  0.00000000000E+00  0.00000000000E+00  0.97098652371E+03  0.97098652372E+03  0.50400001928E-02 0. -1.
       -1   -1    0    0    0  501  0.00000000000E+00  0.00000000000E+00 -0.11589095651E+04  0.11589095652E+04  0.50400001928E-02 0.  1.
    10030    2    1    2    0    0  0.00000000000E+00  0.00000000000E+00 -0.18792304144E+03  0.21298960889E+04  0.21215895644E+04 0.  0.
        3    1    3    3  502    0  0.65220778175E+03 -0.83660473497E+03 -0.95725279735E+02  0.10651036628E+04  0.10100000352E+00 0. -1.
       -3    1    3    3    0  502 -0.65220778175E+03  0.83660473497E+03 -0.92197761707E+02  0.10647924261E+04  0.10100000352E+00 0.  1.
</event>
<event>
 5   0  0.3283125E-05  0.2247123E+04  0.7818609E-02  0.8499067E-01
        3   -1    0    0  501    0  0.00000000000E+00  0.00000000000E+00  0.72656476232E+03  0.72656476934E+03  0.10100000352E+00 0. -1.
       -3   -1    0    0    0  501  0.00000000000E+00  0.00000000000E+00 -0.17374775841E+04  0.17374775870E+04  0.10100000352E+00 0.  1.
    10030    2    1    2    0    0  0.00000000000E+00  0.00000000000E+00 -0.10109128218E+04  0.24640423563E+04  0.22471226047E+04 0.  0.
        4    1    3    3  502    0  0.11157141710E+04  0.12670574226E+03 -0.46276297725E+03  0.12145055136E+04  0.12699999809E+01 0.  1.
       -4    1    3    3    0  502 -0.11157141710E+04 -0.12670574226E+03 -0.54814984450E+03  0.12495368428E+04  0.12699999809E+01 0. -1.
</event>
<event>
 5   0  0.9442578E-05  0.2198347E+04  0.7818609E-02  0.8519116E-01
        2   -1    0    0  501    0  0.00000000000E+00  0.00000000000E+00  0.10877712637E+04  0.10877712637E+04  0.25500000920E-02 0. -1.
       -2   -1    0    0    0  501  0.00000000000E+00  0.00000000000E+00 -0.11106954622E+04  0.11106954622E+04  0.25500000920E-02 0.  1.
    10030    2    1    2    0    0  0.00000000000E+00  0.00000000000E+00 -0.22924198447E+02  0.21984667259E+04  0.21983472033E+04 0.  0.
        4    1    3    3  502    0  0.25351821659E+01  0.89835646589E+03  0.62192075991E+03  0.10926288535E+04  0.12699999809E+01 0. -1.
       -4    1    3    3    0  502 -0.25351821659E+01 -0.89835646589E+03 -0.64484495835E+03  0.11058378725E+04  0.12699999809E+01 0.  1.
</event>
<event>
 5   0  0.4133418E-05  0.2213870E+04  0.7818609E-02  0.8512677E-01
        1   -1    0    0  501    0  0.00000000000E+00  0.00000000000E+00  0.79525844999E+03  0.79525845001E+03  0.50400001928E-02 0. -1.
       -1   -1    0    0    0  501  0.00000000000E+00  0.00000000000E+00 -0.15407628260E+04  0.15407628260E+04  0.50400001928E-02 0.  1.
    10030    2    1    2    0    0  0.00000000000E+00  0.00000000000E+00 -0.74550437599E+03  0.23360212760E+04  0.22138696049E+04 0.  0.
        4    1    3    3  502    0  0.17906287982E+03 -0.80662481884E+03  0.40450191337E+03  0.91996224059E+03  0.12699999809E+01 0. -1.
       -4    1    3    3    0  502 -0.17906287982E+03  0.80662481884E+03 -0.11500062894E+04  0.14160590354E+04  0.12699999809E+01 0.  1.
</event>
<event>
 5   0  0.4188865E-05  0.2198270E+04  0.7818609E-02  0.8519148E-01
       -1   -1    0    0    0  501  0.00000000000E+00  0.00000000000E+00  0.15058053284E+04  0.15058053284E+04  0.50400001928E-02 0.  1.
        1   -1    0    0  501    0  0.00000000000E+00  0.00000000000E+00 -0.80229348963E+03  0.80229348965E+03  0.50400001928E-02 0. -1.
    10030    2    1    2    0    0  0.00000000000E+00  0.00000000000E+00  0.70351183876E+03  0.23080988181E+04  0.21982700577E+04 0.  0.
        3    1    3    3  502    0 -0.38450672128E+03  0.51757987456E+03 -0.58286516235E+03  0.86917555934E+03  0.10100000352E+00 0. -1.
       -3    1    3    3    0  502  0.38450672128E+03 -0.51757987456E+03  0.12863770011E+04  0.14389232587E+04  0.10100000352E+00 0.  1.
</event>
<event>
 5   0  0.9254673E-05  0.2208483E+04  0.7818609E-02  0.8514905E-01
        2   -1    0    0  501    0  0.00000000000E+00  0.00000000000E+00  0.14205620571E+04  0.14205620571E+04  0.25500000920E-02 0.  1.
       -2   -1    0    0    0  501  0.00000000000E+00  0.00000000000E+00 -0.85835715651E+03  0.85835715652E+03  0.25500000920E-02 0. -1.
    10030    2    1    2    0    0  0.00000000000E+00  0.00000000000E+00  0.56220490058E+03  0.22789192136E+04  0.22084832877E+04 0.  0.
        2    1    3    3  502    0  0.44889444413E+03 -0.51377970444E+03 -0.61484830161E+03  0.91843031345E+03  0.25500000920E-02 0. -1.
       -2    1    3    3    0  502 -0.44889444413E+03  0.51377970444E+03  0.11770532022E+04  0.13604889002E+04  0.25500000920E-02 0.  1.
</event>
<event>
 5   0  0.4188865E-05  0.2207481E+04  0.7818609E-02  0.8515321E-01
       -1   -1    0    0    0  501  0.00000000000E+00  0.00000000000E+00  0.11095718437E+04  0.11095718437E+04  0.50400001928E-02 0.  1.
        1   -1    0    0  501    0  0.00000000000E+00  0.00000000000E+00 -0.10979396107E+04  0.10979396107E+04  0.50400001928E-02 0. -1.
    10030    2    1    2    0    0  0.00000000000E+00  0.00000000000E+00  0.11632233021E+02  0.22075114544E+04  0.22074808068E+04 0.  0.
        3    1    3    3  502    0 -0.71740987174E+03 -0.25979050243E+03  0.80337019033E+03  0.11079583486E+04  0.10100000352E+00 0.  1.
       -3    1    3    3    0  502  0.71740987174E+03  0.25979050243E+03 -0.79173795730E+03  0.10995531058E+04  0.10100000352E+00 0. -1.
</event>
<event>
 5   0  0.9442578E-05  0.2211108E+04  0.7818609E-02  0.8513819E-01
       -2   -1    0    0    0  501  0.00000000000E+00  0.00000000000E+00  0.68185925977E+03  0.68185925978E+03  0.25500000920E-02 0. -1.
        2   -1    0    0  501    0  0.00000000000E+00  0.00000000000E+00 -0.17925254160E+04  0.17925254160E+04  0.25500000920E-02 0.  1.
    10030    2    1    2    0    0  0.00000000000E+00  0.00000000000E+00 -0.11106661562E+04  0.24743846758E+04  0.22111083676E+04 0.  0.
        4    1    3    3  502    0  0.51643785634E+03  0.94298149139E+03 -0.84353709849E+03  0.13665572077E+04  0.12699999809E+01 0.  1.
       -4    1    3    3    0  502 -0.51643785634E+03 -0.94298149139E+03 -0.26712905771E+03  0.11078274680E+04  0.12699999809E+01 0. -1.
</event>
<event>
 5   0  0.9457742E-05  0.2188630E+04  0.7818609E-02  0.8523176E-01
       -2   -1    0    0    0  501  0.00000000000E+00  0.00000000000E+00  0.19174066833E+04  0.19174066833E+04  0.25500000920E-02 0.  1.
        2   -1    0    0  501    0  0.00000000000E+00  0.00000000000E+00 -0.62455461152E+03  0.62455461153E+03  0.25500000920E-02 0. -1.
    10030    2    1    2    0    0  0.00000000000E+00  0.00000000000E+00  0.12928520718E+04  0.25419612949E+04  0.21886298785E+04 0.  0.
        1    1    3    3  502    0 -0.37709152075E+03  0.39257927070E+02  0.18386911021E+04  0.18773716118E+04  0.50400001928E-02 0.  1.
       -1    1    3    3    0  502  0.37709152075E+03 -0.39257927070E+02 -0.54583903027E+03  0.66458968307E+03  0.50400001928E-02 0. -1.
</event>
<event>
 5   0  0.9179618E-05  0.2181941E+04  0.7818609E-02  0.8525983E-01
       -2   -1    0    0    0  501  0.00000000000E+00  0.00000000000E+00  0.13530775192E+04  0.13530775192E+04  0.25500000920E-02 0. -1.
        2   -1    0    0  501    0  0.00000000000E+00  0.00000000000E+00 -0.87963638886E+03  0.87963638886E+03  0.25500000920E-02 0.  1.
    10030    2    1    2    0    0  0.00000000000E+00  0.00000000000E+00  0.47344113029E+03  0.22327139080E+04  0.21819406250E+04 0.  0.
        3    1    3    3  502    0  0.95861091051E+03  0.30774977604E+03 -0.19326150083E+03  0.10251803843E+04  0.10100000352E+00 0.  1.
       -3    1    3    3    0  502 -0.95861091051E+03 -0.30774977604E+03  0.66670263112E+03  0.12075335237E+04  0.10100000352E+00 0. -1.
</event>
<event>
 5   0  0.9179618E-05  0.2376984E+04  0.7818609E-02  0.8448171E-01
        2   -1    0    0  501    0  0.00000000000E+00  0.00000000000E+00  0.97193361591E+03  0.97193361591E+03  0.25500000920E-02 0.  1.
       -2   -1    0    0    0  501  0.00000000000E+00  0.00000000000E+00 -0.14533024741E+04  0.14533024741E+04  0.25500000920E-02 0. -1.
    10030    2    1    2    0    0  0.00000000000E+00  0.00000000000E+00 -0.48136885819E+03  0.24252360900E+04  0.23769842479E+04 0.  0.
        3    1    3    3  502    0  0.10477307087E+04  0.51868206672E+03 -0.22467186729E+02  0.11693055670E+04  0.10100000352E+00 0.  1.
       -3    1    3    3    0  502 -0.10477307087E+04 -0.51868206672E+03 -0.45890167146E+03  0.12559305230E+04  0.10100000352E+00 0. -1.
</event>
<event>
 5   0  0.9938176E-05  0.2105922E+04  0.7818609E-02  0.8558639E-01
       -2   -1    0    0    0  501  0.00000000000E+00  0.00000000000E+00  0.93025772028E+03  0.93025772028E+03  0.25500000920E-02 0.  1.
        2   -1    0    0  501    0  0.00000000000E+00  0.00000000000E+00 -0.11918495906E+04  0.11918495906E+04  0.25500000920E-02 0. -1.
    10030    2    1    2    0    0  0.00000000000E+00  0.00000000000E+00 -0.26159187034E+03  0.21221073109E+04  0.21059223947E+04 0.  0.
        5    1    3    3  502    0 -0.34299917540E+03 -0.77036880522E+03 -0.76618827473E+03  0.11393783800E+04  0.46999998093E+01 0. -1.
       -5    1    3    3    0  502  0.34299917540E+03  0.77036880522E+03  0.50459640440E+03  0.98272893094E+03  0.46999998093E+01 0.  1.
</event>
<event>
 5   0  0.4188865E-05  0.2174479E+04  0.7818609E-02  0.8529126E-01
        1   -1    0    0  501    0  0.00000000000E+00  0.00000000000E+00  0.19808359643E+04  0.19808359643E+04  0.50400001928E-02 0.  1.
       -1   -1    0    0    0  501  0.00000000000E+00  0.00000000000E+00 -0.59676290551E+03  0.59676290553E+03  0.50400001928E-02 0. -1.
    10030    2    1    2    0    0  0.00000000000E+00  0.00000000000E+00  0.13840730588E+04  0.25775988698E+04  0.21744787195E+04 0.  0.
        3    1    3    3  502    0 -0.94031838051E+03  0.14810695712E+03  0.69335801198E+02  0.95443270638E+03  0.10100000352E+00 0. -1.
       -3    1    3    3    0  502  0.94031838051E+03 -0.14810695712E+03  0.13147372576E+04  0.16231661634E+04  0.10100000352E+00 0.  1.
</event>
<event>
 5   0  0.4133418E-05  0.2189496E+04  0.7818609E-02  0.8522813E-01
       -1   -1    0    0    0  501  0.00000000000E+00  0.00000000000E+00  0.58930346803E+03  0.58930346805E+03  0.50400001928E-02 0. -1.
        1   -1    0    0  501    0  0.00000000000E+00  0.00000000000E+00 -0.20337105677E+04  0.20337105677E+04  0.50400001928E-02 0.  1.
    10030    2    1    2    0    0  0.00000000000E+00  0.00000000000E+00 -0.14444070997E+04  0.26230140358E+04  0.21894955497E+04 0.  0.
        4    1    3    3  502    0  0.87782036026E+03  0.71790579518E+01  0.61411557183E+02  0.87999608864E+03  0.12699999809E+01 0. -1.
       -4    1    3    3    0  502 -0.87782036026E+03 -0.71790579518E+01 -0.15058186569E+04  0.17430179471E+04  0.12699999809E+01 0.  1.
</event>
<event>
 5   0  0.9442578E-05  0.2175239E+04  0.7818609E-02  0.8528805E-01
        2   -1    0    0  501    0  0.00000000000E+00  0.00000000000E+00  0.27488369471E+04  0.27488369471E+04  0.25500000920E-02 0.  1.
       -2   -1    0    0    0  501  0.00000000000E+00  0.00000000000E+00 -0.43033329240E+03  0.43033329241E+03  0.25500000920E-02 0. -1.
    10030    2    1    2    0    0  0.00000000000E+00  0.00000000000E+00  0.23185036547E+04  0.31791702395E+04  0.21752388869E+04 0.  0.
        4    1    3    3  502    0 -0.20127948645E+03  0.52915625423E+03 -0.19799819368E+03  0.59977051499E+03  0.12699999809E+01 0. -1.
       -4    1    3    3    0  502  0.20127948645E+03 -0.52915625423E+03  0.25165018484E+04  0.25793997245E+04  0.12699999809E+01 0.  1.
</event>
<event>
 5   0  0.4188865E-05  0.2232717E+04  0.7818609E-02  0.8504933E-01
       -1   -1    0    0    0  501  0.00000000000E+00  0.00000000000E+00  0.72905730780E+03  0.72905730782E+03  0.50400001928E-02 0.  1.
        1   -1    0    0  501    0  0.00000000000E+00  0.00000000000E+00 -0.17094077744E+04  0.17094077744E+04  0.50400001928E-02 0. -1.
    10030    2    1    2    0    0  0.00000000000E+00  0.00000000000E+00 -0.98035046658E+03  0.24384650822E+04  0.22327169368E+04 0.  0.
        3    1    3    3  502    0  0.71553202407E+03 -0.68568600241E+03  0.71093773536E+02  0.99358225941E+03  0.10100000352E+00 0.  1.
       -3    1    3    3    0  502 -0.71553202407E+03  0.68568600241E+03 -0.10514442401E+04  0.14448828228E+04  0.10100000352E+00 0. -1.
</event>
<event>
 5   0  0.4174030E-05  0.1792024E+04  0.7818609E-02  0.8710553E-01
       -1   -1    0    0    0  501  0.00000000000E+00  0.00000000000E+00  0.65491289064E+03  0.65491289066E+03  0.50400001928E-02 0.  1.
        1   -1    0    0  501    0  0.00000000000E+00  0.00000000000E+00 -0.12258685111E+04  0.12258685111E+04  0.50400001928E-02 0. -1.
    10030    2    1    2    0    0  0.00000000000E+00  0.00000000000E+00 -0.57095562046E+03  0.18807814018E+04  0.17920235380E+04 0.  0.
        2    1    3    3  502    0 -0.23950673565E+03  0.75496479320E+03  0.15420083023E+03  0.80691586392E+03  0.25500000920E-02 0. -1.
       -2    1    3    3    0  502  0.23950673565E+03 -0.75496479320E+03 -0.72515645069E+03  0.10738655378E+04  0.25500000920E-02 0.  1.
</event>
<event>
 5   0  0.4188865E-05  0.2234178E+04  0.7818609E-02  0.8504336E-01
       -1   -1    0    0    0  501  0.00000000000E+00  0.00000000000E+00  0.11328466835E+04  0.11328466836E+04  0.50400001928E-02 0. -1.
        1   -1    0    0  501    0  0.00000000000E+00  0.00000000000E+00 -0.11015503748E+04  0.11015503748E+04  0.50400001928E-02 0.  1.
    10030    2    1    2    0    0  0.00000000000E+00  0.00000000000E+00  0.31296308769E+02  0.22343970583E+04  0.22341778701E+04 0.  0.
        3    1    3    3  502    0  0.79674756841E+02 -0.11504539475E+03  0.11240457324E+04  0.11327234121E+04  0.10100000352E+00 0. -1.
       -3    1    3    3    0  502 -0.79674756841E+02  0.11504539475E+03 -0.10927494236E+04  0.11016736462E+04  0.10100000352E+00 0.  1.
</event>
<event>
 5   0  0.4188865E-05  0.2303377E+04  0.7818609E-02  0.8476591E-01
       -1   -1    0    0    0  501  0.00000000000E+00  0.00000000000E+00  0.70287930409E+03  0.70287930411E+03  0.50400001928E-02 0. -1.
        1   -1    0    0  501    0  0.00000000000E+00  0.00000000000E+00 -0.18870761509E+04  0.18870761509E+04  0.50400001928E-02 0.  1.
    10030    2    1    2    0    0  0.00000000000E+00  0.00000000000E+00 -0.11841968468E+04  0.25899554550E+04  0.23033773219E+04 0.  0.
        3    1    3    3  502    0 -0.19002358568E+03 -0.33943619345E+03  0.62677158248E+03  0.73767778829E+03  0.10100000352E+00 0. -1.
       -3    1    3    3    0  502  0.19002358568E+03  0.33943619345E+03 -0.18109684293E+04  0.18522776667E+04  0.10100000352E+00 0.  1.
</event>
<event>
 5   0  0.4174075E-05  0.2178423E+04  0.7818609E-02  0.8527463E-01
        1   -1    0    0  501    0  0.00000000000E+00  0.00000000000E+00  0.11473439707E+04  0.11473439707E+04  0.50400001928E-02 0. -1.
       -1   -1    0    0    0  501  0.00000000000E+00  0.00000000000E+00 -0.10340240226E+04  0.10340240226E+04  0.50400001928E-02 0.  1.
    10030    2    1    2    0    0  0.00000000000E+00  0.00000000000E+00  0.11331994810E+03  0.21813679933E+04  0.21784225741E+04 0.  0.
        5    1    3    3  502    0  0.27597036660E+03 -0.15381361991E+03 -0.98712211487E+03  0.10364605311E+04  0.46999998093E+01 0.  1.
       -5    1    3    3    0  502 -0.27597036660E+03  0.15381361991E+03  0.11004420630E+04  0.11449074621E+04  0.46999998093E+01 0. -1.
</event>
<event>
 5   0  0.4174030E-05  0.2113758E+04  0.7818609E-02  0.8555207E-01
        1   -1    0    0  501    0  0.00000000000E+00  0.00000000000E+00  0.20004680417E+04  0.20004680417E+04  0.50400001928E-02 0.  1.
       -1   -1    0    0    0  501  0.00000000000E+00  0.00000000000E+00 -0.55836594727E+03  0.55836594729E+03  0.50400001928E-02 0. -1.
    10030    2    1    2    0    0  0.00000000000E+00  0.00000000000E+00  0.14421020944E+04  0.25588339890E+04  0.21137580118E+04 0.  0.
        2    1    3    3  502    0  0.66091044121E+03  0.21075166716E+03  0.16862977963E+04  0.18234086581E+04  0.25500000920E-02 0.  1.
       -2    1    3    3    0  502 -0.66091044121E+03 -0.21075166716E+03 -0.24419570190E+03  0.73542533091E+03  0.25500000920E-02 0. -1.
</event>
<event>
 5   0  0.3283125E-05  0.2210982E+04  0.7818609E-02  0.8513871E-01
       -3   -1    0    0    0  501  0.00000000000E+00  0.00000000000E+00  0.13551489618E+04  0.13551489656E+04  0.10100000352E+00 0.  1.
        3   -1    0    0  501    0  0.00000000000E+00  0.00000000000E+00 -0.90182753530E+03  0.90182754095E+03  0.10100000352E+00 0. -1.
    10030    2    1    2    0    0  0.00000000000E+00  0.00000000000E+00  0.45332142652E+03  0.22569765065E+04  0.22109822784E+04 0.  0.
        5    1    3    3  502    0 -0.60231941237E+03  0.79346544923E+03  0.71591435559E+03  0.12267565154E+04  0.46999998093E+01 0.  1.
       -5    1    3    3    0  502  0.60231941237E+03 -0.79346544923E+03 -0.26259292907E+03  0.10302199911E+04  0.46999998093E+01 0. -1.
</event>
<event>
 5   0  0.4174030E-05  0.2200092E+04  0.7818609E-02  0.8518390E-01
        1   -1    0    0  501    0  0.00000000000E+00  0.00000000000E+00  0.10693128677E+04  0.10693128677E+04  0.50400001928E-02 0. -1.
       -1   -1    0    0    0  501  0.00000000000E+00  0.00000000000E+00 -0.11316627077E+04  0.11316627078E+04  0.50400001928E-02 0.  1.
    10030    2    1    2    0    0  0.00000000000E+00  0.00000000000E+00 -0.62349840083E+02  0.22009755754E+04  0.22000922665E+04 0.  0.
        2    1    3    3  502    0 -0.49890210381E+03  0.39551450791E+03 -0.92862285543E+03  0.11259109391E+04  0.25500000920E-02 0.  1.
       -2    1    3    3    0  502  0.49890210381E+03 -0.39551450791E+03  0.86627301535E+03  0.10750646363E+04  0.25500000920E-02 0. -1.
</event>
<event>
 5   0  0.9938176E-05  0.2103395E+04  0.7818609E-02  0.8559749E-01
       -2   -1    0    0    0  501  0.00000000000E+00  0.00000000000E+00  0.53076064208E+03  0.53076064209E+03  0.25500000920E-02 0.  1.
        2   -1    0    0  501    0  0.00000000000E+00  0.00000000000E+00 -0.20839292950E+04  0.20839292950E+04  0.25500000920E-02 0. -1.
    10030    2    1    2    0    0  0.00000000000E+00  0.00000000000E+00 -0.15531686530E+04  0.26146899371E+04  0.21033950182E+04 0.  0.
        5    1    3    3  502    0  0.92058177039E+02  0.99774289527E+03 -0.37942056388E+03  0.10714231878E+04  0.46999998093E+01 0.  1.
       -5    1    3    3    0  502 -0.92058177039E+02 -0.99774289527E+03 -0.11737480891E+04  0.15432667493E+04  0.46999998093E+01 0. -1.
</event>
<event>
 5   0  0.4188865E-05  0.2211825E+04  0.7818609E-02  0.8513523E-01
       -1   -1    0    0    0  501  0.00000000000E+00  0.00000000000E+00  0.80288907185E+03  0.80288907187E+03  0.50400001928E-02 0.  1.
        1   -1    0    0  501    0  0.00000000000E+00  0.00000000000E+00 -0.15233013554E+04  0.15233013554E+04  0.50400001928E-02 0. -1.
    10030    2    1    2    0    0  0.00000000000E+00  0.00000000000E+00 -0.72041228357E+03  0.23261904273E+04  0.22118245965E+04 0.  0.
        3    1    3    3  502    0 -0.74521516539E+03 -0.59677551251E+03  0.22682641097E+03  0.98129347596E+03  0.10100000352E+00 0.  1.
       -3    1    3    3    0  502  0.74521516539E+03  0.59677551251E+03 -0.94723869455E+03  0.13448969513E+04  0.10100000352E+00 0. -1.
</event>
<event>
 5   0  0.9938176E-05  0.2201096E+04  0.7818609E-02  0.8517972E-01
       -2   -1    0    0    0  501  0.00000000000E+00  0.00000000000E+00  0.79757213146E+03  0.79757213146E+03  0.25500000920E-02 0.  1.
        2   -1    0    0  501    0  0.00000000000E+00  0.00000000000E+00 -0.15186164999E+04  0.15186164999E+04  0.25500000920E-02 0. -1.
    10030    2    1    2    0    0  0.00000000000E+00  0.00000000000E+00 -0.72104436848E+03  0.23161886314E+04  0.22010962712E+04 0.  0.
        5    1    3    3  502    0 -0.49937732229E+03  0.97417432735E+03 -0.47953216348E+03  0.11951428851E+04  0.46999998093E+01 0.  1.
       -5    1    3    3    0  502  0.49937732229E+03 -0.97417432735E+03 -0.24151220500E+03  0.11210457463E+04  0.46999998093E+01 0. -1.
</event>
<event>
 5   0  0.4188865E-05  0.2200680E+04  0.7818609E-02  0.8518145E-01
       -1   -1    0    0    0  501  0.00000000000E+00  0.00000000000E+00  0.92868654175E+03  0.92868654176E+03  0.50400001928E-02 0.  1.
        1   -1    0    0  501    0  0.00000000000E+00  0.00000000000E+00 -0.13037208693E+04  0.13037208693E+04  0.50400001928E-02 0. -1.
    10030    2    1    2    0    0  0.00000000000E+00  0.00000000000E+00 -0.37503432756E+03  0.22324074111E+04  0.22006799182E+04 0.  0.
        3    1    3    3  502    0 -0.33726892260E+03 -0.10462550110E+04 -0.23667340644E+03  0.11244617315E+04  0.10100000352E+00 0. -1.
       -3    1    3    3    0  502  0.33726892260E+03  0.10462550110E+04 -0.13836092112E+03  0.11079456796E+04  0.10100000352E+00 0.  1.
</event>
<event>
 5   0  0.9442578E-05  0.1885400E+04  0.7818609E-02  0.8662158E-01
        2   -1    0    0  501    0  0.00000000000E+00  0.00000000000E+00  0.10648401398E+04  0.10648401398E+04  0.25500000920E-02 0.  1.
       -2   -1    0    0    0  501  0.00000000000E+00  0.00000000000E+00 -0.83456949338E+03  0.83456949339E+03  0.25500000920E-02 0. -1.
    10030    2    1    2    0    0  0.00000000000E+00  0.00000000000E+00  0.23027064645E+03  0.18994096332E+04  0.18853997943E+04 0.  0.
        4    1    3    3  502    0 -0.55583538370E+03 -0.29666545363E+03  0.82157207717E+03  0.10353480845E+04  0.12699999809E+01 0.  1.
       -4    1    3    3    0  502  0.55583538370E+03  0.29666545363E+03 -0.59130143072E+03  0.86406154874E+03  0.12699999809E+01 0. -1.
</event>
<event>
 5   0  0.4133418E-05  0.2214122E+04  0.7818609E-02  0.8512573E-01
        1   -1    0    0  501    0  0.00000000000E+00  0.00000000000E+00  0.14570368317E+04  0.14570368317E+04  0.50400001928E-02 0.  1.
       -1   -1    0    0    0  501  0.00000000000E+00  0.00000000000E+00 -0.84114842990E+03  0.84114842991E+03  0.50400001928E-02 0. -1.
    10030    2    1    2    0    0  0.00000000000E+00  0.00000000000E+00  0.61588840184E+03  0.22981852617E+04  0.22141221677E+04 0.  0.
        4    1    3    3  502    0  0.25960950412E+03 -0.46369770219E+03 -0.70009736185E+03  0.87894856654E+03  0.12699999809E+01 0. -1.
       -4    1    3    3    0  502 -0.25960950412E+03  0.46369770219E+03  0.13159857637E+04  0.14192366951E+04  0.12699999809E+01 0.  1.
</event>
<event>
 5   0  0.9442578E-05  0.2216262E+04  0.7818609E-02  0.8511690E-01
        2   -1    0    0  501    0  0.00000000000E+00  0.00000000000E+00  0.11248664698E+04  0.11248664698E+04  0.25500000920E-02 0.  1.
       -2   -1    0    0    0  501  0.00000000000E+00  0.00000000000E+00 -0.10916442808E+04  0.10916442808E+04  0.25500000920E-02 0. -1.
    10030    2    1    2    0    0  0.00000000000E+00  0.00000000000E+00  0.33222188984E+02  0.22165107505E+04  0.22162617610E+04 0.  0.
        4    1    3    3  502    0  0.72702530664E+03  0.41223124974E+03  0.74432738994E+03  0.11191627567E+04  0.12699999809E+01 0.  1.
       -4    1    3    3    0  502 -0.72702530664E+03 -0.41223124974E+03 -0.71110520095E+03  0.10973479938E+04  0.12699999809E+01 0. -1.
</event>
<event>
 5   0  0.9254673E-05  0.2199434E+04  0.7818609E-02  0.8518664E-01
        2   -1    0    0  501    0  0.00000000000E+00  0.00000000000E+00  0.13867964322E+04  0.13867964322E+04  0.25500000920E-02 0. -1.
       -2   -1    0    0    0  501  0.00000000000E+00  0.00000000000E+00 -0.87206553880E+03  0.87206553881E+03  0.25500000920E-02 0.  1.
    10030    2    1    2    0    0  0.00000000000E+00  0.00000000000E+00  0.51473089337E+03  0.22588619710E+04  0.21994339070E+04 0.  0.
        2    1    3    3  502    0 -0.45454930325E+03  0.51259026526E+03 -0.62611838832E+03  0.92810995326E+03  0.25500000920E-02 0.  1.
       -2    1    3    3    0  502  0.45454930325E+03 -0.51259026526E+03  0.11408492817E+04  0.13307520177E+04  0.25500000920E-02 0. -1.
</event>
<event>
 5   0  0.4063293E-05  0.2207423E+04  0.7818609E-02  0.8515345E-01
       -1   -1    0    0    0  501  0.00000000000E+00  0.00000000000E+00  0.10088201497E+04  0.10088201497E+04  0.50400001928E-02 0. -1.
        1   -1    0    0  501    0  0.00000000000E+00  0.00000000000E+00 -0.12075280184E+04  0.12075280184E+04  0.50400001928E-02 0.  1.
    10030    2    1    2    0    0  0.00000000000E+00  0.00000000000E+00 -0.19870786868E+03  0.22163481681E+04  0.22074225660E+04 0.  0.
        1    1    3    3  502    0 -0.82878473968E+03 -0.72042602574E+03  0.11912894917E+02  0.10981983975E+04  0.50400001928E-02 0. -1.
       -1    1    3    3    0  502  0.82878473968E+03  0.72042602574E+03 -0.21062076359E+03  0.11181497705E+04  0.50400001928E-02 0.  1.
</event>
<event>
 5   0  0.3283125E-05  0.2279947E+04  0.7818609E-02  0.8485870E-01
        3   -1    0    0  501    0  0.00000000000E+00  0.00000000000E+00  0.12129845261E+04  0.12129845303E+04  0.10100000352E+00 0.  1.
       -3   -1    0    0    0  501  0.00000000000E+00  0.00000000000E+00 -0.10713572021E+04  0.10713572069E+04  0.10100000352E+00 0. -1.
    10030    2    1    2    0    0  0.00000000000E+00  0.00000000000E+00  0.14162732397E+03  0.22843417372E+04  0.22799471207E+04 0.  0.
        4    1    3    3  502    0  0.88183641523E+03  0.66995270254E+03  0.34164194831E+03  0.11589620014E+04  0.12699999809E+01 0. -1.
       -4    1    3    3    0  502 -0.88183641523E+03 -0.66995270254E+03 -0.20001462434E+03  0.11253797358E+04  0.12699999809E+01 0.  1.
</event>
<event>
 5   0  0.4063293E-05  0.2209563E+04  0.7818609E-02  0.8514458E-01
        1   -1    0    0  501    0  0.00000000000E+00  0.00000000000E+00  0.13430175091E+04  0.13430175091E+04  0.50400001928E-02 0.  1.
       -1   -1    0    0    0  501  0.00000000000E+00  0.00000000000E+00 -0.90880608209E+03  0.90880608210E+03  0.50400001928E-02 0. -1.
    10030    2    1    2    0    0  0.00000000000E+00  0.00000000000E+00  0.43421142701E+03  0.22518235912E+04  0.22095632877E+04 0.  0.
        1    1    3    3  502    0  0.29331885764E+03  0.31809388346E+03 -0.81886130051E+03  0.92614982613E+03  0.50400001928E-02 0. -1.
       -1    1    3    3    0  502 -0.29331885764E+03 -0.31809388346E+03  0.12530727275E+04  0.13256737651E+04  0.50400001928E-02 0.  1.
</event>
<event>
 5   0  0.9938176E-05  0.2201486E+04  0.7818609E-02  0.8517810E-01
        2   -1    0    0  501    0  0.00000000000E+00  0.00000000000E+00  0.12384749985E+04  0.12384749985E+04  0.25500000920E-02 0.  1.
       -2   -1    0    0    0  501  0.00000000000E+00  0.00000000000E+00 -0.97832867558E+03  0.97832867558E+03  0.25500000920E-02 0. -1.
    10030    2    1    2    0    0  0.00000000000E+00  0.00000000000E+00  0.26014632288E+03  0.22168036740E+04  0.22014864115E+04 0.  0.
        5    1    3    3  502    0 -0.91999870835E+03  0.40335247395E+03  0.58322948968E+03  0.11615806340E+04  0.46999998093E+01 0.  1.
       -5    1    3    3    0  502  0.91999870835E+03 -0.40335247395E+03 -0.32308316680E+03  0.10552230401E+04  0.46999998093E+01 0. -1.
</event>
<event>
 5   0  0.9179618E-05  0.2216199E+04  0.7818609E-02  0.8511716E-01
       -2   -1    0    0    0  501  0.00000000000E+00  0.00000000000E+00  0.79624232597E+03  0.79624232597E+03  0.25500000920E-02 0. -1.
        2   -1    0    0  501    0  0.00000000000E+00  0.00000000000E+00 -0.15420986690E+04  0.15420986690E+04  0.25500000920E-02 0.  1.
    10030    2    1    2    0    0  0.00000000000E+00  0.00000000000E+00 -0.74585634301E+03  0.23383409950E+04  0.22161987556E+04 0.  0.
        3    1    3    3  502    0 -0.22580377161E+03  0.75105488673E+03 -0.11988962738E+04  0.14326280298E+04  0.10100000352E+00 0.  1.
       -3    1    3    3    0  502  0.22580377161E+03 -0.75105488673E+03  0.45303993081E+03  0.90571296516E+03  0.10100000352E+00 0. -1.
</event>
<event>
 5   0  0.9938176E-05  0.2199918E+04  0.7818609E-02  0.8518462E-01
        2   -1    0    0  501    0  0.00000000000E+00  0.00000000000E+00  0.15263405423E+04  0.15263405423E+04  0.25500000920E-02 0. -1.
       -2   -1    0    0    0  501  0.00000000000E+00  0.00000000000E+00 -0.79268644894E+03  0.79268644895E+03  0.25500000920E-02 0.  1.
    10030    2    1    2    0    0  0.00000000000E+00  0.00000000000E+00  0.73365409332E+03  0.23190269912E+04  0.21999176933E+04 0.  0.
        5    1    3    3  502    0  0.37646949787E+03  0.21518984331E+03 -0.69877058795E+03  0.82239794265E+03  0.46999998093E+01 0.  1.
       -5    1    3    3    0  502 -0.37646949787E+03 -0.21518984331E+03  0.14324246813E+04  0.14966290486E+04  0.46999998093E+01 0. -1.
</event>
<event>
 5   0  0.4174030E-05  0.2214266E+04  0.7818609E-02  0.8512514E-01
        1   -1    0    0  501    0  0.00000000000E+00  0.00000000000E+00  0.11906121798E+04  0.11906121799E+04  0.50400001928E-02 0. -1.
       -1   -1    0    0    0  501  0.00000000000E+00  0.00000000000E+00 -0.10295066967E+04  0.10295066967E+04  0.50400001928E-02 0.  1.
    10030    2    1    2    0    0  0.00000000000E+00  0.00000000000E+00  0.16110548316E+03  0.22201188765E+04  0.22142657585E+04 0.  0.
        2    1    3    3  502    0 -0.52398957006E+03 -0.33087623402E+03 -0.83931397791E+03  0.10433082504E+04  0.25500000920E-02 0.  1.
       -2    1    3    3    0  502  0.52398957006E+03  0.33087623402E+03  0.10004194611E+04  0.11768106262E+04  0.25500000920E-02 0. -1.
</event>
<event>
 5   0  0.9442578E-05  0.2176781E+04  0.7818609E-02  0.8528155E-01
       -2   -1    0    0    0  501  0.00000000000E+00  0.00000000000E+00  0.52470368821E+03  0.52470368822E+03  0.25500000920E-02 0.  1.
        2   -1    0    0  501    0  0.00000000000E+00  0.00000000000E+00 -0.22576427064E+04  0.22576427064E+04  0.25500000920E-02 0. -1.
    10030    2    1    2    0    0  0.00000000000E+00  0.00000000000E+00 -0.17329390182E+04  0.27823463946E+04  0.21767806088E+04 0.  0.
        4    1    3    3  502    0  0.10857272187E+04  0.61331927445E+02 -0.92401153761E+03  0.14270123102E+04  0.12699999809E+01 0.  1.
       -4    1    3    3    0  502 -0.10857272187E+04 -0.61331927445E+02 -0.80892748058E+03  0.13553340845E+04  0.12699999809E+01 0. -1.
</event>
<event>
 5   0  0.4063293E-05  0.1866525E+04  0.7818609E-02  0.8671701E-01
       -1   -1    0    0    0  501  0.00000000000E+00  0.00000000000E+00  0.65669179796E+03  0.65669179798E+03  0.50400001928E-02 0. -1.
        1   -1    0    0  501    0  0.00000000000E+00  0.00000000000E+00 -0.13263134205E+04  0.13263134206E+04  0.50400001928E-02 0.  1.
    10030    2    1    2    0    0  0.00000000000E+00  0.00000000000E+00 -0.66962162259E+03  0.19830052185E+04  0.18665252689E+04 0.  0.
        1    1    3    3  502    0  0.36226167407E+03  0.18765033575E+03  0.55693411275E+03  0.69037799427E+03  0.50400001928E-02 0. -1.
       -1    1    3    3    0  502 -0.36226167407E+03 -0.18765033575E+03 -0.12265557353E+04  0.12926272243E+04  0.50400001928E-02 0.  1.
</event>
<event>
 5   0  0.9179618E-05  0.2198482E+04  0.7818609E-02  0.8519060E-01
       -2   -1    0    0    0  501  0.00000000000E+00  0.00000000000E+00  0.15848019869E+04  0.15848019869E+04  0.25500000920E-02 0. -1.
        2   -1    0    0  501    0  0.00000000000E+00  0.00000000000E+00 -0.76244927385E+03  0.76244927386E+03  0.25500000920E-02 0.  1.
    10030    2    1    2    0    0  0.00000000000E+00  0.00000000000E+00  0.82235271308E+03  0.23472512608E+04  0.21984823166E+04 0.  0.
        3    1    3    3  502    0  0.92171141017E+03 -0.48161571236E+03  0.30952039169E+02  0.10404151368E+04  0.10100000352E+00 0.  1.
       -3    1    3    3    0  502 -0.92171141017E+03  0.48161571236E+03  0.79140067391E+03  0.13068361240E+04  0.10100000352E+00 0. -1.
</event>
<event>
 5   0  0.4063293E-05  0.2239814E+04  0.7818609E-02  0.8502037E-01
       -1   -1    0    0    0  501  0.00000000000E+00  0.00000000000E+00  0.86692402071E+03  0.86692402072E+03  0.50400001928E-02 0. -1.
        1   -1    0    0  501    0  0.00000000000E+00  0.00000000000E+00 -0.14467145688E+04  0.14467145688E+04  0.50400001928E-02 0.  1.
    10030    2    1    2    0    0  0.00000000000E+00  0.00000000000E+00 -0.57979054804E+03  0.23136385895E+04  0.22398139305E+04 0.  0.
        1    1    3    3  502    0 -0.21656790131E+02  0.18966134841E+03 -0.14297850416E+04  0.14424720826E+04  0.50400001928E-02 0.  1.
       -1    1    3    3    0  502  0.21656790131E+02 -0.18966134841E+03  0.84999449359E+03  0.87116650693E+03  0.50400001928E-02 0. -1.
</event>
<event>
 5   0  0.9938176E-05  0.2198138E+04  0.7818609E-02  0.8519203E-01
        2   -1    0    0  501    0  0.00000000000E+00  0.00000000000E+00  0.19352805348E+04  0.19352805348E+04  0.25500000920E-02 0.  1.
       -2   -1    0    0    0  501  0.00000000000E+00  0.00000000000E+00 -0.62417447466E+03  0.62417447466E+03  0.25500000920E-02 0. -1.
    10030    2    1    2    0    0  0.00000000000E+00  0.00000000000E+00  0.13111060601E+04  0.25594550094E+04  0.21981380404E+04 0.  0.
        5    1    3    3  502    0 -0.93380805729E+03  0.39177634623E+03  0.15820793453E+03  0.10249575766E+04  0.46999998093E+01 0. -1.
       -5    1    3    3    0  502  0.93380805729E+03 -0.39177634623E+03  0.11528981256E+04  0.15344974328E+04  0.46999998093E+01 0.  1.
</event>
<event>
 5   0  0.3283125E-05  0.2185461E+04  0.7818609E-02  0.8524504E-01
       -3   -1    0    0    0  501  0.00000000000E+00  0.00000000000E+00  0.11751552035E+04  0.11751552079E+04  0.10100000352E+00 0. -1.
        3   -1    0    0  501    0  0.00000000000E+00  0.00000000000E+00 -0.10160874484E+04  0.10160874534E+04  0.10100000352E+00 0.  1.
    10030    2    1    2    0    0  0.00000000000E+00  0.00000000000E+00  0.15906775513E+03  0.21912426613E+04  0.21854614730E+04 0.  0.
        3    1    3    3  502    0 -0.15743711509E+03  0.10404071524E+04  0.37497750598E+03  0.11170683185E+04  0.10100000352E+00 0.  1.
       -3    1    3    3    0  502  0.15743711509E+03 -0.10404071524E+04 -0.21590975085E+03  0.10741743428E+04  0.10100000352E+00 0. -1.
</event>
<event>
 5   0  0.4133418E-05  0.2107027E+04  0.7818609E-02  0.8558154E-01
        1   -1    0    0  501    0  0.00000000000E+00  0.00000000000E+00  0.21242799977E+04  0.21242799977E+04  0.50400001928E-02 0. -1.
       -1   -1    0    0    0  501  0.00000000000E+00  0.00000000000E+00 -0.52247842729E+03  0.52247842731E+03  0.50400001928E-02 0.  1.
    10030    2    1    2    0    0  0.00000000000E+00  0.00000000000E+00  0.16018015704E+04  0.26467584250E+04  0.21070267890E+04 0.  0.
        4    1    3    3  502    0 -0.82944363379E+03  0.36799352094E+03  0.14732597012E+04  0.17302866043E+04  0.12699999809E+01 0. -1.
       -4    1    3    3    0  502  0.82944363379E+03 -0.36799352094E+03  0.12854186924E+03  0.91647182070E+03  0.12699999809E+01 0.  1.
</event>
<event>
 5   0  0.9254673E-05  0.2200664E+04  0.7818609E-02  0.8518152E-01
        2   -1    0    0  501    0  0.00000000000E+00  0.00000000000E+00  0.95270319933E+03  0.95270319934E+03  0.25500000920E-02 0.  1.
       -2   -1    0    0    0  501  0.00000000000E+00  0.00000000000E+00 -0.12708376021E+04  0.12708376021E+04  0.25500000920E-02 0. -1.
    10030    2    1    2    0    0  0.00000000000E+00  0.00000000000E+00 -0.31813440276E+03  0.22235408014E+04  0.22006644900E+04 0.  0.
        2    1    3    3  502    0  0.49586972646E+03 -0.75886780039E+03  0.47108568443E+03  0.10216109074E+04  0.25500000920E-02 0.  1.
       -2    1    3    3    0  502 -0.49586972646E+03  0.75886780039E+03 -0.78922008719E+03  0.12019298940E+04  0.25500000920E-02 0. -1.
</event>
<event>
 5   0  0.9179618E-05  0.2197083E+04  0.7818609E-02  0.8519643E-01
       -2   -1    0    0    0  501  0.00000000000E+00  0.00000000000E+00  0.81002628561E+03  0.81002628561E+03  0.25500000920E-02 0. -1.
        2   -1    0    0  501    0  0.00000000000E+00  0.00000000000E+00 -0.14898195572E+04  0.14898195572E+04  0.25500000920E-02 0.  1.
    10030    2    1    2    0    0  0.00000000000E+00  0.00000000000E+00 -0.67979327154E+03  0.22998458428E+04  0.21970826130E+04 0.  0.
        3    1    3    3  502    0  0.36642967097E+01 -0.37092658831E+03  0.74248495947E+03  0.82999029285E+03  0.10100000352E+00 0. -1.
       -3    1    3    3    0  502 -0.36642967097E+01  0.37092658831E+03 -0.14222782310E+04  0.14698555499E+04  0.10100000352E+00 0.  1.
</event>
<event>
 5   0  0.4174075E-05  0.2133185E+04  0.7818609E-02  0.8546764E-01
       -1   -1    0    0    0  501  0.00000000000E+00  0.00000000000E+00  0.62323255645E+03  0.62323255647E+03  0.50400001928E-02 0. -1.
        1   -1    0    0  501    0  0.00000000000E+00  0.00000000000E+00 -0.18253531432E+04  0.18253531432E+04  0.50400001928E-02 0.  1.
    10030    2    1    2    0    0  0.00000000000E+00  0.00000000000E+00 -0.12021205868E+04  0.24485856997E+04  0.21331849483E+04 0.  0.
        5    1    3    3  502    0 -0.77982971636E+03 -0.24349253407E+03 -0.13881356135E+04  0.16107034402E+04  0.46999998093E+01 0.  1.
       -5    1    3    3    0  502  0.77982971636E+03  0.24349253407E+03  0.18601502675E+03  0.83788225953E+03  0.46999998093E+01 0. -1.
</event>
<event>
 5   0  0.4174030E-05  0.2247230E+04  0.7818609E-02  0.8499023E-01
       -1   -1    0    0    0  501  0.00000000000E+00  0.00000000000E+00  0.10765394270E+04  0.10765394270E+04  0.50400001928E-02 0. -1.
        1   -1    0    0  501    0  0.00000000000E+00  0.00000000000E+00 -0.11727490329E+04  0.11727490329E+04  0.50400001928E-02 0.  1.
    10030    2    1    2    0    0  0.00000000000E+00  0.00000000000E+00 -0.96209605882E+02  0.22492884599E+04  0.22472299142E+04 0.  0.
        2    1    3    3  502    0 -0.21813748655E+03 -0.10935197780E+04  0.90373310615E+02  0.11187210569E+04  0.25500000920E-02 0. -1.
       -2    1    3    3    0  502  0.21813748655E+03  0.10935197780E+04 -0.18658291650E+03  0.11305674030E+04  0.25500000920E-02 0.  1.
</event>
<event>
 5   0  0.9442578E-05  0.2181172E+04  0.7818609E-02  0.8526306E-01
       -2   -1    0    0    0  501  0.00000000000E+00  0.00000000000E+00  0.69609947177E+03  0.69609947177E+03  0.25500000920E-02 0. -1.
        2   -1    0    0  501    0  0.00000000000E+00  0.00000000000E+00 -0.17086324066E+04  0.17086324066E+04  0.25500000920E-02 0.  1.
    10030    2    1    2    0    0  0.00000000000E+00  0.00000000000E+00 -0.10125329349E+04  0.24047318784E+04  0.21811722680E+04 0.  0.
        4    1    3    3  502    0  0.45679404450E+03  0.26585578138E+03 -0.15580008624E+04  0.16452077060E+04  0.12699999809E+01 0.  1.
       -4    1    3    3    0  502 -0.45679404450E+03 -0.26585578138E+03  0.54546792757E+03  0.75952417242E+03  0.12699999809E+01 0. -1.
</event>
<event>
 5   0  0.9254673E-05  0.2195397E+04  0.7818609E-02  0.8520346E-01
        2   -1    0    0  501    0  0.00000000000E+00  0.00000000000E+00  0.15998789893E+04  0.15998789893E+04  0.25500000920E-02 0. -1.
       -2   -1    0    0    0  501  0.00000000000E+00  0.00000000000E+00 -0.75314565100E+03  0.75314565101E+03  0.25500000920E-02 0.  1.
    10030    2    1    2    0    0  0.00000000000E+00  0.00000000000E+00  0.84673333832E+03  0.23530246403E+04  0.21953969144E+04 0.  0.
        2    1    3    3  502    0 -0.89477835674E+03 -0.47254046806E+03  0.87937799343E+03  0.13406074955E+04  0.25500000920E-02 0. -1.
       -2    1    3    3    0  502  0.89477835674E+03  0.47254046806E+03 -0.32644655111E+02  0.10124171448E+04  0.25500000920E-02 0.  1.
</event>
<event>
 5   0  0.4174030E-05  0.2223264E+04  0.7818609E-02  0.8508807E-01
       -1   -1    0    0    0  501  0.00000000000E+00  0.00000000000E+00  0.76282327400E+03  0.76282327402E+03  0.50400001928E-02 0.  1.
        1   -1    0    0  501    0  0.00000000000E+00  0.00000000000E+00 -0.16199373160E+04  0.16199373160E+04  0.50400001928E-02 0. -1.
    10030    2    1    2    0    0  0.00000000000E+00  0.00000000000E+00 -0.85711404202E+03  0.23827605901E+04  0.22232641653E+04 0.  0.
        2    1    3    3  502    0 -0.55371981457E+03 -0.36387554448E+03  0.52806592594E+03  0.84726894612E+03  0.25500000920E-02 0.  1.
       -2    1    3    3    0  502  0.55371981457E+03  0.36387554448E+03 -0.13851799680E+04  0.15354916439E+04  0.25500000920E-02 0. -1.
</event>
<event>
 5   0  0.9254673E-05  0.2172930E+04  0.7818609E-02  0.8529780E-01
       -2   -1    0    0    0  501  0.00000000000E+00  0.00000000000E+00  0.63830416273E+03  0.63830416273E+03  0.25500000920E-02 0. -1.
        2   -1    0    0  501    0  0.00000000000E+00  0.00000000000E+00 -0.18492850378E+04  0.18492850378E+04  0.25500000920E-02 0.  1.
    10030    2    1    2    0    0  0.00000000000E+00  0.00000000000E+00 -0.12109808751E+04  0.24875892005E+04  0.21729301302E+04 0.  0.
        2    1    3    3  502    0  0.54171518773E+03 -0.93722528214E+03 -0.71140697778E+03  0.12953557280E+04  0.25500000920E-02 0.  1.
       -2    1    3    3    0  502 -0.54171518773E+03  0.93722528214E+03 -0.49957389730E+03  0.11922334725E+04  0.25500000920E-02 0. -1.
</event>
<event>
 5   0  0.9938176E-05  0.1989654E+04  0.7818609E-02  0.8611473E-01
        2   -1    0    0  501    0  0.00000000000E+00  0.00000000000E+00  0.14106026469E+04  0.14106026469E+04  0.25500000920E-02 0. -1.
       -2   -1    0    0    0  501  0.00000000000E+00  0.00000000000E+00 -0.70160170807E+03  0.70160170808E+03  0.25500000920E-02 0.  1.
    10030    2    1    2    0    0  0.00000000000E+00  0.00000000000E+00  0.70900093885E+03  0.21122043550E+04  0.19896544690E+04 0.  0.
        5    1    3    3  502    0 -0.73560180087E+02 -0.41970749008E+02 -0.69775590708E+03  0.70289262319E+03  0.46999998093E+01 0.  1.
       -5    1    3    3    0  502  0.73560180087E+02  0.41970749008E+02  0.14067568459E+04  0.14093117318E+04  0.46999998093E+01 0. -1.
</event>
<event>
 5   0  0.9442578E-05  0.2351649E+04  0.7818609E-02  0.8457831E-01
       -2   -1    0    0    0  501  0.00000000000E+00  0.00000000000E+00  0.62857941155E+03  0.62857941156E+03  0.25500000920E-02 0. -1.
        2   -1    0    0  501    0  0.00000000000E+00  0.00000000000E+00 -0.21995038400E+04  0.21995038400E+04  0.25500000920E-02 0.  1.
    10030    2    1    2    0    0  0.00000000000E+00  0.00000000000E+00 -0.15709244284E+04  0.28280832515E+04  0.23516486382E+04 0.  0.
        4    1    3    3  502    0 -0.79906315144E+03 -0.84244329023E+03 -0.10083438424E+04  0.15378463950E+04  0.12699999809E+01 0.  1.
       -4    1    3    3    0  502  0.79906315144E+03  0.84244329023E+03 -0.56258058600E+03  0.12902368565E+04  0.12699999809E+01 0. -1.
</event>
<event>
 5   0  0.9254673E-05  0.2177084E+04  0.7818609E-02  0.8528027E-01
       -2   -1    0    0    0  501  0.00000000000E+00  0.00000000000E+00  0.50686891404E+03  0.50686891405E+03  0.25500000920E-02 0.  1.
        2   -1    0    0  501    0  0.00000000000E+00  0.00000000000E+00 -0.23377316912E+04  0.23377316912E+04  0.25500000920E-02 0. -1.
    10030    2    1    2    0    0  0.00000000000E+00  0.00000000000E+00 -0.18308627771E+04  0.28446006052E+04  0.21770838511E+04 0.  0.
        2    1    3    3  502    0 -0.51766132927E+03 -0.44491405865E+02 -0.21652579663E+04  0.22267228830E+04  0.25500000920E-02 0. -1.
       -2    1    3    3    0  502  0.51766132927E+03  0.44491405865E+02  0.33439518920E+03  0.61787772219E+03  0.25500000920E-02 0.  1.
</event>
<event>
 5   0  0.3283125E-05  0.2171980E+04  0.7818609E-02  0.8530182E-01
        4   -1    0    0  501    0  0.00000000000E+00  0.00000000000E+00  0.99827650715E+03  0.99827731499E+03  0.12699999809E+01 0.  1.
       -4   -1    0    0    0  501  0.00000000000E+00  0.00000000000E+00 -0.11814091233E+04  0.11814098059E+04  0.12699999809E+01 0. -1.
    10030    2    1    2    0    0  0.00000000000E+00  0.00000000000E+00 -0.18313261613E+03  0.21796871209E+04  0.21719802922E+04 0.  0.
        4    1    3    3  502    0 -0.10015045285E+04  0.33662415017E+03 -0.34354656482E+03  0.11110143988E+04  0.12699999809E+01 0. -1.
       -4    1    3    3    0  502  0.10015045285E+04 -0.33662415017E+03  0.16041394869E+03  0.10686727221E+04  0.12699999809E+01 0.  1.
</event>
<event>
 5   0  0.4063293E-05  0.2126865E+04  0.7818609E-02  0.8549501E-01
        1   -1    0    0  501    0  0.00000000000E+00  0.00000000000E+00  0.10899940905E+04  0.10899940905E+04  0.50400001928E-02 0.  1.
       -1   -1    0    0    0  501  0.00000000000E+00  0.00000000000E+00 -0.10375178051E+04  0.10375178051E+04  0.50400001928E-02 0. -1.
    10030    2    1    2    0    0  0.00000000000E+00  0.00000000000E+00  0.52476285415E+02  0.21275118956E+04  0.21268646185E+04 0.  0.
        1    1    3    3  502    0 -0.76065856196E+03  0.38988241858E+03  0.65910637696E+03  0.10793660011E+04  0.50400001928E-02 0.  1.
       -1    1    3    3    0  502  0.76065856196E+03 -0.38988241858E+03 -0.60663009155E+03  0.10481458945E+04  0.50400001928E-02 0. -1.
</event>
<event>
 5   0  0.9179618E-05  0.2152059E+04  0.7818609E-02  0.8538652E-01
        2   -1    0    0  501    0  0.00000000000E+00  0.00000000000E+00  0.11986426227E+04  0.11986426227E+04  0.25500000920E-02 0.  1.
       -2   -1    0    0    0  501  0.00000000000E+00  0.00000000000E+00 -0.96595866768E+03  0.96595866769E+03  0.25500000920E-02 0. -1.
    10030    2    1    2    0    0  0.00000000000E+00  0.00000000000E+00  0.23268395499E+03  0.21646012904E+04  0.21520587639E+04 0.  0.
        3    1    3    3  502    0  0.38665371590E+03 -0.77162992833E+03 -0.52999585087E+03  0.10128225187E+04  0.10100000352E+00 0. -1.
       -3    1    3    3    0  502 -0.38665371590E+03  0.77162992833E+03  0.76267980586E+03  0.11517787716E+04  0.10100000352E+00 0.  1.
</event>
<event>
 5   0  0.4063293E-05  0.2185620E+04  0.7818609E-02  0.8524437E-01
        1   -1    0    0  501    0  0.00000000000E+00  0.00000000000E+00  0.25975730793E+04  0.25975730793E+04  0.50400001928E-02 0. -1.
       -1   -1    0    0    0  501  0.00000000000E+00  0.00000000000E+00 -0.45974983575E+03  0.45974983577E+03  0.50400001928E-02 0.  1.
    10030    2    1    2    0    0  0.00000000000E+00  0.00000000000E+00  0.21378232435E+04  0.30573229151E+04  0.21856200920E+04 0.  0.
        1    1    3    3  502    0  0.46517369029E+03 -0.18868687420E+02  0.24519144452E+04  0.24957217465E+04  0.50400001928E-02 0. -1.
       -1    1    3    3    0  502 -0.46517369029E+03  0.18868687420E+02 -0.31409120167E+03  0.56160116853E+03  0.50400001928E-02 0.  1.
</event>
<event>
 5   0  0.9254673E-05  0.2221387E+04  0.7818609E-02  0.8509579E-01
       -2   -1    0    0    0  501  0.00000000000E+00  0.00000000000E+00  0.11838304015E+04  0.11838304015E+04  0.25500000920E-02 0. -1.
        2   -1    0    0  501    0  0.00000000000E+00  0.00000000000E+00 -0.10420750095E+04  0.10420750095E+04  0.25500000920E-02 0.  1.
    10030    2    1    2    0    0  0.00000000000E+00  0.00000000000E+00  0.14175539207E+03  0.22259054110E+04  0.22213870234E+04 0.  0.
        2    1    3    3  502    0 -0.58449746892E+03 -0.26290389144E+03 -0.83809716149E+03  0.10550652110E+04  0.25500000920E-02 0.  1.
       -2    1    3    3    0  502  0.58449746892E+03  0.26290389144E+03  0.97985255355E+03  0.11708402000E+04  0.25500000920E-02 0. -1.
</event>
<event>
 5   0  0.9938176E-05  0.2229799E+04  0.7818609E-02  0.8506127E-01
        2   -1    0    0  501    0  0.00000000000E+00  0.00000000000E+00  0.21286923935E+04  0.21286923935E+04  0.25500000920E-02 0.  1.
       -2   -1    0    0    0  501  0.00000000000E+00  0.00000000000E+00 -0.58392696766E+03  0.58392696767E+03  0.25500000920E-02 0. -1.
    10030    2    1    2    0    0  0.00000000000E+00  0.00000000000E+00  0.15447654258E+04  0.27126193612E+04  0.22297989994E+04 0.  0.
        5    1    3    3  502    0 -0.95949295784E+03 -0.51367291800E+03  0.10666026681E+04  0.15238602116E+04  0.46999998093E+01 0.  1.
       -5    1    3    3    0  502  0.95949295784E+03  0.51367291800E+03  0.47816275770E+03  0.11887591496E+04  0.46999998093E+01 0. -1.
</event>
<event>
 5   0  0.4063293E-05  0.2206995E+04  0.7818609E-02  0.8515522E-01
       -1   -1    0    0    0  501  0.00000000000E+00  0.00000000000E+00  0.17594339672E+04  0.17594339672E+04  0.50400001928E-02 0. -1.
        1   -1    0    0  501    0  0.00000000000E+00  0.00000000000E+00 -0.69210136034E+03  0.69210136036E+03  0.50400001928E-02 0.  1.
    10030    2    1    2    0    0  0.00000000000E+00  0.00000000000E+00  0.10673326068E+04  0.24515353276E+04  0.22069949181E+04 0.  0.
        1    1    3    3  502    0 -0.70354523089E+03 -0.68504170268E+02  0.14749282809E+04  0.16355678363E+04  0.50400001928E-02 0. -1.
       -1    1    3    3    0  502  0.70354523089E+03  0.68504170268E+02 -0.40759567407E+03  0.81596749126E+03  0.50400001928E-02 0.  1.
</event>
<event>
 5   0  0.4063293E-05  0.2187161E+04  0.7818609E-02  0.8523791E-01
        1   -1    0    0  501    0  0.00000000000E+00  0.00000000000E+00  0.11003753120E+04  0.11003753120E+04  0.50400001928E-02 0.  1.
       -1   -1    0    0    0  501  0.00000000000E+00  0.00000000000E+00 -0.10868274537E+04  0.10868274537E+04  0.50400001928E-02 0. -1.
    10030    2    1    2    0    0  0.00000000000E+00  0.00000000000E+00  0.13547858301E+02  0.21872027657E+04  0.21871608066E+04 0.  0.
        1    1    3    3  502    0  0.91863486195E+03 -0.52077582668E+03 -0.27752121358E+03  0.10918404166E+04  0.50400001928E-02 0.  1.
       -1    1    3    3    0  502 -0.91863486195E+03  0.52077582668E+03  0.29106907188E+03  0.10953623491E+04  0.50400001928E-02 0. -1.
</event>
<event>
 5   0  0.4174075E-05  0.2205795E+04  0.7818609E-02  0.8516020E-01
       -1   -1    0    0    0  501  0.00000000000E+00  0.00000000000E+00  0.90501440058E+03  0.90501440059E+03  0.50400001928E-02 0.  1.
        1   -1    0    0  501    0  0.00000000000E+00  0.00000000000E+00 -0.13440476164E+04  0.13440476164E+04  0.50400001928E-02 0. -1.
    10030    2    1    2    0    0  0.00000000000E+00  0.00000000000E+00 -0.43903321581E+03  0.22490620170E+04  0.22057945942E+04 0.  0.
        5    1    3    3  502    0 -0.85671869582E+03 -0.43160613214E+03  0.33531678683E+03  0.10162235062E+04  0.46999998093E+01 0.  1.
       -5    1    3    3    0  502  0.85671869582E+03  0.43160613214E+03 -0.77435000264E+03  0.12328385108E+04  0.46999998093E+01 0. -1.
</event>
<event>
 5   0  0.3283125E-05  0.2015821E+04  0.7818609E-02  0.8599259E-01
        3   -1    0    0  501    0  0.00000000000E+00  0.00000000000E+00  0.73821354499E+03  0.73821355190E+03  0.10100000352E+00 0. -1.
       -3   -1    0    0    0  501  0.00000000000E+00  0.00000000000E+00 -0.13761381697E+04  0.13761381734E+04  0.10100000352E+00 0.  1.
    10030    2    1    2    0    0  0.00000000000E+00  0.00000000000E+00 -0.63792462472E+03  0.21143517253E+04  0.20158212697E+04 0.  0.
        3    1    3    3  502    0  0.69026221677E+03  0.33249792371E+03 -0.10058512888E+04  0.12644182941E+04  0.10100000352E+00 0. -1.
       -3    1    3    3    0  502 -0.69026221677E+03 -0.33249792371E+03  0.36792666405E+03  0.84993343121E+03  0.10100000352E+00 0.  1.
</event>
<event>
 5   0  0.3283125E-05  0.2297577E+04  0.7818609E-02  0.8478877E-01
        3   -1    0    0  501    0  0.00000000000E+00  0.00000000000E+00  0.89030929366E+03  0.89030929939E+03  0.10100000352E+00 0. -1.
       -3   -1    0    0    0  501  0.00000000000E+00  0.00000000000E+00 -0.14823111127E+04  0.14823111161E+04  0.10100000352E+00 0.  1.
    10030    2    1    2    0    0  0.00000000000E+00  0.00000000000E+00 -0.59200181903E+03  0.23726204155E+04  0.22975773072E+04 0.  0.
        2    1    3    3  502    0  0.47707452297E+03 -0.61823681220E+03  0.57407323566E+03  0.96921459767E+03  0.25500000920E-02 0. -1.
       -2    1    3    3    0  502 -0.47707452297E+03  0.61823681220E+03 -0.11660750547E+04  0.14034058179E+04  0.25500000920E-02 0.  1.
</event>
<event>
 5   0  0.4188865E-05  0.2229976E+04  0.7818609E-02  0.8506054E-01
       -1   -1    0    0    0  501  0.00000000000E+00  0.00000000000E+00  0.51569734118E+03  0.51569734121E+03  0.50400001928E-02 0. -1.
        1   -1    0    0  501    0  0.00000000000E+00  0.00000000000E+00 -0.24107121825E+04  0.24107121825E+04  0.50400001928E-02 0.  1.
    10030    2    1    2    0    0  0.00000000000E+00  0.00000000000E+00 -0.18950148414E+04  0.29264095238E+04  0.22299756617E+04 0.  0.
        3    1    3    3  502    0  0.29018332979E+03  0.20355483899E+03 -0.23348055592E+04  0.23615583725E+04  0.10100000352E+00 0.  1.
       -3    1    3    3    0  502 -0.29018332979E+03 -0.20355483899E+03  0.43979071783E+03  0.56485115124E+03  0.10100000352E+00 0. -1.
</event>
<event>
 5   0  0.9938176E-05  0.2124786E+04  0.7818609E-02  0.8550403E-01
        2   -1    0    0  501    0  0.00000000000E+00  0.00000000000E+00  0.75410330305E+03  0.75410330305E+03  0.25500000920E-02 0.  1.
       -2   -1    0    0    0  501  0.00000000000E+00  0.00000000000E+00 -0.14967171242E+04  0.14967171242E+04  0.25500000920E-02 0. -1.
    10030    2    1    2    0    0  0.00000000000E+00  0.00000000000E+00 -0.74261382119E+03  0.22508204273E+04  0.21247864148E+04 0.  0.
        5    1    3    3  502    0  0.77684048921E+03 -0.56838094351E+03 -0.84755072324E+03  0.12825374697E+04  0.46999998093E+01 0. -1.
       -5    1    3    3    0  502 -0.77684048921E+03  0.56838094351E+03  0.10493690206E+03  0.96828295763E+03  0.46999998093E+01 0.  1.
</event>
<event>
 5   0  0.3283125E-05  0.2271764E+04  0.7818609E-02  0.8489138E-01
        3   -1    0    0  501    0  0.00000000000E+00  0.00000000000E+00  0.59912374277E+03  0.59912375128E+03  0.10100000352E+00 0.  1.
       -3   -1    0    0    0  501  0.00000000000E+00  0.00000000000E+00 -0.21535256335E+04  0.21535256359E+04  0.10100000352E+00 0. -1.
    10030    2    1    2    0    0  0.00000000000E+00  0.00000000000E+00 -0.15544018908E+04  0.27526493872E+04  0.22717643828E+04 0.  0.
        2    1    3    3  502    0 -0.75076585026E+03 -0.81025427929E+03 -0.45646742348E+03  0.11952087130E+04  0.25500000920E-02 0.  1.
       -2    1    3    3    0  502  0.75076585026E+03  0.81025427929E+03 -0.10979344673E+04  0.15574406741E+04  0.25500000920E-02 0. -1.
</event>
<event>
 5   0  0.9938176E-05  0.2211975E+04  0.7818609E-02  0.8513460E-01
       -2   -1    0    0    0  501  0.00000000000E+00  0.00000000000E+00  0.37005071412E+03  0.37005071413E+03  0.25500000920E-02 0.  1.
        2   -1    0    0  501    0  0.00000000000E+00  0.00000000000E+00 -0.33055165563E+04  0.33055165563E+04  0.25500000920E-02 0. -1.
    10030    2    1    2    0    0  0.00000000000E+00  0.00000000000E+00 -0.29354658422E+04  0.36755672705E+04  0.22119753726E+04 0.  0.
        5    1    3    3  502    0  0.57259797636E+03  0.26701272737E+03 -0.29761227866E+04  0.30424485484E+04  0.46999998093E+01 0. -1.
       -5    1    3    3    0  502 -0.57259797636E+03 -0.26701272737E+03  0.40656944334E+02  0.63311872206E+03  0.46999998093E+01 0.  1.
</event>
<event>
 5   0  0.4063293E-05  0.2189514E+04  0.7818609E-02  0.8522805E-01
       -1   -1    0    0    0  501  0.00000000000E+00  0.00000000000E+00  0.90174737633E+03  0.90174737635E+03  0.50400001928E-02 0. -1.
        1   -1    0    0  501    0  0.00000000000E+00  0.00000000000E+00 -0.13290781596E+04  0.13290781596E+04  0.50400001928E-02 0.  1.
    10030    2    1    2    0    0  0.00000000000E+00  0.00000000000E+00 -0.42733078327E+03  0.22308255360E+04  0.21895138670E+04 0.  0.
        1    1    3    3  502    0  0.10584795038E+04 -0.21336912924E+03 -0.39759151439E+03  0.11506451485E+04  0.50400001928E-02 0. -1.
       -1    1    3    3    0  502 -0.10584795038E+04  0.21336912924E+03 -0.29739268884E+02  0.10801803875E+04  0.50400001928E-02 0.  1.
</event>
<event>
 5   0  0.4174075E-05  0.2197004E+04  0.7818609E-02  0.8519676E-01
        1   -1    0    0  501    0  0.00000000000E+00  0.00000000000E+00  0.15910177324E+04  0.15910177324E+04  0.50400001928E-02 0. -1.
       -1   -1    0    0    0  501  0.00000000000E+00  0.00000000000E+00 -0.75844927519E+03  0.75844927521E+03  0.50400001928E-02 0.  1.
    10030    2    1    2    0    0  0.00000000000E+00  0.00000000000E+00  0.83256845722E+03  0.23494670076E+04  0.21970036377E+04 0.  0.
        5    1    3    3  502    0  0.96438293659E+03  0.31675235652E+03  0.86532572041E+03  0.13338580120E+04  0.46999998093E+01 0. -1.
       -5    1    3    3    0  502 -0.96438293659E+03 -0.31675235652E+03 -0.32757263192E+02  0.10156089956E+04  0.46999998093E+01 0.  1.
</event>
<event>
 5   0  0.9179618E-05  0.2199890E+04  0.7818609E-02  0.8518474E-01
       -2   -1    0    0    0  501  0.00000000000E+00  0.00000000000E+00  0.11892551592E+04  0.11892551592E+04  0.25500000920E-02 0.  1.
        2   -1    0    0  501    0  0.00000000000E+00  0.00000000000E+00 -0.10173414884E+04  0.10173414884E+04  0.25500000920E-02 0. -1.
    10030    2    1    2    0    0  0.00000000000E+00  0.00000000000E+00  0.17191367077E+03  0.22065966477E+04  0.21998896462E+04 0.  0.
        3    1    3    3  502    0  0.13944112989E+03  0.94209985893E+03  0.63798246623E+03  0.11463060718E+04  0.10100000352E+00 0.  1.
       -3    1    3    3    0  502 -0.13944112989E+03 -0.94209985893E+03 -0.46606879546E+03  0.10602905758E+04  0.10100000352E+00 0. -1.
</event>
<event>
 5   0  0.9938176E-05  0.2100438E+04  0.7818609E-02  0.8561050E-01
       -2   -1    0    0    0  501  0.00000000000E+00  0.00000000000E+00  0.46428858234E+03  0.46428858234E+03  0.25500000920E-02 0. -1.
        2   -1    0    0  501    0  0.00000000000E+00  0.00000000000E+00 -0.23755913650E+04  0.23755913650E+04  0.25500000920E-02 0.  1.
    10030    2    1    2    0    0  0.00000000000E+00  0.00000000000E+00 -0.19113027826E+04  0.28398799473E+04  0.21004379991E+04 0.  0.
        5    1    3    3  502    0 -0.54864562367E+03 -0.11453745880E+03  0.24516192287E+03  0.61176572989E+03  0.46999998093E+01 0. -1.
       -5    1    3    3    0  502  0.54864562367E+03  0.11453745880E+03 -0.21564647055E+04  0.22281142174E+04  0.46999998093E+01 0.  1.
</event>
<event>
 5   0  0.3283125E-05  0.2150641E+04  0.7818609E-02  0.8539258E-01
        3   -1    0    0  501    0  0.00000000000E+00  0.00000000000E+00  0.57784300312E+03  0.57784301194E+03  0.10100000352E+00 0. -1.
       -3   -1    0    0    0  501  0.00000000000E+00  0.00000000000E+00 -0.20010863089E+04  0.20010863114E+04  0.10100000352E+00 0.  1.
    10030    2    1    2    0    0  0.00000000000E+00  0.00000000000E+00 -0.14232433058E+04  0.25789293234E+04  0.21506405901E+04 0.  0.
        4    1    3    3  502    0 -0.26918999652E+02  0.83538898713E+03 -0.15228966630E+04  0.17371860152E+04  0.12699999809E+01 0.  1.
       -4    1    3    3    0  502  0.26918999652E+02 -0.83538898713E+03  0.99653357223E+02  0.84174330818E+03  0.12699999809E+01 0. -1.
</event>
<event>
 5   0  0.9442578E-05  0.2173013E+04  0.7818609E-02  0.8529745E-01
       -2   -1    0    0    0  501  0.00000000000E+00  0.00000000000E+00  0.75256214360E+03  0.75256214360E+03  0.25500000920E-02 0.  1.
        2   -1    0    0  501    0  0.00000000000E+00  0.00000000000E+00 -0.15686363731E+04  0.15686363731E+04  0.25500000920E-02 0. -1.
    10030    2    1    2    0    0  0.00000000000E+00  0.00000000000E+00 -0.81607422952E+03  0.23211985167E+04  0.21730129788E+04 0.  0.
        4    1    3    3  502    0 -0.12116251551E+03 -0.21613447710E+03  0.72197855189E+03  0.76331455485E+03  0.12699999809E+01 0.  1.
       -4    1    3    3    0  502  0.12116251551E+03  0.21613447710E+03 -0.15380527814E+04  0.15578839619E+04  0.12699999809E+01 0. -1.
</event>
<event>
 5   0  0.4063293E-05  0.2207093E+04  0.7818609E-02  0.8515482E-01
        1   -1    0    0  501    0  0.00000000000E+00  0.00000000000E+00  0.82678236996E+03  0.82678236998E+03  0.50400001928E-02 0.  1.
       -1   -1    0    0    0  501  0.00000000000E+00  0.00000000000E+00 -0.14729566281E+04  0.14729566281E+04  0.50400001928E-02 0. -1.
    10030    2    1    2    0    0  0.00000000000E+00  0.00000000000E+00 -0.64617425815E+03  0.22997389981E+04  0.22070927229E+04 0.  0.
        1    1    3    3  502    0 -0.58193538246E+03 -0.93735517266E+03 -0.34709927081E+03  0.11566163638E+04  0.50400001928E-02 0. -1.
       -1    1    3    3    0  502  0.58193538246E+03  0.93735517266E+03 -0.29907498734E+03  0.11431226343E+04  0.50400001928E-02 0.  1.
</event>
<event>
 5   0  0.4133418E-05  0.2158818E+04  0.7818609E-02  0.8535767E-01
        1   -1    0    0  501    0  0.00000000000E+00  0.00000000000E+00  0.86046950432E+03  0.86046950433E+03  0.50400001928E-02 0. -1.
       -1   -1    0    0    0  501  0.00000000000E+00  0.00000000000E+00 -0.13540558448E+04  0.13540558448E+04  0.50400001928E-02 0.  1.
    10030    2    1    2    0    0  0.00000000000E+00  0.00000000000E+00 -0.49358634045E+03  0.22145253491E+04  0.21588179743E+04 0.  0.
        4    1    3    3  502    0 -0.57175728291E+03 -0.87439507874E+03  0.31593265565E+02  0.10452142802E+04  0.12699999809E+01 0.  1.
       -4    1    3    3    0  502  0.57175728291E+03  0.87439507874E+03 -0.52517960601E+03  0.11693110689E+04  0.12699999809E+01 0. -1.
</event>
<event>
 5   0  0.4133418E-05  0.2012229E+04  0.7818609E-02  0.8600925E-01
        1   -1    0    0  501    0  0.00000000000E+00  0.00000000000E+00  0.13197569394E+04  0.13197569394E+04  0.50400001928E-02 0. -1.
       -1   -1    0    0    0  501  0.00000000000E+00  0.00000000000E+00 -0.76700951255E+03  0.76700951257E+03  0.50400001928E-02 0.  1.
    10030    2    1    2    0    0  0.00000000000E+00  0.00000000000E+00  0.55274742681E+03  0.20867664519E+04  0.20122287412E+04 0.  0.
        4    1    3    3  502    0  0.10748224171E+03 -0.92066457834E+03  0.68213277742E+03  0.11508616064E+04  0.12699999809E+01 0. -1.
       -4    1    3    3    0  502 -0.10748224171E+03  0.92066457834E+03 -0.12938535062E+03  0.93590484556E+03  0.12699999809E+01 0.  1.
</event>
<event>
 5   0  0.4133418E-05  0.2195153E+04  0.7818609E-02  0.8520448E-01
       -1   -1    0    0    0  501  0.00000000000E+00  0.00000000000E+00  0.89165491304E+03  0.89165491306E+03  0.50400001928E-02 0.  1.
        1   -1    0    0  501    0  0.00000000000E+00  0.00000000000E+00 -0.13510544994E+04  0.13510544994E+04  0.50400001928E-02 0. -1.
    10030    2    1    2    0    0  0.00000000000E+00  0.00000000000E+00 -0.45939958631E+03  0.22427094124E+04  0.21951531903E+04 0.  0.
        4    1    3    3  502    0  0.64060066448E+03 -0.63691208175E+03  0.40722123207E+03  0.99088695418E+03  0.12699999809E+01 0.  1.
       -4    1    3    3    0  502 -0.64060066448E+03  0.63691208175E+03 -0.86662081838E+03  0.12518224582E+04  0.12699999809E+01 0. -1.
</event>
<event>
 5   0  0.4063293E-05  0.2206888E+04  0.7818609E-02  0.8515567E-01
       -1   -1    0    0    0  501  0.00000000000E+00  0.00000000000E+00  0.13180223168E+04  0.13180223168E+04  0.50400001928E-02 0. -1.
        1   -1    0    0  501    0  0.00000000000E+00  0.00000000000E+00 -0.92379999263E+03  0.92379999265E+03  0.50400001928E-02 0.  1.
    10030    2    1    2    0    0  0.00000000000E+00  0.00000000000E+00  0.39422232414E+03  0.22418223094E+04  0.22068883130E+04 0.  0.
        1    1    3    3  502    0 -0.23926364563E+03  0.92505861251E+03 -0.36353883616E+03  0.10223213850E+04  0.50400001928E-02 0.  1.
       -1    1    3    3    0  502  0.23926364563E+03 -0.92505861251E+03  0.75776116030E+03  0.12195009245E+04  0.50400001928E-02 0. -1.
</event>
<event>
 5   0  0.4174075E-05  0.2199768E+04  0.7818609E-02  0.8518525E-01
       -1   -1    0    0    0  501  0.00000000000E+00  0.00000000000E+00  0.57132469931E+03  0.57132469933E+03  0.50400001928E-02 0.  1.
        1   -1    0    0  501    0  0.00000000000E+00  0.00000000000E+00 -0.21174381294E+04  0.21174381295E+04  0.50400001928E-02 0. -1.
    10030    2    1    2    0    0  0.00000000000E+00  0.00000000000E+00 -0.15461134301E+04  0.26887628288E+04  0.21997678993E+04 0.  0.
        5    1    3    3  502    0 -0.92515321443E+03 -0.29765272963E+02 -0.46919328042E+02  0.92683221512E+03  0.46999998093E+01 0.  1.
       -5    1    3    3    0  502  0.92515321443E+03  0.29765272963E+02 -0.14991941021E+04  0.17619306137E+04  0.46999998093E+01 0. -1.
</event>
<event>
 5   0  0.9442578E-05  0.2186412E+04  0.7818609E-02  0.8524105E-01
       -2   -1    0    0    0  501  0.00000000000E+00  0.00000000000E+00  0.38733101374E+03  0.38733101375E+03  0.25500000920E-02 0. -1.
        2   -1    0    0  501    0  0.00000000000E+00  0.00000000000E+00 -0.30854734884E+04  0.30854734884E+04  0.25500000920E-02 0.  1.
    10030    2    1    2    0    0  0.00000000000E+00  0.00000000000E+00 -0.26981424747E+04  0.34728045021E+04  0.21864121973E+04 0.  0.
        4    1    3    3  502    0 -0.99408499230E+03 -0.40594364399E+03 -0.16749856090E+04  0.19896164498E+04  0.12699999809E+01 0. -1.
       -4    1    3    3    0  502  0.99408499230E+03  0.40594364399E+03 -0.10231568657E+04  0.14831880524E+04  0.12699999809E+01 0.  1.
</event>
<event>
 5   0  0.4174075E-05  0.2205016E+04  0.7818609E-02  0.8516343E-01
        1   -1    0    0  501    0  0.00000000000E+00  0.00000000000E+00  0.83352689299E+03  0.83352689300E+03  0.50400001928E-02 0. -1.
       -1   -1    0    0    0  501  0.00000000000E+00  0.00000000000E+00 -0.14582897322E+04  0.14582897322E+04  0.50400001928E-02 0.  1.
    10030    2    1    2    0    0  0.00000000000E+00  0.00000000000E+00 -0.62476283925E+03  0.22918166253E+04  0.22050158363E+04 0.  0.
        5    1    3    3  502    0 -0.27515390901E+03 -0.30134882522E+03  0.75213393170E+03  0.85571509822E+03  0.46999998093E+01 0. -1.
       -5    1    3    3    0  502  0.27515390901E+03  0.30134882522E+03 -0.13768967709E+04  0.14361015270E+04  0.46999998093E+01 0.  1.
</event>
<event>
 5   0  0.9442578E-05  0.2165250E+04  0.7818609E-02  0.8533033E-01
       -2   -1    0    0    0  501  0.00000000000E+00  0.00000000000E+00  0.12391764777E+04  0.12391764777E+04  0.25500000920E-02 0.  1.
        2   -1    0    0  501    0  0.00000000000E+00  0.00000000000E+00 -0.94585164492E+03  0.94585164493E+03  0.25500000920E-02 0. -1.
    10030    2    1    2    0    0  0.00000000000E+00  0.00000000000E+00  0.29332483280E+03  0.21850281227E+04  0.21652502025E+04 0.  0.
        4    1    3    3  502    0  0.89875469804E+03 -0.22650478272E+03 -0.41792187933E+03  0.10167225452E+04  0.12699999809E+01 0. -1.
       -4    1    3    3    0  502 -0.89875469804E+03  0.22650478272E+03  0.71124671214E+03  0.11683055774E+04  0.12699999809E+01 0.  1.
</event>
<event>
 5   0  0.4063293E-05  0.1967112E+04  0.7818609E-02  0.8622153E-01
        1   -1    0    0  501    0  0.00000000000E+00  0.00000000000E+00  0.45978210934E+03  0.45978210936E+03  0.50400001928E-02 0.  1.
       -1   -1    0    0    0  501  0.00000000000E+00  0.00000000000E+00 -0.21040022818E+04  0.21040022818E+04  0.50400001928E-02 0. -1.
    10030    2    1    2    0    0  0.00000000000E+00  0.00000000000E+00 -0.16442201725E+04  0.25637843912E+04  0.19671122055E+04 0.  0.
        1    1    3    3  502    0 -0.83590740836E+03  0.17674631308E+03 -0.18707942866E+03  0.87463087482E+03  0.50400001928E-02 0.  1.
       -1    1    3    3    0  502  0.83590740836E+03 -0.17674631308E+03 -0.14571407438E+04  0.16891535164E+04  0.50400001928E-02 0. -1.
</event>
<event>
 5   0  0.9457742E-05  0.2193041E+04  0.7818609E-02  0.8521330E-01
        2   -1    0    0  501    0  0.00000000000E+00  0.00000000000E+00  0.13120809407E+04  0.13120809407E+04  0.25500000920E-02 0.  1.
       -2   -1    0    0    0  501  0.00000000000E+00  0.00000000000E+00 -0.91637434618E+03  0.91637434618E+03  0.25500000920E-02 0. -1.
    10030    2    1    2    0    0  0.00000000000E+00  0.00000000000E+00  0.39570659457E+03  0.22284552869E+04  0.21930410978E+04 0.  0.
        1    1    3    3  502    0 -0.10652565351E+03 -0.78234974832E+03 -0.57531379079E+03  0.97693643675E+03  0.50400001928E-02 0. -1.
       -1    1    3    3    0  502  0.10652565351E+03  0.78234974832E+03  0.97102038535E+03  0.12515188502E+04  0.50400001928E-02 0.  1.
</event>
<event>
 5   0  0.4188865E-05  0.2212919E+04  0.7818609E-02  0.8513070E-01
       -1   -1    0    0    0  501  0.00000000000E+00  0.00000000000E+00  0.10798418098E+04  0.10798418098E+04  0.50400001928E-02 0.  1.
        1   -1    0    0  501    0  0.00000000000E+00  0.00000000000E+00 -0.11337333615E+04  0.11337333615E+04  0.50400001928E-02 0. -1.
    10030    2    1    2    0    0  0.00000000000E+00  0.00000000000E+00 -0.53891551661E+02  0.22135751713E+04  0.22129190541E+04 0.  0.
        3    1    3    3  502    0 -0.40990674680E+03 -0.58206237730E+03 -0.87421079612E+03  0.11274150426E+04  0.10100000352E+00 0. -1.
       -3    1    3    3    0  502  0.40990674680E+03  0.58206237730E+03  0.82031924445E+03  0.10861601287E+04  0.10100000352E+00 0.  1.
</event>
<event>
 5   0  0.9254673E-05  0.2191864E+04  0.7818609E-02  0.8521822E-01
       -2   -1    0    0    0  501  0.00000000000E+00  0.00000000000E+00  0.57033426111E+03  0.57033426111E+03  0.25500000920E-02 0.  1.
        2   -1    0    0  501    0  0.00000000000E+00  0.00000000000E+00 -0.21058998010E+04  0.21058998010E+04  0.25500000920E-02 0. -1.
    10030    2    1    2    0    0  0.00000000000E+00  0.00000000000E+00 -0.15355655398E+04  0.26762340621E+04  0.21918638707E+04 0.  0.
        2    1    3    3  502    0 -0.16247974118E+03  0.77157473389E+03  0.16156254188E+03  0.80487868105E+03  0.25500000920E-02 0.  1.
       -2    1    3    3    0  502  0.16247974118E+03 -0.77157473389E+03 -0.16971280817E+04  0.18713553810E+04  0.25500000920E-02 0. -1.
</event>
<event>
 5   0  0.4063293E-05  0.2196566E+04  0.7818609E-02  0.8519859E-01
        1   -1    0    0  501    0  0.00000000000E+00  0.00000000000E+00  0.10730593407E+04  0.10730593407E+04  0.50400001928E-02 0. -1.
       -1   -1    0    0    0  501  0.00000000000E+00  0.00000000000E+00 -0.11240997836E+04  0.11240997836E+04  0.50400001928E-02 0.  1.
    10030    2    1    2    0    0  0.00000000000E+00  0.00000000000E+00 -0.51040442902E+02  0.21971591244E+04  0.21965662046E+04 0.  0.
        1    1    3    3  502    0 -0.45805084532E+03 -0.99754330507E+03 -0.61896923446E+02  0.10994246002E+04  0.50400001928E-02 0. -1.
       -1    1    3    3    0  502  0.45805084532E+03  0.99754330507E+03  0.10856480544E+02  0.10977345242E+04  0.50400001928E-02 0.  1.
</event>
<event>
 5   0  0.4188865E-05  0.2218475E+04  0.7818609E-02  0.8510778E-01
        1   -1    0    0  501    0  0.00000000000E+00  0.00000000000E+00  0.94796844868E+03  0.94796844870E+03  0.50400001928E-02 0.  1.
       -1   -1    0    0    0  501  0.00000000000E+00  0.00000000000E+00 -0.12979418599E+04  0.12979418599E+04  0.50400001928E-02 0. -1.
    10030    2    1    2    0    0  0.00000000000E+00  0.00000000000E+00 -0.34997341124E+03  0.22459103086E+04  0.22184750902E+04 0.  0.
        3    1    3    3  502    0 -0.68418645788E+03 -0.85990791175E+03 -0.21937767238E+02  0.10991060011E+04  0.10100000352E+00 0.  1.
       -3    1    3    3    0  502  0.68418645788E+03  0.85990791175E+03 -0.32803564400E+03  0.11468043075E+04  0.10100000352E+00 0. -1.
</event>
<event>
 5   0  0.4063293E-05  0.2210144E+04  0.7818609E-02  0.8514218E-01
        1   -1    0    0  501    0  0.00000000000E+00  0.00000000000E+00  0.17655167687E+04  0.17655167687E+04  0.50400001928E-02 0.  1.
       -1   -1    0    0    0  501  0.00000000000E+00  0.00000000000E+00 -0.69168674926E+03  0.69168674928E+03  0.50400001928E-02 0. -1.
    10030    2    1    2    0    0  0.00000000000E+00  0.00000000000E+00  0.10738300194E+04  0.24572035180E+04  0.22101443885E+04 0.  0.
        1    1    3    3  502    0  0.45119385097E+02 -0.37863963999E+03 -0.61622589961E+03  0.72466412582E+03  0.50400001928E-02 0. -1.
       -1    1    3    3    0  502 -0.45119385097E+02  0.37863963999E+03  0.16900559190E+04  0.17325393922E+04  0.50400001928E-02 0.  1.
</event>
<event>
 5   0  0.9938176E-05  0.2225966E+04  0.7818609E-02  0.8507697E-01
        2   -1    0    0  501    0  0.00000000000E+00  0.00000000000E+00  0.10007241792E+04  0.10007241792E+04  0.25500000920E-02 0.  1.
       -2   -1    0    0    0  501  0.00000000000E+00  0.00000000000E+00 -0.12378352106E+04  0.12378352106E+04  0.25500000920E-02 0. -1.
    10030    2    1    2    0    0  0.00000000000E+00  0.00000000000E+00 -0.23711103140E+03  0.22385593897E+04  0.22259664194E+04 0.  0.
        5    1    3    3  502    0  0.59027611338E+03  0.13139024619E+03 -0.10581969752E+04  0.12188077023E+04  0.46999998093E+01 0. -1.
       -5    1    3    3    0  502 -0.59027611338E+03 -0.13139024619E+03  0.82108594383E+03  0.10197516874E+04  0.46999998093E+01 0.  1.
</event>
<event>
 5   0  0.9179618E-05  0.2024313E+04  0.7818609E-02  0.8595337E-01
       -2   -1    0    0    0  501  0.00000000000E+00  0.00000000000E+00  0.17834947837E+04  0.17834947837E+04  0.25500000920E-02 0. -1.
        2   -1    0    0  501    0  0.00000000000E+00  0.00000000000E+00 -0.57441217336E+03  0.57441217337E+03  0.25500000920E-02 0.  1.
    10030    2    1    2    0    0  0.00000000000E+00  0.00000000000E+00  0.12090826104E+04  0.23579069571E+04  0.20243133304E+04 0.  0.
        3    1    3    3  502    0  0.68662390232E+03  0.20197912839E+03  0.14381731419E+04  0.16064214726E+04  0.10100000352E+00 0. -1.
       -3    1    3    3    0  502 -0.68662390232E+03 -0.20197912839E+03 -0.22909053150E+03  0.75148548447E+03  0.10100000352E+00 0.  1.
</event>
<event>
 5   0  0.9457742E-05  0.2179974E+04  0.7818609E-02  0.8526810E-01
       -2   -1    0    0    0  501  0.00000000000E+00  0.00000000000E+00  0.14409053416E+04  0.14409053416E+04  0.25500000920E-02 0.  1.
        2   -1    0    0  501    0  0.00000000000E+00  0.00000000000E+00 -0.82453160025E+03  0.82453160026E+03  0.25500000920E-02 0. -1.
    10030    2    1    2    0    0  0.00000000000E+00  0.00000000000E+00  0.61637374136E+03  0.22654369419E+04  0.21799743000E+04 0.  0.
        1    1    3    3  502    0 -0.78732524493E+03  0.67101548846E+03 -0.48684087691E+02  0.10356220196E+04  0.50400001928E-02 0. -1.
       -1    1    3    3    0  502  0.78732524493E+03 -0.67101548846E+03  0.66505782905E+03  0.12298149223E+04  0.50400001928E-02 0.  1.
</event>
<event>
 5   0  0.4174030E-05  0.2205408E+04  0.7818609E-02  0.8516180E-01
        1   -1    0    0  501    0  0.00000000000E+00  0.00000000000E+00  0.12955607518E+04  0.12955607518E+04  0.50400001928E-02 0.  1.
       -1   -1    0    0    0  501  0.00000000000E+00  0.00000000000E+00 -0.93855613676E+03  0.93855613678E+03  0.50400001928E-02 0. -1.
    10030    2    1    2    0    0  0.00000000000E+00  0.00000000000E+00  0.35700461505E+03  0.22341168886E+04  0.22054083469E+04 0.  0.
        2    1    3    3  502    0 -0.24604842153E+02 -0.45415884347E+02  0.12943345774E+04  0.12953648131E+04  0.25500000920E-02 0.  1.
       -2    1    3    3    0  502  0.24604842153E+02  0.45415884347E+02 -0.93732996237E+03  0.93875207546E+03  0.25500000920E-02 0. -1.
</event>
<event>
 5   0  0.4063293E-05  0.2185134E+04  0.7818609E-02  0.8524641E-01
        1   -1    0    0  501    0  0.00000000000E+00  0.00000000000E+00  0.17054077528E+04  0.17054077528E+04  0.50400001928E-02 0. -1.
       -1   -1    0    0    0  501  0.00000000000E+00  0.00000000000E+00 -0.69995126889E+03  0.69995126891E+03  0.50400001928E-02 0.  1.
    10030    2    1    2    0    0  0.00000000000E+00  0.00000000000E+00  0.10054564839E+04  0.24053590217E+04  0.21851336989E+04 0.  0.
        1    1    3    3  502    0  0.17133098369E+03  0.10771438330E+04  0.43216486716E+03  0.11731835387E+04  0.50400001928E-02 0.  1.
       -1    1    3    3    0  502 -0.17133098369E+03 -0.10771438330E+04  0.57329161671E+03  0.12321754830E+04  0.50400001928E-02 0. -1.
</event>
<event>
 5   0  0.9938176E-05  0.2116634E+04  0.7818609E-02  0.8553951E-01
        2   -1    0    0  501    0  0.00000000000E+00  0.00000000000E+00  0.93676550150E+03  0.93676550150E+03  0.25500000920E-02 0.  1.
       -2   -1    0    0    0  501  0.00000000000E+00  0.00000000000E+00 -0.11956402522E+04  0.11956402522E+04  0.25500000920E-02 0. -1.
    10030    2    1    2    0    0  0.00000000000E+00  0.00000000000E+00 -0.25887475073E+03  0.21324057537E+04  0.21166336863E+04 0.  0.
        5    1    3    3  502    0 -0.38694642695E+02 -0.10333568267E+04  0.97382096238E+02  0.10386669194E+04  0.46999998093E+01 0.  1.
       -5    1    3    3    0  502  0.38694642695E+02  0.10333568267E+04 -0.35625684697E+03  0.10937388344E+04  0.46999998093E+01 0. -1.
</event>
<event>
 5   0  0.4188865E-05  0.2201918E+04  0.7818609E-02  0.8517630E-01
       -1   -1    0    0    0  501  0.00000000000E+00  0.00000000000E+00  0.19016477191E+04  0.19016477191E+04  0.50400001928E-02 0. -1.
        1   -1    0    0  501    0  0.00000000000E+00  0.00000000000E+00 -0.63740033952E+03  0.63740033954E+03  0.50400001928E-02 0.  1.
    10030    2    1    2    0    0  0.00000000000E+00  0.00000000000E+00  0.12642473795E+04  0.25390480586E+04  0.22019181654E+04 0.  0.
        3    1    3    3  502    0  0.64107415127E+03  0.62259566599E+03 -0.10937855835E+03  0.90031389525E+03  0.10100000352E+00 0.  1.
       -3    1    3    3    0  502 -0.64107415127E+03 -0.62259566599E+03  0.13736259379E+04  0.16387341634E+04  0.10100000352E+00 0. -1.
</event>
<event>
 5   0  0.4133418E-05  0.2194592E+04  0.7818609E-02  0.8520683E-01
       -1   -1    0    0    0  501  0.00000000000E+00  0.00000000000E+00  0.83430971388E+03  0.83430971389E+03  0.50400001928E-02 0.  1.
        1   -1    0    0  501    0  0.00000000000E+00  0.00000000000E+00 -0.14431789817E+04  0.14431789817E+04  0.50400001928E-02 0. -1.
    10030    2    1    2    0    0  0.00000000000E+00  0.00000000000E+00 -0.60886926780E+03  0.22774886956E+04  0.21945917555E+04 0.  0.
        4    1    3    3  502    0 -0.57109240426E+02 -0.67837860400E+03  0.58865211789E+03  0.89998440237E+03  0.12699999809E+01 0.  1.
       -4    1    3    3    0  502  0.57109240426E+02  0.67837860400E+03 -0.11975213857E+04  0.13775042932E+04  0.12699999809E+01 0. -1.
</event>
<event>
 5   0  0.9938176E-05  0.2148393E+04  0.7818609E-02  0.8540221E-01
       -2   -1    0    0    0  501  0.00000000000E+00  0.00000000000E+00  0.15765934196E+04  0.15765934196E+04  0.25500000920E-02 0.  1.
        2   -1    0    0  501    0  0.00000000000E+00  0.00000000000E+00 -0.73189311882E+03  0.73189311883E+03  0.25500000920E-02 0. -1.
    10030    2    1    2    0    0  0.00000000000E+00  0.00000000000E+00  0.84470030083E+03  0.23084865385E+04  0.21483927714E+04 0.  0.
        5    1    3    3  502    0 -0.49307794811E+03 -0.50439699468E+03  0.12928645930E+04  0.14727739599E+04  0.46999998093E+01 0.  1.
       -5    1    3    3    0  502  0.49307794811E+03  0.50439699468E+03 -0.44816429219E+03  0.83571257855E+03  0.46999998093E+01 0. -1.
</event>
<event>
 5   0  0.4174075E-05  0.2189198E+04  0.7818609E-02  0.8522938E-01
       -1   -1    0    0    0  501  0.00000000000E+00  0.00000000000E+00  0.61956228938E+03  0.61956228940E+03  0.50400001928E-02 0.  1.
        1   -1    0    0  501    0  0.00000000000E+00  0.00000000000E+00 -0.19338608342E+04  0.19338608342E+04  0.50400001928E-02 0. -1.
    10030    2    1    2    0    0  0.00000000000E+00  0.00000000000E+00 -0.13142985448E+04  0.25534231236E+04  0.21891982513E+04 0.  0.
        5    1    3    3  502    0  0.81451654944E+03 -0.36099348597E+03  0.84550326734E+02  0.89494377141E+03  0.46999998093E+01 0.  1.
       -5    1    3    3    0  502 -0.81451654944E+03  0.36099348597E+03 -0.13988488716E+04  0.16584793522E+04  0.46999998093E+01 0. -1.
</event>
<event>
 5   0  0.9938176E-05  0.2194455E+04  0.7818609E-02  0.8520740E-01
       -2   -1    0    0    0  501  0.00000000000E+00  0.00000000000E+00  0.80932624860E+03  0.80932624861E+03  0.25500000920E-02 0. -1.
        2   -1    0    0  501    0  0.00000000000E+00  0.00000000000E+00 -0.14875439093E+04  0.14875439093E+04  0.25500000920E-02 0.  1.
    10030    2    1    2    0    0  0.00000000000E+00  0.00000000000E+00 -0.67821766069E+03  0.22968701579E+04  0.21944551321E+04 0.  0.
        5    1    3    3  502    0  0.62810084041E+03  0.45022789595E+03 -0.11543500852E+04  0.13891587502E+04  0.46999998093E+01 0.  1.
       -5    1    3    3    0  502 -0.62810084041E+03 -0.45022789595E+03  0.47613242451E+03  0.90771140771E+03  0.46999998093E+01 0. -1.
</event>
<event>
 5   0  0.9442578E-05  0.2247141E+04  0.7818609E-02  0.8499059E-01
        2   -1    0    0  501    0  0.00000000000E+00  0.00000000000E+00  0.92013624767E+03  0.92013624767E+03  0.25500000920E-02 0.  1.
       -2   -1    0    0    0  501  0.00000000000E+00  0.00000000000E+00 -0.13719818105E+04  0.13719818105E+04  0.25500000920E-02 0. -1.
    10030    2    1    2    0    0  0.00000000000E+00  0.00000000000E+00 -0.45184556286E+03  0.22921180582E+04  0.22471405786E+04 0.  0.
        4    1    3    3  502    0 -0.50862383687E+03  0.25239909089E+03  0.76302153599E+03  0.95110829341E+03  0.12699999809E+01 0.  1.
       -4    1    3    3    0  502  0.50862383687E+03 -0.25239909089E+03 -0.12148670988E+04  0.13410097648E+04  0.12699999809E+01 0. -1.
</event>
<event>
 5   0  0.9457742E-05  0.2370846E+04  0.7818609E-02  0.8450500E-01
       -2   -1    0    0    0  501  0.00000000000E+00  0.00000000000E+00  0.45890476027E+03  0.45890476028E+03  0.25500000920E-02 0. -1.
        2   -1    0    0  501    0  0.00000000000E+00  0.00000000000E+00 -0.30621329724E+04  0.30621329724E+04  0.25500000920E-02 0.  1.
    10030    2    1    2    0    0  0.00000000000E+00  0.00000000000E+00 -0.26032282121E+04  0.35210377326E+04  0.23708457543E+04 0.  0.
        1    1    3    3  502    0 -0.22422979631E+03 -0.11583742735E+04 -0.14717092440E+04  0.18862762411E+04  0.50400001928E-02 0.  1.
       -1    1    3    3    0  502  0.22422979631E+03  0.11583742735E+04 -0.11315189681E+04  0.16347614915E+04  0.50400001928E-02 0. -1.
</event>
<event>
 5   0  0.9457742E-05  0.2276399E+04  0.7818609E-02  0.8487285E-01
       -2   -1    0    0    0  501  0.00000000000E+00  0.00000000000E+00  0.10331630781E+04  0.10331630781E+04  0.25500000920E-02 0.  1.
        2   -1    0    0  501    0  0.00000000000E+00  0.00000000000E+00 -0.12539144624E+04  0.12539144624E+04  0.25500000920E-02 0. -1.
    10030    2    1    2    0    0  0.00000000000E+00  0.00000000000E+00 -0.22075138431E+03  0.22870775405E+04  0.22763990210E+04 0.  0.
        1    1    3    3  502    0  0.78949787207E+03  0.81464985702E+03 -0.17547215176E+02  0.11345788577E+04  0.50400001928E-02 0.  1.
       -1    1    3    3    0  502 -0.78949787207E+03 -0.81464985702E+03 -0.20320416913E+03  0.11524986828E+04  0.50400001928E-02 0. -1.
</event>
<event>
 5   0  0.4174030E-05  0.2197158E+04  0.7818609E-02  0.8519612E-01
        1   -1    0    0  501    0  0.00000000000E+00  0.00000000000E+00  0.11887651591E+04  0.11887651591E+04  0.50400001928E-02 0. -1.
       -1   -1    0    0    0  501  0.00000000000E+00  0.00000000000E+00 -0.10152344023E+04  0.10152344023E+04  0.50400001928E-02 0.  1.
    10030    2    1    2    0    0  0.00000000000E+00  0.00000000000E+00  0.17353075678E+03  0.22039995613E+04  0.21971575144E+04 0.  0.
        2    1    3    3  502    0  0.12205481492E+03 -0.57675107563E+02 -0.10068826658E+04  0.10158919719E+04  0.25500000920E-02 0.  1.
       -2    1    3    3    0  502 -0.12205481492E+03  0.57675107563E+02  0.11804134226E+04  0.11881075894E+04  0.25500000920E-02 0. -1.
</event>
<event>
 5   0  0.9457742E-05  0.2212409E+04  0.7818609E-02  0.8513281E-01
       -2   -1    0    0    0  501  0.00000000000E+00  0.00000000000E+00  0.15516153338E+04  0.15516153338E+04  0.25500000920E-02 0. -1.
        2   -1    0    0  501    0  0.00000000000E+00  0.00000000000E+00 -0.78865474200E+03  0.78865474200E+03  0.25500000920E-02 0.  1.
    10030    2    1    2    0    0  0.00000000000E+00  0.00000000000E+00  0.76296059175E+03  0.23402700758E+04  0.22124093570E+04 0.  0.
        1    1    3    3  502    0  0.65420546348E+03 -0.28087780837E+03  0.12770574847E+04  0.14621056566E+04  0.50400001928E-02 0. -1.
       -1    1    3    3    0  502 -0.65420546348E+03  0.28087780837E+03 -0.51409689299E+03  0.87816441916E+03  0.50400001928E-02 0.  1.
</event>
<event>
 5   0  0.4174075E-05  0.2198311E+04  0.7818609E-02  0.8519131E-01
       -1   -1    0    0    0  501  0.00000000000E+00  0.00000000000E+00  0.79705924588E+03  0.79705924590E+03  0.50400001928E-02 0. -1.
        1   -1    0    0  501    0  0.00000000000E+00  0.00000000000E+00 -0.15157502804E+04  0.15157502804E+04  0.50400001928E-02 0.  1.
    10030    2    1    2    0    0  0.00000000000E+00  0.00000000000E+00 -0.71869103449E+03  0.23128095263E+04  0.21983109657E+04 0.  0.
        5    1    3    3  502    0 -0.50709265285E+02 -0.35277349532E+03  0.73456978717E+03  0.81647745272E+03  0.46999998093E+01 0. -1.
       -5    1    3    3    0  502  0.50709265285E+02  0.35277349532E+03 -0.14532608217E+04  0.14963320736E+04  0.46999998093E+01 0.  1.
</event>
<event>
 5   0  0.4188865E-05  0.2197880E+04  0.7818609E-02  0.8519311E-01
        1   -1    0    0  501    0  0.00000000000E+00  0.00000000000E+00  0.23196561543E+04  0.23196561543E+04  0.50400001928E-02 0.  1.
       -1   -1    0    0    0  501  0.00000000000E+00  0.00000000000E+00 -0.52062442502E+03  0.52062442504E+03  0.50400001928E-02 0. -1.
    10030    2    1    2    0    0  0.00000000000E+00  0.00000000000E+00  0.17990317293E+04  0.28402805794E+04  0.21978804805E+04 0.  0.
        3    1    3    3  502    0 -0.15669279547E+03 -0.10466352579E+04  0.51687904967E+03  0.11777783991E+04  0.10100000352E+00 0. -1.
       -3    1    3    3    0  502  0.15669279547E+03  0.10466352579E+04  0.12821526796E+04  0.16625021802E+04  0.10100000352E+00 0.  1.
</event>
<event>
 5   0  0.9442578E-05  0.2198767E+04  0.7818609E-02  0.8518941E-01
       -2   -1    0    0    0  501  0.00000000000E+00  0.00000000000E+00  0.61374074061E+03  0.61374074061E+03  0.25500000920E-02 0. -1.
        2   -1    0    0  501    0  0.00000000000E+00  0.00000000000E+00 -0.19693079440E+04  0.19693079440E+04  0.25500000920E-02 0.  1.
    10030    2    1    2    0    0  0.00000000000E+00  0.00000000000E+00 -0.13555672034E+04  0.25830486846E+04  0.21987673966E+04 0.  0.
        4    1    3    3  502    0 -0.30712106098E+03  0.70881074945E+03 -0.15967422531E+04  0.17737878848E+04  0.12699999809E+01 0.  1.
       -4    1    3    3    0  502  0.30712106098E+03 -0.70881074945E+03  0.24117504967E+03  0.80926079982E+03  0.12699999809E+01 0. -1.
</event>
<event>
 5   0  0.4063293E-05  0.1902585E+04  0.7818609E-02  0.8653571E-01
       -1   -1    0    0    0  501  0.00000000000E+00  0.00000000000E+00  0.79846619894E+03  0.79846619895E+03  0.50400001928E-02 0.  1.
        1   -1    0    0  501    0  0.00000000000E+00  0.00000000000E+00 -0.11333698062E+04  0.11333698062E+04  0.50400001928E-02 0. -1.
    10030    2    1    2    0    0  0.00000000000E+00  0.00000000000E+00 -0.33490360730E+03  0.19318360052E+04  0.19025850637E+04 0.  0.
        1    1    3    3  502    0  0.30467918316E+03 -0.81149411755E+03 -0.56540259965E+03  0.10349068592E+04  0.50400001928E-02 0. -1.
       -1    1    3    3    0  502 -0.30467918316E+03  0.81149411755E+03  0.23049899235E+03  0.89692914601E+03  0.50400001928E-02 0.  1.
</event>
<event>
 5   0  0.9179618E-05  0.2173064E+04  0.7818609E-02  0.8529724E-01
       -2   -1    0    0    0  501  0.00000000000E+00  0.00000000000E+00  0.70226045649E+03  0.70226045649E+03  0.25500000920E-02 0.  1.
        2   -1    0    0  501    0  0.00000000000E+00  0.00000000000E+00 -0.16810743301E+04  0.16810743301E+04  0.25500000920E-02 0. -1.
    10030    2    1    2    0    0  0.00000000000E+00  0.00000000000E+00 -0.97881387359E+03  0.23833347866E+04  0.21730642203E+04 0.  0.
        3    1    3    3  502    0  0.90774760810E+02  0.13047562457E+03  0.68944058577E+03  0.70752546055E+03  0.10100000352E+00 0.  1.
       -3    1    3    3    0  502 -0.90774760810E+02 -0.13047562457E+03 -0.16682544594E+04  0.16758093260E+04  0.10100000352E+00 0. -1.
</event>
<event>
 5   0  0.9179618E-05  0.2213957E+04  0.7818609E-02  0.8512641E-01
        2   -1    0    0  501    0  0.00000000000E+00  0.00000000000E+00  0.29415130814E+04  0.29415130814E+04  0.25500000920E-02 0. -1.
       -2   -1    0    0    0  501  0.00000000000E+00  0.00000000000E+00 -0.41658893137E+03  0.41658893137E+03  0.25500000920E-02 0.  1.
    10030    2    1    2    0    0  0.00000000000E+00  0.00000000000E+00  0.25249241501E+04  0.33581020128E+04  0.22139573539E+04 0.  0.
        3    1    3    3  502    0 -0.77175472364E+02 -0.46222762467E+03 -0.25871083356E+03  0.53529593324E+03  0.10100000352E+00 0.  1.
       -3    1    3    3    0  502  0.77175472364E+02  0.46222762467E+03  0.27836349836E+04  0.28228060796E+04  0.10100000352E+00 0. -1.
</event>
<event>
 5   0  0.9179618E-05  0.2189456E+04  0.7818609E-02  0.8522830E-01
       -2   -1    0    0    0  501  0.00000000000E+00  0.00000000000E+00  0.79153141915E+03  0.79153141915E+03  0.25500000920E-02 0. -1.
        2   -1    0    0  501    0  0.00000000000E+00  0.00000000000E+00 -0.15140642424E+04  0.15140642424E+04  0.25500000920E-02 0.  1.
    10030    2    1    2    0    0  0.00000000000E+00  0.00000000000E+00 -0.72253282322E+03  0.23055956615E+04  0.21894560223E+04 0.  0.
        3    1    3    3  502    0  0.97269474756E+03 -0.19812863625E+03 -0.84731184208E+03  0.13051158555E+04  0.10100000352E+00 0. -1.
       -3    1    3    3    0  502 -0.97269474756E+03  0.19812863625E+03  0.12477901886E+03  0.10004798060E+04  0.10100000352E+00 0.  1.
</event>
<event>
 5   0  0.4174030E-05  0.2222436E+04  0.7818609E-02  0.8509147E-01
       -1   -1    0    0    0  501  0.00000000000E+00  0.00000000000E+00  0.65549790411E+03  0.65549790413E+03  0.50400001928E-02 0.  1.
        1   -1    0    0  501    0  0.00000000000E+00  0.00000000000E+00 -0.18837677584E+04  0.18837677584E+04  0.50400001928E-02 0. -1.
    10030    2    1    2    0    0  0.00000000000E+00  0.00000000000E+00 -0.12282698543E+04  0.25392656625E+04  0.22224363365E+04 0.  0.
        2    1    3    3  502    0  0.23554742376E+03 -0.10433501291E+04 -0.26995373041E+03  0.11031487195E+04  0.25500000920E-02 0.  1.
       -2    1    3    3    0  502 -0.23554742376E+03  0.10433501291E+04 -0.95831612387E+03  0.14361169430E+04  0.25500000920E-02 0. -1.
</event>
<event>
 5   0  0.9938176E-05  0.2194006E+04  0.7818609E-02  0.8520927E-01
        2   -1    0    0  501    0  0.00000000000E+00  0.00000000000E+00  0.15038109922E+04  0.15038109922E+04  0.25500000920E-02 0.  1.
       -2   -1    0    0    0  501  0.00000000000E+00  0.00000000000E+00 -0.80024385623E+03  0.80024385624E+03  0.25500000920E-02 0. -1.
    10030    2    1    2    0    0  0.00000000000E+00  0.00000000000E+00  0.70356713598E+03  0.23040548485E+04  0.21940059320E+04 0.  0.
        5    1    3    3  502    0  0.65629105252E+03  0.69255999331E+03 -0.21669696733E+03  0.97843597420E+03  0.46999998093E+01 0. -1.
       -5    1    3    3    0  502 -0.65629105252E+03 -0.69255999331E+03  0.92026410331E+03  0.13256188743E+04  0.46999998093E+01 0.  1.
</event>
<event>
 5   0  0.9938176E-05  0.2231657E+04  0.7818609E-02  0.8505366E-01
       -2   -1    0    0    0  501  0.00000000000E+00  0.00000000000E+00  0.12573848143E+04  0.12573848143E+04  0.25500000920E-02 0. -1.
        2   -1    0    0  501    0  0.00000000000E+00  0.00000000000E+00 -0.99020831889E+03  0.99020831889E+03  0.25500000920E-02 0.  1.
    10030    2    1    2    0    0  0.00000000000E+00  0.00000000000E+00  0.26717649542E+03  0.22475931332E+04  0.22316566969E+04 0.  0.
        5    1    3    3  502    0 -0.77547571201E+03  0.77749088687E+03 -0.65805730517E+02  0.11000941520E+04  0.46999998093E+01 0.  1.
       -5    1    3    3    0  502  0.77547571201E+03 -0.77749088687E+03  0.33298222594E+03  0.11474989812E+04  0.46999998093E+01 0. -1.
</event>
<event>
 5   0  0.9442578E-05  0.2194910E+04  0.7818609E-02  0.8520550E-01
        2   -1    0    0  501    0  0.00000000000E+00  0.00000000000E+00  0.13080475416E+04  0.13080475416E+04  0.25500000920E-02 0. -1.
       -2   -1    0    0    0  501  0.00000000000E+00  0.00000000000E+00 -0.92076694200E+03  0.92076694201E+03  0.25500000920E-02 0.  1.
    10030    2    1    2    0    0  0.00000000000E+00  0.00000000000E+00  0.38728059962E+03  0.22288144836E+04  0.21949095060E+04 0.  0.
        4    1    3    3  502    0 -0.99434657673E+03 -0.35956782713E+03  0.49210434272E+03  0.11662685943E+04  0.12699999809E+01 0. -1.
       -4    1    3    3    0  502  0.99434657673E+03  0.35956782713E+03 -0.10482374310E+03  0.10625458894E+04  0.12699999809E+01 0.  1.
</event>
<event>
 5   0  0.9442578E-05  0.2200977E+04  0.7818609E-02  0.8518022E-01
        2   -1    0    0  501    0  0.00000000000E+00  0.00000000000E+00  0.68831334007E+03  0.68831334007E+03  0.25500000920E-02 0.  1.
       -2   -1    0    0    0  501  0.00000000000E+00  0.00000000000E+00 -0.17594822457E+04  0.17594822457E+04  0.25500000920E-02 0. -1.
    10030    2    1    2    0    0  0.00000000000E+00  0.00000000000E+00 -0.10711689057E+04  0.24477955858E+04  0.22009771479E+04 0.  0.
        4    1    3    3  502    0 -0.55955023126E+03  0.94745479638E+03 -0.55505281827E+03  0.12324172574E+04  0.12699999809E+01 0. -1.
       -4    1    3    3    0  502  0.55955023126E+03 -0.94745479638E+03 -0.51611608740E+03  0.12153783284E+04  0.12699999809E+01 0.  1.
</event>
<event>
 5   0  0.4133418E-05  0.2203068E+04  0.7818609E-02  0.8517152E-01
        1   -1    0    0  501    0  0.00000000000E+00  0.00000000000E+00  0.91486689984E+03  0.91486689986E+03  0.50400001928E-02 0.  1.
       -1   -1    0    0    0  501  0.00000000000E+00  0.00000000000E+00 -0.13262878654E+04  0.13262878654E+04  0.50400001928E-02 0. -1.
    10030    2    1    2    0    0  0.00000000000E+00  0.00000000000E+00 -0.41142096557E+03  0.22411547653E+04  0.22030677409E+04 0.  0.
        4    1    3    3  502    0 -0.33588325407E+03  0.93833423942E+03  0.27153381486E+03  0.10329670521E+04  0.12699999809E+01 0.  1.
       -4    1    3    3    0  502  0.33588325407E+03 -0.93833423942E+03 -0.68295478043E+03  0.12081877132E+04  0.12699999809E+01 0. -1.
</event>
<event>
 5   0  0.9179618E-05  0.2204286E+04  0.7818609E-02  0.8516646E-01
        2   -1    0    0  501    0  0.00000000000E+00  0.00000000000E+00  0.22571475957E+04  0.22571475957E+04  0.25500000920E-02 0.  1.
       -2   -1    0    0    0  501  0.00000000000E+00  0.00000000000E+00 -0.53816538654E+03  0.53816538655E+03  0.25500000920E-02 0. -1.
    10030    2    1    2    0    0  0.00000000000E+00  0.00000000000E+00  0.17189822091E+04  0.27953129822E+04  0.22042855607E+04 0.  0.
        3    1    3    3  502    0  0.88132440624E+03  0.44472264065E+03  0.23796967958E+03  0.10154508923E+04  0.10100000352E+00 0.  1.
       -3    1    3    3    0  502 -0.88132440624E+03 -0.44472264065E+03  0.14810125296E+04  0.17798620899E+04  0.10100000352E+00 0. -1.
</event>
<event>
 5   0  0.4133418E-05  0.1914875E+04  0.7818609E-02  0.8647487E-01
       -1   -1    0    0    0  501  0.00000000000E+00  0.00000000000E+00  0.65074657304E+03  0.65074657306E+03  0.50400001928E-02 0. -1.
        1   -1    0    0  501    0  0.00000000000E+00  0.00000000000E+00 -0.14086688728E+04  0.14086688728E+04  0.50400001928E-02 0.  1.
    10030    2    1    2    0    0  0.00000000000E+00  0.00000000000E+00 -0.75792229971E+03  0.20594154458E+04  0.19148748696E+04 0.  0.
        4    1    3    3  502    0 -0.99972634676E+01  0.21162221468E+03  0.62522037754E+03  0.66014092467E+03  0.12699999809E+01 0. -1.
       -4    1    3    3    0  502  0.99972634676E+01 -0.21162221468E+03 -0.13831426773E+04  0.13992745212E+04  0.12699999809E+01 0.  1.
</event>
<event>
 5   0  0.9457742E-05  0.2198835E+04  0.7818609E-02  0.8518913E-01
        2   -1    0    0  501    0  0.00000000000E+00  0.00000000000E+00  0.24937527667E+04  0.24937527667E+04  0.25500000920E-02 0.  1.
       -2   -1    0    0    0  501  0.00000000000E+00  0.00000000000E+00 -0.48469885081E+03  0.48469885081E+03  0.25500000920E-02 0. -1.
    10030    2    1    2    0    0  0.00000000000E+00  0.00000000000E+00  0.20090539159E+04  0.29784516175E+04  0.21988352373E+04 0.  0.
        1    1    3    3  502    0  0.94902273297E+03  0.16495446760E+03  0.28665555256E+03  0.10050002636E+04  0.50400001928E-02 0. -1.
       -1    1    3    3    0  502 -0.94902273297E+03 -0.16495446760E+03  0.17223983633E+04  0.19734513539E+04  0.50400001928E-02 0.  1.
</event>
<event>
 5   0  0.9254673E-05  0.2156144E+04  0.7818609E-02  0.8536907E-01
       -2   -1    0    0    0  501  0.00000000000E+00  0.00000000000E+00  0.17686581781E+04  0.17686581781E+04  0.25500000920E-02 0. -1.
        2   -1    0    0  501    0  0.00000000000E+00  0.00000000000E+00 -0.65713060817E+03  0.65713060818E+03  0.25500000920E-02 0.  1.
    10030    2    1    2    0    0  0.00000000000E+00  0.00000000000E+00  0.11115275699E+04  0.24257887863E+04  0.21561441735E+04 0.  0.
        2    1    3    3  502    0 -0.25042439381E+03  0.94879911142E+03  0.53494312800E+02  0.98274807166E+03  0.25500000920E-02 0.  1.
       -2    1    3    3    0  502  0.25042439381E+03 -0.94879911142E+03  0.10580332571E+04  0.14430407146E+04  0.25500000920E-02 0. -1.
</event>
<event>
 5   0  0.4133418E-05  0.2183629E+04  0.7818609E-02  0.8525273E-01
        1   -1    0    0  501    0  0.00000000000E+00  0.00000000000E+00  0.10591484902E+04  0.10591484902E+04  0.50400001928E-02 0.  1.
       -1   -1    0    0    0  501  0.00000000000E+00  0.00000000000E+00 -0.11254883990E+04  0.11254883990E+04  0.50400001928E-02 0. -1.
    10030    2    1    2    0    0  0.00000000000E+00  0.00000000000E+00 -0.66339908879E+02  0.21846368892E+04  0.21836293995E+04 0.  0.
        4    1    3    3  502    0  0.12696422768E+03 -0.10783541094E+04 -0.14763526483E+03  0.10957943624E+04  0.12699999809E+01 0.  1.
       -4    1    3    3    0  502 -0.12696422768E+03  0.10783541094E+04  0.81295355948E+02  0.10888425268E+04  0.12699999809E+01 0. -1.
</event>
<event>
 5   0  0.4174030E-05  0.2197501E+04  0.7818609E-02  0.8519469E-01
       -1   -1    0    0    0  501  0.00000000000E+00  0.00000000000E+00  0.68065917906E+03  0.68065917908E+03  0.50400001928E-02 0. -1.
        1   -1    0    0  501    0  0.00000000000E+00  0.00000000000E+00 -0.17736522291E+04  0.17736522291E+04  0.50400001928E-02 0.  1.
    10030    2    1    2    0    0  0.00000000000E+00  0.00000000000E+00 -0.10929930500E+04  0.24543114082E+04  0.21975010082E+04 0.  0.
        2    1    3    3  502    0  0.12486889891E+03  0.10076502529E+04 -0.77544453151E+02  0.10183144977E+04  0.25500000920E-02 0.  1.
       -2    1    3    3    0  502 -0.12486889891E+03 -0.10076502529E+04 -0.10154485969E+04  0.14359969105E+04  0.25500000920E-02 0. -1.
</event>
<event>
 5   0  0.9442578E-05  0.2183567E+04  0.7818609E-02  0.8525299E-01
        2   -1    0    0  501    0  0.00000000000E+00  0.00000000000E+00  0.18589645056E+04  0.18589645056E+04  0.25500000920E-02 0. -1.
       -2   -1    0    0    0  501  0.00000000000E+00  0.00000000000E+00 -0.64121251238E+03  0.64121251239E+03  0.25500000920E-02 0.  1.
    10030    2    1    2    0    0  0.00000000000E+00  0.00000000000E+00  0.12177519932E+04  0.25001770180E+04  0.21835670826E+04 0.  0.
        4    1    3    3  502    0  0.47237877993E+03  0.56243551262E+03 -0.31603347562E+03  0.79959626574E+03  0.12699999809E+01 0.  1.
       -4    1    3    3    0  502 -0.47237877993E+03 -0.56243551262E+03  0.15337854689E+04  0.17005807523E+04  0.12699999809E+01 0. -1.
</event>
<event>
 5   0  0.9442578E-05  0.2141541E+04  0.7818609E-02  0.8543162E-01
       -2   -1    0    0    0  501  0.00000000000E+00  0.00000000000E+00  0.82718392257E+03  0.82718392258E+03  0.25500000920E-02 0.  1.
        2   -1    0    0  501    0  0.00000000000E+00  0.00000000000E+00 -0.13860871797E+04  0.13860871797E+04  0.25500000920E-02 0. -1.
    10030    2    1    2    0    0  0.00000000000E+00  0.00000000000E+00 -0.55890325714E+03  0.22132711023E+04  0.21415405953E+04 0.  0.
        4    1    3    3  502    0 -0.33532348835E+03  0.71539414436E+03 -0.10263737073E+04  0.12952510272E+04  0.12699999809E+01 0. -1.
       -4    1    3    3    0  502  0.33532348835E+03 -0.71539414436E+03  0.46747045012E+03  0.91802007508E+03  0.12699999809E+01 0.  1.
</event>
<event>
 5   0  0.4133418E-05  0.2124852E+04  0.7818609E-02  0.8550374E-01
        1   -1    0    0  501    0  0.00000000000E+00  0.00000000000E+00  0.13537927136E+04  0.13537927136E+04  0.50400001928E-02 0. -1.
       -1   -1    0    0    0  501  0.00000000000E+00  0.00000000000E+00 -0.83376787511E+03  0.83376787512E+03  0.50400001928E-02 0.  1.
    10030    2    1    2    0    0  0.00000000000E+00  0.00000000000E+00  0.52002483852E+03  0.21875605888E+04  0.21248518764E+04 0.  0.
        4    1    3    3  502    0 -0.17702068836E+01 -0.11384965418E+03 -0.82746733395E+03  0.83526563382E+03  0.12699999809E+01 0.  1.
       -4    1    3    3    0  502  0.17702068836E+01  0.11384965418E+03  0.13474921725E+04  0.13522949549E+04  0.12699999809E+01 0. -1.
</event>
<event>
 5   0  0.4174030E-05  0.2187119E+04  0.7818609E-02  0.8523808E-01
        1   -1    0    0  501    0  0.00000000000E+00  0.00000000000E+00  0.21852678956E+04  0.21852678956E+04  0.50400001928E-02 0. -1.
       -1   -1    0    0    0  501  0.00000000000E+00  0.00000000000E+00 -0.54724310504E+03  0.54724310506E+03  0.50400001928E-02 0.  1.
    10030    2    1    2    0    0  0.00000000000E+00  0.00000000000E+00  0.16380247905E+04  0.27325110006E+04  0.21871193736E+04 0.  0.
        2    1    3    3  502    0 -0.34199040896E+03 -0.91808498973E+03  0.14259973283E+04  0.17301172991E+04  0.25500000920E-02 0.  1.
       -2    1    3    3    0  502  0.34199040896E+03  0.91808498973E+03  0.21202746222E+03  0.10023937016E+04  0.25500000920E-02 0. -1.
</event>
<event>
 5   0  0.9938176E-05  0.2221883E+04  0.7818609E-02  0.8509375E-01
        2   -1    0    0  501    0  0.00000000000E+00  0.00000000000E+00  0.12596379263E+04  0.12596379263E+04  0.25500000920E-02 0.  1.
       -2   -1    0    0    0  501  0.00000000000E+00  0.00000000000E+00 -0.97979813084E+03  0.97979813084E+03  0.25500000920E-02 0. -1.
    10030    2    1    2    0    0  0.00000000000E+00  0.00000000000E+00  0.27983979549E+03  0.22394360572E+04  0.22218828824E+04 0.  0.
        5    1    3    3  502    0 -0.91329679256E+01 -0.43931743136E+03  0.11683167029E+04  0.12482264317E+04  0.46999998093E+01 0.  1.
       -5    1    3    3    0  502  0.91329679256E+01  0.43931743136E+03 -0.88847690740E+03  0.99120962545E+03  0.46999998093E+01 0. -1.
</event>
<event>
 5   0  0.3283125E-05  0.2182730E+04  0.7818609E-02  0.8525651E-01
        4   -1    0    0  501    0  0.00000000000E+00  0.00000000000E+00  0.94772646335E+03  0.94772731428E+03  0.12699999809E+01 0. -1.
       -4   -1    0    0    0  501  0.00000000000E+00  0.00000000000E+00 -0.12567716543E+04  0.12567722960E+04  0.12699999809E+01 0.  1.
    10030    2    1    2    0    0  0.00000000000E+00  0.00000000000E+00 -0.30904519098E+03  0.22044996103E+04  0.21827298508E+04 0.  0.
        4    1    3    3  502    0 -0.94060150433E+03  0.49358550252E+03 -0.40745586817E+03  0.11377081065E+04  0.12699999809E+01 0.  1.
       -4    1    3    3    0  502  0.94060150433E+03 -0.49358550252E+03  0.98410677184E+02  0.10667915038E+04  0.12699999809E+01 0. -1.
</event>
<event>
 5   0  0.4174075E-05  0.2104112E+04  0.7818609E-02  0.8559434E-01
        1   -1    0    0  501    0  0.00000000000E+00  0.00000000000E+00  0.19351149571E+04  0.19351149571E+04  0.50400001928E-02 0. -1.
       -1   -1    0    0    0  501  0.00000000000E+00  0.00000000000E+00 -0.57196700985E+03  0.57196700988E+03  0.50400001928E-02 0.  1.
    10030    2    1    2    0    0  0.00000000000E+00  0.00000000000E+00  0.13631479472E+04  0.25070819670E+04  0.21041120843E+04 0.  0.
        5    1    3    3  502    0  0.37977578644E+02  0.21627343541E+03 -0.54434618903E+03  0.58698497327E+03  0.46999998093E+01 0.  1.
       -5    1    3    3    0  502 -0.37977578644E+02 -0.21627343541E+03  0.19074941363E+04  0.19200969937E+04  0.46999998093E+01 0. -1.
</event>
<event>
 5   0  0.9254673E-05  0.2226529E+04  0.7818609E-02  0.8507467E-01
        2   -1    0    0  501    0  0.00000000000E+00  0.00000000000E+00  0.12485766797E+04  0.12485766797E+04  0.25500000920E-02 0. -1.
       -2   -1    0    0    0  501  0.00000000000E+00  0.00000000000E+00 -0.99261653992E+03  0.99261653992E+03  0.25500000920E-02 0.  1.
    10030    2    1    2    0    0  0.00000000000E+00  0.00000000000E+00  0.25596013980E+03  0.22411932196E+04  0.22265290150E+04 0.  0.
        2    1    3    3  502    0 -0.20913950665E+03 -0.68026250282E+03  0.98969155613E+03  0.12190101650E+04  0.25500000920E-02 0. -1.
       -2    1    3    3    0  502  0.20913950665E+03  0.68026250282E+03 -0.73373141632E+03  0.10221830547E+04  0.25500000920E-02 0.  1.
</event>
<event>
 5   0  0.4133418E-05  0.2193378E+04  0.7818609E-02  0.8521189E-01
       -1   -1    0    0    0  501  0.00000000000E+00  0.00000000000E+00  0.62936679908E+03  0.62936679910E+03  0.50400001928E-02 0.  1.
        1   -1    0    0  501    0  0.00000000000E+00  0.00000000000E+00 -0.19110116458E+04  0.19110116458E+04  0.50400001928E-02 0. -1.
    10030    2    1    2    0    0  0.00000000000E+00  0.00000000000E+00 -0.12816448467E+04  0.25403784449E+04  0.21933784740E+04 0.  0.
        4    1    3    3  502    0  0.60015513935E+03 -0.81522444797E+03 -0.11293983932E+04  0.15166803999E+04  0.12699999809E+01 0.  1.
       -4    1    3    3    0  502 -0.60015513935E+03  0.81522444797E+03 -0.15224645347E+03  0.10236980450E+04  0.12699999809E+01 0. -1.
</event>
<event>
 5   0  0.9179618E-05  0.2200727E+04  0.7818609E-02  0.8518126E-01
        2   -1    0    0  501    0  0.00000000000E+00  0.00000000000E+00  0.15128869274E+04  0.15128869274E+04  0.25500000920E-02 0.  1.
       -2   -1    0    0    0  501  0.00000000000E+00  0.00000000000E+00 -0.80032383502E+03  0.80032383502E+03  0.25500000920E-02 0. -1.
    10030    2    1    2    0    0  0.00000000000E+00  0.00000000000E+00  0.71256309234E+03  0.23132107624E+04  0.22007266688E+04 0.  0.
        3    1    3    3  502    0  0.45373515464E+03  0.76284046249E+03  0.10399072864E+04  0.13671899416E+04  0.10100000352E+00 0.  1.
       -3    1    3    3    0  502 -0.45373515464E+03 -0.76284046249E+03 -0.32734419411E+03  0.94602082080E+03  0.10100000352E+00 0. -1.
</event>
<event>
 5   0  0.3283125E-05  0.2146578E+04  0.7818609E-02  0.8540998E-01
       -4   -1    0    0    0  501  0.00000000000E+00  0.00000000000E+00  0.12879405390E+04  0.12879411652E+04  0.12699999809E+01 0. -1.
        4   -1    0    0  501    0  0.00000000000E+00  0.00000000000E+00 -0.89441068176E+03  0.89441158341E+03  0.12699999809E+01 0.  1.
    10030    2    1    2    0    0  0.00000000000E+00  0.00000000000E+00  0.39352985729E+03  0.21823527486E+04  0.21465781539E+04 0.  0.
        5    1    3    3  502    0  0.11825264209E+02  0.80927788494E+02  0.12847580742E+04  0.12873672915E+04  0.46999998093E+01 0. -1.
       -5    1    3    3    0  502 -0.11825264209E+02 -0.80927788494E+02 -0.89122821695E+03  0.89498545715E+03  0.46999998093E+01 0.  1.
</event>
<event>
 5   0  0.9254673E-05  0.2228849E+04  0.7818609E-02  0.8506516E-01
       -2   -1    0    0    0  501  0.00000000000E+00  0.00000000000E+00  0.16029599315E+04  0.16029599315E+04  0.25500000920E-02 0.  1.
        2   -1    0    0  501    0  0.00000000000E+00  0.00000000000E+00 -0.77478013693E+03  0.77478013693E+03  0.25500000920E-02 0. -1.
    10030    2    1    2    0    0  0.00000000000E+00  0.00000000000E+00  0.82817979461E+03  0.23777400685E+04  0.22288485954E+04 0.  0.
        2    1    3    3  502    0  0.74742093015E+02  0.11101441974E+04  0.48100989813E+03  0.12121786344E+04  0.25500000920E-02 0. -1.
       -2    1    3    3    0  502 -0.74742093015E+02 -0.11101441974E+04  0.34716989648E+03  0.11655614341E+04  0.25500000920E-02 0.  1.
</event>
<event>
 5   0  0.4188865E-05  0.2195333E+04  0.7818609E-02  0.8520373E-01
       -1   -1    0    0    0  501  0.00000000000E+00  0.00000000000E+00  0.10251117723E+04  0.10251117723E+04  0.50400001928E-02 0. -1.
        1   -1    0    0  501    0  0.00000000000E+00  0.00000000000E+00 -0.11753567053E+04  0.11753567053E+04  0.50400001928E-02 0.  1.
    10030    2    1    2    0    0  0.00000000000E+00  0.00000000000E+00 -0.15024493304E+03  0.22004684776E+04  0.21953332277E+04 0.  0.
        3    1    3    3  502    0 -0.46386111320E+03  0.90984265664E+03 -0.47842069307E+03  0.11277708818E+04  0.10100000352E+00 0.  1.
       -3    1    3    3    0  502  0.46386111320E+03 -0.90984265664E+03  0.32817576003E+03  0.10726975957E+04  0.10100000352E+00 0. -1.
</event>
<event>
 5   0  0.9254673E-05  0.2341382E+04  0.7818609E-02  0.8461781E-01
       -2   -1    0    0    0  501  0.00000000000E+00  0.00000000000E+00  0.11293758206E+04  0.11293758206E+04  0.25500000920E-02 0.  1.
        2   -1    0    0  501    0  0.00000000000E+00  0.00000000000E+00 -0.12135178692E+04  0.12135178692E+04  0.25500000920E-02 0. -1.
    10030    2    1    2    0    0  0.00000000000E+00  0.00000000000E+00 -0.84142048604E+02  0.23428936898E+04  0.23413822749E+04 0.  0.
        2    1    3    3  502    0  0.61603660184E+03  0.72730090657E+03 -0.72225243814E+03  0.11958746957E+04  0.25500000920E-02 0. -1.
       -2    1    3    3    0  502 -0.61603660184E+03 -0.72730090657E+03  0.63811038954E+03  0.11470189941E+04  0.25500000920E-02 0.  1.
</event>
<event>
 5   0  0.4174075E-05  0.2200572E+04  0.7818609E-02  0.8518190E-01
        1   -1    0    0  501    0  0.00000000000E+00  0.00000000000E+00  0.72886936875E+03  0.72886936877E+03  0.50400001928E-02 0. -1.
       -1   -1    0    0    0  501  0.00000000000E+00  0.00000000000E+00 -0.16609693576E+04  0.16609693576E+04  0.50400001928E-02 0.  1.
    10030    2    1    2    0    0  0.00000000000E+00  0.00000000000E+00 -0.93209998883E+03  0.23898387264E+04  0.22005723685E+04 0.  0.
        5    1    3    3  502    0  0.48573379357E+03  0.53367620015E+03 -0.13680642861E+04  0.15467286723E+04  0.46999998093E+01 0.  1.
       -5    1    3    3    0  502 -0.48573379357E+03 -0.53367620015E+03  0.43596429724E+03  0.84311005408E+03  0.46999998093E+01 0. -1.
</event>
<event>
 5   0  0.4133418E-05  0.2333892E+04  0.7818609E-02  0.8464676E-01
       -1   -1    0    0    0  501  0.00000000000E+00  0.00000000000E+00  0.10468299508E+04  0.10468299508E+04  0.50400001928E-02 0.  1.
        1   -1    0    0  501    0  0.00000000000E+00  0.00000000000E+00 -0.13008448560E+04  0.13008448560E+04  0.50400001928E-02 0. -1.
    10030    2    1    2    0    0  0.00000000000E+00  0.00000000000E+00 -0.25401490527E+03  0.23476748068E+04  0.23338923339E+04 0.  0.
        4    1    3    3  502    0  0.72243244517E+03 -0.18656578329E+03 -0.10295497311E+04  0.12714911290E+04  0.12699999809E+01 0. -1.
       -4    1    3    3    0  502 -0.72243244517E+03  0.18656578329E+03  0.77553482588E+03  0.10761836778E+04  0.12699999809E+01 0.  1.
</event>
<event>
 5   0  0.9179618E-05  0.2176953E+04  0.7818609E-02  0.8528082E-01
       -2   -1    0    0    0  501  0.00000000000E+00  0.00000000000E+00  0.65094016459E+03  0.65094016459E+03  0.25500000920E-02 0. -1.
        2   -1    0    0  501    0  0.00000000000E+00  0.00000000000E+00 -0.18201080270E+04  0.18201080270E+04  0.25500000920E-02 0.  1.
    10030    2    1    2    0    0  0.00000000000E+00  0.00000000000E+00 -0.11691678624E+04  0.24710481916E+04  0.21769533010E+04 0.  0.
        3    1    3    3  502    0 -0.25669757789E+03 -0.51099167246E+03 -0.16358650482E+04  0.17329341020E+04  0.10100000352E+00 0.  1.
       -3    1    3    3    0  502  0.25669757789E+03  0.51099167246E+03  0.46669718578E+03  0.73811408958E+03  0.10100000352E+00 0. -1.
</event>
<event>
 5   0  0.4188865E-05  0.2235307E+04  0.7818609E-02  0.8503875E-01
       -1   -1    0    0    0  501  0.00000000000E+00  0.00000000000E+00  0.13510929849E+04  0.13510929849E+04  0.50400001928E-02 0.  1.
        1   -1    0    0  501    0  0.00000000000E+00  0.00000000000E+00 -0.92454732785E+03  0.92454732786E+03  0.50400001928E-02 0. -1.
    10030    2    1    2    0    0  0.00000000000E+00  0.00000000000E+00  0.42654565709E+03  0.22756403128E+04  0.22353070562E+04 0.  0.
        3    1    3    3  502    0  0.10953320498E+04  0.25875172275E+02  0.43799909080E+03  0.11799428111E+04  0.10100000352E+00 0. -1.
       -3    1    3    3    0  502 -0.10953320498E+04 -0.25875172275E+02 -0.11453433707E+02  0.10956975017E+04  0.10100000352E+00 0.  1.
</event>
<event>
 5   0  0.4174030E-05  0.2140741E+04  0.7818609E-02  0.8543506E-01
        1   -1    0    0  501    0  0.00000000000E+00  0.00000000000E+00  0.10029135064E+04  0.10029135064E+04  0.50400001928E-02 0.  1.
       -1   -1    0    0    0  501  0.00000000000E+00  0.00000000000E+00 -0.11423650123E+04  0.11423650123E+04  0.50400001928E-02 0. -1.
    10030    2    1    2    0    0  0.00000000000E+00  0.00000000000E+00 -0.13945150594E+03  0.21452785187E+04  0.21407412735E+04 0.  0.
        2    1    3    3  502    0  0.11555385366E+03  0.62466564747E+03 -0.93302328825E+03  0.11287569803E+04  0.25500000920E-02 0. -1.
       -2    1    3    3    0  502 -0.11555385366E+03 -0.62466564747E+03  0.79357178231E+03  0.10165215383E+04  0.25500000920E-02 0.  1.
</event>
<event>
 5   0  0.4174030E-05  0.2201597E+04  0.7818609E-02  0.8517764E-01
       -1   -1    0    0    0  501  0.00000000000E+00  0.00000000000E+00  0.90493681574E+03  0.90493681576E+03  0.50400001928E-02 0.  1.
        1   -1    0    0  501    0  0.00000000000E+00  0.00000000000E+00 -0.13390514916E+04  0.13390514916E+04  0.50400001928E-02 0. -1.
    10030    2    1    2    0    0  0.00000000000E+00  0.00000000000E+00 -0.43411467581E+03  0.22439883073E+04  0.22015966869E+04 0.  0.
        2    1    3    3  502    0 -0.21126656927E+03 -0.99933479232E+03 -0.63539091131E+03  0.12029236055E+04  0.25500000920E-02 0. -1.
       -2    1    3    3    0  502  0.21126656927E+03  0.99933479232E+03  0.20127623550E+03  0.10410647018E+04  0.25500000920E-02 0.  1.
</event>
<event>
 5   0  0.9442578E-05  0.2228461E+04  0.7818609E-02  0.8506675E-01
       -2   -1    0    0    0  501  0.00000000000E+00  0.00000000000E+00  0.14123120552E+04  0.14123120552E+04  0.25500000920E-02 0. -1.
        2   -1    0    0  501    0  0.00000000000E+00  0.00000000000E+00 -0.87906146911E+03  0.87906146911E+03  0.25500000920E-02 0.  1.
    10030    2    1    2    0    0  0.00000000000E+00  0.00000000000E+00  0.53325058606E+03  0.22913735243E+04  0.22284605539E+04 0.  0.
        4    1    3    3  502    0 -0.79268434652E+03  0.83526911001E+02  0.10671828433E+04  0.13319932627E+04  0.12699999809E+01 0. -1.
       -4    1    3    3    0  502  0.79268434652E+03 -0.83526911001E+02 -0.53393225721E+03  0.95938026156E+03  0.12699999809E+01 0.  1.
</event>
<event>
 5   0  0.4063293E-05  0.2231985E+04  0.7818609E-02  0.8505232E-01
        1   -1    0    0  501    0  0.00000000000E+00  0.00000000000E+00  0.16928453609E+04  0.16928453609E+04  0.50400001928E-02 0. -1.
       -1   -1    0    0    0  501  0.00000000000E+00  0.00000000000E+00 -0.73570795029E+03  0.73570795031E+03  0.50400001928E-02 0.  1.
    10030    2    1    2    0    0  0.00000000000E+00  0.00000000000E+00  0.95713741065E+03  0.24285533113E+04  0.22319854755E+04 0.  0.
        1    1    3    3  502    0  0.10492965682E+04  0.36238596638E+03  0.60307016285E+03  0.12633449640E+04  0.50400001928E-02 0.  1.
       -1    1    3    3    0  502 -0.10492965682E+04 -0.36238596638E+03  0.35406724780E+03  0.11652083473E+04  0.50400001928E-02 0. -1.
</event>
<event>
 5   0  0.4063293E-05  0.2196453E+04  0.7818609E-02  0.8519906E-01
        1   -1    0    0  501    0  0.00000000000E+00  0.00000000000E+00  0.80285222275E+03  0.80285222277E+03  0.50400001928E-02 0.  1.
       -1   -1    0    0    0  501  0.00000000000E+00  0.00000000000E+00 -0.15022712242E+04  0.15022712242E+04  0.50400001928E-02 0. -1.
    10030    2    1    2    0    0  0.00000000000E+00  0.00000000000E+00 -0.69941900144E+03  0.23051234470E+04  0.21964533153E+04 0.  0.
        1    1    3    3  502    0 -0.48328555996E+03  0.55564292508E+03 -0.12047567522E+04  0.14119995838E+04  0.50400001928E-02 0. -1.
       -1    1    3    3    0  502  0.48328555996E+03 -0.55564292508E+03  0.50533775074E+03  0.89312386319E+03  0.50400001928E-02 0.  1.
</event>
<event>
 5   0  0.9938176E-05  0.2223763E+04  0.7818609E-02  0.8508602E-01
        2   -1    0    0  501    0  0.00000000000E+00  0.00000000000E+00  0.10035763929E+04  0.10035763929E+04  0.25500000920E-02 0. -1.
       -2   -1    0    0    0  501  0.00000000000E+00  0.00000000000E+00 -0.12318748781E+04  0.12318748781E+04  0.25500000920E-02 0.  1.
    10030    2    1    2    0    0  0.00000000000E+00  0.00000000000E+00 -0.22829848524E+03  0.22354512710E+04  0.22237630689E+04 0.  0.
        5    1    3    3  502    0  0.45672652683E+03  0.65566583125E+03  0.66306494534E+03  0.10383515851E+04  0.46999998093E+01 0. -1.
       -5    1    3    3    0  502 -0.45672652683E+03 -0.65566583125E+03 -0.89136343058E+03  0.11970996859E+04  0.46999998093E+01 0.  1.
</event>
<event>
 5   0  0.9457742E-05  0.2177329E+04  0.7818609E-02  0.8527924E-01
        2   -1    0    0  501    0  0.00000000000E+00  0.00000000000E+00  0.14441112941E+04  0.14441112941E+04  0.25500000920E-02 0. -1.
       -2   -1    0    0    0  501  0.00000000000E+00  0.00000000000E+00 -0.82070549016E+03  0.82070549017E+03  0.25500000920E-02 0.  1.
    10030    2    1    2    0    0  0.00000000000E+00  0.00000000000E+00  0.62340580391E+03  0.22648167842E+04  0.21773287005E+04 0.  0.
        1    1    3    3  502    0  0.34784841684E+03 -0.24993933724E+03  0.13527794329E+04  0.14189715950E+04  0.50400001928E-02 0. -1.
       -1    1    3    3    0  502 -0.34784841684E+03  0.24993933724E+03 -0.72937362900E+03  0.84584518920E+03  0.50400001928E-02 0.  1.
</event>
<event>
 5   0  0.9457742E-05  0.2241026E+04  0.7818609E-02  0.8501544E-01
       -2   -1    0    0    0  501  0.00000000000E+00  0.00000000000E+00  0.12401980965E+04  0.12401980965E+04  0.25500000920E-02 0. -1.
        2   -1    0    0  501    0  0.00000000000E+00  0.00000000000E+00 -0.10123783687E+04  0.10123783687E+04  0.25500000920E-02 0.  1.
    10030    2    1    2    0    0  0.00000000000E+00  0.00000000000E+00  0.22781972779E+03  0.22525764652E+04  0.22410263057E+04 0.  0.
        1    1    3    3  502    0 -0.60696848409E+03  0.58964864411E+03 -0.62435054687E+03  0.10516224939E+04  0.50400001928E-02 0.  1.
       -1    1    3    3    0  502  0.60696848409E+03 -0.58964864411E+03  0.85217027466E+03  0.12009539713E+04  0.50400001928E-02 0. -1.
</event>
<event>
 5   0  0.4188865E-05  0.2143638E+04  0.7818609E-02  0.8542260E-01
       -1   -1    0    0    0  501  0.00000000000E+00  0.00000000000E+00  0.61976340164E+03  0.61976340166E+03  0.50400001928E-02 0.  1.
        1   -1    0    0  501    0  0.00000000000E+00  0.00000000000E+00 -0.18536040302E+04  0.18536040302E+04  0.50400001928E-02 0. -1.
    10030    2    1    2    0    0  0.00000000000E+00  0.00000000000E+00 -0.12338406285E+04  0.24733674318E+04  0.21436379723E+04 0.  0.
        3    1    3    3  502    0  0.15895850985E+03  0.28894505225E+03  0.55976947098E+03  0.64969140514E+03  0.10100000352E+00 0.  1.
       -3    1    3    3    0  502 -0.15895850985E+03 -0.28894505225E+03 -0.17936100995E+04  0.18236760267E+04  0.10100000352E+00 0. -1.
</event>
<event>
 5   0  0.9938176E-05  0.2226452E+04  0.7818609E-02  0.8507498E-01
        2   -1    0    0  501    0  0.00000000000E+00  0.00000000000E+00  0.13820849480E+04  0.13820849480E+04  0.25500000920E-02 0. -1.
       -2   -1    0    0    0  501  0.00000000000E+00  0.00000000000E+00 -0.89666868703E+03  0.89666868703E+03  0.25500000920E-02 0.  1.
    10030    2    1    2    0    0  0.00000000000E+00  0.00000000000E+00  0.48541626095E+03  0.22787536350E+04  0.22264521515E+04 0.  0.
        5    1    3    3  502    0 -0.85419581657E+03 -0.40234609837E+03 -0.36081952586E+03  0.10108143728E+04  0.46999998093E+01 0.  1.
       -5    1    3    3    0  502  0.85419581657E+03  0.40234609837E+03  0.84623578681E+03  0.12679392623E+04  0.46999998093E+01 0. -1.
</event>
<event>
 5   0  0.9254673E-05  0.2151577E+04  0.7818609E-02  0.8538857E-01
        2   -1    0    0  501    0  0.00000000000E+00  0.00000000000E+00  0.11932098744E+04  0.11932098744E+04  0.25500000920E-02 0. -1.
       -2   -1    0    0    0  501  0.00000000000E+00  0.00000000000E+00 -0.96992246728E+03  0.96992246728E+03  0.25500000920E-02 0.  1.
    10030    2    1    2    0    0  0.00000000000E+00  0.00000000000E+00  0.22328740710E+03  0.21631323417E+04  0.21515771567E+04 0.  0.
        2    1    3    3  502    0  0.52836113484E+03  0.74603253703E+03  0.68177926367E+03  0.11404179056E+04  0.25500000920E-02 0. -1.
       -2    1    3    3    0  502 -0.52836113484E+03 -0.74603253703E+03 -0.45849185657E+03  0.10227144360E+04  0.25500000920E-02 0.  1.
</event>
<event>
 5   0  0.4174075E-05  0.2205149E+04  0.7818609E-02  0.8516288E-01
       -1   -1    0    0    0  501  0.00000000000E+00  0.00000000000E+00  0.16258556977E+04  0.16258556977E+04  0.50400001928E-02 0.  1.
        1   -1    0    0  501    0  0.00000000000E+00  0.00000000000E+00 -0.74771129971E+03  0.74771129973E+03  0.50400001928E-02 0. -1.
    10030    2    1    2    0    0  0.00000000000E+00  0.00000000000E+00  0.87814439795E+03  0.23735669974E+04  0.22051491350E+04 0.  0.
        5    1    3    3  502    0 -0.87216465053E+02  0.95266308663E+03  0.10290934330E+04  0.14050726146E+04  0.46999998093E+01 0.  1.
       -5    1    3    3    0  502  0.87216465053E+02 -0.95266308663E+03 -0.15094903504E+03  0.96849438283E+03  0.46999998093E+01 0. -1.
</event>
<event>
 5   0  0.9457742E-05  0.2029979E+04  0.7818609E-02  0.8592731E-01
       -2   -1    0    0    0  501  0.00000000000E+00  0.00000000000E+00  0.74464127054E+03  0.74464127055E+03  0.25500000920E-02 0. -1.
        2   -1    0    0  501    0  0.00000000000E+00  0.00000000000E+00 -0.13834902437E+04  0.13834902437E+04  0.25500000920E-02 0.  1.
    10030    2    1    2    0    0  0.00000000000E+00  0.00000000000E+00 -0.63884897313E+03  0.21281315142E+04  0.20299792441E+04 0.  0.
        1    1    3    3  502    0  0.72060605197E+03 -0.56837820314E+03  0.13498119576E+03  0.92765661059E+03  0.50400001928E-02 0.  1.
       -1    1    3    3    0  502 -0.72060605197E+03  0.56837820314E+03 -0.77383016889E+03  0.12004749036E+04  0.50400001928E-02 0. -1.
</event>
<event>
 5   0  0.9442578E-05  0.1962332E+04  0.7818609E-02  0.8624437E-01
        2   -1    0    0  501    0  0.00000000000E+00  0.00000000000E+00  0.29273308438E+04  0.29273308438E+04  0.25500000920E-02 0. -1.
       -2   -1    0    0    0  501  0.00000000000E+00  0.00000000000E+00 -0.32886175576E+03  0.32886175577E+03  0.25500000920E-02 0.  1.
    10030    2    1    2    0    0  0.00000000000E+00  0.00000000000E+00  0.25984690880E+04  0.32561925996E+04  0.19623324499E+04 0.  0.
        4    1    3    3  502    0 -0.36393752678E+03 -0.33243950785E+03  0.27069633021E+04  0.27514756916E+04  0.12699999809E+01 0. -1.
       -4    1    3    3    0  502  0.36393752678E+03  0.33243950785E+03 -0.10849421407E+03  0.50471690795E+03  0.12699999809E+01 0.  1.
</event>
<event>
 5   0  0.9457742E-05  0.2222099E+04  0.7818609E-02  0.8509286E-01
       -2   -1    0    0    0  501  0.00000000000E+00  0.00000000000E+00  0.72964082012E+03  0.72964082012E+03  0.25500000920E-02 0.  1.
        2   -1    0    0  501    0  0.00000000000E+00  0.00000000000E+00 -0.16918341958E+04  0.16918341958E+04  0.25500000920E-02 0. -1.
    10030    2    1    2    0    0  0.00000000000E+00  0.00000000000E+00 -0.96219337565E+03  0.24214750159E+04  0.22220992688E+04 0.  0.
        1    1    3    3  502    0  0.36829227565E+03  0.81941219545E+03  0.23128264044E+03  0.92766761621E+03  0.50400001928E-02 0.  1.
       -1    1    3    3    0  502 -0.36829227565E+03 -0.81941219545E+03 -0.11934760161E+04  0.14938073997E+04  0.50400001928E-02 0. -1.
</event>
<event>
 5   0  0.9254673E-05  0.1922962E+04  0.7818609E-02  0.8643511E-01
       -2   -1    0    0    0  501  0.00000000000E+00  0.00000000000E+00  0.58406872565E+03  0.58406872566E+03  0.25500000920E-02 0.  1.
        2   -1    0    0  501    0  0.00000000000E+00  0.00000000000E+00 -0.15827683884E+04  0.15827683884E+04  0.25500000920E-02 0. -1.
    10030    2    1    2    0    0  0.00000000000E+00  0.00000000000E+00 -0.99869966278E+03  0.21668371141E+04  0.19229617944E+04 0.  0.
        2    1    3    3  502    0  0.10585210671E+03  0.91861216600E+03 -0.79618269950E+03  0.12202294338E+04  0.25500000920E-02 0.  1.
       -2    1    3    3    0  502 -0.10585210671E+03 -0.91861216600E+03 -0.20251696328E+03  0.94660768032E+03  0.25500000920E-02 0. -1.
</event>
<event>
 5   0  0.4174030E-05  0.2235508E+04  0.7818609E-02  0.8503792E-01
       -1   -1    0    0    0  501  0.00000000000E+00  0.00000000000E+00  0.68033496279E+03  0.68033496281E+03  0.50400001928E-02 0. -1.
        1   -1    0    0  501    0  0.00000000000E+00  0.00000000000E+00 -0.18364105125E+04  0.18364105125E+04  0.50400001928E-02 0.  1.
    10030    2    1    2    0    0  0.00000000000E+00  0.00000000000E+00 -0.11560755497E+04  0.25167454753E+04  0.22355082444E+04 0.  0.
        2    1    3    3  502    0 -0.24340979466E+03  0.50486764982E+03  0.51070003340E+03  0.75825734160E+03  0.25500000920E-02 0. -1.
       -2    1    3    3    0  502  0.24340979466E+03 -0.50486764982E+03 -0.16667755831E+04  0.17584881337E+04  0.25500000920E-02 0.  1.
</event>
<event>
 5   0  0.4174030E-05  0.2130140E+04  0.7818609E-02  0.8548081E-01
        1   -1    0    0  501    0  0.00000000000E+00  0.00000000000E+00  0.17229688665E+04  0.17229688665E+04  0.50400001928E-02 0. -1.
       -1   -1    0    0    0  501  0.00000000000E+00  0.00000000000E+00 -0.65838337237E+03  0.65838337239E+03  0.50400001928E-02 0.  1.
    10030    2    1    2    0    0  0.00000000000E+00  0.00000000000E+00  0.10645854941E+04  0.23813522389E+04  0.21301399511E+04 0.  0.
        2    1    3    3  502    0  0.61871496739E+02  0.30884460498E+03 -0.60512355370E+03  0.68219321851E+03  0.25500000920E-02 0.  1.
       -2    1    3    3    0  502 -0.61871496739E+02 -0.30884460498E+03  0.16697090478E+04  0.16991590204E+04  0.25500000920E-02 0. -1.
</event>
<event>
 5   0  0.9457742E-05  0.2334414E+04  0.7818609E-02  0.8464474E-01
       -2   -1    0    0    0  501  0.00000000000E+00  0.00000000000E+00  0.68100017611E+03  0.68100017612E+03  0.25500000920E-02 0.  1.
        2   -1    0    0  501    0  0.00000000000E+00  0.00000000000E+00 -0.20005465620E+04  0.20005465620E+04  0.25500000920E-02 0. -1.
    10030    2    1    2    0    0  0.00000000000E+00  0.00000000000E+00 -0.13195463859E+04  0.26815467382E+04  0.23344143258E+04 0.  0.
        1    1    3    3  502    0  0.38011348329E+03  0.66141531335E+03 -0.16745500098E+04  0.18401288575E+04  0.50400001928E-02 0. -1.
       -1    1    3    3    0  502 -0.38011348329E+03 -0.66141531335E+03  0.35500362386E+03  0.84141788066E+03  0.50400001928E-02 0.  1.
</event>
<event>
 5   0  0.4063293E-05  0.2152177E+04  0.7818609E-02  0.8538601E-01
        1   -1    0    0  501    0  0.00000000000E+00  0.00000000000E+00  0.15289132540E+04  0.15289132540E+04  0.50400001928E-02 0. -1.
       -1   -1    0    0    0  501  0.00000000000E+00  0.00000000000E+00 -0.75737876482E+03  0.75737876483E+03  0.50400001928E-02 0.  1.
    10030    2    1    2    0    0  0.00000000000E+00  0.00000000000E+00  0.77153448918E+03  0.22862920188E+04  0.21521769740E+04 0.  0.
        1    1    3    3  502    0 -0.74413547564E+03 -0.57327386622E+03 -0.17190909164E+03  0.95495197136E+03  0.50400001928E-02 0.  1.
       -1    1    3    3    0  502  0.74413547564E+03  0.57327386622E+03  0.94344358081E+03  0.13313400475E+04  0.50400001928E-02 0. -1.
</event>
<event>
 5   0  0.4174075E-05  0.1586126E+04  0.7818609E-02  0.8829117E-01
        1   -1    0    0  501    0  0.00000000000E+00  0.00000000000E+00  0.24105404427E+04  0.24105404427E+04  0.50400001928E-02 0. -1.
       -1   -1    0    0    0  501  0.00000000000E+00  0.00000000000E+00 -0.26091628075E+03  0.26091628080E+03  0.50400001928E-02 0.  1.
    10030    2    1    2    0    0  0.00000000000E+00  0.00000000000E+00  0.21496241620E+04  0.26714567235E+04  0.15861264098E+04 0.  0.
        5    1    3    3  502    0 -0.33918739676E+02 -0.38560796220E+02  0.24077133937E+04  0.24082656191E+04  0.46999998093E+01 0. -1.
       -5    1    3    3    0  502  0.33918739676E+02  0.38560796220E+02 -0.25808923174E+03  0.26319110442E+03  0.46999998093E+01 0.  1.
</event>
<event>
 5   0  0.9457742E-05  0.2304905E+04  0.7818609E-02  0.8475990E-01
       -2   -1    0    0    0  501  0.00000000000E+00  0.00000000000E+00  0.11062568152E+04  0.11062568152E+04  0.25500000920E-02 0. -1.
        2   -1    0    0  501    0  0.00000000000E+00  0.00000000000E+00 -0.12005773250E+04  0.12005773250E+04  0.25500000920E-02 0.  1.
    10030    2    1    2    0    0  0.00000000000E+00  0.00000000000E+00 -0.94320509897E+02  0.23068341402E+04  0.23049050722E+04 0.  0.
        1    1    3    3  502    0  0.49539549551E+03 -0.59021068633E+01 -0.10885575745E+04  0.11959971258E+04  0.50400001928E-02 0.  1.
       -1    1    3    3    0  502 -0.49539549551E+03  0.59021068633E+01  0.99423706464E+03  0.11108370144E+04  0.50400001928E-02 0. -1.
</event>
<event>
 5   0  0.4133418E-05  0.2214166E+04  0.7818609E-02  0.8512555E-01
       -1   -1    0    0    0  501  0.00000000000E+00  0.00000000000E+00  0.13665274212E+04  0.13665274212E+04  0.50400001928E-02 0.  1.
        1   -1    0    0  501    0  0.00000000000E+00  0.00000000000E+00 -0.89689577393E+03  0.89689577394E+03  0.50400001928E-02 0. -1.
    10030    2    1    2    0    0  0.00000000000E+00  0.00000000000E+00  0.46963164731E+03  0.22634231952E+04  0.22141659099E+04 0.  0.
        4    1    3    3  502    0  0.59044004682E+03 -0.87080747917E+02 -0.71835897433E+03  0.93393989874E+03  0.12699999809E+01 0. -1.
       -4    1    3    3    0  502 -0.59044004682E+03  0.87080747917E+02  0.11879906216E+04  0.13294832965E+04  0.12699999809E+01 0.  1.
</event>
<event>
 5   0  0.9254673E-05  0.2140342E+04  0.7818609E-02  0.8543678E-01
        2   -1    0    0  501    0  0.00000000000E+00  0.00000000000E+00  0.10095082300E+04  0.10095082301E+04  0.25500000920E-02 0.  1.
       -2   -1    0    0    0  501  0.00000000000E+00  0.00000000000E+00 -0.11344794541E+04  0.11344794541E+04  0.25500000920E-02 0. -1.
    10030    2    1    2    0    0  0.00000000000E+00  0.00000000000E+00 -0.12497122401E+03  0.21439876841E+04  0.21403423518E+04 0.  0.
        2    1    3    3  502    0 -0.93780130759E+03  0.40121922909E+03  0.26182215913E+03  0.10530902171E+04  0.25500000920E-02 0.  1.
       -2    1    3    3    0  502  0.93780130759E+03 -0.40121922909E+03 -0.38679338314E+03  0.10908974670E+04  0.25500000920E-02 0. -1.
</event>
<event>
 5   0  0.4133418E-05  0.2188899E+04  0.7818609E-02  0.8523063E-01
        1   -1    0    0  501    0  0.00000000000E+00  0.00000000000E+00  0.13299562524E+04  0.13299562524E+04  0.50400001928E-02 0.  1.
       -1   -1    0    0    0  501  0.00000000000E+00  0.00000000000E+00 -0.90064562540E+03  0.90064562541E+03  0.50400001928E-02 0. -1.
    10030    2    1    2    0    0  0.00000000000E+00  0.00000000000E+00  0.42931062701E+03  0.22306018778E+04  0.21888986096E+04 0.  0.
        4    1    3    3  502    0  0.79872465188E+02 -0.52657029578E+03  0.11889895165E+04  0.13028252263E+04  0.12699999809E+01 0.  1.
       -4    1    3    3    0  502 -0.79872465188E+02  0.52657029578E+03 -0.75967888948E+03  0.92777665152E+03  0.12699999809E+01 0. -1.
</event>
<event>
 5   0  0.4063293E-05  0.2039727E+04  0.7818609E-02  0.8588269E-01
       -1   -1    0    0    0  501  0.00000000000E+00  0.00000000000E+00  0.14391737662E+04  0.14391737662E+04  0.50400001928E-02 0. -1.
        1   -1    0    0  501    0  0.00000000000E+00  0.00000000000E+00 -0.72272159116E+03  0.72272159118E+03  0.50400001928E-02 0.  1.
    10030    2    1    2    0    0  0.00000000000E+00  0.00000000000E+00  0.71645217508E+03  0.21618953574E+04  0.20397273880E+04 0.  0.
        1    1    3    3  502    0  0.16966325297E+03 -0.14169302031E+02  0.14240052744E+04  0.14341469277E+04  0.50400001928E-02 0. -1.
       -1    1    3    3    0  502 -0.16966325297E+03  0.14169302031E+02 -0.70755309937E+03  0.72774842973E+03  0.50400001928E-02 0.  1.
</event>
<event>
 5   0  0.9938176E-05  0.2169433E+04  0.7818609E-02  0.8531260E-01
        2   -1    0    0  501    0  0.00000000000E+00  0.00000000000E+00  0.10185591291E+04  0.10185591291E+04  0.25500000920E-02 0. -1.
       -2   -1    0    0    0  501  0.00000000000E+00  0.00000000000E+00 -0.11551704066E+04  0.11551704066E+04  0.25500000920E-02 0.  1.
    10030    2    1    2    0    0  0.00000000000E+00  0.00000000000E+00 -0.13661127747E+03  0.21737295357E+04  0.21694325187E+04 0.  0.
        5    1    3    3  502    0 -0.61668117006E+03  0.67346086366E+03  0.51829572761E+03  0.10499989294E+04  0.46999998093E+01 0. -1.
       -5    1    3    3    0  502  0.61668117006E+03 -0.67346086366E+03 -0.65490700508E+03  0.11237306064E+04  0.46999998093E+01 0.  1.
</event>
<event>
 5   0  0.4188865E-05  0.2197890E+04  0.7818609E-02  0.8519307E-01
        1   -1    0    0  501    0  0.00000000000E+00  0.00000000000E+00  0.15358552368E+04  0.15358552368E+04  0.50400001928E-02 0.  1.
       -1   -1    0    0    0  501  0.00000000000E+00  0.00000000000E+00 -0.78632411454E+03  0.78632411456E+03  0.50400001928E-02 0. -1.
    10030    2    1    2    0    0  0.00000000000E+00  0.00000000000E+00  0.74953112226E+03  0.23221793514E+04  0.21978899055E+04 0.  0.
        3    1    3    3  502    0  0.69703864476E+03 -0.77199860533E+03 -0.27062312425E-01  0.10401176519E+04  0.10100000352E+00 0.  1.
       -3    1    3    3    0  502 -0.69703864476E+03  0.77199860533E+03  0.74955818457E+03  0.12820616994E+04  0.10100000352E+00 0. -1.
</event>
<event>
 5   0  0.4188865E-05  0.2202729E+04  0.7818609E-02  0.8517293E-01
        1   -1    0    0  501    0  0.00000000000E+00  0.00000000000E+00  0.17496358464E+04  0.17496358464E+04  0.50400001928E-02 0. -1.
       -1   -1    0    0    0  501  0.00000000000E+00  0.00000000000E+00 -0.69328928638E+03  0.69328928640E+03  0.50400001928E-02 0.  1.
    10030    2    1    2    0    0  0.00000000000E+00  0.00000000000E+00  0.10563465600E+04  0.24429251328E+04  0.22027290232E+04 0.  0.
        3    1    3    3  502    0 -0.10298831679E+04  0.20162287689E+03  0.15752551391E+03  0.10611905681E+04  0.10100000352E+00 0. -1.
       -3    1    3    3    0  502  0.10298831679E+04 -0.20162287689E+03  0.89882104607E+03  0.13817345647E+04  0.10100000352E+00 0.  1.
</event>
<event>
 5   0  0.9254673E-05  0.2129577E+04  0.7818609E-02  0.8548325E-01
       -2   -1    0    0    0  501  0.00000000000E+00  0.00000000000E+00  0.98721677482E+03  0.98721677482E+03  0.25500000920E-02 0. -1.
        2   -1    0    0  501    0  0.00000000000E+00  0.00000000000E+00 -0.11484557418E+04  0.11484557418E+04  0.25500000920E-02 0.  1.
    10030    2    1    2    0    0  0.00000000000E+00  0.00000000000E+00 -0.16123896697E+03  0.21356725166E+04  0.21295772101E+04 0.  0.
        2    1    3    3  502    0 -0.15565649543E+03  0.46128930796E+03 -0.10303029976E+04  0.11395354479E+04  0.25500000920E-02 0.  1.
       -2    1    3    3    0  502  0.15565649543E+03 -0.46128930796E+03  0.86906403065E+03  0.99613706867E+03  0.25500000920E-02 0. -1.
</event>
<event>
 5   0  0.9442578E-05  0.2214733E+04  0.7818609E-02  0.8512321E-01
        2   -1    0    0  501    0  0.00000000000E+00  0.00000000000E+00  0.20861000242E+04  0.20861000242E+04  0.25500000920E-02 0.  1.
       -2   -1    0    0    0  501  0.00000000000E+00  0.00000000000E+00 -0.58782449508E+03  0.58782449509E+03  0.25500000920E-02 0. -1.
    10030    2    1    2    0    0  0.00000000000E+00  0.00000000000E+00  0.14982755291E+04  0.26739245193E+04  0.22147331157E+04 0.  0.
        4    1    3    3  502    0  0.96546476347E+01  0.68829830738E+03  0.17963998992E+04  0.19237728512E+04  0.12699999809E+01 0.  1.
       -4    1    3    3    0  502 -0.96546476347E+01 -0.68829830738E+03 -0.29812437012E+03  0.75015166808E+03  0.12699999809E+01 0. -1.
</event>
<event>
 5   0  0.4188865E-05  0.2200389E+04  0.7818609E-02  0.8518266E-01
        1   -1    0    0  501    0  0.00000000000E+00  0.00000000000E+00  0.23409314230E+04  0.23409314230E+04  0.50400001928E-02 0.  1.
       -1   -1    0    0    0  501  0.00000000000E+00  0.00000000000E+00 -0.51707127026E+03  0.51707127028E+03  0.50400001928E-02 0. -1.
    10030    2    1    2    0    0  0.00000000000E+00  0.00000000000E+00  0.18238601527E+04  0.28580026933E+04  0.22003894060E+04 0.  0.
        3    1    3    3  502    0 -0.17458890708E+03  0.30397529867E+02  0.23222714333E+04  0.23290233826E+04  0.10100000352E+00 0.  1.
       -3    1    3    3    0  502  0.17458890708E+03 -0.30397529867E+02 -0.49841128061E+03  0.52897931069E+03  0.10100000352E+00 0. -1.
</event>
<event>
 5   0  0.9254673E-05  0.2180106E+04  0.7818609E-02  0.8526754E-01
       -2   -1    0    0    0  501  0.00000000000E+00  0.00000000000E+00  0.48462314251E+03  0.48462314252E+03  0.25500000920E-02 0.  1.
        2   -1    0    0  501    0  0.00000000000E+00  0.00000000000E+00 -0.24518340724E+04  0.24518340724E+04  0.25500000920E-02 0. -1.
    10030    2    1    2    0    0  0.00000000000E+00  0.00000000000E+00 -0.19672109299E+04  0.29364572149E+04  0.21801059911E+04 0.  0.
        2    1    3    3  502    0  0.35918132028E+03  0.93291965439E+03 -0.15689641626E+04  0.18603759958E+04  0.25500000920E-02 0. -1.
       -2    1    3    3    0  502 -0.35918132028E+03 -0.93291965439E+03 -0.39824676731E+03  0.10760812191E+04  0.25500000920E-02 0.  1.
</event>
<event>
 5   0  0.9442578E-05  0.2193876E+04  0.7818609E-02  0.8520981E-01
        2   -1    0    0  501    0  0.00000000000E+00  0.00000000000E+00  0.18729388259E+04  0.18729388259E+04  0.25500000920E-02 0. -1.
       -2   -1    0    0    0  501  0.00000000000E+00  0.00000000000E+00 -0.64245178660E+03  0.64245178661E+03  0.25500000920E-02 0.  1.
    10030    2    1    2    0    0  0.00000000000E+00  0.00000000000E+00  0.12304870393E+04  0.25153906125E+04  0.21938759262E+04 0.  0.
        4    1    3    3  502    0 -0.18161871608E+03 -0.65751709218E+02 -0.62279936940E+03  0.65206542058E+03  0.12699999809E+01 0.  1.
       -4    1    3    3    0  502  0.18161871608E+03  0.65751709218E+02  0.18532864087E+04  0.18633251919E+04  0.12699999809E+01 0. -1.
</event>
<event>
 5   0  0.9179618E-05  0.2174527E+04  0.7818609E-02  0.8529106E-01
        2   -1    0    0  501    0  0.00000000000E+00  0.00000000000E+00  0.23058304659E+04  0.23058304659E+04  0.25500000920E-02 0.  1.
       -2   -1    0    0    0  501  0.00000000000E+00  0.00000000000E+00 -0.51267499799E+03  0.51267499800E+03  0.25500000920E-02 0. -1.
    10030    2    1    2    0    0  0.00000000000E+00  0.00000000000E+00  0.17931554679E+04  0.28185054639E+04  0.21745267343E+04 0.  0.
        3    1    3    3  502    0 -0.41044408612E+03 -0.65413606404E+03  0.18886027315E+04  0.20403868814E+04  0.10100000352E+00 0.  1.
       -3    1    3    3    0  502  0.41044408612E+03  0.65413606404E+03 -0.95447263604E+02  0.77811858251E+03  0.10100000352E+00 0. -1.
</event>
<event>
 5   0  0.4188865E-05  0.2212933E+04  0.7818609E-02  0.8513064E-01
       -1   -1    0    0    0  501  0.00000000000E+00  0.00000000000E+00  0.11892806381E+04  0.11892806381E+04  0.50400001928E-02 0.  1.
        1   -1    0    0  501    0  0.00000000000E+00  0.00000000000E+00 -0.10294189906E+04  0.10294189906E+04  0.50400001928E-02 0. -1.
    10030    2    1    2    0    0  0.00000000000E+00  0.00000000000E+00  0.15986164748E+03  0.22186996286E+04  0.22129329623E+04 0.  0.
        3    1    3    3  502    0  0.25694906036E+02  0.45625598635E+03  0.10902463452E+04  0.11821450236E+04  0.10100000352E+00 0.  1.
       -3    1    3    3    0  502 -0.25694906036E+02 -0.45625598635E+03 -0.93038469775E+03  0.10365546051E+04  0.10100000352E+00 0. -1.
</event>
<event>
 5   0  0.9254673E-05  0.2210152E+04  0.7818609E-02  0.8514214E-01
       -2   -1    0    0    0  501  0.00000000000E+00  0.00000000000E+00  0.19521219175E+04  0.19521219175E+04  0.25500000920E-02 0.  1.
        2   -1    0    0  501    0  0.00000000000E+00  0.00000000000E+00 -0.62557212202E+03  0.62557212203E+03  0.25500000920E-02 0. -1.
    10030    2    1    2    0    0  0.00000000000E+00  0.00000000000E+00  0.13265497955E+04  0.25776940395E+04  0.22101520766E+04 0.  0.
        2    1    3    3  502    0 -0.40868044724E+03  0.66654960020E+02  0.18582204276E+04  0.19037977175E+04  0.25500000920E-02 0.  1.
       -2    1    3    3    0  502  0.40868044724E+03 -0.66654960020E+02 -0.53167063217E+03  0.67389632197E+03  0.25500000920E-02 0. -1.
</event>
<event>
 5   0  0.4174075E-05  0.2202873E+04  0.7818609E-02  0.8517233E-01
       -1   -1    0    0    0  501  0.00000000000E+00  0.00000000000E+00  0.91446042639E+03  0.91446042640E+03  0.50400001928E-02 0. -1.
        1   -1    0    0  501    0  0.00000000000E+00  0.00000000000E+00 -0.13266429045E+04  0.13266429045E+04  0.50400001928E-02 0.  1.
    10030    2    1    2    0    0  0.00000000000E+00  0.00000000000E+00 -0.41218247808E+03  0.22411033309E+04  0.22028730659E+04 0.  0.
        5    1    3    3  502    0  0.24417078368E+03  0.46587633635E+03 -0.11906048192E+04  0.13016228555E+04  0.46999998093E+01 0.  1.
       -5    1    3    3    0  502 -0.24417078368E+03 -0.46587633635E+03  0.77842234116E+03  0.93948047537E+03  0.46999998093E+01 0. -1.
</event>
<event>
 5   0  0.4133418E-05  0.2103101E+04  0.7818609E-02  0.8559879E-01
        1   -1    0    0  501    0  0.00000000000E+00  0.00000000000E+00  0.21197332381E+04  0.21197332381E+04  0.50400001928E-02 0.  1.
       -1   -1    0    0    0  501  0.00000000000E+00  0.00000000000E+00 -0.52164978304E+03  0.52164978306E+03  0.50400001928E-02 0. -1.
    10030    2    1    2    0    0  0.00000000000E+00  0.00000000000E+00  0.15980834551E+04  0.26413830212E+04  0.21031009332E+04 0.  0.
        4    1    3    3  502    0  0.82873376451E+03 -0.45416702044E+03  0.21982082555E+03  0.97025261821E+03  0.12699999809E+01 0.  1.
       -4    1    3    3    0  502 -0.82873376451E+03  0.45416702044E+03  0.13782626295E+04  0.16711304030E+04  0.12699999809E+01 0. -1.
</event>
<event>
 5   0  0.9254673E-05  0.2211206E+04  0.7818609E-02  0.8513778E-01
       -2   -1    0    0    0  501  0.00000000000E+00  0.00000000000E+00  0.50897886059E+03  0.50897886060E+03  0.25500000920E-02 0.  1.
        2   -1    0    0  501    0  0.00000000000E+00  0.00000000000E+00 -0.24015885802E+04  0.24015885802E+04  0.25500000920E-02 0. -1.
    10030    2    1    2    0    0  0.00000000000E+00  0.00000000000E+00 -0.18926097196E+04  0.29105674408E+04  0.22112058422E+04 0.  0.
        2    1    3    3  502    0  0.18469033999E+03  0.70247872867E+03 -0.20434632133E+04  0.21687159311E+04  0.25500000920E-02 0. -1.
       -2    1    3    3    0  502 -0.18469033999E+03 -0.70247872867E+03  0.15085349362E+03  0.74185150971E+03  0.25500000920E-02 0.  1.
</event>
<event>
 5   0  0.4174075E-05  0.2232272E+04  0.7818609E-02  0.8505114E-01
        1   -1    0    0  501    0  0.00000000000E+00  0.00000000000E+00  0.23544638935E+04  0.23544638935E+04  0.50400001928E-02 0.  1.
       -1   -1    0    0    0  501  0.00000000000E+00  0.00000000000E+00 -0.52910556983E+03  0.52910556986E+03  0.50400001928E-02 0. -1.
    10030    2    1    2    0    0  0.00000000000E+00  0.00000000000E+00  0.18253583237E+04  0.28835694634E+04  0.22322723490E+04 0.  0.
        5    1    3    3  502    0  0.63646585675E+03 -0.43793566831E+03 -0.12786189021E+03  0.78310100840E+03  0.46999998093E+01 0. -1.
       -5    1    3    3    0  502 -0.63646585675E+03  0.43793566831E+03  0.19532202139E+04  0.21004684550E+04  0.46999998093E+01 0.  1.
</event>
<event>
 5   0  0.4188865E-05  0.2076867E+04  0.7818609E-02  0.8571503E-01
       -1   -1    0    0    0  501  0.00000000000E+00  0.00000000000E+00  0.97183827793E+03  0.97183827794E+03  0.50400001928E-02 0.  1.
        1   -1    0    0  501    0  0.00000000000E+00  0.00000000000E+00 -0.11095916625E+04  0.11095916625E+04  0.50400001928E-02 0. -1.
    10030    2    1    2    0    0  0.00000000000E+00  0.00000000000E+00 -0.13775338455E+03  0.20814299404E+04  0.20768665345E+04 0.  0.
        3    1    3    3  502    0  0.70831693836E+02 -0.15610411914E+03  0.95756022094E+03  0.97278322960E+03  0.10100000352E+00 0.  1.
       -3    1    3    3    0  502 -0.70831693836E+02  0.15610411914E+03 -0.10953136055E+04  0.11086467108E+04  0.10100000352E+00 0. -1.
</event>
<event>
 5   0  0.4188865E-05  0.2208426E+04  0.7818609E-02  0.8514929E-01
       -1   -1    0    0    0  501  0.00000000000E+00  0.00000000000E+00  0.56098527954E+03  0.56098527957E+03  0.50400001928E-02 0. -1.
        1   -1    0    0  501    0  0.00000000000E+00  0.00000000000E+00 -0.21734726864E+04  0.21734726864E+04  0.50400001928E-02 0.  1.
    10030    2    1    2    0    0  0.00000000000E+00  0.00000000000E+00 -0.16124874068E+04  0.27344579659E+04  0.22084258489E+04 0.  0.
        3    1    3    3  502    0  0.37208542189E+03 -0.21304526584E+03 -0.20661929889E+04  0.21102107298E+04  0.10100000352E+00 0.  1.
       -3    1    3    3    0  502 -0.37208542189E+03  0.21304526584E+03  0.45370558206E+03  0.62424723618E+03  0.10100000352E+00 0. -1.
</event>
<event>
 5   0  0.4174030E-05  0.2150375E+04  0.7818609E-02  0.8539372E-01
        1   -1    0    0  501    0  0.00000000000E+00  0.00000000000E+00  0.13574268787E+04  0.13574268788E+04  0.50400001928E-02 0.  1.
       -1   -1    0    0    0  501  0.00000000000E+00  0.00000000000E+00 -0.85163165430E+03  0.85163165431E+03  0.50400001928E-02 0. -1.
    10030    2    1    2    0    0  0.00000000000E+00  0.00000000000E+00  0.50579522445E+03  0.22090585331E+04  0.21503745705E+04 0.  0.
        2    1    3    3  502    0 -0.78616070520E+02  0.99746390856E+03  0.65722856399E+03  0.11971065620E+04  0.25500000920E-02 0. -1.
       -2    1    3    3    0  502  0.78616070520E+02 -0.99746390856E+03 -0.15143333955E+03  0.10119519711E+04  0.25500000920E-02 0.  1.
</event>
<event>
 5   0  0.9938176E-05  0.2144758E+04  0.7818609E-02  0.8541780E-01
       -2   -1    0    0    0  501  0.00000000000E+00  0.00000000000E+00  0.74520890008E+03  0.74520890008E+03  0.25500000920E-02 0.  1.
        2   -1    0    0  501    0  0.00000000000E+00  0.00000000000E+00 -0.15431864966E+04  0.15431864966E+04  0.25500000920E-02 0. -1.
    10030    2    1    2    0    0  0.00000000000E+00  0.00000000000E+00 -0.79797759649E+03  0.22883953967E+04  0.21447576196E+04 0.  0.
        5    1    3    3  502    0  0.76865295869E+03 -0.27079692468E+03 -0.11426732431E+04  0.14035250535E+04  0.46999998093E+01 0. -1.
       -5    1    3    3    0  502 -0.76865295869E+03  0.27079692468E+03  0.34469564665E+03  0.88487034312E+03  0.46999998093E+01 0.  1.
</event>
<event>
 5   0  0.4133418E-05  0.1934489E+04  0.7818609E-02  0.8637877E-01
       -1   -1    0    0    0  501  0.00000000000E+00  0.00000000000E+00  0.59482872257E+03  0.59482872260E+03  0.50400001928E-02 0. -1.
        1   -1    0    0  501    0  0.00000000000E+00  0.00000000000E+00 -0.15728252150E+04  0.15728252150E+04  0.50400001928E-02 0.  1.
    10030    2    1    2    0    0  0.00000000000E+00  0.00000000000E+00 -0.97799649238E+03  0.21676539376E+04  0.19344886802E+04 0.  0.
        4    1    3    3  502    0  0.61123077897E+03 -0.18734884862E+02  0.35073162497E+03  0.70495981922E+03  0.12699999809E+01 0. -1.
       -4    1    3    3    0  502 -0.61123077897E+03  0.18734884862E+02 -0.13287281173E+04  0.14626941183E+04  0.12699999809E+01 0.  1.
</event>
<event>
 5   0  0.4174075E-05  0.2210723E+04  0.7818609E-02  0.8513978E-01
        1   -1    0    0  501    0  0.00000000000E+00  0.00000000000E+00  0.17792114053E+04  0.17792114053E+04  0.50400001928E-02 0. -1.
       -1   -1    0    0    0  501  0.00000000000E+00  0.00000000000E+00 -0.68672193331E+03  0.68672193332E+03  0.50400001928E-02 0.  1.
    10030    2    1    2    0    0  0.00000000000E+00  0.00000000000E+00  0.10924894720E+04  0.24659333386E+04  0.22107225027E+04 0.  0.
        5    1    3    3  502    0 -0.10064721046E+04 -0.24225493622E+02  0.10552439562E+04  0.14584700439E+04  0.46999998093E+01 0. -1.
       -5    1    3    3    0  502  0.10064721046E+04  0.24225493622E+02  0.37245515760E+02  0.10074632947E+04  0.46999998093E+01 0.  1.
</event>
<event>
 5   0  0.9254673E-05  0.2230140E+04  0.7818609E-02  0.8505987E-01
       -2   -1    0    0    0  501  0.00000000000E+00  0.00000000000E+00  0.10029291102E+04  0.10029291102E+04  0.25500000920E-02 0.  1.
        2   -1    0    0  501    0  0.00000000000E+00  0.00000000000E+00 -0.12397495719E+04  0.12397495719E+04  0.25500000920E-02 0. -1.
    10030    2    1    2    0    0  0.00000000000E+00  0.00000000000E+00 -0.23682046173E+03  0.22426786822E+04  0.22301398477E+04 0.  0.
        2    1    3    3  502    0 -0.54185503845E+03  0.56505822135E+03 -0.91690437746E+03  0.12056580417E+04  0.25500000920E-02 0. -1.
       -2    1    3    3    0  502  0.54185503845E+03 -0.56505822135E+03  0.68008391573E+03  0.10370206404E+04  0.25500000920E-02 0.  1.
</event>
<event>
 5   0  0.4174030E-05  0.2016976E+04  0.7818609E-02  0.8598725E-01
        1   -1    0    0  501    0  0.00000000000E+00  0.00000000000E+00  0.19042655694E+04  0.19042655694E+04  0.50400001928E-02 0. -1.
       -1   -1    0    0    0  501  0.00000000000E+00  0.00000000000E+00 -0.53408923349E+03  0.53408923351E+03  0.50400001928E-02 0.  1.
    10030    2    1    2    0    0  0.00000000000E+00  0.00000000000E+00  0.13701763359E+04  0.24383548029E+04  0.20169756948E+04 0.  0.
        2    1    3    3  502    0  0.31095199268E+03  0.94859691787E+03  0.51191123867E+03  0.11218646846E+04  0.25500000920E-02 0.  1.
       -2    1    3    3    0  502 -0.31095199268E+03 -0.94859691787E+03  0.85826509720E+03  0.13164901182E+04  0.25500000920E-02 0. -1.
</event>
<event>
 5   0  0.9938176E-05  0.2206204E+04  0.7818609E-02  0.8515850E-01
       -2   -1    0    0    0  501  0.00000000000E+00  0.00000000000E+00  0.11167201961E+04  0.11167201961E+04  0.25500000920E-02 0. -1.
        2   -1    0    0  501    0  0.00000000000E+00  0.00000000000E+00 -0.10896499976E+04  0.10896499976E+04  0.25500000920E-02 0.  1.
    10030    2    1    2    0    0  0.00000000000E+00  0.00000000000E+00  0.27070198481E+02  0.22063701937E+04  0.22062041238E+04 0.  0.
        5    1    3    3  502    0 -0.35212916158E+03  0.96302694361E+03  0.42025506367E+03  0.11081751888E+04  0.46999998093E+01 0. -1.
       -5    1    3    3    0  502  0.35212916158E+03 -0.96302694361E+03 -0.39318486519E+03  0.10981950049E+04  0.46999998093E+01 0.  1.
</event>
<event>
 5   0  0.4063293E-05  0.2444482E+04  0.7818609E-02  0.8423035E-01
       -1   -1    0    0    0  501  0.00000000000E+00  0.00000000000E+00  0.10939219692E+04  0.10939219692E+04  0.50400001928E-02 0. -1.
        1   -1    0    0  501    0  0.00000000000E+00  0.00000000000E+00 -0.13656119995E+04  0.13656119995E+04  0.50400001928E-02 0.  1.
    10030    2    1    2    0    0  0.00000000000E+00  0.00000000000E+00 -0.27169003031E+03  0.24595339688E+04  0.24444819228E+04 0.  0.
        1    1    3    3  502    0 -0.10319582906E+04  0.64819246358E+03 -0.23013214885E+03  0.12401823210E+04  0.50400001928E-02 0.  1.
       -1    1    3    3    0  502  0.10319582906E+04 -0.64819246358E+03 -0.41557881455E+02  0.12193516478E+04  0.50400001928E-02 0. -1.
</event>
<event>
 5   0  0.9179618E-05  0.2239608E+04  0.7818609E-02  0.8502121E-01
       -2   -1    0    0    0  501  0.00000000000E+00  0.00000000000E+00  0.95325656143E+03  0.95325656143E+03  0.25500000920E-02 0. -1.
        2   -1    0    0  501    0  0.00000000000E+00  0.00000000000E+00 -0.13154500516E+04  0.13154500516E+04  0.25500000920E-02 0.  1.
    10030    2    1    2    0    0  0.00000000000E+00  0.00000000000E+00 -0.36219349017E+03  0.22687066130E+04  0.22396083523E+04 0.  0.
        3    1    3    3  502    0 -0.50703670621E+03 -0.44431222732E+03  0.72464653094E+03  0.98975359651E+03  0.10100000352E+00 0. -1.
       -3    1    3    3    0  502  0.50703670621E+03  0.44431222732E+03 -0.10868400211E+04  0.12789530165E+04  0.10100000352E+00 0.  1.
</event>
<event>
 5   0  0.9938176E-05  0.2207876E+04  0.7818609E-02  0.8515157E-01
        2   -1    0    0  501    0  0.00000000000E+00  0.00000000000E+00  0.11760352182E+04  0.11760352182E+04  0.25500000920E-02 0. -1.
       -2   -1    0    0    0  501  0.00000000000E+00  0.00000000000E+00 -0.10362605979E+04  0.10362605979E+04  0.25500000920E-02 0.  1.
    10030    2    1    2    0    0  0.00000000000E+00  0.00000000000E+00  0.13977462022E+03  0.22122958161E+04  0.22078758646E+04 0.  0.
        5    1    3    3  502    0 -0.55029495059E+02 -0.43154264103E+03  0.10865117304E+04  0.11703790526E+04  0.46999998093E+01 0. -1.
       -5    1    3    3    0  502  0.55029495059E+02  0.43154264103E+03 -0.94673711019E+03  0.10419167635E+04  0.46999998093E+01 0.  1.
</event>
<event>
 5   0  0.4063293E-05  0.2155195E+04  0.7818609E-02  0.8537312E-01
       -1   -1    0    0    0  501  0.00000000000E+00  0.00000000000E+00  0.83020634731E+03  0.83020634732E+03  0.50400001928E-02 0. -1.
        1   -1    0    0  501    0  0.00000000000E+00  0.00000000000E+00 -0.13987080002E+04  0.13987080002E+04  0.50400001928E-02 0.  1.
    10030    2    1    2    0    0  0.00000000000E+00  0.00000000000E+00 -0.56850165287E+03  0.22289143475E+04  0.21551948959E+04 0.  0.
        1    1    3    3  502    0 -0.66917909603E+03  0.56420760161E+03  0.36580747568E+03  0.94865483163E+03  0.50400001928E-02 0. -1.
       -1    1    3    3    0  502  0.66917909603E+03 -0.56420760161E+03 -0.93430912855E+03  0.12802595159E+04  0.50400001928E-02 0.  1.
</event>
<event>
 5   0  0.9254673E-05  0.2193496E+04  0.7818609E-02  0.8521140E-01
       -2   -1    0    0    0  501  0.00000000000E+00  0.00000000000E+00  0.11588011854E+04  0.11588011854E+04  0.25500000920E-02 0.  1.
        2   -1    0    0  501    0  0.00000000000E+00  0.00000000000E+00 -0.10380181296E+04  0.10380181296E+04  0.25500000920E-02 0. -1.
    10030    2    1    2    0    0  0.00000000000E+00  0.00000000000E+00  0.12078305576E+03  0.21968193150E+04  0.21934964227E+04 0.  0.
        2    1    3    3  502    0 -0.46212218469E+03 -0.48935377663E+03  0.92763206325E+03  0.11460913040E+04  0.25500000920E-02 0.  1.
       -2    1    3    3    0  502  0.46212218469E+03  0.48935377663E+03 -0.80684900749E+03  0.10507280110E+04  0.25500000920E-02 0. -1.
</event>
<event>
 5   0  0.9938176E-05  0.2180669E+04  0.7818609E-02  0.8526517E-01
        2   -1    0    0  501    0  0.00000000000E+00  0.00000000000E+00  0.13905907038E+04  0.13905907038E+04  0.25500000920E-02 0. -1.
       -2   -1    0    0    0  501  0.00000000000E+00  0.00000000000E+00 -0.85490957512E+03  0.85490957512E+03  0.25500000920E-02 0.  1.
    10030    2    1    2    0    0  0.00000000000E+00  0.00000000000E+00  0.53568112867E+03  0.22455002789E+04  0.21806689870E+04 0.  0.
        5    1    3    3  502    0 -0.10815617917E+03 -0.37261680017E+03 -0.78140639614E+03  0.87244431615E+03  0.46999998093E+01 0.  1.
       -5    1    3    3    0  502  0.10815617917E+03  0.37261680017E+03  0.13170875248E+04  0.13730559628E+04  0.46999998093E+01 0. -1.
</event>
<event>
 5   0  0.4174030E-05  0.2201653E+04  0.7818609E-02  0.8517740E-01
       -1   -1    0    0    0  501  0.00000000000E+00  0.00000000000E+00  0.67422164805E+03  0.67422164807E+03  0.50400001928E-02 0.  1.
        1   -1    0    0  501    0  0.00000000000E+00  0.00000000000E+00 -0.17973596396E+04  0.17973596396E+04  0.50400001928E-02 0. -1.
    10030    2    1    2    0    0  0.00000000000E+00  0.00000000000E+00 -0.11231379916E+04  0.24715812877E+04  0.22016528140E+04 0.  0.
        2    1    3    3  502    0 -0.99392764704E+03  0.14510126972E+03 -0.10672042749E+04  0.14655618412E+04  0.25500000920E-02 0. -1.
       -2    1    3    3    0  502  0.99392764704E+03 -0.14510126972E+03 -0.55933716634E+02  0.10060194465E+04  0.25500000920E-02 0.  1.
</event>
<event>
 5   0  0.9938176E-05  0.2210754E+04  0.7818609E-02  0.8513965E-01
        2   -1    0    0  501    0  0.00000000000E+00  0.00000000000E+00  0.87964718130E+03  0.87964718131E+03  0.25500000920E-02 0. -1.
       -2   -1    0    0    0  501  0.00000000000E+00  0.00000000000E+00 -0.13890324237E+04  0.13890324237E+04  0.25500000920E-02 0.  1.
    10030    2    1    2    0    0  0.00000000000E+00  0.00000000000E+00 -0.50938524243E+03  0.22686796050E+04  0.22107541304E+04 0.  0.
        5    1    3    3  502    0  0.13902685735E+03 -0.46195682680E+03  0.76590289170E+03  0.90518611700E+03  0.46999998093E+01 0. -1.
       -5    1    3    3    0  502 -0.13902685735E+03  0.46195682680E+03 -0.12752881341E+04  0.13634934881E+04  0.46999998093E+01 0.  1.
</event>
<event>
 5   0  0.4133418E-05  0.2155066E+04  0.7818609E-02  0.8537367E-01
       -1   -1    0    0    0  501  0.00000000000E+00  0.00000000000E+00  0.10982850249E+04  0.10982850249E+04  0.50400001928E-02 0. -1.
        1   -1    0    0  501    0  0.00000000000E+00  0.00000000000E+00 -0.10571730019E+04  0.10571730019E+04  0.50400001928E-02 0.  1.
    10030    2    1    2    0    0  0.00000000000E+00  0.00000000000E+00  0.41112022983E+02  0.21554580268E+04  0.21550659170E+04 0.  0.
        4    1    3    3  502    0  0.77201195902E+03 -0.53626398582E+02 -0.72937865780E+03  0.10634251713E+04  0.12699999809E+01 0.  1.
       -4    1    3    3    0  502 -0.77201195902E+03  0.53626398582E+02  0.77049068078E+03  0.10920328555E+04  0.12699999809E+01 0. -1.
</event>
<event>
 5   0  0.4174075E-05  0.2205836E+04  0.7818609E-02  0.8516003E-01
        1   -1    0    0  501    0  0.00000000000E+00  0.00000000000E+00  0.77482914883E+03  0.77482914884E+03  0.50400001928E-02 0.  1.
       -1   -1    0    0    0  501  0.00000000000E+00  0.00000000000E+00 -0.15699312117E+04  0.15699312117E+04  0.50400001928E-02 0. -1.
    10030    2    1    2    0    0  0.00000000000E+00  0.00000000000E+00 -0.79510206289E+03  0.23447603606E+04  0.22058363172E+04 0.  0.
        5    1    3    3  502    0  0.80458661237E+03 -0.20138422156E+03 -0.11703099777E+04  0.14344207037E+04  0.46999998093E+01 0.  1.
       -5    1    3    3    0  502 -0.80458661237E+03  0.20138422156E+03  0.37520791477E+03  0.91033965683E+03  0.46999998093E+01 0. -1.
</event>
<event>
 5   0  0.4174075E-05  0.2189494E+04  0.7818609E-02  0.8522814E-01
        1   -1    0    0  501    0  0.00000000000E+00  0.00000000000E+00  0.88469465688E+03  0.88469465690E+03  0.50400001928E-02 0. -1.
       -1   -1    0    0    0  501  0.00000000000E+00  0.00000000000E+00 -0.13546718649E+04  0.13546718649E+04  0.50400001928E-02 0.  1.
    10030    2    1    2    0    0  0.00000000000E+00  0.00000000000E+00 -0.46997720798E+03  0.22393665218E+04  0.21894939696E+04 0.  0.
        5    1    3    3  502    0  0.21837606127E+03 -0.61183225470E+02  0.86039548193E+03  0.88979433946E+03  0.46999998093E+01 0. -1.
       -5    1    3    3    0  502 -0.21837606127E+03  0.61183225470E+02 -0.13303726899E+04  0.13495721823E+04  0.46999998093E+01 0.  1.
</event>
<event>
 5   0  0.3283125E-05  0.2194517E+04  0.7818609E-02  0.8520714E-01
       -3   -1    0    0    0  501  0.00000000000E+00  0.00000000000E+00  0.11517532233E+04  0.11517532277E+04  0.10100000352E+00 0.  1.
        3   -1    0    0  501    0  0.00000000000E+00  0.00000000000E+00 -0.10453419352E+04  0.10453419401E+04  0.10100000352E+00 0. -1.
    10030    2    1    2    0    0  0.00000000000E+00  0.00000000000E+00  0.10641128808E+03  0.21970951678E+04  0.21945167610E+04 0.  0.
        2    1    3    3  502    0  0.79074219287E+03 -0.28151578877E+03  0.76075488683E+03  0.11328161160E+04  0.25500000920E-02 0.  1.
       -2    1    3    3    0  502 -0.79074219287E+03  0.28151578877E+03 -0.65434359874E+03  0.10642790518E+04  0.25500000920E-02 0. -1.
</event>
<event>
 5   0  0.9179618E-05  0.2186088E+04  0.7818609E-02  0.8524241E-01
        2   -1    0    0  501    0  0.00000000000E+00  0.00000000000E+00  0.99435872079E+03  0.99435872079E+03  0.25500000920E-02 0. -1.
       -2   -1    0    0    0  501  0.00000000000E+00  0.00000000000E+00 -0.12015236652E+04  0.12015236652E+04  0.25500000920E-02 0.  1.
    10030    2    1    2    0    0  0.00000000000E+00  0.00000000000E+00 -0.20716494444E+03  0.21958823860E+04  0.21860883191E+04 0.  0.
        3    1    3    3  502    0  0.10457652203E+04  0.30907334661E+03 -0.28452356823E+02  0.10908532332E+04  0.10100000352E+00 0.  1.
       -3    1    3    3    0  502 -0.10457652203E+04 -0.30907334661E+03 -0.17871258762E+03  0.11050291529E+04  0.10100000352E+00 0. -1.
</event>
<event>
 5   0  0.4174075E-05  0.2150419E+04  0.7818609E-02  0.8539353E-01
       -1   -1    0    0    0  501  0.00000000000E+00  0.00000000000E+00  0.89481752424E+03  0.89481752426E+03  0.50400001928E-02 0. -1.
        1   -1    0    0  501    0  0.00000000000E+00  0.00000000000E+00 -0.12919679823E+04  0.12919679823E+04  0.50400001928E-02 0.  1.
    10030    2    1    2    0    0  0.00000000000E+00  0.00000000000E+00 -0.39715045801E+03  0.21867855065E+04  0.21504191139E+04 0.  0.
        5    1    3    3  502    0 -0.48713602108E+03  0.78625277364E+03  0.35892831971E+03  0.99214240701E+03  0.46999998093E+01 0. -1.
       -5    1    3    3    0  502  0.48713602108E+03 -0.78625277364E+03 -0.75607877773E+03  0.11946430995E+04  0.46999998093E+01 0.  1.
</event>
<event>
 5   0  0.4174075E-05  0.1779528E+04  0.7818609E-02  0.8717263E-01
        1   -1    0    0  501    0  0.00000000000E+00  0.00000000000E+00  0.14013272004E+04  0.14013272004E+04  0.50400001928E-02 0. -1.
       -1   -1    0    0    0  501  0.00000000000E+00  0.00000000000E+00 -0.56495002173E+03  0.56495002175E+03  0.50400001928E-02 0.  1.
    10030    2    1    2    0    0  0.00000000000E+00  0.00000000000E+00  0.83637717862E+03  0.19662772221E+04  0.17795278389E+04 0.  0.
        5    1    3    3  502    0 -0.17885787069E+03  0.24767277805E+03  0.13415442274E+04  0.13758978694E+04  0.46999998093E+01 0. -1.
       -5    1    3    3    0  502  0.17885787069E+03 -0.24767277805E+03 -0.50516704881E+03  0.59037935270E+03  0.46999998093E+01 0.  1.
</event>
<event>
 5   0  0.9179618E-05  0.2217938E+04  0.7818609E-02  0.8510999E-01
        2   -1    0    0  501    0  0.00000000000E+00  0.00000000000E+00  0.11725163781E+04  0.11725163781E+04  0.25500000920E-02 0.  1.
       -2   -1    0    0    0  501  0.00000000000E+00  0.00000000000E+00 -0.10488661936E+04  0.10488661936E+04  0.25500000920E-02 0. -1.
    10030    2    1    2    0    0  0.00000000000E+00  0.00000000000E+00  0.12365018445E+03  0.22213825717E+04  0.22179384937E+04 0.  0.
        3    1    3    3  502    0 -0.30012517771E+03  0.31652298355E+03  0.10829920001E+04  0.11675331276E+04  0.10100000352E+00 0.  1.
       -3    1    3    3    0  502  0.30012517771E+03 -0.31652298355E+03 -0.95934181566E+03  0.10538494441E+04  0.10100000352E+00 0. -1.
</event>
<event>
 5   0  0.9457742E-05  0.2206212E+04  0.7818609E-02  0.8515847E-01
        2   -1    0    0  501    0  0.00000000000E+00  0.00000000000E+00  0.96695738903E+03  0.96695738904E+03  0.25500000920E-02 0.  1.
       -2   -1    0    0    0  501  0.00000000000E+00  0.00000000000E+00 -0.12584247900E+04  0.12584247900E+04  0.25500000920E-02 0. -1.
    10030    2    1    2    0    0  0.00000000000E+00  0.00000000000E+00 -0.29146740099E+03  0.22253821791E+04  0.22062122738E+04 0.  0.
        1    1    3    3  502    0  0.15962002837E+03 -0.11732270485E+03 -0.12403356167E+04  0.12560555771E+04  0.50400001928E-02 0. -1.
       -1    1    3    3    0  502 -0.15962002837E+03  0.11732270485E+03  0.94886821572E+03  0.96932660201E+03  0.50400001928E-02 0.  1.
</event>
<event>
 5   0  0.9442578E-05  0.2188281E+04  0.7818609E-02  0.8523322E-01
        2   -1    0    0  501    0  0.00000000000E+00  0.00000000000E+00  0.21503685330E+04  0.21503685330E+04  0.25500000920E-02 0.  1.
       -2   -1    0    0    0  501  0.00000000000E+00  0.00000000000E+00 -0.55671549520E+03  0.55671549521E+03  0.25500000920E-02 0. -1.
    10030    2    1    2    0    0  0.00000000000E+00  0.00000000000E+00  0.15936530378E+04  0.27070840282E+04  0.21882810448E+04 0.  0.
        4    1    3    3  502    0 -0.14411993987E+03 -0.11393322596E+03 -0.53749779809E+03  0.56802890146E+03  0.12699999809E+01 0. -1.
       -4    1    3    3    0  502  0.14411993987E+03  0.11393322596E+03  0.21311508359E+04  0.21390551268E+04  0.12699999809E+01 0.  1.
</event>
<event>
 5   0  0.4174030E-05  0.2185533E+04  0.7818609E-02  0.8524474E-01
       -1   -1    0    0    0  501  0.00000000000E+00  0.00000000000E+00  0.85991012007E+03  0.85991012009E+03  0.50400001928E-02 0. -1.
        1   -1    0    0  501    0  0.00000000000E+00  0.00000000000E+00 -0.13886785876E+04  0.13886785877E+04  0.50400001928E-02 0.  1.
    10030    2    1    2    0    0  0.00000000000E+00  0.00000000000E+00 -0.52876846757E+03  0.22485887077E+04  0.21855331350E+04 0.  0.
        2    1    3    3  502    0 -0.62410474707E+03 -0.30640745971E+03  0.60299694917E+03  0.92032471846E+03  0.25500000920E-02 0. -1.
       -2    1    3    3    0  502  0.62410474707E+03  0.30640745971E+03 -0.11317654167E+04  0.13282639893E+04  0.25500000920E-02 0.  1.
</event>
<event>
 5   0  0.9938176E-05  0.2117524E+04  0.7818609E-02  0.8553563E-01
        2   -1    0    0  501    0  0.00000000000E+00  0.00000000000E+00  0.69693078747E+03  0.69693078747E+03  0.25500000920E-02 0.  1.
       -2   -1    0    0    0  501  0.00000000000E+00  0.00000000000E+00 -0.16084487928E+04  0.16084487928E+04  0.25500000920E-02 0. -1.
    10030    2    1    2    0    0  0.00000000000E+00  0.00000000000E+00 -0.91151800538E+03  0.23053795803E+04  0.21175244828E+04 0.  0.
        5    1    3    3  502    0 -0.22052613821E+03 -0.87314661397E+01 -0.15831160867E+04  0.15984325604E+04  0.46999998093E+01 0. -1.
       -5    1    3    3    0  502  0.22052613821E+03  0.87314661397E+01  0.67159808133E+03  0.70694701993E+03  0.46999998093E+01 0.  1.
</event>
<event>
 5   0  0.4133418E-05  0.2198156E+04  0.7818609E-02  0.8519196E-01
       -1   -1    0    0    0  501  0.00000000000E+00  0.00000000000E+00  0.11769447022E+04  0.11769447023E+04  0.50400001928E-02 0. -1.
        1   -1    0    0  501    0  0.00000000000E+00  0.00000000000E+00 -0.10263628006E+04  0.10263628006E+04  0.50400001928E-02 0.  1.
    10030    2    1    2    0    0  0.00000000000E+00  0.00000000000E+00  0.15058190163E+03  0.22033075029E+04  0.21981558278E+04 0.  0.
        4    1    3    3  502    0  0.59754880966E+03  0.76051350712E+03 -0.44797205180E+03  0.10658920895E+04  0.12699999809E+01 0.  1.
       -4    1    3    3    0  502 -0.59754880966E+03 -0.76051350712E+03  0.59855395344E+03  0.11374154133E+04  0.12699999809E+01 0. -1.
</event>
<event>
 5   0  0.9457742E-05  0.2180839E+04  0.7818609E-02  0.8526446E-01
       -2   -1    0    0    0  501  0.00000000000E+00  0.00000000000E+00  0.10403484388E+04  0.10403484388E+04  0.25500000920E-02 0.  1.
        2   -1    0    0  501    0  0.00000000000E+00  0.00000000000E+00 -0.11429004248E+04  0.11429004249E+04  0.25500000920E-02 0. -1.
    10030    2    1    2    0    0  0.00000000000E+00  0.00000000000E+00 -0.10255198607E+03  0.21832488636E+04  0.21808389878E+04 0.  0.
        1    1    3    3  502    0  0.86148802409E+02  0.51894916270E+03  0.90491547694E+03  0.10467100220E+04  0.50400001928E-02 0.  1.
       -1    1    3    3    0  502 -0.86148802409E+02 -0.51894916270E+03 -0.10074674630E+04  0.11365388417E+04  0.50400001928E-02 0. -1.
</event>
<event>
 5   0  0.3283125E-05  0.2210273E+04  0.7818609E-02  0.8514165E-01
       -4   -1    0    0    0  501  0.00000000000E+00  0.00000000000E+00  0.10886360541E+04  0.10886367949E+04  0.12699999809E+01 0. -1.
        4   -1    0    0  501    0  0.00000000000E+00  0.00000000000E+00 -0.11218852852E+04  0.11218860040E+04  0.12699999809E+01 0.  1.
    10030    2    1    2    0    0  0.00000000000E+00  0.00000000000E+00 -0.33249231077E+02  0.22105227989E+04  0.22102727282E+04 0.  0.
        2    1    3    3  502    0 -0.26774236227E+03 -0.53696394082E+03 -0.94479757655E+03  0.11192223671E+04  0.25500000920E-02 0.  1.
       -2    1    3    3    0  502  0.26774236227E+03  0.53696394082E+03  0.91154834548E+03  0.10913004318E+04  0.25500000920E-02 0. -1.
</event>
<event>
 5   0  0.9254673E-05  0.2219109E+04  0.7818609E-02  0.8510516E-01
        2   -1    0    0  501    0  0.00000000000E+00  0.00000000000E+00  0.29216282920E+04  0.29216282920E+04  0.25500000920E-02 0. -1.
       -2   -1    0    0    0  501  0.00000000000E+00  0.00000000000E+00 -0.42137837899E+03  0.42137837900E+03  0.25500000920E-02 0.  1.
    10030    2    1    2    0    0  0.00000000000E+00  0.00000000000E+00  0.25002499130E+04  0.33430066710E+04  0.22191088245E+04 0.  0.
        2    1    3    3  502    0  0.12590246450E+03  0.11014161769E+04  0.11804037067E+04  0.16193584953E+04  0.25500000920E-02 0. -1.
       -2    1    3    3    0  502 -0.12590246450E+03 -0.11014161769E+04  0.13198462063E+04  0.17236481757E+04  0.25500000920E-02 0.  1.
</event>
<event>
 5   0  0.4063293E-05  0.2211361E+04  0.7818609E-02  0.8513714E-01
        1   -1    0    0  501    0  0.00000000000E+00  0.00000000000E+00  0.13092466883E+04  0.13092466883E+04  0.50400001928E-02 0.  1.
       -1   -1    0    0    0  501  0.00000000000E+00  0.00000000000E+00 -0.93376576117E+03  0.93376576118E+03  0.50400001928E-02 0. -1.
    10030    2    1    2    0    0  0.00000000000E+00  0.00000000000E+00  0.37548092712E+03  0.22430124495E+04  0.22113613278E+04 0.  0.
        1    1    3    3  502    0  0.89699381267E+03 -0.56254544630E+03  0.51085041167E+03  0.11755949227E+04  0.50400001928E-02 0.  1.
       -1    1    3    3    0  502 -0.89699381267E+03  0.56254544630E+03 -0.13536948455E+03  0.10674175268E+04  0.50400001928E-02 0. -1.
</event>
<event>
 5   0  0.4133418E-05  0.2200821E+04  0.7818609E-02  0.8518086E-01
        1   -1    0    0  501    0  0.00000000000E+00  0.00000000000E+00  0.15290151167E+04  0.15290151167E+04  0.50400001928E-02 0. -1.
       -1   -1    0    0    0  501  0.00000000000E+00  0.00000000000E+00 -0.79195013884E+03  0.79195013885E+03  0.50400001928E-02 0.  1.
    10030    2    1    2    0    0  0.00000000000E+00  0.00000000000E+00  0.73706497784E+03  0.23209652555E+04  0.22008214230E+04 0.  0.
        4    1    3    3  502    0 -0.37922948378E+03  0.10282620775E+04  0.47274085931E+03  0.11935759022E+04  0.12699999809E+01 0. -1.
       -4    1    3    3    0  502  0.37922948378E+03 -0.10282620775E+04  0.26432411853E+03  0.11273893533E+04  0.12699999809E+01 0.  1.
</event>
<event>
 5   0  0.9254673E-05  0.2210173E+04  0.7818609E-02  0.8514206E-01
       -2   -1    0    0    0  501  0.00000000000E+00  0.00000000000E+00  0.11116826586E+04  0.11116826586E+04  0.25500000920E-02 0. -1.
        2   -1    0    0  501    0  0.00000000000E+00  0.00000000000E+00 -0.10985296680E+04  0.10985296680E+04  0.25500000920E-02 0.  1.
    10030    2    1    2    0    0  0.00000000000E+00  0.00000000000E+00  0.13152990653E+02  0.22102123266E+04  0.22101731895E+04 0.  0.
        2    1    3    3  502    0  0.17331888781E+03  0.85367804151E+03 -0.67344344781E+03  0.11010593594E+04  0.25500000920E-02 0.  1.
       -2    1    3    3    0  502 -0.17331888781E+03 -0.85367804151E+03  0.68659643846E+03  0.11091529672E+04  0.25500000920E-02 0. -1.
</event>
<event>
 5   0  0.9938176E-05  0.2154558E+04  0.7818609E-02  0.8537584E-01
       -2   -1    0    0    0  501  0.00000000000E+00  0.00000000000E+00  0.72419302948E+03  0.72419302949E+03  0.25500000920E-02 0. -1.
        2   -1    0    0  501    0  0.00000000000E+00  0.00000000000E+00 -0.16025147208E+04  0.16025147208E+04  0.25500000920E-02 0.  1.
    10030    2    1    2    0    0  0.00000000000E+00  0.00000000000E+00 -0.87832169127E+03  0.23267077502E+04  0.21545579504E+04 0.  0.
        5    1    3    3  502    0  0.85904479464E+02  0.83582708309E+03 -0.11672102125E+04  0.14381892304E+04  0.46999998093E+01 0.  1.
       -5    1    3    3    0  502 -0.85904479464E+02 -0.83582708309E+03  0.28888852119E+03  0.88851851983E+03  0.46999998093E+01 0. -1.
</event>
<event>
 5   0  0.4133418E-05  0.2189530E+04  0.7818609E-02  0.8522799E-01
       -1   -1    0    0    0  501  0.00000000000E+00  0.00000000000E+00  0.19691032637E+04  0.19691032637E+04  0.50400001928E-02 0.  1.
        1   -1    0    0  501    0  0.00000000000E+00  0.00000000000E+00 -0.60865771710E+03  0.60865771713E+03  0.50400001928E-02 0. -1.
    10030    2    1    2    0    0  0.00000000000E+00  0.00000000000E+00  0.13604455466E+04  0.25777609808E+04  0.21895295360E+04 0.  0.
        4    1    3    3  502    0  0.93126417156E+03  0.31009099702E+03  0.12510663738E+04  0.15901503288E+04  0.12699999809E+01 0.  1.
       -4    1    3    3    0  502 -0.93126417156E+03 -0.31009099702E+03  0.10937917281E+03  0.98761065203E+03  0.12699999809E+01 0. -1.
</event>
<event>
 5   0  0.4174030E-05  0.2234209E+04  0.7818609E-02  0.8504323E-01
       -1   -1    0    0    0  501  0.00000000000E+00  0.00000000000E+00  0.83363245809E+03  0.83363245810E+03  0.50400001928E-02 0. -1.
        1   -1    0    0  501    0  0.00000000000E+00  0.00000000000E+00 -0.14969690095E+04  0.14969690095E+04  0.50400001928E-02 0.  1.
    10030    2    1    2    0    0  0.00000000000E+00  0.00000000000E+00 -0.66333655142E+03  0.23306014676E+04  0.22342085445E+04 0.  0.
        2    1    3    3  502    0  0.10524338757E+04  0.31509939240E+03 -0.12040322526E+03  0.11051704061E+04  0.25500000920E-02 0. -1.
       -2    1    3    3    0  502 -0.10524338757E+04 -0.31509939240E+03 -0.54293332615E+03  0.12254310615E+04  0.25500000920E-02 0.  1.
</event>
<event>
 5   0  0.9442578E-05  0.2356136E+04  0.7818609E-02  0.8456111E-01
        2   -1    0    0  501    0  0.00000000000E+00  0.00000000000E+00  0.16701054826E+04  0.16701054826E+04  0.25500000920E-02 0. -1.
       -2   -1    0    0    0  501  0.00000000000E+00  0.00000000000E+00 -0.83099175215E+03  0.83099175216E+03  0.25500000920E-02 0.  1.
    10030    2    1    2    0    0  0.00000000000E+00  0.00000000000E+00  0.83911373046E+03  0.25010972348E+04  0.23561357187E+04 0.  0.
        4    1    3    3  502    0 -0.12281674002E+03 -0.30267017080E+03 -0.78196065556E+03  0.84744159897E+03  0.12699999809E+01 0.  1.
       -4    1    3    3    0  502  0.12281674002E+03  0.30267017080E+03  0.16210743860E+04  0.16536556358E+04  0.12699999809E+01 0. -1.
</event>
<event>
 5   0  0.4174075E-05  0.2224532E+04  0.7818609E-02  0.8508286E-01
        1   -1    0    0  501    0  0.00000000000E+00  0.00000000000E+00  0.13237083703E+04  0.13237083703E+04  0.50400001928E-02 0.  1.
       -1   -1    0    0    0  501  0.00000000000E+00  0.00000000000E+00 -0.93459819972E+03  0.93459819973E+03  0.50400001928E-02 0. -1.
    10030    2    1    2    0    0  0.00000000000E+00  0.00000000000E+00  0.38911017058E+03  0.22583065700E+04  0.22245318248E+04 0.  0.
        5    1    3    3  502    0 -0.58400198660E+03  0.36540995570E+03  0.10810431991E+04  0.12818967370E+04  0.46999998093E+01 0.  1.
       -5    1    3    3    0  502  0.58400198660E+03 -0.36540995570E+03 -0.69193302852E+03  0.97640983302E+03  0.46999998093E+01 0. -1.
</event>
<event>
 5   0  0.9442578E-05  0.2187826E+04  0.7818609E-02  0.8523512E-01
        2   -1    0    0  501    0  0.00000000000E+00  0.00000000000E+00  0.23560608990E+04  0.23560608990E+04  0.25500000920E-02 0. -1.
       -2   -1    0    0    0  501  0.00000000000E+00  0.00000000000E+00 -0.50790108095E+03  0.50790108095E+03  0.25500000920E-02 0.  1.
    10030    2    1    2    0    0  0.00000000000E+00  0.00000000000E+00  0.18481598180E+04  0.28639619800E+04  0.21878262064E+04 0.  0.
        4    1    3    3  502    0 -0.58891654031E+03  0.71764636552E+03  0.16815239774E+04  0.19207715889E+04  0.12699999809E+01 0. -1.
       -4    1    3    3    0  502  0.58891654031E+03 -0.71764636552E+03  0.16663584064E+03  0.94319039101E+03  0.12699999809E+01 0.  1.
</event>
<event>
 5   0  0.9442578E-05  0.2174506E+04  0.7818609E-02  0.8529115E-01
        2   -1    0    0  501    0  0.00000000000E+00  0.00000000000E+00  0.67771936568E+03  0.67771936568E+03  0.25500000920E-02 0. -1.
       -2   -1    0    0    0  501  0.00000000000E+00  0.00000000000E+00 -0.17442597294E+04  0.17442597294E+04  0.25500000920E-02 0.  1.
    10030    2    1    2    0    0  0.00000000000E+00  0.00000000000E+00 -0.10665403638E+04  0.24219790951E+04  0.21745055506E+04 0.  0.
        4    1    3    3  502    0 -0.25234261020E+03 -0.57355635467E+03  0.45637289980E+03  0.77519128057E+03  0.12699999809E+01 0. -1.
       -4    1    3    3    0  502  0.25234261020E+03  0.57355635467E+03 -0.15229132636E+04  0.16467878146E+04  0.12699999809E+01 0.  1.
</event>
<event>
 5   0  0.9179618E-05  0.2237312E+04  0.7818609E-02  0.8503057E-01
        2   -1    0    0  501    0  0.00000000000E+00  0.00000000000E+00  0.24340179439E+04  0.24340179439E+04  0.25500000920E-02 0.  1.
       -2   -1    0    0    0  501  0.00000000000E+00  0.00000000000E+00 -0.51412572581E+03  0.51412572581E+03  0.25500000920E-02 0. -1.
    10030    2    1    2    0    0  0.00000000000E+00  0.00000000000E+00  0.19198922181E+04  0.29481436697E+04  0.22373119962E+04 0.  0.
        3    1    3    3  502    0  0.97459112455E+03  0.20386208252E+03  0.16318571732E+04  0.19116342361E+04  0.10100000352E+00 0.  1.
       -3    1    3    3    0  502 -0.97459112455E+03 -0.20386208252E+03  0.28803504495E+03  0.10365094337E+04  0.10100000352E+00 0. -1.
</event>
<event>
 5   0  0.4174030E-05  0.2196593E+04  0.7818609E-02  0.8519848E-01
        1   -1    0    0  501    0  0.00000000000E+00  0.00000000000E+00  0.86241160228E+03  0.86241160229E+03  0.50400001928E-02 0. -1.
       -1   -1    0    0    0  501  0.00000000000E+00  0.00000000000E+00 -0.13987000289E+04  0.13987000289E+04  0.50400001928E-02 0.  1.
    10030    2    1    2    0    0  0.00000000000E+00  0.00000000000E+00 -0.53628842661E+03  0.22611116312E+04  0.21965929373E+04 0.  0.
        2    1    3    3  502    0 -0.43488288119E+03  0.98003613776E+03 -0.51317194168E+03  0.11886712722E+04  0.25500000920E-02 0. -1.
       -2    1    3    3    0  502  0.43488288119E+03 -0.98003613776E+03 -0.23116484934E+02  0.10724403590E+04  0.25500000920E-02 0.  1.
</event>
<event>
 5   0  0.4063293E-05  0.2173069E+04  0.7818609E-02  0.8529722E-01
        1   -1    0    0  501    0  0.00000000000E+00  0.00000000000E+00  0.96927427971E+03  0.96927427972E+03  0.50400001928E-02 0. -1.
       -1   -1    0    0    0  501  0.00000000000E+00  0.00000000000E+00 -0.12179801037E+04  0.12179801037E+04  0.50400001928E-02 0.  1.
    10030    2    1    2    0    0  0.00000000000E+00  0.00000000000E+00 -0.24870582401E+03  0.21872543834E+04  0.21730686025E+04 0.  0.
        1    1    3    3  502    0 -0.48202491420E+03 -0.95868154479E+03  0.47461344469E+02  0.10740907324E+04  0.50400001928E-02 0.  1.
       -1    1    3    3    0  502  0.48202491420E+03  0.95868154479E+03 -0.29616716847E+03  0.11131636510E+04  0.50400001928E-02 0. -1.
</event>
<event>
 5   0  0.4174075E-05  0.2213271E+04  0.7818609E-02  0.8512925E-01
       -1   -1    0    0    0  501  0.00000000000E+00  0.00000000000E+00  0.95586856058E+03  0.95586856060E+03  0.50400001928E-02 0.  1.
        1   -1    0    0  501    0  0.00000000000E+00  0.00000000000E+00 -0.12811824870E+04  0.12811824870E+04  0.50400001928E-02 0. -1.
    10030    2    1    2    0    0  0.00000000000E+00  0.00000000000E+00 -0.32531392641E+03  0.22370510476E+04  0.22132709366E+04 0.  0.
        5    1    3    3  502    0  0.80556041675E+03 -0.10427242901E+03 -0.92227664730E+03  0.12289900848E+04  0.46999998093E+01 0. -1.
       -5    1    3    3    0  502 -0.80556041675E+03  0.10427242901E+03  0.59696272089E+03  0.10080609628E+04  0.46999998093E+01 0.  1.
</event>
<event>
 5   0  0.9457742E-05  0.2214210E+04  0.7818609E-02  0.8512537E-01
        2   -1    0    0  501    0  0.00000000000E+00  0.00000000000E+00  0.27743338515E+04  0.27743338515E+04  0.25500000920E-02 0. -1.
       -2   -1    0    0    0  501  0.00000000000E+00  0.00000000000E+00 -0.44179325588E+03  0.44179325589E+03  0.25500000920E-02 0.  1.
    10030    2    1    2    0    0  0.00000000000E+00  0.00000000000E+00  0.23325405957E+04  0.32161271074E+04  0.22142104554E+04 0.  0.
        1    1    3    3  502    0  0.38094248881E+03  0.44081314836E+03 -0.20111870257E+03  0.61634579912E+03  0.50400001928E-02 0.  1.
       -1    1    3    3    0  502 -0.38094248881E+03 -0.44081314836E+03  0.25336592982E+04  0.25997813083E+04  0.50400001928E-02 0. -1.
</event>
<event>
 5   0  0.9938176E-05  0.2206544E+04  0.7818609E-02  0.8515709E-01
        2   -1    0    0  501    0  0.00000000000E+00  0.00000000000E+00  0.17003283793E+04  0.17003283793E+04  0.25500000920E-02 0.  1.
       -2   -1    0    0    0  501  0.00000000000E+00  0.00000000000E+00 -0.71586704691E+03  0.71586704692E+03  0.25500000920E-02 0. -1.
    10030    2    1    2    0    0  0.00000000000E+00  0.00000000000E+00  0.98446133243E+03  0.24161954263E+04  0.22065439544E+04 0.  0.
        5    1    3    3  502    0  0.60003622051E+03  0.73098978350E+03  0.11143654925E+04  0.14615820436E+04  0.46999998093E+01 0.  1.
       -5    1    3    3    0  502 -0.60003622051E+03 -0.73098978350E+03 -0.12990416003E+03  0.95461338263E+03  0.46999998093E+01 0. -1.
</event>
<event>
 5   0  0.9442578E-05  0.2204606E+04  0.7818609E-02  0.8516514E-01
       -2   -1    0    0    0  501  0.00000000000E+00  0.00000000000E+00  0.11562542058E+04  0.11562542058E+04  0.25500000920E-02 0. -1.
        2   -1    0    0  501    0  0.00000000000E+00  0.00000000000E+00 -0.10508688547E+04  0.10508688547E+04  0.25500000920E-02 0.  1.
    10030    2    1    2    0    0  0.00000000000E+00  0.00000000000E+00  0.10538535115E+03  0.22071230605E+04  0.22046056636E+04 0.  0.
        4    1    3    3  502    0  0.73902364973E+03  0.34464434158E+03  0.79524997023E+03  0.11390170346E+04  0.12699999809E+01 0. -1.
       -4    1    3    3    0  502 -0.73902364973E+03 -0.34464434158E+03 -0.68986461907E+03  0.10681060259E+04  0.12699999809E+01 0.  1.
</event>
<event>
 5   0  0.4174075E-05  0.2182588E+04  0.7818609E-02  0.8525710E-01
        1   -1    0    0  501    0  0.00000000000E+00  0.00000000000E+00  0.64874901814E+03  0.64874901816E+03  0.50400001928E-02 0.  1.
       -1   -1    0    0    0  501  0.00000000000E+00  0.00000000000E+00 -0.18357220705E+04  0.18357220705E+04  0.50400001928E-02 0. -1.
    10030    2    1    2    0    0  0.00000000000E+00  0.00000000000E+00 -0.11869730524E+04  0.24844710887E+04  0.21825882716E+04 0.  0.
        5    1    3    3  502    0 -0.28555360469E+03 -0.65687232640E+01 -0.17924057493E+04  0.18150274019E+04  0.46999998093E+01 0. -1.
       -5    1    3    3    0  502  0.28555360469E+03  0.65687232640E+01  0.60543269696E+03  0.66944368682E+03  0.46999998093E+01 0.  1.
</event>
<event>
 5   0  0.4063293E-05  0.2013661E+04  0.7818609E-02  0.8600260E-01
        1   -1    0    0  501    0  0.00000000000E+00  0.00000000000E+00  0.62817766219E+03  0.62817766221E+03  0.50400001928E-02 0.  1.
       -1   -1    0    0    0  501  0.00000000000E+00  0.00000000000E+00 -0.16137282861E+04  0.16137282861E+04  0.50400001928E-02 0. -1.
    10030    2    1    2    0    0  0.00000000000E+00  0.00000000000E+00 -0.98555062389E+03  0.22419059483E+04  0.20136614037E+04 0.  0.
        1    1    3    3  502    0  0.22891594939E+03  0.67263529110E+03 -0.12869814183E+04  0.14700890850E+04  0.50400001928E-02 0. -1.
       -1    1    3    3    0  502 -0.22891594939E+03 -0.67263529110E+03  0.30143079438E+03  0.77181686334E+03  0.50400001928E-02 0.  1.
</event>
<event>
 5   0  0.4174030E-05  0.2179385E+04  0.7818609E-02  0.8527058E-01
       -1   -1    0    0    0  501  0.00000000000E+00  0.00000000000E+00  0.13246471058E+04  0.13246471058E+04  0.50400001928E-02 0. -1.
        1   -1    0    0  501    0  0.00000000000E+00  0.00000000000E+00 -0.89641175570E+03  0.89641175571E+03  0.50400001928E-02 0.  1.
    10030    2    1    2    0    0  0.00000000000E+00  0.00000000000E+00  0.42823535007E+03  0.22210588615E+04  0.21793845349E+04 0.  0.
        2    1    3    3  502    0  0.15134542074E+03 -0.63339959265E+03  0.11045112459E+04  0.12822034053E+04  0.25500000920E-02 0. -1.
       -2    1    3    3    0  502 -0.15134542074E+03  0.63339959265E+03 -0.67627589580E+03  0.93885545617E+03  0.25500000920E-02 0.  1.
</event>
<event>
 5   0  0.4174030E-05  0.2203045E+04  0.7818609E-02  0.8517162E-01
        1   -1    0    0  501    0  0.00000000000E+00  0.00000000000E+00  0.17099968526E+04  0.17099968526E+04  0.50400001928E-02 0. -1.
       -1   -1    0    0    0  501  0.00000000000E+00  0.00000000000E+00 -0.70956377606E+03  0.70956377608E+03  0.50400001928E-02 0.  1.
    10030    2    1    2    0    0  0.00000000000E+00  0.00000000000E+00  0.10004330765E+04  0.24195606287E+04  0.22030450053E+04 0.  0.
        2    1    3    3  502    0  0.40816176875E+03 -0.12570441374E+03  0.16153653468E+04  0.16708688856E+04  0.25500000920E-02 0. -1.
       -2    1    3    3    0  502 -0.40816176875E+03  0.12570441374E+03 -0.61493227030E+03  0.74869174309E+03  0.25500000920E-02 0.  1.
</event>
<event>
 5   0  0.4174075E-05  0.2200639E+04  0.7818609E-02  0.8518162E-01
        1   -1    0    0  501    0  0.00000000000E+00  0.00000000000E+00  0.11244590674E+04  0.11244590674E+04  0.50400001928E-02 0.  1.
       -1   -1    0    0    0  501  0.00000000000E+00  0.00000000000E+00 -0.10766984069E+04  0.10766984069E+04  0.50400001928E-02 0. -1.
    10030    2    1    2    0    0  0.00000000000E+00  0.00000000000E+00  0.47760660472E+02  0.22011574744E+04  0.22006392585E+04 0.  0.
        5    1    3    3  502    0  0.43848680149E+02 -0.74470062481E+03 -0.78512375095E+03  0.10830249866E+04  0.46999998093E+01 0. -1.
       -5    1    3    3    0  502 -0.43848680149E+02  0.74470062481E+03  0.83288441143E+03  0.11181324877E+04  0.46999998093E+01 0.  1.
</event>
<event>
 5   0  0.9457742E-05  0.2200759E+04  0.7818609E-02  0.8518112E-01
       -2   -1    0    0    0  501  0.00000000000E+00  0.00000000000E+00  0.69365204149E+03  0.69365204150E+03  0.25500000920E-02 0. -1.
        2   -1    0    0  501    0  0.00000000000E+00  0.00000000000E+00 -0.17455938235E+04  0.17455938235E+04  0.25500000920E-02 0.  1.
    10030    2    1    2    0    0  0.00000000000E+00  0.00000000000E+00 -0.10519417820E+04  0.24392458650E+04  0.22007587049E+04 0.  0.
        1    1    3    3  502    0 -0.19821168968E+03 -0.10175050201E+04 -0.93506208604E+03  0.13960463619E+04  0.50400001928E-02 0.  1.
       -1    1    3    3    0  502  0.19821168968E+03  0.10175050201E+04 -0.11687969597E+03  0.10431995031E+04  0.50400001928E-02 0. -1.
</event>
<event>
 5   0  0.4133418E-05  0.2214053E+04  0.7818609E-02  0.8512602E-01
        1   -1    0    0  501    0  0.00000000000E+00  0.00000000000E+00  0.10983558528E+04  0.10983558528E+04  0.50400001928E-02 0.  1.
       -1   -1    0    0    0  501  0.00000000000E+00  0.00000000000E+00 -0.11157657263E+04  0.11157657264E+04  0.50400001928E-02 0. -1.
    10030    2    1    2    0    0  0.00000000000E+00  0.00000000000E+00 -0.17409873583E+02  0.22141215791E+04  0.22140531302E+04 0.  0.
        4    1    3    3  502    0 -0.43771536020E+03 -0.53144039235E+03  0.85820281013E+03  0.11002442017E+04  0.12699999809E+01 0.  1.
       -4    1    3    3    0  502  0.43771536020E+03  0.53144039235E+03 -0.87561268371E+03  0.11138773774E+04  0.12699999809E+01 0. -1.
</event>
<event>
 5   0  0.4063293E-05  0.2203208E+04  0.7818609E-02  0.8517094E-01
       -1   -1    0    0    0  501  0.00000000000E+00  0.00000000000E+00  0.91459234066E+03  0.91459234068E+03  0.50400001928E-02 0.  1.
        1   -1    0    0  501    0  0.00000000000E+00  0.00000000000E+00 -0.13268546113E+04  0.13268546113E+04  0.50400001928E-02 0. -1.
    10030    2    1    2    0    0  0.00000000000E+00  0.00000000000E+00 -0.41226227065E+03  0.22414469520E+04  0.22032077203E+04 0.  0.
        1    1    3    3  502    0 -0.34599315577E+03  0.51154484301E+03 -0.11341817365E+04  0.12914168970E+04  0.50400001928E-02 0. -1.
       -1    1    3    3    0  502  0.34599315577E+03 -0.51154484301E+03  0.72191946587E+03  0.95003005504E+03  0.50400001928E-02 0.  1.
</event>
<event>
 5   0  0.9442578E-05  0.2206075E+04  0.7818609E-02  0.8515904E-01
        2   -1    0    0  501    0  0.00000000000E+00  0.00000000000E+00  0.70675406456E+03  0.70675406456E+03  0.25500000920E-02 0.  1.
       -2   -1    0    0    0  501  0.00000000000E+00  0.00000000000E+00 -0.17215203314E+04  0.17215203314E+04  0.25500000920E-02 0. -1.
    10030    2    1    2    0    0  0.00000000000E+00  0.00000000000E+00 -0.10147662668E+04  0.24282743959E+04  0.22060747870E+04 0.  0.
        4    1    3    3  502    0  0.10268433661E+04 -0.34655221698E+03 -0.73345792225E+03  0.13086129581E+04  0.12699999809E+01 0. -1.
       -4    1    3    3    0  502 -0.10268433661E+04  0.34655221698E+03 -0.28130834455E+03  0.11196614378E+04  0.12699999809E+01 0.  1.
</event>
<event>
 5   0  0.4174075E-05  0.2195611E+04  0.7818609E-02  0.8520257E-01
       -1   -1    0    0    0  501  0.00000000000E+00  0.00000000000E+00  0.88646481616E+03  0.88646481618E+03  0.50400001928E-02 0.  1.
        1   -1    0    0  501    0  0.00000000000E+00  0.00000000000E+00 -0.13595313678E+04  0.13595313678E+04  0.50400001928E-02 0. -1.
    10030    2    1    2    0    0  0.00000000000E+00  0.00000000000E+00 -0.47306655163E+03  0.22459961840E+04  0.21956108253E+04 0.  0.
        5    1    3    3  502    0  0.48219703248E+03 -0.34114264707E+03  0.71004618105E+03  0.92362327439E+03  0.46999998093E+01 0.  1.
       -5    1    3    3    0  502 -0.48219703248E+03  0.34114264707E+03 -0.11831127327E+04  0.13223729096E+04  0.46999998093E+01 0. -1.
</event>
<event>
 5   0  0.4174075E-05  0.2178227E+04  0.7818609E-02  0.8527546E-01
       -1   -1    0    0    0  501  0.00000000000E+00  0.00000000000E+00  0.43658668325E+03  0.43658668328E+03  0.50400001928E-02 0.  1.
        1   -1    0    0  501    0  0.00000000000E+00  0.00000000000E+00 -0.27169130052E+04  0.27169130052E+04  0.50400001928E-02 0. -1.
    10030    2    1    2    0    0  0.00000000000E+00  0.00000000000E+00 -0.22803263219E+04  0.31534996884E+04  0.21782268363E+04 0.  0.
        5    1    3    3  502    0 -0.38893369664E+03  0.92551299676E+03 -0.52884392250E+03  0.11346989521E+04  0.46999998093E+01 0. -1.
       -5    1    3    3    0  502  0.38893369664E+03 -0.92551299676E+03 -0.17514823994E+04  0.20188007363E+04  0.46999998093E+01 0.  1.
</event>
<event>
 5   0  0.4133418E-05  0.2256898E+04  0.7818609E-02  0.8495112E-01
        1   -1    0    0  501    0  0.00000000000E+00  0.00000000000E+00  0.14158164481E+04  0.14158164481E+04  0.50400001928E-02 0. -1.
       -1   -1    0    0    0  501  0.00000000000E+00  0.00000000000E+00 -0.89940868060E+03  0.89940868061E+03  0.50400001928E-02 0.  1.
    10030    2    1    2    0    0  0.00000000000E+00  0.00000000000E+00  0.51640776751E+03  0.23152251287E+04  0.22568984059E+04 0.  0.
        4    1    3    3  502    0  0.44718830366E+03  0.49984522384E+03  0.11891667616E+04  0.13652625486E+04  0.12699999809E+01 0. -1.
       -4    1    3    3    0  502 -0.44718830366E+03 -0.49984522384E+03 -0.67275899407E+03  0.94996258018E+03  0.12699999809E+01 0.  1.
</event>
<event>
 5   0  0.9457742E-05  0.2163486E+04  0.7818609E-02  0.8533782E-01
        2   -1    0    0  501    0  0.00000000000E+00  0.00000000000E+00  0.22590428440E+04  0.22590428440E+04  0.25500000920E-02 0.  1.
       -2   -1    0    0    0  501  0.00000000000E+00  0.00000000000E+00 -0.51799283479E+03  0.51799283480E+03  0.25500000920E-02 0. -1.
    10030    2    1    2    0    0  0.00000000000E+00  0.00000000000E+00  0.17410500092E+04  0.27770356788E+04  0.21634860819E+04 0.  0.
        1    1    3    3  502    0  0.25060215612E+02  0.15569358510E+03 -0.50315915215E+03  0.52729274531E+03  0.50400001928E-02 0. -1.
       -1    1    3    3    0  502 -0.25060215612E+02 -0.15569358510E+03  0.22442091613E+04  0.22497429334E+04  0.50400001928E-02 0.  1.
</event>
<event>
 5   0  0.4133418E-05  0.2068909E+04  0.7818609E-02  0.8575064E-01
        1   -1    0    0  501    0  0.00000000000E+00  0.00000000000E+00  0.18251649575E+04  0.18251649575E+04  0.50400001928E-02 0. -1.
       -1   -1    0    0    0  501  0.00000000000E+00  0.00000000000E+00 -0.58630077918E+03  0.58630077920E+03  0.50400001928E-02 0.  1.
    10030    2    1    2    0    0  0.00000000000E+00  0.00000000000E+00  0.12388641783E+04  0.24114657367E+04  0.20689085400E+04 0.  0.
        4    1    3    3  502    0 -0.50262496343E+01  0.47230111865E+03  0.16921403242E+04  0.17568250053E+04  0.12699999809E+01 0. -1.
       -4    1    3    3    0  502  0.50262496343E+01 -0.47230111865E+03 -0.45327614585E+03  0.65464073136E+03  0.12699999809E+01 0.  1.
</event>
<event>
 5   0  0.9457742E-05  0.2147856E+04  0.7818609E-02  0.8540450E-01
        2   -1    0    0  501    0  0.00000000000E+00  0.00000000000E+00  0.14070238371E+04  0.14070238371E+04  0.25500000920E-02 0. -1.
       -2   -1    0    0    0  501  0.00000000000E+00  0.00000000000E+00 -0.81968880511E+03  0.81968880511E+03  0.25500000920E-02 0.  1.
    10030    2    1    2    0    0  0.00000000000E+00  0.00000000000E+00  0.58733503197E+03  0.22267126422E+04  0.21478563153E+04 0.  0.
        1    1    3    3  502    0  0.59523510302E+03  0.68796718637E+03  0.88533790697E+03  0.12694199017E+04  0.50400001928E-02 0.  1.
       -1    1    3    3    0  502 -0.59523510302E+03 -0.68796718637E+03 -0.29800287500E+03  0.95729274045E+03  0.50400001928E-02 0. -1.
</event>
<event>
 5   0  0.9179618E-05  0.2214852E+04  0.7818609E-02  0.8512272E-01
        2   -1    0    0  501    0  0.00000000000E+00  0.00000000000E+00  0.16946636887E+04  0.16946636887E+04  0.25500000920E-02 0.  1.
       -2   -1    0    0    0  501  0.00000000000E+00  0.00000000000E+00 -0.72367899358E+03  0.72367899358E+03  0.25500000920E-02 0. -1.
    10030    2    1    2    0    0  0.00000000000E+00  0.00000000000E+00  0.97098469515E+03  0.24183426823E+04  0.22148521510E+04 0.  0.
        3    1    3    3  502    0  0.27979763294E+03 -0.94461466697E+02 -0.67989369711E+03  0.74125915418E+03  0.10100000352E+00 0. -1.
       -3    1    3    3    0  502 -0.27979763294E+03  0.94461466697E+02  0.16508783923E+04  0.16770835281E+04  0.10100000352E+00 0.  1.
</event>
<event>
 5   0  0.9179618E-05  0.2261758E+04  0.7818609E-02  0.8493154E-01
       -2   -1    0    0    0  501  0.00000000000E+00  0.00000000000E+00  0.75443467092E+03  0.75443467093E+03  0.25500000920E-02 0.  1.
        2   -1    0    0  501    0  0.00000000000E+00  0.00000000000E+00 -0.16951593294E+04  0.16951593294E+04  0.25500000920E-02 0. -1.
    10030    2    1    2    0    0  0.00000000000E+00  0.00000000000E+00 -0.94072465850E+03  0.24495940003E+04  0.22617576978E+04 0.  0.
        3    1    3    3  502    0 -0.10816179134E+03  0.19986258854E+03 -0.16701746092E+04  0.16855643752E+04  0.10100000352E+00 0. -1.
       -3    1    3    3    0  502  0.10816179134E+03 -0.19986258854E+03  0.72944995069E+03  0.76402962519E+03  0.10100000352E+00 0.  1.
</event>
<event>
 5   0  0.4063293E-05  0.2198915E+04  0.7818609E-02  0.8518880E-01
       -1   -1    0    0    0  501  0.00000000000E+00  0.00000000000E+00  0.58219868140E+03  0.58219868142E+03  0.50400001928E-02 0. -1.
        1   -1    0    0  501    0  0.00000000000E+00  0.00000000000E+00 -0.20762784685E+04  0.20762784685E+04  0.50400001928E-02 0.  1.
    10030    2    1    2    0    0  0.00000000000E+00  0.00000000000E+00 -0.14940797871E+04  0.26584771499E+04  0.21989148111E+04 0.  0.
        1    1    3    3  502    0  0.56277163145E+03 -0.65101211690E+03 -0.15743652952E+04  0.17942003144E+04  0.50400001928E-02 0.  1.
       -1    1    3    3    0  502 -0.56277163145E+03  0.65101211690E+03  0.80285508111E+02  0.86427683549E+03  0.50400001928E-02 0. -1.
</event>
<event>
 5   0  0.4174075E-05  0.2089551E+04  0.7818609E-02  0.8565860E-01
       -1   -1    0    0    0  501  0.00000000000E+00  0.00000000000E+00  0.62687491473E+03  0.62687491475E+03  0.50400001928E-02 0.  1.
        1   -1    0    0  501    0  0.00000000000E+00  0.00000000000E+00 -0.17412656453E+04  0.17412656453E+04  0.50400001928E-02 0. -1.
    10030    2    1    2    0    0  0.00000000000E+00  0.00000000000E+00 -0.11143907306E+04  0.23681405601E+04  0.20895509115E+04 0.  0.
        5    1    3    3  502    0 -0.70342358211E+03 -0.73487464932E+03 -0.28735882239E+03  0.10570916086E+04  0.46999998093E+01 0.  1.
       -5    1    3    3    0  502  0.70342358211E+03  0.73487464932E+03 -0.82703190821E+03  0.13110489515E+04  0.46999998093E+01 0. -1.
</event>
<event>
 5   0  0.9179618E-05  0.2221611E+04  0.7818609E-02  0.8509487E-01
        2   -1    0    0  501    0  0.00000000000E+00  0.00000000000E+00  0.12625767566E+04  0.12625767566E+04  0.25500000920E-02 0. -1.
       -2   -1    0    0    0  501  0.00000000000E+00  0.00000000000E+00 -0.97727843357E+03  0.97727843357E+03  0.25500000920E-02 0.  1.
    10030    2    1    2    0    0  0.00000000000E+00  0.00000000000E+00  0.28529832305E+03  0.22398551902E+04  0.22216111586E+04 0.  0.
        3    1    3    3  502    0 -0.76448722679E+03 -0.59461590684E+03 -0.40576652160E+03  0.10500739387E+04  0.10100000352E+00 0.  1.
       -3    1    3    3    0  502  0.76448722679E+03  0.59461590684E+03  0.69106484464E+03  0.11897812514E+04  0.10100000352E+00 0. -1.
</event>
<event>
 5   0  0.4174075E-05  0.2192592E+04  0.7818609E-02  0.8521518E-01
        1   -1    0    0  501    0  0.00000000000E+00  0.00000000000E+00  0.66332581092E+03  0.66332581094E+03  0.50400001928E-02 0.  1.
       -1   -1    0    0    0  501  0.00000000000E+00  0.00000000000E+00 -0.18118773393E+04  0.18118773393E+04  0.50400001928E-02 0. -1.
    10030    2    1    2    0    0  0.00000000000E+00  0.00000000000E+00 -0.11485515284E+04  0.24752031503E+04  0.21925920783E+04 0.  0.
        5    1    3    3  502    0 -0.10065647535E+04 -0.83256610906E+01 -0.84017414327E+02  0.10101103581E+04  0.46999998093E+01 0.  1.
       -5    1    3    3    0  502  0.10065647535E+04  0.83256610906E+01 -0.10645341141E+04  0.14650927922E+04  0.46999998093E+01 0. -1.
</event>
<event>
 5   0  0.9254673E-05  0.2079053E+04  0.7818609E-02  0.8570527E-01
        2   -1    0    0  501    0  0.00000000000E+00  0.00000000000E+00  0.82126650849E+03  0.82126650849E+03  0.25500000920E-02 0. -1.
       -2   -1    0    0    0  501  0.00000000000E+00  0.00000000000E+00 -0.13157912965E+04  0.13157912965E+04  0.25500000920E-02 0.  1.
    10030    2    1    2    0    0  0.00000000000E+00  0.00000000000E+00 -0.49452478801E+03  0.21370578050E+04  0.20790529805E+04 0.  0.
        2    1    3    3  502    0  0.36255276331E+03  0.53810135700E+03  0.58756536017E+03  0.87534600534E+03  0.25500000920E-02 0. -1.
       -2    1    3    3    0  502 -0.36255276331E+03 -0.53810135700E+03 -0.10820901482E+04  0.12617117997E+04  0.25500000920E-02 0.  1.
</event>
<event>
 5   0  0.4188865E-05  0.2262693E+04  0.7818609E-02  0.8492778E-01
       -1   -1    0    0    0  501  0.00000000000E+00  0.00000000000E+00  0.85915124075E+03  0.85915124076E+03  0.50400001928E-02 0. -1.
        1   -1    0    0  501    0  0.00000000000E+00  0.00000000000E+00 -0.14897782882E+04  0.14897782882E+04  0.50400001928E-02 0.  1.
    10030    2    1    2    0    0  0.00000000000E+00  0.00000000000E+00 -0.63062704743E+03  0.23489295289E+04  0.22626929661E+04 0.  0.
        3    1    3    3  502    0 -0.28759670821E+03 -0.25601367104E+03  0.78903994004E+03  0.87797431826E+03  0.10100000352E+00 0. -1.
       -3    1    3    3    0  502  0.28759670821E+03  0.25601367104E+03 -0.14196669875E+04  0.14709552107E+04  0.10100000352E+00 0.  1.
</event>
<event>
 5   0  0.4063293E-05  0.2281253E+04  0.7818609E-02  0.8485349E-01
       -1   -1    0    0    0  501  0.00000000000E+00  0.00000000000E+00  0.47248024845E+03  0.47248024848E+03  0.50400001928E-02 0. -1.
        1   -1    0    0  501    0  0.00000000000E+00  0.00000000000E+00 -0.27536162316E+04  0.27536162316E+04  0.50400001928E-02 0.  1.
    10030    2    1    2    0    0  0.00000000000E+00  0.00000000000E+00 -0.22811359832E+04  0.32260964801E+04  0.22812534110E+04 0.  0.
        1    1    3    3  502    0 -0.77589719214E+03  0.39958025786E+03 -0.21791445980E+04  0.23474138993E+04  0.50400001928E-02 0.  1.
       -1    1    3    3    0  502  0.77589719214E+03 -0.39958025786E+03 -0.10199138514E+03  0.87868258086E+03  0.50400001928E-02 0. -1.
</event>
<event>
 5   0  0.4133418E-05  0.2180668E+04  0.7818609E-02  0.8526518E-01
       -1   -1    0    0    0  501  0.00000000000E+00  0.00000000000E+00  0.83277194124E+03  0.83277194126E+03  0.50400001928E-02 0. -1.
        1   -1    0    0  501    0  0.00000000000E+00  0.00000000000E+00 -0.14275556526E+04  0.14275556526E+04  0.50400001928E-02 0.  1.
    10030    2    1    2    0    0  0.00000000000E+00  0.00000000000E+00 -0.59478371132E+03  0.22603275938E+04  0.21806680555E+04 0.  0.
        4    1    3    3  502    0 -0.26718986984E+03 -0.81636075063E+03  0.39869902553E+03  0.94699410113E+03  0.12699999809E+01 0. -1.
       -4    1    3    3    0  502  0.26718986984E+03  0.81636075063E+03 -0.99348273685E+03  0.13133334927E+04  0.12699999809E+01 0.  1.
</event>
<event>
 5   0  0.9442578E-05  0.2275916E+04  0.7818609E-02  0.8487478E-01
        2   -1    0    0  501    0  0.00000000000E+00  0.00000000000E+00  0.74442674000E+03  0.74442674000E+03  0.25500000920E-02 0.  1.
       -2   -1    0    0    0  501  0.00000000000E+00  0.00000000000E+00 -0.17395238482E+04  0.17395238482E+04  0.25500000920E-02 0. -1.
    10030    2    1    2    0    0  0.00000000000E+00  0.00000000000E+00 -0.99509710823E+03  0.24839505882E+04  0.22759156992E+04 0.  0.
        4    1    3    3  502    0 -0.47160223344E+03  0.23860837828E+03  0.60234066651E+03  0.80134793704E+03  0.12699999809E+01 0.  1.
       -4    1    3    3    0  502  0.47160223344E+03 -0.23860837828E+03 -0.15974377747E+04  0.16826026512E+04  0.12699999809E+01 0. -1.
</event>
<event>
 5   0  0.4188865E-05  0.2208847E+04  0.7818609E-02  0.8514755E-01
       -1   -1    0    0    0  501  0.00000000000E+00  0.00000000000E+00  0.11877860064E+04  0.11877860064E+04  0.50400001928E-02 0. -1.
        1   -1    0    0  501    0  0.00000000000E+00  0.00000000000E+00 -0.10269114117E+04  0.10269114117E+04  0.50400001928E-02 0.  1.
    10030    2    1    2    0    0  0.00000000000E+00  0.00000000000E+00  0.16087459472E+03  0.22146974181E+04  0.22088467621E+04 0.  0.
        3    1    3    3  502    0  0.10298333730E+04  0.26458820780E+03 -0.21899615418E+03  0.10855980018E+04  0.10100000352E+00 0.  1.
       -3    1    3    3    0  502 -0.10298333730E+04 -0.26458820780E+03  0.37987074890E+03  0.11290994163E+04  0.10100000352E+00 0. -1.
</event>
<event>
 5   0  0.4174075E-05  0.2176404E+04  0.7818609E-02  0.8528314E-01
       -1   -1    0    0    0  501  0.00000000000E+00  0.00000000000E+00  0.59768349724E+03  0.59768349727E+03  0.50400001928E-02 0.  1.
        1   -1    0    0  501    0  0.00000000000E+00  0.00000000000E+00 -0.19812891567E+04  0.19812891567E+04  0.50400001928E-02 0. -1.
    10030    2    1    2    0    0  0.00000000000E+00  0.00000000000E+00 -0.13836056594E+04  0.25789726539E+04  0.21764042200E+04 0.  0.
        5    1    3    3  502    0 -0.60674024822E+03 -0.63965867613E+03  0.64041279108E+02  0.88397982227E+03  0.46999998093E+01 0.  1.
       -5    1    3    3    0  502  0.60674024822E+03  0.63965867613E+03 -0.14476469385E+04  0.16949928317E+04  0.46999998093E+01 0. -1.
</event>
<event>
 5   0  0.4133418E-05  0.2145978E+04  0.7818609E-02  0.8541256E-01
       -1   -1    0    0    0  501  0.00000000000E+00  0.00000000000E+00  0.59214096087E+03  0.59214096089E+03  0.50400001928E-02 0.  1.
        1   -1    0    0  501    0  0.00000000000E+00  0.00000000000E+00 -0.19443089450E+04  0.19443089450E+04  0.50400001928E-02 0. -1.
    10030    2    1    2    0    0  0.00000000000E+00  0.00000000000E+00 -0.13521679841E+04  0.25364499059E+04  0.21459776019E+04 0.  0.
        4    1    3    3  502    0  0.65501305816E+03  0.78475909697E+03 -0.10616522916E+04  0.14737693673E+04  0.12699999809E+01 0. -1.
       -4    1    3    3    0  502 -0.65501305816E+03 -0.78475909697E+03 -0.29051569244E+03  0.10626805386E+04  0.12699999809E+01 0.  1.
</event>
<event>
 5   0  0.9254673E-05  0.2226826E+04  0.7818609E-02  0.8507345E-01
       -2   -1    0    0    0  501  0.00000000000E+00  0.00000000000E+00  0.14015493951E+04  0.14015493951E+04  0.25500000920E-02 0. -1.
        2   -1    0    0  501    0  0.00000000000E+00  0.00000000000E+00 -0.88451263325E+03  0.88451263326E+03  0.25500000920E-02 0.  1.
    10030    2    1    2    0    0  0.00000000000E+00  0.00000000000E+00  0.51703676182E+03  0.22860620283E+04  0.22268256744E+04 0.  0.
        2    1    3    3  502    0  0.69017915673E+03 -0.57042327647E+03 -0.42086998103E+03  0.98937430918E+03  0.25500000920E-02 0.  1.
       -2    1    3    3    0  502 -0.69017915673E+03  0.57042327647E+03  0.93790674285E+03  0.12966877192E+04  0.25500000920E-02 0. -1.
</event>
<event>
 5   0  0.9442578E-05  0.2188135E+04  0.7818609E-02  0.8523383E-01
        2   -1    0    0  501    0  0.00000000000E+00  0.00000000000E+00  0.14346798602E+04  0.14346798602E+04  0.25500000920E-02 0. -1.
       -2   -1    0    0    0  501  0.00000000000E+00  0.00000000000E+00 -0.83432112753E+03  0.83432112753E+03  0.25500000920E-02 0.  1.
    10030    2    1    2    0    0  0.00000000000E+00  0.00000000000E+00  0.60035873266E+03  0.22690009877E+04  0.21881350220E+04 0.  0.
        4    1    3    3  502    0 -0.10387363985E+04 -0.57948222937E+02 -0.50935420144E+02  0.10415984505E+04  0.12699999809E+01 0.  1.
       -4    1    3    3    0  502  0.10387363985E+04  0.57948222937E+02  0.65129415280E+03  0.12274025373E+04  0.12699999809E+01 0. -1.
</event>
<event>
 5   0  0.9442578E-05  0.2210906E+04  0.7818609E-02  0.8513902E-01
        2   -1    0    0  501    0  0.00000000000E+00  0.00000000000E+00  0.12167135481E+04  0.12167135481E+04  0.25500000920E-02 0.  1.
       -2   -1    0    0    0  501  0.00000000000E+00  0.00000000000E+00 -0.10043666995E+04  0.10043666995E+04  0.25500000920E-02 0. -1.
    10030    2    1    2    0    0  0.00000000000E+00  0.00000000000E+00  0.21234684862E+03  0.22210802476E+04  0.22109062129E+04 0.  0.
        4    1    3    3  502    0  0.49981131545E+03 -0.78473768696E+03  0.70591340651E+03  0.11678783921E+04  0.12699999809E+01 0.  1.
       -4    1    3    3    0  502 -0.49981131545E+03  0.78473768696E+03 -0.49356655789E+03  0.10532018555E+04  0.12699999809E+01 0. -1.
</event>
<event>
 5   0  0.4133418E-05  0.2206751E+04  0.7818609E-02  0.8515623E-01
       -1   -1    0    0    0  501  0.00000000000E+00  0.00000000000E+00  0.11458161300E+04  0.11458161300E+04  0.50400001928E-02 0.  1.
        1   -1    0    0  501    0  0.00000000000E+00  0.00000000000E+00 -0.10625070359E+04  0.10625070359E+04  0.50400001928E-02 0. -1.
    10030    2    1    2    0    0  0.00000000000E+00  0.00000000000E+00  0.83309094113E+02  0.22083231659E+04  0.22067511867E+04 0.  0.
        4    1    3    3  502    0 -0.22408957268E+03  0.79061361508E+03  0.77848745789E+03  0.11319586388E+04  0.12699999809E+01 0.  1.
       -4    1    3    3    0  502  0.22408957268E+03 -0.79061361508E+03 -0.69517836378E+03  0.10763645271E+04  0.12699999809E+01 0. -1.
</event>
<event>
 5   0  0.9254673E-05  0.2198278E+04  0.7818609E-02  0.8519145E-01
        2   -1    0    0  501    0  0.00000000000E+00  0.00000000000E+00  0.68113928405E+03  0.68113928405E+03  0.25500000920E-02 0.  1.
       -2   -1    0    0    0  501  0.00000000000E+00  0.00000000000E+00 -0.17736553795E+04  0.17736553795E+04  0.25500000920E-02 0. -1.
    10030    2    1    2    0    0  0.00000000000E+00  0.00000000000E+00 -0.10925160955E+04  0.24547946636E+04  0.21982778308E+04 0.  0.
        2    1    3    3  502    0  0.76489125661E+03 -0.58736360750E+02  0.33273918971E+03  0.83619612705E+03  0.25500000920E-02 0.  1.
       -2    1    3    3    0  502 -0.76489125661E+03  0.58736360750E+02 -0.14252552852E+04  0.16185985365E+04  0.25500000920E-02 0. -1.
</event>
<event>
 5   0  0.9442578E-05  0.2083611E+04  0.7818609E-02  0.8568497E-01
        2   -1    0    0  501    0  0.00000000000E+00  0.00000000000E+00  0.23810087711E+04  0.23810087711E+04  0.25500000920E-02 0. -1.
       -2   -1    0    0    0  501  0.00000000000E+00  0.00000000000E+00 -0.45583981823E+03  0.45583981824E+03  0.25500000920E-02 0.  1.
    10030    2    1    2    0    0  0.00000000000E+00  0.00000000000E+00  0.19251689529E+04  0.28368485894E+04  0.20836109094E+04 0.  0.
        4    1    3    3  502    0  0.14897554089E+03 -0.70393293554E+02  0.23631552769E+04  0.23688928645E+04  0.12699999809E+01 0. -1.
       -4    1    3    3    0  502 -0.14897554089E+03  0.70393293554E+02 -0.43798632401E+03  0.46795572492E+03  0.12699999809E+01 0.  1.
</event>
<event>
 5   0  0.9938176E-05  0.2135408E+04  0.7818609E-02  0.8545804E-01
        2   -1    0    0  501    0  0.00000000000E+00  0.00000000000E+00  0.97636474299E+03  0.97636474299E+03  0.25500000920E-02 0. -1.
       -2   -1    0    0    0  501  0.00000000000E+00  0.00000000000E+00 -0.11675881656E+04  0.11675881657E+04  0.25500000920E-02 0.  1.
    10030    2    1    2    0    0  0.00000000000E+00  0.00000000000E+00 -0.19122342266E+03  0.21439529086E+04  0.21354080821E+04 0.  0.
        5    1    3    3  502    0  0.17832140950E+03 -0.20551514188E+03  0.94096079743E+03  0.97952249129E+03  0.46999998093E+01 0. -1.
       -5    1    3    3    0  502 -0.17832140950E+03  0.20551514188E+03 -0.11321842201E+04  0.11644304174E+04  0.46999998093E+01 0.  1.
</event>
<event>
 5   0  0.4174030E-05  0.2264698E+04  0.7818609E-02  0.8491972E-01
        1   -1    0    0  501    0  0.00000000000E+00  0.00000000000E+00  0.94131070709E+03  0.94131070710E+03  0.50400001928E-02 0. -1.
       -1   -1    0    0    0  501  0.00000000000E+00  0.00000000000E+00 -0.13621578960E+04  0.13621578960E+04  0.50400001928E-02 0.  1.
    10030    2    1    2    0    0  0.00000000000E+00  0.00000000000E+00 -0.42084718890E+03  0.23034686031E+04  0.22646976065E+04 0.  0.
        2    1    3    3  502    0  0.86653967306E+03  0.61461100514E+03 -0.60902049842E+03  0.12245585573E+04  0.25500000920E-02 0. -1.
       -2    1    3    3    0  502 -0.86653967306E+03 -0.61461100514E+03  0.18817330952E+03  0.10789100459E+04  0.25500000920E-02 0.  1.
</event>
<event>
 5   0  0.9938176E-05  0.2187543E+04  0.7818609E-02  0.8523631E-01
       -2   -1    0    0    0  501  0.00000000000E+00  0.00000000000E+00  0.82706536000E+03  0.82706536000E+03  0.25500000920E-02 0.  1.
        2   -1    0    0  501    0  0.00000000000E+00  0.00000000000E+00 -0.14464827563E+04  0.14464827563E+04  0.25500000920E-02 0. -1.
    10030    2    1    2    0    0  0.00000000000E+00  0.00000000000E+00 -0.61941739631E+03  0.22735481163E+04  0.21875427142E+04 0.  0.
        5    1    3    3  502    0  0.80121499609E+03  0.72109757215E+03 -0.50243530594E+03  0.11892815080E+04  0.46999998093E+01 0. -1.
       -5    1    3    3    0  502 -0.80121499609E+03 -0.72109757215E+03 -0.11698209037E+03  0.10842666084E+04  0.46999998093E+01 0.  1.
</event>
<event>
 5   0  0.4174075E-05  0.2192990E+04  0.7818609E-02  0.8521351E-01
        1   -1    0    0  501    0  0.00000000000E+00  0.00000000000E+00  0.16125699529E+04  0.16125699529E+04  0.50400001928E-02 0.  1.
       -1   -1    0    0    0  501  0.00000000000E+00  0.00000000000E+00 -0.74558097149E+03  0.74558097151E+03  0.50400001928E-02 0. -1.
    10030    2    1    2    0    0  0.00000000000E+00  0.00000000000E+00  0.86698898138E+03  0.23581509244E+04  0.21929901706E+04 0.  0.
        5    1    3    3  502    0  0.30650769642E+03 -0.29001401178E+03  0.15217539401E+04  0.15791808761E+04  0.46999998093E+01 0.  1.
       -5    1    3    3    0  502 -0.30650769642E+03  0.29001401178E+03 -0.65476495875E+03  0.77897004833E+03  0.46999998093E+01 0. -1.
</event>
<event>
 5   0  0.4174030E-05  0.2210847E+04  0.7818609E-02  0.8513927E-01
        1   -1    0    0  501    0  0.00000000000E+00  0.00000000000E+00  0.15087035576E+04  0.15087035576E+04  0.50400001928E-02 0. -1.
       -1   -1    0    0    0  501  0.00000000000E+00  0.00000000000E+00 -0.80994123154E+03  0.80994123155E+03  0.50400001928E-02 0.  1.
    10030    2    1    2    0    0  0.00000000000E+00  0.00000000000E+00  0.69876232608E+03  0.23186447892E+04  0.22108470933E+04 0.  0.
        2    1    3    3  502    0 -0.69617171448E+01 -0.11053869857E+04  0.34341484991E+03  0.11575243465E+04  0.25500000920E-02 0. -1.
       -2    1    3    3    0  502  0.69617171448E+01  0.11053869857E+04  0.35534747617E+03  0.11611204427E+04  0.25500000920E-02 0.  1.
</event>
<event>
 5   0  0.9457742E-05  0.2204870E+04  0.7818609E-02  0.8516404E-01
        2   -1    0    0  501    0  0.00000000000E+00  0.00000000000E+00  0.13975872634E+04  0.13975872634E+04  0.25500000920E-02 0.  1.
       -2   -1    0    0    0  501  0.00000000000E+00  0.00000000000E+00 -0.86961539313E+03  0.86961539314E+03  0.25500000920E-02 0. -1.
    10030    2    1    2    0    0  0.00000000000E+00  0.00000000000E+00  0.52797187025E+03  0.22672026565E+04  0.22048704248E+04 0.  0.
        1    1    3    3  502    0 -0.27412178335E+03 -0.58911053676E+03  0.11797640296E+04  0.13468619611E+04  0.50400001928E-02 0.  1.
       -1    1    3    3    0  502  0.27412178335E+03  0.58911053676E+03 -0.65179215937E+03  0.92034069543E+03  0.50400001928E-02 0. -1.
</event>
<event>
 5   0  0.4133418E-05  0.2199350E+04  0.7818609E-02  0.8518699E-01
       -1   -1    0    0    0  501  0.00000000000E+00  0.00000000000E+00  0.95491971398E+03  0.95491971399E+03  0.50400001928E-02 0. -1.
        1   -1    0    0  501    0  0.00000000000E+00  0.00000000000E+00 -0.12663731420E+04  0.12663731420E+04  0.50400001928E-02 0.  1.
    10030    2    1    2    0    0  0.00000000000E+00  0.00000000000E+00 -0.31145342799E+03  0.22212928560E+04  0.21993496116E+04 0.  0.
        4    1    3    3  502    0  0.44304525201E+03  0.84809424600E+03 -0.70310276297E+03  0.11873954917E+04  0.12699999809E+01 0.  1.
       -4    1    3    3    0  502 -0.44304525201E+03 -0.84809424600E+03  0.39164933498E+03  0.10338973643E+04  0.12699999809E+01 0. -1.
</event>
<event>
 5   0  0.9179618E-05  0.2189730E+04  0.7818609E-02  0.8522715E-01
        2   -1    0    0  501    0  0.00000000000E+00  0.00000000000E+00  0.51074066287E+03  0.51074066287E+03  0.25500000920E-02 0.  1.
       -2   -1    0    0    0  501  0.00000000000E+00  0.00000000000E+00 -0.23470411565E+04  0.23470411565E+04  0.25500000920E-02 0. -1.
    10030    2    1    2    0    0  0.00000000000E+00  0.00000000000E+00 -0.18363004937E+04  0.28577818194E+04  0.21897299889E+04 0.  0.
        3    1    3    3  502    0  0.40346940549E+03 -0.90571241228E+03 -0.31212616428E+03  0.10394831829E+04  0.10100000352E+00 0.  1.
       -3    1    3    3    0  502 -0.40346940549E+03  0.90571241228E+03 -0.15241743294E+04  0.18182986365E+04  0.10100000352E+00 0. -1.
</event>
<event>
 5   0  0.4174075E-05  0.2243297E+04  0.7818609E-02  0.8500620E-01
        1   -1    0    0  501    0  0.00000000000E+00  0.00000000000E+00  0.21787697420E+04  0.21787697420E+04  0.50400001928E-02 0.  1.
       -1   -1    0    0    0  501  0.00000000000E+00  0.00000000000E+00 -0.57743382980E+03  0.57743382982E+03  0.50400001928E-02 0. -1.
    10030    2    1    2    0    0  0.00000000000E+00  0.00000000000E+00  0.16013359122E+04  0.27562035719E+04  0.22432969990E+04 0.  0.
        5    1    3    3  502    0  0.73416629231E+02 -0.10579097846E+04  0.12496010920E+04  0.16389289469E+04  0.46999998093E+01 0.  1.
       -5    1    3    3    0  502 -0.73416629231E+02  0.10579097846E+04  0.35173482026E+03  0.11172746250E+04  0.46999998093E+01 0. -1.
</event>
<event>
 5   0  0.4188865E-05  0.2187115E+04  0.7818609E-02  0.8523810E-01
        1   -1    0    0  501    0  0.00000000000E+00  0.00000000000E+00  0.81100316801E+03  0.81100316802E+03  0.50400001928E-02 0.  1.
       -1   -1    0    0    0  501  0.00000000000E+00  0.00000000000E+00 -0.14745540993E+04  0.14745540993E+04  0.50400001928E-02 0. -1.
    10030    2    1    2    0    0  0.00000000000E+00  0.00000000000E+00 -0.66355093126E+03  0.22855572673E+04  0.21871150367E+04 0.  0.
        3    1    3    3  502    0 -0.88799250066E+03  0.85026873947E+02  0.32923598384E+03  0.95087149172E+03  0.10100000352E+00 0.  1.
       -3    1    3    3    0  502  0.88799250066E+03 -0.85026873947E+02 -0.99278691510E+03  0.13346857756E+04  0.10100000352E+00 0. -1.
</event>
<event>
 5   0  0.3283125E-05  0.2004445E+04  0.7818609E-02  0.8604546E-01
        3   -1    0    0  501    0  0.00000000000E+00  0.00000000000E+00  0.49205945033E+03  0.49205946070E+03  0.10100000352E+00 0.  1.
       -3   -1    0    0    0  501  0.00000000000E+00  0.00000000000E+00 -0.20413172926E+04  0.20413172951E+04  0.10100000352E+00 0. -1.
    10030    2    1    2    0    0  0.00000000000E+00  0.00000000000E+00 -0.15492578423E+04  0.25333767558E+04  0.20044445428E+04 0.  0.
        4    1    3    3  502    0  0.35814320556E+03  0.17090660496E+02 -0.19574807007E+04  0.19900479775E+04  0.12699999809E+01 0. -1.
       -4    1    3    3    0  502 -0.35814320556E+03 -0.17090660496E+02  0.40822285837E+03  0.54332877833E+03  0.12699999809E+01 0.  1.
</event>
<event>
 5   0  0.9254673E-05  0.2228431E+04  0.7818609E-02  0.8506687E-01
        2   -1    0    0  501    0  0.00000000000E+00  0.00000000000E+00  0.13121810842E+04  0.13121810842E+04  0.25500000920E-02 0.  1.
       -2   -1    0    0    0  501  0.00000000000E+00  0.00000000000E+00 -0.94611681195E+03  0.94611681196E+03  0.25500000920E-02 0. -1.
    10030    2    1    2    0    0  0.00000000000E+00  0.00000000000E+00  0.36606427226E+03  0.22582978962E+04  0.22284313623E+04 0.  0.
        2    1    3    3  502    0 -0.78987616992E+03  0.61661673819E+03  0.67675369564E+03  0.12091799412E+04  0.25500000920E-02 0.  1.
       -2    1    3    3    0  502  0.78987616992E+03 -0.61661673819E+03 -0.31068942338E+03  0.10491179550E+04  0.25500000920E-02 0. -1.
</event>
<event>
 5   0  0.9938176E-05  0.2196652E+04  0.7818609E-02  0.8519823E-01
       -2   -1    0    0    0  501  0.00000000000E+00  0.00000000000E+00  0.13758346692E+04  0.13758346692E+04  0.25500000920E-02 0. -1.
        2   -1    0    0  501    0  0.00000000000E+00  0.00000000000E+00 -0.87679172559E+03  0.87679172559E+03  0.25500000920E-02 0.  1.
    10030    2    1    2    0    0  0.00000000000E+00  0.00000000000E+00  0.49904294363E+03  0.22526263948E+04  0.21966524111E+04 0.  0.
        5    1    3    3  502    0 -0.75523306241E+03 -0.14447125308E+03  0.10537562350E+04  0.13044819716E+04  0.46999998093E+01 0. -1.
       -5    1    3    3    0  502  0.75523306241E+03  0.14447125308E+03 -0.55471329138E+03  0.94814442316E+03  0.46999998093E+01 0.  1.
</event>
<event>
 5   0  0.4133418E-05  0.2249674E+04  0.7818609E-02  0.8498033E-01
       -1   -1    0    0    0  501  0.00000000000E+00  0.00000000000E+00  0.12828381095E+04  0.12828381095E+04  0.50400001928E-02 0. -1.
        1   -1    0    0  501    0  0.00000000000E+00  0.00000000000E+00 -0.98629610235E+03  0.98629610236E+03  0.50400001928E-02 0.  1.
    10030    2    1    2    0    0  0.00000000000E+00  0.00000000000E+00  0.29654200716E+03  0.22691342119E+04  0.22496739563E+04 0.  0.
        4    1    3    3  502    0  0.38931540171E+03 -0.63882045975E+03 -0.69899434249E+03  0.10238421585E+04  0.12699999809E+01 0.  1.
       -4    1    3    3    0  502 -0.38931540171E+03  0.63882045975E+03  0.99553634965E+03  0.12452920534E+04  0.12699999809E+01 0. -1.
</event>
<event>
 5   0  0.9442578E-05  0.1876851E+04  0.7818609E-02  0.8666466E-01
        2   -1    0    0  501    0  0.00000000000E+00  0.00000000000E+00  0.17481150190E+04  0.17481150190E+04  0.25500000920E-02 0.  1.
       -2   -1    0    0    0  501  0.00000000000E+00  0.00000000000E+00 -0.50376691276E+03  0.50376691276E+03  0.25500000920E-02 0. -1.
    10030    2    1    2    0    0  0.00000000000E+00  0.00000000000E+00  0.12443481062E+04  0.22518819317E+04  0.18768510929E+04 0.  0.
        4    1    3    3  502    0 -0.39009314879E+03 -0.17303013824E+03 -0.38061124234E+03  0.57182044749E+03  0.12699999809E+01 0. -1.
       -4    1    3    3    0  502  0.39009314879E+03  0.17303013824E+03  0.16249593486E+04  0.16800614842E+04  0.12699999809E+01 0.  1.
</event>
<event>
 5   0  0.4174075E-05  0.2203623E+04  0.7818609E-02  0.8516922E-01
       -1   -1    0    0    0  501  0.00000000000E+00  0.00000000000E+00  0.96847544674E+03  0.96847544675E+03  0.50400001928E-02 0.  1.
        1   -1    0    0  501    0  0.00000000000E+00  0.00000000000E+00 -0.12535049115E+04  0.12535049115E+04  0.50400001928E-02 0. -1.
    10030    2    1    2    0    0  0.00000000000E+00  0.00000000000E+00 -0.28502946474E+03  0.22219803582E+04  0.22036231340E+04 0.  0.
        5    1    3    3  502    0 -0.22372515760E+03  0.96962597645E+03  0.33443640966E+03  0.10498082122E+04  0.46999998093E+01 0.  1.
       -5    1    3    3    0  502  0.22372515760E+03 -0.96962597645E+03 -0.61946587440E+03  0.11721721460E+04  0.46999998093E+01 0. -1.
</event>
<event>
 5   0  0.9254673E-05  0.2216219E+04  0.7818609E-02  0.8511708E-01
        2   -1    0    0  501    0  0.00000000000E+00  0.00000000000E+00  0.11735609466E+04  0.11735609467E+04  0.25500000920E-02 0.  1.
       -2   -1    0    0    0  501  0.00000000000E+00  0.00000000000E+00 -0.10463080283E+04  0.10463080283E+04  0.25500000920E-02 0. -1.
    10030    2    1    2    0    0  0.00000000000E+00  0.00000000000E+00  0.12725291838E+03  0.22198689749E+04  0.22162186175E+04 0.  0.
        2    1    3    3  502    0  0.83346411205E+03  0.72502545408E+03  0.15084401505E+03  0.11149341918E+04  0.25500000920E-02 0.  1.
       -2    1    3    3    0  502 -0.83346411205E+03 -0.72502545408E+03 -0.23591096676E+02  0.11049347831E+04  0.25500000920E-02 0. -1.
</event>
<event>
 5   0  0.9179618E-05  0.1647162E+04  0.7818609E-02  0.8792087E-01
       -2   -1    0    0    0  501  0.00000000000E+00  0.00000000000E+00  0.39562022636E+03  0.39562022636E+03  0.25500000920E-02 0.  1.
        2   -1    0    0  501    0  0.00000000000E+00  0.00000000000E+00 -0.17144875113E+04  0.17144875113E+04  0.25500000920E-02 0. -1.
    10030    2    1    2    0    0  0.00000000000E+00  0.00000000000E+00 -0.13188672849E+04  0.21101077377E+04  0.16471623324E+04 0.  0.
        3    1    3    3  502    0  0.32002286342E+03 -0.22550477602E+03  0.26879655423E+03  0.47488802352E+03  0.10100000352E+00 0.  1.
       -3    1    3    3    0  502 -0.32002286342E+03  0.22550477602E+03 -0.15876638392E+04  0.16352197141E+04  0.10100000352E+00 0. -1.
</event>
<event>
 5   0  0.4174030E-05  0.2155666E+04  0.7818609E-02  0.8537111E-01
        1   -1    0    0  501    0  0.00000000000E+00  0.00000000000E+00  0.88454976420E+03  0.88454976421E+03  0.50400001928E-02 0. -1.
       -1   -1    0    0    0  501  0.00000000000E+00  0.00000000000E+00 -0.13133511404E+04  0.13133511405E+04  0.50400001928E-02 0.  1.
    10030    2    1    2    0    0  0.00000000000E+00  0.00000000000E+00 -0.42880137624E+03  0.21979009047E+04  0.21556664321E+04 0.  0.
        2    1    3    3  502    0  0.79546289859E+03  0.63785347924E+03  0.14188250127E+03  0.10294410756E+04  0.25500000920E-02 0. -1.
       -2    1    3    3    0  502 -0.79546289859E+03 -0.63785347924E+03 -0.57068387752E+03  0.11684598290E+04  0.25500000920E-02 0.  1.
</event>
<event>
 5   0  0.4174075E-05  0.1605454E+04  0.7818609E-02  0.8817204E-01
        1   -1    0    0  501    0  0.00000000000E+00  0.00000000000E+00  0.20948952341E+04  0.20948952341E+04  0.50400001928E-02 0. -1.
       -1   -1    0    0    0  501  0.00000000000E+00  0.00000000000E+00 -0.30759088545E+03  0.30759088549E+03  0.50400001928E-02 0.  1.
    10030    2    1    2    0    0  0.00000000000E+00  0.00000000000E+00  0.17873043487E+04  0.24024861196E+04  0.16054540542E+04 0.  0.
        5    1    3    3  502    0  0.13543290176E+03  0.17599226417E+03 -0.26068749432E+03  0.34248417134E+03  0.46999998093E+01 0.  1.
       -5    1    3    3    0  502 -0.13543290176E+03 -0.17599226417E+03  0.20479918430E+04  0.20600019483E+04  0.46999998093E+01 0. -1.
</event>
<event>
 5   0  0.9179618E-05  0.2194818E+04  0.7818609E-02  0.8520588E-01
        2   -1    0    0  501    0  0.00000000000E+00  0.00000000000E+00  0.12275461334E+04  0.12275461334E+04  0.25500000920E-02 0.  1.
       -2   -1    0    0    0  501  0.00000000000E+00  0.00000000000E+00 -0.98106866090E+03  0.98106866090E+03  0.25500000920E-02 0. -1.
    10030    2    1    2    0    0  0.00000000000E+00  0.00000000000E+00  0.24647747246E+03  0.22086147943E+04  0.21948184811E+04 0.  0.
        3    1    3    3  502    0  0.39916275898E+03 -0.99152383869E+03 -0.12703448980E+03  0.10763773514E+04  0.10100000352E+00 0. -1.
       -3    1    3    3    0  502 -0.39916275898E+03  0.99152383869E+03  0.37351196226E+03  0.11322374428E+04  0.10100000352E+00 0.  1.
</event>
<event>
 5   0  0.9179618E-05  0.2179882E+04  0.7818609E-02  0.8526849E-01
       -2   -1    0    0    0  501  0.00000000000E+00  0.00000000000E+00  0.52293963791E+03  0.52293963792E+03  0.25500000920E-02 0. -1.
        2   -1    0    0  501    0  0.00000000000E+00  0.00000000000E+00 -0.22717183153E+04  0.22717183153E+04  0.25500000920E-02 0.  1.
    10030    2    1    2    0    0  0.00000000000E+00  0.00000000000E+00 -0.17487786774E+04  0.27946579532E+04  0.21798821558E+04 0.  0.
        3    1    3    3  502    0  0.33883717400E+03  0.90503962501E+03 -0.15205899616E+04  0.18016939793E+04  0.10100000352E+00 0.  1.
       -3    1    3    3    0  502 -0.33883717400E+03 -0.90503962501E+03 -0.22818871573E+03  0.99296397392E+03  0.10100000352E+00 0. -1.
</event>
<event>
 5   0  0.9254673E-05  0.2259076E+04  0.7818609E-02  0.8494234E-01
        2   -1    0    0  501    0  0.00000000000E+00  0.00000000000E+00  0.16376050425E+04  0.16376050425E+04  0.25500000920E-02 0.  1.
       -2   -1    0    0    0  501  0.00000000000E+00  0.00000000000E+00 -0.77909849459E+03  0.77909849459E+03  0.25500000920E-02 0. -1.
    10030    2    1    2    0    0  0.00000000000E+00  0.00000000000E+00  0.85850654789E+03  0.24167035371E+04  0.22590755838E+04 0.  0.
        2    1    3    3  502    0 -0.31492368125E+03 -0.58815744998E+03 -0.54579847020E+03  0.86197568473E+03  0.25500000920E-02 0. -1.
       -2    1    3    3    0  502  0.31492368125E+03  0.58815744998E+03  0.14043050181E+04  0.15547278523E+04  0.25500000920E-02 0.  1.
</event>
<event>
 5   0  0.4063293E-05  0.2233113E+04  0.7818609E-02  0.8504771E-01
       -1   -1    0    0    0  501  0.00000000000E+00  0.00000000000E+00  0.77714477938E+03  0.77714477939E+03  0.50400001928E-02 0.  1.
        1   -1    0    0  501    0  0.00000000000E+00  0.00000000000E+00 -0.16042036720E+04  0.16042036720E+04  0.50400001928E-02 0. -1.
    10030    2    1    2    0    0  0.00000000000E+00  0.00000000000E+00 -0.82705889264E+03  0.23813484514E+04  0.22331130816E+04 0.  0.
        1    1    3    3  502    0  0.27420784582E+03  0.10375371489E+04 -0.84805229954E+02  0.10765060173E+04  0.50400001928E-02 0.  1.
       -1    1    3    3    0  502 -0.27420784582E+03 -0.10375371489E+04 -0.74225366268E+03  0.13048424341E+04  0.50400001928E-02 0. -1.
</event>
<event>
 5   0  0.9442578E-05  0.2109659E+04  0.7818609E-02  0.8557000E-01
        2   -1    0    0  501    0  0.00000000000E+00  0.00000000000E+00  0.85444552253E+03  0.85444552254E+03  0.25500000920E-02 0.  1.
       -2   -1    0    0    0  501  0.00000000000E+00  0.00000000000E+00 -0.13022075412E+04  0.13022075412E+04  0.25500000920E-02 0. -1.
    10030    2    1    2    0    0  0.00000000000E+00  0.00000000000E+00 -0.44776201866E+03  0.21566530637E+04  0.21096591222E+04 0.  0.
        4    1    3    3  502    0  0.25000869592E+03  0.69397586318E+03  0.54694255486E+03  0.91828896211E+03  0.12699999809E+01 0.  1.
       -4    1    3    3    0  502 -0.25000869592E+03 -0.69397586318E+03 -0.99470457353E+03  0.12383641016E+04  0.12699999809E+01 0. -1.
</event>
<event>
 5   0  0.9179618E-05  0.2120549E+04  0.7818609E-02  0.8552245E-01
       -2   -1    0    0    0  501  0.00000000000E+00  0.00000000000E+00  0.21704086906E+04  0.21704086906E+04  0.25500000920E-02 0.  1.
        2   -1    0    0  501    0  0.00000000000E+00  0.00000000000E+00 -0.51795882714E+03  0.51795882714E+03  0.25500000920E-02 0. -1.
    10030    2    1    2    0    0  0.00000000000E+00  0.00000000000E+00  0.16524498635E+04  0.26883675178E+04  0.21205493060E+04 0.  0.
        3    1    3    3  502    0  0.51263121892E+03 -0.40581869089E+02 -0.34928150556E+03  0.62163915179E+03  0.10100000352E+00 0. -1.
       -3    1    3    3    0  502 -0.51263121892E+03  0.40581869089E+02  0.20017313690E+04  0.20667283660E+04  0.10100000352E+00 0.  1.
</event>
<event>
 5   0  0.4174030E-05  0.2207732E+04  0.7818609E-02  0.8515217E-01
       -1   -1    0    0    0  501  0.00000000000E+00  0.00000000000E+00  0.17057157668E+04  0.17057157668E+04  0.50400001928E-02 0.  1.
        1   -1    0    0  501    0  0.00000000000E+00  0.00000000000E+00 -0.71437447009E+03  0.71437447010E+03  0.50400001928E-02 0. -1.
    10030    2    1    2    0    0  0.00000000000E+00  0.00000000000E+00  0.99134129673E+03  0.24200902369E+04  0.22077316839E+04 0.  0.
        2    1    3    3  502    0  0.66732823972E+03 -0.35849772393E+03 -0.38447539382E+03  0.84951099231E+03  0.25500000920E-02 0. -1.
       -2    1    3    3    0  502 -0.66732823972E+03  0.35849772393E+03  0.13758166905E+04  0.15705792446E+04  0.25500000920E-02 0.  1.
</event>
<event>
 5   0  0.4063293E-05  0.2233292E+04  0.7818609E-02  0.8504697E-01
        1   -1    0    0  501    0  0.00000000000E+00  0.00000000000E+00  0.14981007275E+04  0.14981007275E+04  0.50400001928E-02 0.  1.
       -1   -1    0    0    0  501  0.00000000000E+00  0.00000000000E+00 -0.83231972291E+03  0.83231972293E+03  0.50400001928E-02 0. -1.
    10030    2    1    2    0    0  0.00000000000E+00  0.00000000000E+00  0.66578100454E+03  0.23304204504E+04  0.22332924416E+04 0.  0.
        1    1    3    3  502    0 -0.97638838131E+03  0.46204383410E+03  0.37599144509E+02  0.10808480335E+04  0.50400001928E-02 0. -1.
       -1    1    3    3    0  502  0.97638838131E+03 -0.46204383410E+03  0.62818186003E+03  0.12495724169E+04  0.50400001928E-02 0.  1.
</event>
<event>
 5   0  0.9457742E-05  0.2184363E+04  0.7818609E-02  0.8524965E-01
        2   -1    0    0  501    0  0.00000000000E+00  0.00000000000E+00  0.83946895013E+03  0.83946895013E+03  0.25500000920E-02 0. -1.
       -2   -1    0    0    0  501  0.00000000000E+00  0.00000000000E+00 -0.14209699816E+04  0.14209699816E+04  0.25500000920E-02 0.  1.
    10030    2    1    2    0    0  0.00000000000E+00  0.00000000000E+00 -0.58150103148E+03  0.22604389317E+04  0.21843627708E+04 0.  0.
        1    1    3    3  502    0  0.82020701812E+03 -0.24739801098E+03 -0.99177642321E+03  0.13105593470E+04  0.50400001928E-02 0.  1.
       -1    1    3    3    0  502 -0.82020701812E+03  0.24739801098E+03  0.41027539173E+03  0.94987958473E+03  0.50400001928E-02 0. -1.
</event>
<event>
 5   0  0.4174075E-05  0.2207817E+04  0.7818609E-02  0.8515182E-01
        1   -1    0    0  501    0  0.00000000000E+00  0.00000000000E+00  0.10747349948E+04  0.10747349948E+04  0.50400001928E-02 0. -1.
       -1   -1    0    0    0  501  0.00000000000E+00  0.00000000000E+00 -0.11338739284E+04  0.11338739284E+04  0.50400001928E-02 0.  1.
    10030    2    1    2    0    0  0.00000000000E+00  0.00000000000E+00 -0.59138933604E+02  0.22086089233E+04  0.22078170129E+04 0.  0.
        5    1    3    3  502    0  0.28646987427E+03  0.62216239389E+03 -0.89558250936E+03  0.11274933057E+04  0.46999998093E+01 0.  1.
       -5    1    3    3    0  502 -0.28646987427E+03 -0.62216239389E+03  0.83644357576E+03  0.10811156176E+04  0.46999998093E+01 0. -1.
</event>
<event>
 5   0  0.4063293E-05  0.2213851E+04  0.7818609E-02  0.8512685E-01
       -1   -1    0    0    0  501  0.00000000000E+00  0.00000000000E+00  0.86371617439E+03  0.86371617440E+03  0.50400001928E-02 0.  1.
        1   -1    0    0  501    0  0.00000000000E+00  0.00000000000E+00 -0.14186186488E+04  0.14186186488E+04  0.50400001928E-02 0. -1.
    10030    2    1    2    0    0  0.00000000000E+00  0.00000000000E+00 -0.55490247440E+03  0.22823348232E+04  0.22138508281E+04 0.  0.
        1    1    3    3  502    0  0.20707338936E+03  0.10537189394E+04 -0.55423527707E+03  0.12084617222E+04  0.50400001928E-02 0. -1.
       -1    1    3    3    0  502 -0.20707338936E+03 -0.10537189394E+04 -0.66719733447E+00  0.10738731010E+04  0.50400001928E-02 0.  1.
</event>
<event>
 5   0  0.9179618E-05  0.2231301E+04  0.7818609E-02  0.8505512E-01
       -2   -1    0    0    0  501  0.00000000000E+00  0.00000000000E+00  0.50319366723E+03  0.50319366724E+03  0.25500000920E-02 0.  1.
        2   -1    0    0  501    0  0.00000000000E+00  0.00000000000E+00 -0.24735535929E+04  0.24735535929E+04  0.25500000920E-02 0. -1.
    10030    2    1    2    0    0  0.00000000000E+00  0.00000000000E+00 -0.19703599257E+04  0.29767472601E+04  0.22313014171E+04 0.  0.
        3    1    3    3  502    0  0.47695622215E+03  0.29198180037E+03  0.30270400956E+03  0.63590120082E+03  0.10100000352E+00 0.  1.
       -3    1    3    3    0  502 -0.47695622215E+03 -0.29198180037E+03 -0.22730639352E+04  0.23408460593E+04  0.10100000352E+00 0. -1.
</event>
<event>
 5   0  0.4063293E-05  0.1981645E+04  0.7818609E-02  0.8615251E-01
        1   -1    0    0  501    0  0.00000000000E+00  0.00000000000E+00  0.14022745739E+04  0.14022745740E+04  0.50400001928E-02 0.  1.
       -1   -1    0    0    0  501  0.00000000000E+00  0.00000000000E+00 -0.70009772283E+03  0.70009772285E+03  0.50400001928E-02 0. -1.
    10030    2    1    2    0    0  0.00000000000E+00  0.00000000000E+00  0.70217685112E+03  0.21023722968E+04  0.19816450096E+04 0.  0.
        1    1    3    3  502    0 -0.93055418675E+02 -0.51584901743E+03 -0.54095125320E+03  0.75325147069E+03  0.50400001928E-02 0. -1.
       -1    1    3    3    0  502  0.93055418675E+02  0.51584901743E+03  0.12431281043E+04  0.13491208261E+04  0.50400001928E-02 0.  1.
</event>
<event>
 5   0  0.4063293E-05  0.2183820E+04  0.7818609E-02  0.8525193E-01
        1   -1    0    0  501    0  0.00000000000E+00  0.00000000000E+00  0.16133121831E+04  0.16133121831E+04  0.50400001928E-02 0. -1.
       -1   -1    0    0    0  501  0.00000000000E+00  0.00000000000E+00 -0.73901821890E+03  0.73901821892E+03  0.50400001928E-02 0.  1.
    10030    2    1    2    0    0  0.00000000000E+00  0.00000000000E+00  0.87429396419E+03  0.23523304020E+04  0.21838196776E+04 0.  0.
        1    1    3    3  502    0 -0.10900701739E+04 -0.61793769997E+02  0.45221349530E+03  0.11817649933E+04  0.50400001928E-02 0.  1.
       -1    1    3    3    0  502  0.10900701739E+04  0.61793769997E+02  0.42208046889E+03  0.11705654088E+04  0.50400001928E-02 0. -1.
</event>
<event>
 5   0  0.4174030E-05  0.2154584E+04  0.7818609E-02  0.8537573E-01
        1   -1    0    0  501    0  0.00000000000E+00  0.00000000000E+00  0.64990662300E+03  0.64990662302E+03  0.50400001928E-02 0. -1.
       -1   -1    0    0    0  501  0.00000000000E+00  0.00000000000E+00 -0.17857299800E+04  0.17857299800E+04  0.50400001928E-02 0.  1.
    10030    2    1    2    0    0  0.00000000000E+00  0.00000000000E+00 -0.11358233570E+04  0.24356366030E+04  0.21545837101E+04 0.  0.
        2    1    3    3  502    0 -0.12600628379E+03  0.56237805446E+03  0.46098572170E+03  0.73800711061E+03  0.25500000920E-02 0. -1.
       -2    1    3    3    0  502  0.12600628379E+03 -0.56237805446E+03 -0.15968090787E+04  0.16976294924E+04  0.25500000920E-02 0.  1.
</event>
<event>
 5   0  0.9457742E-05  0.2155303E+04  0.7818609E-02  0.8537266E-01
       -2   -1    0    0    0  501  0.00000000000E+00  0.00000000000E+00  0.10047757267E+04  0.10047757267E+04  0.25500000920E-02 0. -1.
        2   -1    0    0  501    0  0.00000000000E+00  0.00000000000E+00 -0.11558127830E+04  0.11558127830E+04  0.25500000920E-02 0.  1.
    10030    2    1    2    0    0  0.00000000000E+00  0.00000000000E+00 -0.15103705626E+03  0.21605885098E+04  0.21553028827E+04 0.  0.
        1    1    3    3  502    0  0.74043620427E+03  0.13595286124E+02  0.70928198863E+03  0.10254323692E+04  0.50400001928E-02 0. -1.
       -1    1    3    3    0  502 -0.74043620427E+03 -0.13595286124E+02 -0.86031904490E+03  0.11351561406E+04  0.50400001928E-02 0.  1.
</event>
<event>
 5   0  0.3283125E-05  0.2206338E+04  0.7818609E-02  0.8515795E-01
        3   -1    0    0  501    0  0.00000000000E+00  0.00000000000E+00  0.10287379605E+04  0.10287379655E+04  0.10100000352E+00 0.  1.
       -3   -1    0    0    0  501  0.00000000000E+00  0.00000000000E+00 -0.11829851893E+04  0.11829851936E+04  0.10100000352E+00 0. -1.
    10030    2    1    2    0    0  0.00000000000E+00  0.00000000000E+00 -0.15424722880E+03  0.22117231591E+04  0.22063379444E+04 0.  0.
        2    1    3    3  502    0 -0.94905162429E+03  0.51345973536E+02  0.48428474604E+03  0.10667085402E+04  0.25500000920E-02 0.  1.
       -2    1    3    3    0  502  0.94905162429E+03 -0.51345973536E+02 -0.63853197484E+03  0.11450146189E+04  0.25500000920E-02 0. -1.
</event>
<event>
 5   0  0.9179618E-05  0.2170145E+04  0.7818609E-02  0.8530958E-01
        2   -1    0    0  501    0  0.00000000000E+00  0.00000000000E+00  0.20793727768E+04  0.20793727768E+04  0.25500000920E-02 0. -1.
       -2   -1    0    0    0  501  0.00000000000E+00  0.00000000000E+00 -0.56621995434E+03  0.56621995435E+03  0.25500000920E-02 0.  1.
    10030    2    1    2    0    0  0.00000000000E+00  0.00000000000E+00  0.15131528225E+04  0.26455927312E+04  0.21701450263E+04 0.  0.
        3    1    3    3  502    0 -0.23859000907E+03  0.42820906519E+03 -0.42354270352E+03  0.64782453477E+03  0.10100000352E+00 0.  1.
       -3    1    3    3    0  502  0.23859000907E+03 -0.42820906519E+03  0.19366955260E+04  0.19977681964E+04  0.10100000352E+00 0. -1.
</event>
<event>
 5   0  0.9254673E-05  0.2010228E+04  0.7818609E-02  0.8601854E-01
       -2   -1    0    0    0  501  0.00000000000E+00  0.00000000000E+00  0.55544267521E+03  0.55544267521E+03  0.25500000920E-02 0. -1.
        2   -1    0    0  501    0  0.00000000000E+00  0.00000000000E+00 -0.18188267782E+04  0.18188267782E+04  0.25500000920E-02 0.  1.
    10030    2    1    2    0    0  0.00000000000E+00  0.00000000000E+00 -0.12633841030E+04  0.23742694535E+04  0.20102278592E+04 0.  0.
        2    1    3    3  502    0  0.25168277209E+03  0.82159275017E+03 -0.15827162565E+02  0.85942385584E+03  0.25500000920E-02 0. -1.
       -2    1    3    3    0  502 -0.25168277209E+03 -0.82159275017E+03 -0.12475569405E+04  0.15148455976E+04  0.25500000920E-02 0.  1.
</event>
<event>
 5   0  0.9457742E-05  0.2209794E+04  0.7818609E-02  0.8514363E-01
        2   -1    0    0  501    0  0.00000000000E+00  0.00000000000E+00  0.18222349905E+04  0.18222349905E+04  0.25500000920E-02 0. -1.
       -2   -1    0    0    0  501  0.00000000000E+00  0.00000000000E+00 -0.66994527662E+03  0.66994527663E+03  0.25500000920E-02 0.  1.
    10030    2    1    2    0    0  0.00000000000E+00  0.00000000000E+00  0.11522897139E+04  0.24921802671E+04  0.22097943115E+04 0.  0.
        1    1    3    3  502    0  0.85917053151E+03  0.19200552207E+03  0.13291136566E+04  0.15942343726E+04  0.50400001928E-02 0. -1.
       -1    1    3    3    0  502 -0.85917053151E+03 -0.19200552207E+03 -0.17682394271E+03  0.89794589450E+03  0.50400001928E-02 0.  1.
</event>
<event>
 5   0  0.9179618E-05  0.2188183E+04  0.7818609E-02  0.8523363E-01
       -2   -1    0    0    0  501  0.00000000000E+00  0.00000000000E+00  0.58090864724E+03  0.58090864724E+03  0.25500000920E-02 0.  1.
        2   -1    0    0  501    0  0.00000000000E+00  0.00000000000E+00 -0.20606269883E+04  0.20606269883E+04  0.25500000920E-02 0. -1.
    10030    2    1    2    0    0  0.00000000000E+00  0.00000000000E+00 -0.14797183410E+04  0.26415356355E+04  0.21881828408E+04 0.  0.
        3    1    3    3  502    0 -0.10330022669E+03  0.41033497851E+02  0.57407509933E+03  0.58473661990E+03  0.10100000352E+00 0.  1.
       -3    1    3    3    0  502  0.10330022669E+03 -0.41033497851E+02 -0.20537934404E+04  0.20567990156E+04  0.10100000352E+00 0. -1.
</event>
<event>
 5   0  0.4063293E-05  0.2216311E+04  0.7818609E-02  0.8511670E-01
       -1   -1    0    0    0  501  0.00000000000E+00  0.00000000000E+00  0.10715791238E+04  0.10715791238E+04  0.50400001928E-02 0.  1.
        1   -1    0    0  501    0  0.00000000000E+00  0.00000000000E+00 -0.11459804349E+04  0.11459804349E+04  0.50400001928E-02 0. -1.
    10030    2    1    2    0    0  0.00000000000E+00  0.00000000000E+00 -0.74401311047E+02  0.22175595587E+04  0.22163110886E+04 0.  0.
        1    1    3    3  502    0  0.26532564354E+03  0.65417088033E+03 -0.89188993617E+03  0.11374554479E+04  0.50400001928E-02 0. -1.
       -1    1    3    3    0  502 -0.26532564354E+03 -0.65417088033E+03  0.81748862513E+03  0.10801041107E+04  0.50400001928E-02 0.  1.
</event>
<event>
 5   0  0.3283125E-05  0.2530785E+04  0.7818609E-02  0.8392100E-01
        3   -1    0    0  501    0  0.00000000000E+00  0.00000000000E+00  0.15801323290E+04  0.15801323322E+04  0.10100000352E+00 0.  1.
       -3   -1    0    0    0  501  0.00000000000E+00  0.00000000000E+00 -0.10133443598E+04  0.10133443648E+04  0.10100000352E+00 0. -1.
    10030    2    1    2    0    0  0.00000000000E+00  0.00000000000E+00  0.56678796921E+03  0.25934766970E+04  0.25307850118E+04 0.  0.
        2    1    3    3  502    0  0.25063530787E+03 -0.17969946840E+03  0.15410306439E+04  0.15715869056E+04  0.25500000920E-02 0.  1.
       -2    1    3    3    0  502 -0.25063530787E+03  0.17969946840E+03 -0.97424267470E+03  0.10218897914E+04  0.25500000920E-02 0. -1.
</event>
<event>
 5   0  0.3283125E-05  0.2196485E+04  0.7818609E-02  0.8519893E-01
       -3   -1    0    0    0  501  0.00000000000E+00  0.00000000000E+00  0.93287978207E+03  0.93287978754E+03  0.10100000352E+00 0.  1.
        3   -1    0    0  501    0  0.00000000000E+00  0.00000000000E+00 -0.12929172802E+04  0.12929172841E+04  0.10100000352E+00 0. -1.
    10030    2    1    2    0    0  0.00000000000E+00  0.00000000000E+00 -0.36003749811E+03  0.22257970717E+04  0.21964848290E+04 0.  0.
        3    1    3    3  502    0  0.28112474054E+02  0.28264343501E+03 -0.12550526337E+04  0.12867924254E+04  0.10100000352E+00 0. -1.
       -3    1    3    3    0  502 -0.28112474054E+02 -0.28264343501E+03  0.89501513559E+03  0.93900464625E+03  0.10100000352E+00 0.  1.
</event>
<event>
 5   0  0.9442578E-05  0.2232806E+04  0.7818609E-02  0.8504896E-01
       -2   -1    0    0    0  501  0.00000000000E+00  0.00000000000E+00  0.14646517890E+04  0.14646517890E+04  0.25500000920E-02 0.  1.
        2   -1    0    0  501    0  0.00000000000E+00  0.00000000000E+00 -0.85095688533E+03  0.85095688533E+03  0.25500000920E-02 0. -1.
    10030    2    1    2    0    0  0.00000000000E+00  0.00000000000E+00  0.61369490365E+03  0.23156086743E+04  0.22328058800E+04 0.  0.
        4    1    3    3  502    0 -0.41731110645E+03 -0.12516953440E+03 -0.75915142979E+03  0.87528765452E+03  0.12699999809E+01 0. -1.
       -4    1    3    3    0  502  0.41731110645E+03  0.12516953440E+03  0.13728463334E+04  0.14403210198E+04  0.12699999809E+01 0.  1.
</event>
<event>
 5   0  0.9254673E-05  0.2260255E+04  0.7818609E-02  0.8493759E-01
        2   -1    0    0  501    0  0.00000000000E+00  0.00000000000E+00  0.85159052113E+03  0.85159052113E+03  0.25500000920E-02 0. -1.
       -2   -1    0    0    0  501  0.00000000000E+00  0.00000000000E+00 -0.14997676221E+04  0.14997676221E+04  0.25500000920E-02 0.  1.
    10030    2    1    2    0    0  0.00000000000E+00  0.00000000000E+00 -0.64817710099E+03  0.23513581432E+04  0.22602547563E+04 0.  0.
        2    1    3    3  502    0  0.54937809987E+03  0.52229282434E+03 -0.11960752063E+04  0.14160515492E+04  0.25500000920E-02 0.  1.
       -2    1    3    3    0  502 -0.54937809987E+03 -0.52229282434E+03  0.54789810532E+03  0.93530659400E+03  0.25500000920E-02 0. -1.
</event>
<event>
 5   0  0.4174030E-05  0.2194419E+04  0.7818609E-02  0.8520755E-01
        1   -1    0    0  501    0  0.00000000000E+00  0.00000000000E+00  0.85674034873E+03  0.85674034875E+03  0.50400001928E-02 0. -1.
       -1   -1    0    0    0  501  0.00000000000E+00  0.00000000000E+00 -0.14051728465E+04  0.14051728465E+04  0.50400001928E-02 0.  1.
    10030    2    1    2    0    0  0.00000000000E+00  0.00000000000E+00 -0.54843249780E+03  0.22619131953E+04  0.21944186242E+04 0.  0.
        2    1    3    3  502    0  0.29586620300E+03  0.84126952183E+03 -0.93309282830E+03  0.12907104418E+04  0.25500000920E-02 0.  1.
       -2    1    3    3    0  502 -0.29586620300E+03 -0.84126952183E+03  0.38466033050E+03  0.97120275345E+03  0.25500000920E-02 0. -1.
</event>
<event>
 5   0  0.4174030E-05  0.2210084E+04  0.7818609E-02  0.8514242E-01
        1   -1    0    0  501    0  0.00000000000E+00  0.00000000000E+00  0.19246167836E+04  0.19246167836E+04  0.50400001928E-02 0. -1.
       -1   -1    0    0    0  501  0.00000000000E+00  0.00000000000E+00 -0.63447342293E+03  0.63447342295E+03  0.50400001928E-02 0.  1.
    10030    2    1    2    0    0  0.00000000000E+00  0.00000000000E+00  0.12901433607E+04  0.25590902066E+04  0.22100843410E+04 0.  0.
        2    1    3    3  502    0  0.58619988238E+03 -0.70289561134E+03  0.13620686695E+04  0.16410129807E+04  0.25500000920E-02 0. -1.
       -2    1    3    3    0  502 -0.58619988238E+03  0.70289561134E+03 -0.71925308803E+02  0.91807722583E+03  0.25500000920E-02 0.  1.
</event>
<event>
 5   0  0.9457742E-05  0.2193834E+04  0.7818609E-02  0.8520999E-01
        2   -1    0    0  501    0  0.00000000000E+00  0.00000000000E+00  0.98518872735E+03  0.98518872735E+03  0.25500000920E-02 0. -1.
       -2   -1    0    0    0  501  0.00000000000E+00  0.00000000000E+00 -0.12213162714E+04  0.12213162714E+04  0.25500000920E-02 0.  1.
    10030    2    1    2    0    0  0.00000000000E+00  0.00000000000E+00 -0.23612754403E+03  0.22065049987E+04  0.21938341078E+04 0.  0.
        1    1    3    3  502    0  0.64696391989E+01  0.92023055540E+03 -0.71847132920E+03  0.11675046819E+04  0.50400001928E-02 0.  1.
       -1    1    3    3    0  502 -0.64696391989E+01 -0.92023055540E+03  0.48234378516E+03  0.10390003169E+04  0.50400001928E-02 0. -1.
</event>
<event>
 5   0  0.4063293E-05  0.2129396E+04  0.7818609E-02  0.8548404E-01
        1   -1    0    0  501    0  0.00000000000E+00  0.00000000000E+00  0.13204151139E+04  0.13204151139E+04  0.50400001928E-02 0.  1.
       -1   -1    0    0    0  501  0.00000000000E+00  0.00000000000E+00 -0.85850410116E+03  0.85850410118E+03  0.50400001928E-02 0. -1.
    10030    2    1    2    0    0  0.00000000000E+00  0.00000000000E+00  0.46191101271E+03  0.21789192151E+04  0.21293959618E+04 0.  0.
        1    1    3    3  502    0  0.10201942691E+04  0.30147531158E+03  0.18637530874E+03  0.10800090120E+04  0.50400001928E-02 0.  1.
       -1    1    3    3    0  502 -0.10201942691E+04 -0.30147531158E+03  0.27553570398E+03  0.10989102031E+04  0.50400001928E-02 0. -1.
</event>
<event>
 5   0  0.4174075E-05  0.1885067E+04  0.7818609E-02  0.8662325E-01
       -1   -1    0    0    0  501  0.00000000000E+00  0.00000000000E+00  0.10490373953E+04  0.10490373953E+04  0.50400001928E-02 0. -1.
        1   -1    0    0  501    0  0.00000000000E+00  0.00000000000E+00 -0.84684272132E+03  0.84684272134E+03  0.50400001928E-02 0.  1.
    10030    2    1    2    0    0  0.00000000000E+00  0.00000000000E+00  0.20219467399E+03  0.18958801167E+04  0.18850673013E+04 0.  0.
        5    1    3    3  502    0  0.16332268996E+03 -0.34388342113E+03  0.96825965416E+03  0.10404224893E+04  0.46999998093E+01 0. -1.
       -5    1    3    3    0  502 -0.16332268996E+03  0.34388342113E+03 -0.76606498016E+03  0.85545762736E+03  0.46999998093E+01 0.  1.
</event>
<event>
 5   0  0.4063293E-05  0.2197343E+04  0.7818609E-02  0.8519535E-01
        1   -1    0    0  501    0  0.00000000000E+00  0.00000000000E+00  0.10190438947E+04  0.10190438947E+04  0.50400001928E-02 0. -1.
       -1   -1    0    0    0  501  0.00000000000E+00  0.00000000000E+00 -0.11845212616E+04  0.11845212617E+04  0.50400001928E-02 0.  1.
    10030    2    1    2    0    0  0.00000000000E+00  0.00000000000E+00 -0.16547736693E+03  0.22035651564E+04  0.21973430864E+04 0.  0.
        1    1    3    3  502    0 -0.91734452481E+03  0.23785380249E+03  0.47469838577E+03  0.10599216792E+04  0.50400001928E-02 0. -1.
       -1    1    3    3    0  502  0.91734452481E+03 -0.23785380249E+03 -0.64017575269E+03  0.11436434772E+04  0.50400001928E-02 0.  1.
</event>
<event>
 5   0  0.4188865E-05  0.2151919E+04  0.7818609E-02  0.8538711E-01
       -1   -1    0    0    0  501  0.00000000000E+00  0.00000000000E+00  0.51575579223E+03  0.51575579225E+03  0.50400001928E-02 0. -1.
        1   -1    0    0  501    0  0.00000000000E+00  0.00000000000E+00 -0.22446453385E+04  0.22446453385E+04  0.50400001928E-02 0.  1.
    10030    2    1    2    0    0  0.00000000000E+00  0.00000000000E+00 -0.17288895463E+04  0.27604011308E+04  0.21519189900E+04 0.  0.
        3    1    3    3  502    0 -0.38161662601E+03 -0.97701604301E+03 -0.55685653179E+03  0.11875524429E+04  0.10100000352E+00 0.  1.
       -3    1    3    3    0  502  0.38161662601E+03  0.97701604301E+03 -0.11720330145E+04  0.15728486878E+04  0.10100000352E+00 0. -1.
</event>
<event>
 5   0  0.9179618E-05  0.2177921E+04  0.7818609E-02  0.8527674E-01
       -2   -1    0    0    0  501  0.00000000000E+00  0.00000000000E+00  0.67362041833E+03  0.67362041833E+03  0.25500000920E-02 0. -1.
        2   -1    0    0  501    0  0.00000000000E+00  0.00000000000E+00 -0.17603903520E+04  0.17603903521E+04  0.25500000920E-02 0.  1.
    10030    2    1    2    0    0  0.00000000000E+00  0.00000000000E+00 -0.10867699337E+04  0.24340107704E+04  0.21779209218E+04 0.  0.
        3    1    3    3  502    0  0.25552468841E+03  0.51905332955E+03 -0.15744290354E+04  0.16773598370E+04  0.10100000352E+00 0.  1.
       -3    1    3    3    0  502 -0.25552468841E+03 -0.51905332955E+03  0.48765910165E+03  0.75665093334E+03  0.10100000352E+00 0. -1.
</event>
<event>
 5   0  0.9457742E-05  0.2071116E+04  0.7818609E-02  0.8574075E-01
        2   -1    0    0  501    0  0.00000000000E+00  0.00000000000E+00  0.12049663550E+04  0.12049663550E+04  0.25500000920E-02 0.  1.
       -2   -1    0    0    0  501  0.00000000000E+00  0.00000000000E+00 -0.88996717421E+03  0.88996717421E+03  0.25500000920E-02 0. -1.
    10030    2    1    2    0    0  0.00000000000E+00  0.00000000000E+00  0.31499918084E+03  0.20949335293E+04  0.20711161262E+04 0.  0.
        1    1    3    3  502    0 -0.67810113170E+03 -0.27504775239E+03  0.89866607410E+03  0.11589103174E+04  0.50400001928E-02 0.  1.
       -1    1    3    3    0  502  0.67810113170E+03  0.27504775239E+03 -0.58366689326E+03  0.93602321190E+03  0.50400001928E-02 0. -1.
</event>
<event>
 5   0  0.3283125E-05  0.2187505E+04  0.7818609E-02  0.8523647E-01
        3   -1    0    0  501    0  0.00000000000E+00  0.00000000000E+00  0.17726912695E+04  0.17726912723E+04  0.10100000352E+00 0. -1.
       -3   -1    0    0    0  501  0.00000000000E+00  0.00000000000E+00 -0.67484646114E+03  0.67484646870E+03  0.10100000352E+00 0.  1.
    10030    2    1    2    0    0  0.00000000000E+00  0.00000000000E+00  0.10978448083E+04  0.24475377410E+04  0.21875049190E+04 0.  0.
        4    1    3    3  502    0 -0.11811527644E+03  0.53051484631E+02  0.17640848244E+04  0.17688308452E+04  0.12699999809E+01 0. -1.
       -4    1    3    3    0  502  0.11811527644E+03 -0.53051484631E+02 -0.66624001604E+03  0.67870689581E+03  0.12699999809E+01 0.  1.
</event>
<event>
 5   0  0.9442578E-05  0.2215517E+04  0.7818609E-02  0.8511997E-01
        2   -1    0    0  501    0  0.00000000000E+00  0.00000000000E+00  0.20918100800E+04  0.20918100800E+04  0.25500000920E-02 0.  1.
       -2   -1    0    0    0  501  0.00000000000E+00  0.00000000000E+00 -0.58663509564E+03  0.58663509564E+03  0.25500000920E-02 0. -1.
    10030    2    1    2    0    0  0.00000000000E+00  0.00000000000E+00  0.15051749844E+04  0.26784451757E+04  0.22155172817E+04 0.  0.
        4    1    3    3  502    0  0.45908984496E+03 -0.43562505385E+03 -0.34655496859E+03  0.72155015934E+03  0.12699999809E+01 0. -1.
       -4    1    3    3    0  502 -0.45908984496E+03  0.43562505385E+03  0.18517299530E+04  0.19568950163E+04  0.12699999809E+01 0.  1.
</event>
<event>
 5   0  0.4174030E-05  0.2218214E+04  0.7818609E-02  0.8510885E-01
        1   -1    0    0  501    0  0.00000000000E+00  0.00000000000E+00  0.13898948658E+04  0.13898948659E+04  0.50400001928E-02 0.  1.
       -1   -1    0    0    0  501  0.00000000000E+00  0.00000000000E+00 -0.88504445872E+03  0.88504445873E+03  0.50400001928E-02 0. -1.
    10030    2    1    2    0    0  0.00000000000E+00  0.00000000000E+00  0.50485040713E+03  0.22749393246E+04  0.22182143713E+04 0.  0.
        2    1    3    3  502    0 -0.87496491498E+03  0.68153047166E+03  0.26108889243E+03  0.11393922924E+04  0.25500000920E-02 0. -1.
       -2    1    3    3    0  502  0.87496491498E+03 -0.68153047166E+03  0.24376151470E+03  0.11355470322E+04  0.25500000920E-02 0.  1.
</event>
<event>
 5   0  0.9938176E-05  0.2208656E+04  0.7818609E-02  0.8514834E-01
        2   -1    0    0  501    0  0.00000000000E+00  0.00000000000E+00  0.18207559267E+04  0.18207559267E+04  0.25500000920E-02 0. -1.
       -2   -1    0    0    0  501  0.00000000000E+00  0.00000000000E+00 -0.66979876950E+03  0.66979876950E+03  0.25500000920E-02 0.  1.
    10030    2    1    2    0    0  0.00000000000E+00  0.00000000000E+00  0.11509571572E+04  0.24905546962E+04  0.22086557715E+04 0.  0.
        5    1    3    3  502    0  0.17628480326E+03  0.88382022663E+03 -0.14418098556E+03  0.91270190723E+03  0.46999998093E+01 0.  1.
       -5    1    3    3    0  502 -0.17628480326E+03 -0.88382022663E+03  0.12951381428E+04  0.15778527890E+04  0.46999998093E+01 0. -1.
</event>
<event>
 5   0  0.9938176E-05  0.2180588E+04  0.7818609E-02  0.8526552E-01
       -2   -1    0    0    0  501  0.00000000000E+00  0.00000000000E+00  0.90851564799E+03  0.90851564799E+03  0.25500000920E-02 0. -1.
        2   -1    0    0  501    0  0.00000000000E+00  0.00000000000E+00 -0.13084426488E+04  0.13084426488E+04  0.25500000920E-02 0.  1.
    10030    2    1    2    0    0  0.00000000000E+00  0.00000000000E+00 -0.39992700080E+03  0.22169582968E+04  0.21805876464E+04 0.  0.
        5    1    3    3  502    0  0.86056634988E+03 -0.16758743634E+03  0.45896589976E+03  0.98961193329E+03  0.46999998093E+01 0. -1.
       -5    1    3    3    0  502 -0.86056634988E+03  0.16758743634E+03 -0.85889290056E+03  0.12273463635E+04  0.46999998093E+01 0.  1.
</event>
<event>
 5   0  0.9179618E-05  0.2182104E+04  0.7818609E-02  0.8525914E-01
       -2   -1    0    0    0  501  0.00000000000E+00  0.00000000000E+00  0.11634461661E+04  0.11634461661E+04  0.25500000920E-02 0. -1.
        2   -1    0    0  501    0  0.00000000000E+00  0.00000000000E+00 -0.10231629128E+04  0.10231629128E+04  0.25500000920E-02 0.  1.
    10030    2    1    2    0    0  0.00000000000E+00  0.00000000000E+00  0.14028325333E+03  0.21866090789E+04  0.21821044596E+04 0.  0.
        3    1    3    3  502    0 -0.46855957875E+03 -0.58473806207E+03  0.86482874096E+03  0.11442881811E+04  0.10100000352E+00 0. -1.
       -3    1    3    3    0  502  0.46855957875E+03  0.58473806207E+03 -0.72454548763E+03  0.10423208978E+04  0.10100000352E+00 0.  1.
</event>
<event>
 5   0  0.9938176E-05  0.2244751E+04  0.7818609E-02  0.8500029E-01
       -2   -1    0    0    0  501  0.00000000000E+00  0.00000000000E+00  0.59470887640E+03  0.59470887640E+03  0.25500000920E-02 0.  1.
        2   -1    0    0  501    0  0.00000000000E+00  0.00000000000E+00 -0.21182248288E+04  0.21182248288E+04  0.25500000920E-02 0. -1.
    10030    2    1    2    0    0  0.00000000000E+00  0.00000000000E+00 -0.15235159524E+04  0.27129337052E+04  0.22447513073E+04 0.  0.
        5    1    3    3  502    0  0.13684068646E+03 -0.96641033897E+03 -0.14314295282E+04  0.17325377055E+04  0.46999998093E+01 0. -1.
       -5    1    3    3    0  502 -0.13684068646E+03  0.96641033897E+03 -0.92086424212E+02  0.98039599972E+03  0.46999998093E+01 0.  1.
</event>
<event>
 5   0  0.9254673E-05  0.1935750E+04  0.7818609E-02  0.8637263E-01
        2   -1    0    0  501    0  0.00000000000E+00  0.00000000000E+00  0.14824433077E+04  0.14824433077E+04  0.25500000920E-02 0. -1.
       -2   -1    0    0    0  501  0.00000000000E+00  0.00000000000E+00 -0.63191767217E+03  0.63191767218E+03  0.25500000920E-02 0.  1.
    10030    2    1    2    0    0  0.00000000000E+00  0.00000000000E+00  0.85052563550E+03  0.21143609798E+04  0.19357501121E+04 0.  0.
        2    1    3    3  502    0 -0.91109440694E+03  0.31499385064E+03  0.51965399651E+03  0.10951504099E+04  0.25500000920E-02 0. -1.
       -2    1    3    3    0  502  0.91109440694E+03 -0.31499385064E+03  0.33087163898E+03  0.10192105699E+04  0.25500000920E-02 0.  1.
</event>
<event>
 5   0  0.9938176E-05  0.2279062E+04  0.7818609E-02  0.8486223E-01
       -2   -1    0    0    0  501  0.00000000000E+00  0.00000000000E+00  0.10735500752E+04  0.10735500752E+04  0.25500000920E-02 0. -1.
        2   -1    0    0  501    0  0.00000000000E+00  0.00000000000E+00 -0.12095666760E+04  0.12095666760E+04  0.25500000920E-02 0.  1.
    10030    2    1    2    0    0  0.00000000000E+00  0.00000000000E+00 -0.13601660082E+03  0.22831167512E+04  0.22790615578E+04 0.  0.
        5    1    3    3  502    0 -0.54055382125E+03  0.89380450328E+02 -0.10689462831E+04  0.12011892210E+04  0.46999998093E+01 0.  1.
       -5    1    3    3    0  502  0.54055382125E+03 -0.89380450328E+02  0.93292968227E+03  0.10819275302E+04  0.46999998093E+01 0. -1.
</event>
<event>
 5   0  0.9254673E-05  0.2206517E+04  0.7818609E-02  0.8515721E-01
       -2   -1    0    0    0  501  0.00000000000E+00  0.00000000000E+00  0.73125284766E+03  0.73125284766E+03  0.25500000920E-02 0. -1.
        2   -1    0    0  501    0  0.00000000000E+00  0.00000000000E+00 -0.16645116352E+04  0.16645116352E+04  0.25500000920E-02 0.  1.
    10030    2    1    2    0    0  0.00000000000E+00  0.00000000000E+00 -0.93325878753E+03  0.23957644828E+04  0.22065165970E+04 0.  0.
        2    1    3    3  502    0  0.26510451200E+03  0.70637843894E+03  0.40734817932E+03  0.85742838796E+03  0.25500000920E-02 0. -1.
       -2    1    3    3    0  502 -0.26510451200E+03 -0.70637843894E+03 -0.13406069668E+04  0.15383360949E+04  0.25500000920E-02 0.  1.
</event>
<event>
 5   0  0.9442578E-05  0.2203129E+04  0.7818609E-02  0.8517127E-01
       -2   -1    0    0    0  501  0.00000000000E+00  0.00000000000E+00  0.11854074359E+04  0.11854074359E+04  0.25500000920E-02 0. -1.
        2   -1    0    0  501    0  0.00000000000E+00  0.00000000000E+00 -0.10236516024E+04  0.10236516024E+04  0.25500000920E-02 0.  1.
    10030    2    1    2    0    0  0.00000000000E+00  0.00000000000E+00  0.16175583353E+03  0.22090590384E+04  0.22031288853E+04 0.  0.
        4    1    3    3  502    0  0.26241404840E+03  0.83815842555E+03 -0.58579665050E+03  0.10557130329E+04  0.12699999809E+01 0.  1.
       -4    1    3    3    0  502 -0.26241404840E+03 -0.83815842555E+03  0.74755248402E+03  0.11533460055E+04  0.12699999809E+01 0. -1.
</event>
<event>
 5   0  0.9457742E-05  0.2240728E+04  0.7818609E-02  0.8501665E-01
        2   -1    0    0  501    0  0.00000000000E+00  0.00000000000E+00  0.69716799568E+03  0.69716799569E+03  0.25500000920E-02 0. -1.
       -2   -1    0    0    0  501  0.00000000000E+00  0.00000000000E+00 -0.18004497552E+04  0.18004497552E+04  0.25500000920E-02 0.  1.
    10030    2    1    2    0    0  0.00000000000E+00  0.00000000000E+00 -0.11032817595E+04  0.24976177509E+04  0.22407284058E+04 0.  0.
        1    1    3    3  502    0 -0.24135045111E+03 -0.33756879564E+03 -0.17116292378E+04  0.17612147455E+04  0.50400001928E-02 0.  1.
       -1    1    3    3    0  502  0.24135045111E+03  0.33756879564E+03  0.60834747826E+03  0.73640300541E+03  0.50400001928E-02 0. -1.
</event>
<event>
 5   0  0.4063293E-05  0.2191238E+04  0.7818609E-02  0.8522084E-01
       -1   -1    0    0    0  501  0.00000000000E+00  0.00000000000E+00  0.32023682965E+04  0.32023682965E+04  0.50400001928E-02 0.  1.
        1   -1    0    0  501    0  0.00000000000E+00  0.00000000000E+00 -0.37484163224E+03  0.37484163228E+03  0.50400001928E-02 0. -1.
    10030    2    1    2    0    0  0.00000000000E+00  0.00000000000E+00  0.28275266642E+04  0.35772099288E+04  0.21912379692E+04 0.  0.
        1    1    3    3  502    0 -0.98664033065E+03 -0.41575091988E+03  0.17933798270E+04  0.20886644473E+04  0.50400001928E-02 0.  1.
       -1    1    3    3    0  502  0.98664033065E+03  0.41575091988E+03  0.10341468373E+04  0.14885454815E+04  0.50400001928E-02 0. -1.
</event>
<event>
 5   0  0.4174075E-05  0.2187490E+04  0.7818609E-02  0.8523653E-01
        1   -1    0    0  501    0  0.00000000000E+00  0.00000000000E+00  0.17842891970E+04  0.17842891971E+04  0.50400001928E-02 0. -1.
       -1   -1    0    0    0  501  0.00000000000E+00  0.00000000000E+00 -0.67045104094E+03  0.67045104096E+03  0.50400001928E-02 0.  1.
    10030    2    1    2    0    0  0.00000000000E+00  0.00000000000E+00  0.11138381561E+04  0.24547402380E+04  0.21874903881E+04 0.  0.
        5    1    3    3  502    0  0.46705216869E+03 -0.51795982498E+03 -0.38853079132E+03  0.79837232816E+03  0.46999998093E+01 0.  1.
       -5    1    3    3    0  502 -0.46705216869E+03  0.51795982498E+03  0.15023689474E+04  0.16563679098E+04  0.46999998093E+01 0. -1.
</event>
<event>
 5   0  0.4174030E-05  0.2258783E+04  0.7818609E-02  0.8494352E-01
       -1   -1    0    0    0  501  0.00000000000E+00  0.00000000000E+00  0.10367138927E+04  0.10367138927E+04  0.50400001928E-02 0. -1.
        1   -1    0    0  501    0  0.00000000000E+00  0.00000000000E+00 -0.12303543097E+04  0.12303543097E+04  0.50400001928E-02 0.  1.
    10030    2    1    2    0    0  0.00000000000E+00  0.00000000000E+00 -0.19364041698E+03  0.22670682024E+04  0.22587832174E+04 0.  0.
        2    1    3    3  502    0  0.94067130991E+03 -0.15647672886E+03 -0.70416612169E+03  0.11854102273E+04  0.25500000920E-02 0.  1.
       -2    1    3    3    0  502 -0.94067130991E+03  0.15647672886E+03  0.51052570470E+03  0.10816579751E+04  0.25500000920E-02 0. -1.
</event>
<event>
 5   0  0.4174075E-05  0.1595605E+04  0.7818609E-02  0.8823253E-01
       -1   -1    0    0    0  501  0.00000000000E+00  0.00000000000E+00  0.54999578141E+03  0.54999578143E+03  0.50400001928E-02 0. -1.
        1   -1    0    0  501    0  0.00000000000E+00  0.00000000000E+00 -0.11572607604E+04  0.11572607604E+04  0.50400001928E-02 0.  1.
    10030    2    1    2    0    0  0.00000000000E+00  0.00000000000E+00 -0.60726497899E+03  0.17072565418E+04  0.15956046330E+04 0.  0.
        5    1    3    3  502    0 -0.66283524900E+03 -0.31989551055E+03  0.25778534692E+02  0.73645796067E+03  0.46999998093E+01 0. -1.
       -5    1    3    3    0  502  0.66283524900E+03  0.31989551055E+03 -0.63304351368E+03  0.97079858117E+03  0.46999998093E+01 0.  1.
</event>
<event>
 5   0  0.9457742E-05  0.2141696E+04  0.7818609E-02  0.8543095E-01
        2   -1    0    0  501    0  0.00000000000E+00  0.00000000000E+00  0.93168964571E+03  0.93168964571E+03  0.25500000920E-02 0. -1.
       -2   -1    0    0    0  501  0.00000000000E+00  0.00000000000E+00 -0.12307909210E+04  0.12307909210E+04  0.25500000920E-02 0.  1.
    10030    2    1    2    0    0  0.00000000000E+00  0.00000000000E+00 -0.29910127530E+03  0.21624805667E+04  0.21416957367E+04 0.  0.
        1    1    3    3  502    0 -0.75446439136E+03  0.68732715198E+03  0.17775578376E+03  0.10359692323E+04  0.50400001928E-02 0. -1.
       -1    1    3    3    0  502  0.75446439136E+03 -0.68732715198E+03 -0.47685705906E+03  0.11265113344E+04  0.50400001928E-02 0.  1.
</event>
<event>
 5   0  0.9442578E-05  0.2202299E+04  0.7818609E-02  0.8517472E-01
        2   -1    0    0  501    0  0.00000000000E+00  0.00000000000E+00  0.14039541848E+04  0.14039541848E+04  0.25500000920E-02 0.  1.
       -2   -1    0    0    0  501  0.00000000000E+00  0.00000000000E+00 -0.86365359603E+03  0.86365359604E+03  0.25500000920E-02 0. -1.
    10030    2    1    2    0    0  0.00000000000E+00  0.00000000000E+00  0.54030058875E+03  0.22676077808E+04  0.22022988720E+04 0.  0.
        4    1    3    3  502    0  0.52102513502E+02  0.14351730270E+03 -0.85270078240E+03  0.86626331175E+03  0.12699999809E+01 0. -1.
       -4    1    3    3    0  502 -0.52102513502E+02 -0.14351730270E+03  0.13930013711E+04  0.14013444691E+04  0.12699999809E+01 0.  1.
</event>
<event>
 5   0  0.4133418E-05  0.1627133E+04  0.7818609E-02  0.8804050E-01
        1   -1    0    0  501    0  0.00000000000E+00  0.00000000000E+00  0.56850399927E+03  0.56850399929E+03  0.50400001928E-02 0.  1.
       -1   -1    0    0    0  501  0.00000000000E+00  0.00000000000E+00 -0.11642674577E+04  0.11642674577E+04  0.50400001928E-02 0. -1.
    10030    2    1    2    0    0  0.00000000000E+00  0.00000000000E+00 -0.59576345840E+03  0.17327714570E+04  0.16271333147E+04 0.  0.
        4    1    3    3  502    0 -0.41340184690E+03  0.61825156693E+03  0.53305555599E+02  0.74564011573E+03  0.12699999809E+01 0.  1.
       -4    1    3    3    0  502  0.41340184690E+03 -0.61825156693E+03 -0.64906901400E+03  0.98713134124E+03  0.12699999809E+01 0. -1.
</event>
<event>
 5   0  0.4174030E-05  0.2196301E+04  0.7818609E-02  0.8519969E-01
        1   -1    0    0  501    0  0.00000000000E+00  0.00000000000E+00  0.13479420202E+04  0.13479420202E+04  0.50400001928E-02 0. -1.
       -1   -1    0    0    0  501  0.00000000000E+00  0.00000000000E+00 -0.89464858875E+03  0.89464858877E+03  0.50400001928E-02 0.  1.
    10030    2    1    2    0    0  0.00000000000E+00  0.00000000000E+00  0.45329343141E+03  0.22425906089E+04  0.21963009139E+04 0.  0.
        2    1    3    3  502    0  0.32954411110E+03 -0.10362810578E+04  0.38303037654E+03  0.11529050356E+04  0.25500000920E-02 0.  1.
       -2    1    3    3    0  502 -0.32954411110E+03  0.10362810578E+04  0.70263054877E+02  0.10896855733E+04  0.25500000920E-02 0. -1.
</event>
<event>
 5   0  0.4174030E-05  0.2227756E+04  0.7818609E-02  0.8506963E-01
       -1   -1    0    0    0  501  0.00000000000E+00  0.00000000000E+00  0.45535318403E+03  0.45535318406E+03  0.50400001928E-02 0.  1.
        1   -1    0    0  501    0  0.00000000000E+00  0.00000000000E+00 -0.27247513457E+04  0.27247513457E+04  0.50400001928E-02 0. -1.
    10030    2    1    2    0    0  0.00000000000E+00  0.00000000000E+00 -0.22693981617E+04  0.31801045298E+04  0.22277560019E+04 0.  0.
        2    1    3    3  502    0 -0.24668377241E+03 -0.12566200995E+03 -0.26748570139E+04  0.26891455649E+04  0.25500000920E-02 0. -1.
       -2    1    3    3    0  502  0.24668377241E+03  0.12566200995E+03  0.40545885224E+03  0.49095896487E+03  0.25500000920E-02 0.  1.
</event>
<event>
 5   0  0.9254673E-05  0.2182731E+04  0.7818609E-02  0.8525650E-01
        2   -1    0    0  501    0  0.00000000000E+00  0.00000000000E+00  0.12841248444E+04  0.12841248445E+04  0.25500000920E-02 0. -1.
       -2   -1    0    0    0  501  0.00000000000E+00  0.00000000000E+00 -0.92754133192E+03  0.92754133192E+03  0.25500000920E-02 0.  1.
    10030    2    1    2    0    0  0.00000000000E+00  0.00000000000E+00  0.35658351253E+03  0.22116661764E+04  0.21827311961E+04 0.  0.
        2    1    3    3  502    0 -0.91449921003E+03 -0.10200066583E+03  0.77289792169E+03  0.12017005194E+04  0.25500000920E-02 0. -1.
       -2    1    3    3    0  502  0.91449921003E+03  0.10200066583E+03 -0.41631440915E+03  0.10099656570E+04  0.25500000920E-02 0.  1.
</event>
<event>
 5   0  0.4063293E-05  0.2007605E+04  0.7818609E-02  0.8603073E-01
       -1   -1    0    0    0  501  0.00000000000E+00  0.00000000000E+00  0.81866431966E+03  0.81866431967E+03  0.50400001928E-02 0. -1.
        1   -1    0    0  501    0  0.00000000000E+00  0.00000000000E+00 -0.12308091161E+04  0.12308091161E+04  0.50400001928E-02 0.  1.
    10030    2    1    2    0    0  0.00000000000E+00  0.00000000000E+00 -0.41214479643E+03  0.20494734358E+04  0.20076050485E+04 0.  0.
        1    1    3    3  502    0 -0.16286790183E+03 -0.46884112082E+03  0.68463830069E+03  0.84561667014E+03  0.50400001928E-02 0. -1.
       -1    1    3    3    0  502  0.16286790183E+03  0.46884112082E+03 -0.10967830971E+04  0.12038567656E+04  0.50400001928E-02 0.  1.
</event>
<event>
 5   0  0.4133418E-05  0.2202548E+04  0.7818609E-02  0.8517368E-01
        1   -1    0    0  501    0  0.00000000000E+00  0.00000000000E+00  0.14847930140E+04  0.14847930140E+04  0.50400001928E-02 0. -1.
       -1   -1    0    0    0  501  0.00000000000E+00  0.00000000000E+00 -0.81681743232E+03  0.81681743233E+03  0.50400001928E-02 0.  1.
    10030    2    1    2    0    0  0.00000000000E+00  0.00000000000E+00  0.66797558170E+03  0.23016104464E+04  0.22025483579E+04 0.  0.
        4    1    3    3  502    0  0.60611534111E+03  0.68818770112E+03  0.97118770855E+03  0.13357339918E+04  0.12699999809E+01 0.  1.
       -4    1    3    3    0  502 -0.60611534111E+03 -0.68818770112E+03 -0.30321212685E+03  0.96587645456E+03  0.12699999809E+01 0. -1.
</event>
<event>
 5   0  0.4188865E-05  0.2193413E+04  0.7818609E-02  0.8521175E-01
        1   -1    0    0  501    0  0.00000000000E+00  0.00000000000E+00  0.12202414790E+04  0.12202414790E+04  0.50400001928E-02 0. -1.
       -1   -1    0    0    0  501  0.00000000000E+00  0.00000000000E+00 -0.98567828456E+03  0.98567828457E+03  0.50400001928E-02 0.  1.
    10030    2    1    2    0    0  0.00000000000E+00  0.00000000000E+00  0.23456319444E+03  0.22059197636E+04  0.21934133471E+04 0.  0.
        3    1    3    3  502    0 -0.67218447250E+03  0.25315170933E+03 -0.71620663861E+03  0.10143321509E+04  0.10100000352E+00 0.  1.
       -3    1    3    3    0  502  0.67218447250E+03 -0.25315170933E+03  0.95076983305E+03  0.11915876127E+04  0.10100000352E+00 0. -1.
</event>
<event>
 5   0  0.4133418E-05  0.2213744E+04  0.7818609E-02  0.8512729E-01
        1   -1    0    0  501    0  0.00000000000E+00  0.00000000000E+00  0.13373203369E+04  0.13373203369E+04  0.50400001928E-02 0.  1.
       -1   -1    0    0    0  501  0.00000000000E+00  0.00000000000E+00 -0.91613476249E+03  0.91613476250E+03  0.50400001928E-02 0. -1.
    10030    2    1    2    0    0  0.00000000000E+00  0.00000000000E+00  0.42118557444E+03  0.22534550994E+04  0.22137440225E+04 0.  0.
        4    1    3    3  502    0 -0.66405477436E+03 -0.19563029939E+03 -0.66856903586E+03  0.96240642454E+03  0.12699999809E+01 0. -1.
       -4    1    3    3    0  502  0.66405477436E+03  0.19563029939E+03  0.10897546103E+04  0.12910486749E+04  0.12699999809E+01 0.  1.
</event>
<event>
 5   0  0.9442578E-05  0.2205762E+04  0.7818609E-02  0.8516034E-01
        2   -1    0    0  501    0  0.00000000000E+00  0.00000000000E+00  0.13606870368E+04  0.13606870368E+04  0.25500000920E-02 0.  1.
       -2   -1    0    0    0  501  0.00000000000E+00  0.00000000000E+00 -0.89392082953E+03  0.89392082953E+03  0.25500000920E-02 0. -1.
    10030    2    1    2    0    0  0.00000000000E+00  0.00000000000E+00  0.46676620727E+03  0.22546078663E+04  0.22057619860E+04 0.  0.
        4    1    3    3  502    0 -0.10428076099E+04 -0.32671118647E+03  0.38553153135E+03  0.11588028672E+04  0.12699999809E+01 0. -1.
       -4    1    3    3    0  502  0.10428076099E+04  0.32671118647E+03  0.81234675923E+02  0.10958049991E+04  0.12699999809E+01 0.  1.
</event>
<event>
 5   0  0.9254673E-05  0.2209079E+04  0.7818609E-02  0.8514659E-01
       -2   -1    0    0    0  501  0.00000000000E+00  0.00000000000E+00  0.51729870832E+03  0.51729870832E+03  0.25500000920E-02 0.  1.
        2   -1    0    0  501    0  0.00000000000E+00  0.00000000000E+00 -0.23584193618E+04  0.23584193618E+04  0.25500000920E-02 0. -1.
    10030    2    1    2    0    0  0.00000000000E+00  0.00000000000E+00 -0.18411206535E+04  0.28757180701E+04  0.22090788031E+04 0.  0.
        2    1    3    3  502    0 -0.46193416816E+03  0.92656887532E+03 -0.41959903341E+03  0.11171286431E+04  0.25500000920E-02 0.  1.
       -2    1    3    3    0  502  0.46193416816E+03 -0.92656887532E+03 -0.14215216200E+04  0.17585894270E+04  0.25500000920E-02 0. -1.
</event>
<event>
 5   0  0.9938176E-05  0.2218774E+04  0.7818609E-02  0.8510654E-01
        2   -1    0    0  501    0  0.00000000000E+00  0.00000000000E+00  0.20166877661E+04  0.20166877661E+04  0.25500000920E-02 0.  1.
       -2   -1    0    0    0  501  0.00000000000E+00  0.00000000000E+00 -0.61027776442E+03  0.61027776443E+03  0.25500000920E-02 0. -1.
    10030    2    1    2    0    0  0.00000000000E+00  0.00000000000E+00  0.14064100017E+04  0.26269655305E+04  0.22187741674E+04 0.  0.
        5    1    3    3  502    0  0.32882815606E+03 -0.82901082495E+03  0.14843846570E+04  0.17317063273E+04  0.46999998093E+01 0. -1.
       -5    1    3    3    0  502 -0.32882815606E+03  0.82901082495E+03 -0.77974655309E+02  0.89525920323E+03  0.46999998093E+01 0.  1.
</event>
<event>
 5   0  0.9179618E-05  0.2209677E+04  0.7818609E-02  0.8514411E-01
        2   -1    0    0  501    0  0.00000000000E+00  0.00000000000E+00  0.12500362965E+04  0.12500362965E+04  0.25500000920E-02 0. -1.
       -2   -1    0    0    0  501  0.00000000000E+00  0.00000000000E+00 -0.97650630400E+03  0.97650630400E+03  0.25500000920E-02 0.  1.
    10030    2    1    2    0    0  0.00000000000E+00  0.00000000000E+00  0.27352999246E+03  0.22265426005E+04  0.22096771925E+04 0.  0.
        3    1    3    3  502    0 -0.98006103614E+02  0.23691316516E+03  0.12196466548E+04  0.12463029394E+04  0.10100000352E+00 0. -1.
       -3    1    3    3    0  502  0.98006103614E+02 -0.23691316516E+03 -0.94611666230E+03  0.98023966103E+03  0.10100000352E+00 0.  1.
</event>
<event>
 5   0  0.9457742E-05  0.1921164E+04  0.7818609E-02  0.8644393E-01
       -2   -1    0    0    0  501  0.00000000000E+00  0.00000000000E+00  0.57963041579E+03  0.57963041579E+03  0.25500000920E-02 0.  1.
        2   -1    0    0  501    0  0.00000000000E+00  0.00000000000E+00 -0.15919078505E+04  0.15919078505E+04  0.25500000920E-02 0. -1.
    10030    2    1    2    0    0  0.00000000000E+00  0.00000000000E+00 -0.10122774347E+04  0.21715382663E+04  0.19211644482E+04 0.  0.
        1    1    3    3  502    0  0.63851157322E+03 -0.13819754687E+03  0.28985548324E+03  0.71471098514E+03  0.50400001928E-02 0.  1.
       -1    1    3    3    0  502 -0.63851157322E+03  0.13819754687E+03 -0.13021329180E+04  0.14568272812E+04  0.50400001928E-02 0. -1.
</event>
<event>
 5   0  0.4188865E-05  0.2196158E+04  0.7818609E-02  0.8520029E-01
       -1   -1    0    0    0  501  0.00000000000E+00  0.00000000000E+00  0.66724886129E+03  0.66724886130E+03  0.50400001928E-02 0. -1.
        1   -1    0    0  501    0  0.00000000000E+00  0.00000000000E+00 -0.18070884617E+04  0.18070884617E+04  0.50400001928E-02 0.  1.
    10030    2    1    2    0    0  0.00000000000E+00  0.00000000000E+00 -0.11398396004E+04  0.24743373230E+04  0.21961582077E+04 0.  0.
        3    1    3    3  502    0  0.89422671123E+03 -0.66102491345E+02 -0.12840580312E+04  0.15661468603E+04  0.10100000352E+00 0.  1.
       -3    1    3    3    0  502 -0.89422671123E+03  0.66102491345E+02  0.14421843083E+03  0.90819046264E+03  0.10100000352E+00 0. -1.
</event>
<event>
 5   0  0.4188865E-05  0.2178502E+04  0.7818609E-02  0.8527430E-01
       -1   -1    0    0    0  501  0.00000000000E+00  0.00000000000E+00  0.10102763721E+04  0.10102763721E+04  0.50400001928E-02 0. -1.
        1   -1    0    0  501    0  0.00000000000E+00  0.00000000000E+00 -0.11743990235E+04  0.11743990235E+04  0.50400001928E-02 0.  1.
    10030    2    1    2    0    0  0.00000000000E+00  0.00000000000E+00 -0.16412265140E+03  0.21846753956E+04  0.21785018566E+04 0.  0.
        3    1    3    3  502    0  0.98315932807E+03  0.33902739596E+03  0.24277904190E+03  0.10679342269E+04  0.10100000352E+00 0. -1.
       -3    1    3    3    0  502 -0.98315932807E+03 -0.33902739596E+03 -0.40690169330E+03  0.11167411687E+04  0.10100000352E+00 0.  1.
</event>
<event>
 5   0  0.9938176E-05  0.2171911E+04  0.7818609E-02  0.8530211E-01
       -2   -1    0    0    0  501  0.00000000000E+00  0.00000000000E+00  0.75390161278E+03  0.75390161278E+03  0.25500000920E-02 0.  1.
        2   -1    0    0  501    0  0.00000000000E+00  0.00000000000E+00 -0.15642613654E+04  0.15642613654E+04  0.25500000920E-02 0. -1.
    10030    2    1    2    0    0  0.00000000000E+00  0.00000000000E+00 -0.81035975263E+03  0.23181629782E+04  0.21719108326E+04 0.  0.
        5    1    3    3  502    0  0.27282683995E+03  0.37207394177E+02  0.71601193646E+03  0.76714669909E+03  0.46999998093E+01 0.  1.
       -5    1    3    3    0  502 -0.27282683995E+03 -0.37207394177E+02 -0.15263716891E+04  0.15510162791E+04  0.46999998093E+01 0. -1.
</event>
<event>
 5   0  0.4133418E-05  0.1672165E+04  0.7818609E-02  0.8777401E-01
        1   -1    0    0  501    0  0.00000000000E+00  0.00000000000E+00  0.88534584998E+03  0.88534584999E+03  0.50400001928E-02 0.  1.
       -1   -1    0    0    0  501  0.00000000000E+00  0.00000000000E+00 -0.78956043886E+03  0.78956043887E+03  0.50400001928E-02 0. -1.
    10030    2    1    2    0    0  0.00000000000E+00  0.00000000000E+00  0.95785411124E+02  0.16749062889E+04  0.16721651328E+04 0.  0.
        4    1    3    3  502    0 -0.21963333887E+03 -0.80320275096E+03 -0.27456819045E+02  0.83314401667E+03  0.12699999809E+01 0. -1.
       -4    1    3    3    0  502  0.21963333887E+03  0.80320275096E+03  0.12324223017E+03  0.84176227220E+03  0.12699999809E+01 0.  1.
</event>
<event>
 5   0  0.9457742E-05  0.2195122E+04  0.7818609E-02  0.8520461E-01
        2   -1    0    0  501    0  0.00000000000E+00  0.00000000000E+00  0.98960862699E+03  0.98960862699E+03  0.25500000920E-02 0.  1.
       -2   -1    0    0    0  501  0.00000000000E+00  0.00000000000E+00 -0.12172894521E+04  0.12172894521E+04  0.25500000920E-02 0. -1.
    10030    2    1    2    0    0  0.00000000000E+00  0.00000000000E+00 -0.22768082513E+03  0.22068980791E+04  0.21951219951E+04 0.  0.
        1    1    3    3  502    0  0.21987977995E+03  0.10482471811E+04 -0.35485732158E+03  0.11283142244E+04  0.50400001928E-02 0.  1.
       -1    1    3    3    0  502 -0.21987977995E+03 -0.10482471811E+04  0.12717649645E+03  0.10785838547E+04  0.50400001928E-02 0. -1.
</event>
<event>
 5   0  0.9179618E-05  0.2195141E+04  0.7818609E-02  0.8520453E-01
       -2   -1    0    0    0  501  0.00000000000E+00  0.00000000000E+00  0.98039314831E+03  0.98039314831E+03  0.25500000920E-02 0.  1.
        2   -1    0    0  501    0  0.00000000000E+00  0.00000000000E+00 -0.12287527818E+04  0.12287527818E+04  0.25500000920E-02 0. -1.
    10030    2    1    2    0    0  0.00000000000E+00  0.00000000000E+00 -0.24835963352E+03  0.22091459301E+04  0.21951408231E+04 0.  0.
        3    1    3    3  502    0  0.19163512797E+03 -0.32979177635E+03 -0.11599077931E+04  0.12210129961E+04  0.10100000352E+00 0. -1.
       -3    1    3    3    0  502 -0.19163512797E+03  0.32979177635E+03  0.91154815953E+03  0.98813293406E+03  0.10100000352E+00 0.  1.
</event>
<event>
 5   0  0.4063293E-05  0.2242382E+04  0.7818609E-02  0.8500992E-01
        1   -1    0    0  501    0  0.00000000000E+00  0.00000000000E+00  0.17409045500E+04  0.17409045500E+04  0.50400001928E-02 0.  1.
       -1   -1    0    0    0  501  0.00000000000E+00  0.00000000000E+00 -0.72207844053E+03  0.72207844055E+03  0.50400001928E-02 0. -1.
    10030    2    1    2    0    0  0.00000000000E+00  0.00000000000E+00  0.10188261095E+04  0.24629829906E+04  0.22423823426E+04 0.  0.
        1    1    3    3  502    0 -0.27148779451E+03 -0.10438938995E+04  0.84554097412E+03  0.13705326099E+04  0.50400001928E-02 0.  1.
       -1    1    3    3    0  502  0.27148779451E+03  0.10438938995E+04  0.17328513537E+03  0.10924503806E+04  0.50400001928E-02 0. -1.
</event>
<event>
 5   0  0.9179618E-05  0.2165207E+04  0.7818609E-02  0.8533051E-01
        2   -1    0    0  501    0  0.00000000000E+00  0.00000000000E+00  0.99771782284E+03  0.99771782285E+03  0.25500000920E-02 0.  1.
       -2   -1    0    0    0  501  0.00000000000E+00  0.00000000000E+00 -0.11747115573E+04  0.11747115573E+04  0.25500000920E-02 0. -1.
    10030    2    1    2    0    0  0.00000000000E+00  0.00000000000E+00 -0.17699373449E+03  0.21724293802E+04  0.21652072949E+04 0.  0.
        3    1    3    3  502    0  0.71648533035E+03 -0.14696356671E+03 -0.88933280942E+03  0.11514609740E+04  0.10100000352E+00 0. -1.
       -3    1    3    3    0  502 -0.71648533035E+03  0.14696356671E+03  0.71233907493E+03  0.10209684062E+04  0.10100000352E+00 0.  1.
</event>
<event>
 5   0  0.9457742E-05  0.2076942E+04  0.7818609E-02  0.8571469E-01
        2   -1    0    0  501    0  0.00000000000E+00  0.00000000000E+00  0.26988121986E+04  0.26988121986E+04  0.25500000920E-02 0. -1.
       -2   -1    0    0    0  501  0.00000000000E+00  0.00000000000E+00 -0.39959128283E+03  0.39959128283E+03  0.25500000920E-02 0.  1.
    10030    2    1    2    0    0  0.00000000000E+00  0.00000000000E+00  0.22992209158E+04  0.30984034814E+04  0.20769418177E+04 0.  0.
        1    1    3    3  502    0 -0.87015514878E+02 -0.78489380473E+03  0.14355950864E+03  0.80264520000E+03  0.50400001928E-02 0.  1.
       -1    1    3    3    0  502  0.87015514878E+02  0.78489380473E+03  0.21556614071E+04  0.22957582814E+04  0.50400001928E-02 0. -1.
</event>
<event>
 5   0  0.4174030E-05  0.2156046E+04  0.7818609E-02  0.8536949E-01
        1   -1    0    0  501    0  0.00000000000E+00  0.00000000000E+00  0.25678581861E+04  0.25678581861E+04  0.50400001928E-02 0. -1.
       -1   -1    0    0    0  501  0.00000000000E+00  0.00000000000E+00 -0.45256923802E+03  0.45256923805E+03  0.50400001928E-02 0.  1.
    10030    2    1    2    0    0  0.00000000000E+00  0.00000000000E+00  0.21152889481E+04  0.30204274242E+04  0.21560460317E+04 0.  0.
        2    1    3    3  502    0 -0.20475097106E+03  0.10385311448E+04  0.13435940241E+04  0.17104720987E+04  0.25500000920E-02 0. -1.
       -2    1    3    3    0  502  0.20475097106E+03 -0.10385311448E+04  0.77169492401E+03  0.13099553255E+04  0.25500000920E-02 0.  1.
</event>
<event>
 5   0  0.9442578E-05  0.2226456E+04  0.7818609E-02  0.8507496E-01
        2   -1    0    0  501    0  0.00000000000E+00  0.00000000000E+00  0.75322613878E+03  0.75322613879E+03  0.25500000920E-02 0.  1.
       -2   -1    0    0    0  501  0.00000000000E+00  0.00000000000E+00 -0.16452920299E+04  0.16452920299E+04  0.25500000920E-02 0. -1.
    10030    2    1    2    0    0  0.00000000000E+00  0.00000000000E+00 -0.89206589113E+03  0.23985181687E+04  0.22264563439E+04 0.  0.
        4    1    3    3  502    0  0.88077832342E+03  0.46241314630E+03 -0.98432728985E+03  0.13994635398E+04  0.12699999809E+01 0. -1.
       -4    1    3    3    0  502 -0.88077832342E+03 -0.46241314630E+03  0.92261398722E+02  0.99905462887E+03  0.12699999809E+01 0.  1.
</event>
<event>
 5   0  0.9254673E-05  0.1740050E+04  0.7818609E-02  0.8738846E-01
       -2   -1    0    0    0  501  0.00000000000E+00  0.00000000000E+00  0.25269913463E+03  0.25269913464E+03  0.25500000920E-02 0. -1.
        2   -1    0    0  501    0  0.00000000000E+00  0.00000000000E+00 -0.29954345337E+04  0.29954345337E+04  0.25500000920E-02 0.  1.
    10030    2    1    2    0    0  0.00000000000E+00  0.00000000000E+00 -0.27427353991E+04  0.32481336684E+04  0.17400502459E+04 0.  0.
        2    1    3    3  502    0 -0.22011088921E+03 -0.34137372905E+03 -0.28075774699E+04  0.28368073738E+04  0.25500000920E-02 0.  1.
       -2    1    3    3    0  502  0.22011088921E+03  0.34137372905E+03  0.64842070833E+02  0.41132629455E+03  0.25500000920E-02 0. -1.
</event>
<event>
 5   0  0.4188865E-05  0.2166987E+04  0.7818609E-02  0.8532296E-01
       -1   -1    0    0    0  501  0.00000000000E+00  0.00000000000E+00  0.10774781323E+04  0.10774781323E+04  0.50400001928E-02 0.  1.
        1   -1    0    0  501    0  0.00000000000E+00  0.00000000000E+00 -0.10895419620E+04  0.10895419620E+04  0.50400001928E-02 0. -1.
    10030    2    1    2    0    0  0.00000000000E+00  0.00000000000E+00 -0.12063829676E+02  0.21670200943E+04  0.21669865143E+04 0.  0.
        3    1    3    3  502    0  0.10260454354E+03  0.10232301697E+03  0.10677444441E+04  0.10775323199E+04  0.10100000352E+00 0.  1.
       -3    1    3    3    0  502 -0.10260454354E+03 -0.10232301697E+03 -0.10798082738E+04  0.10894877744E+04  0.10100000352E+00 0. -1.
</event>
<event>
 5   0  0.4133418E-05  0.2195557E+04  0.7818609E-02  0.8520280E-01
        1   -1    0    0  501    0  0.00000000000E+00  0.00000000000E+00  0.84574161515E+03  0.84574161517E+03  0.50400001928E-02 0.  1.
       -1   -1    0    0    0  501  0.00000000000E+00  0.00000000000E+00 -0.14249239898E+04  0.14249239898E+04  0.50400001928E-02 0. -1.
    10030    2    1    2    0    0  0.00000000000E+00  0.00000000000E+00 -0.57918237461E+03  0.22706656049E+04  0.21955568921E+04 0.  0.
        4    1    3    3  502    0  0.41343347512E+02  0.36827521423E+03  0.77909298397E+03  0.86274179009E+03  0.12699999809E+01 0.  1.
       -4    1    3    3    0  502 -0.41343347512E+02 -0.36827521423E+03 -0.13582753586E+04  0.14079238148E+04  0.12699999809E+01 0. -1.
</event>
<event>
 5   0  0.4174075E-05  0.2127198E+04  0.7818609E-02  0.8549356E-01
       -1   -1    0    0    0  501  0.00000000000E+00  0.00000000000E+00  0.62167203155E+03  0.62167203157E+03  0.50400001928E-02 0.  1.
        1   -1    0    0  501    0  0.00000000000E+00  0.00000000000E+00 -0.18196784264E+04  0.18196784264E+04  0.50400001928E-02 0. -1.
    10030    2    1    2    0    0  0.00000000000E+00  0.00000000000E+00 -0.11980063949E+04  0.24413504580E+04  0.21271983304E+04 0.  0.
        5    1    3    3  502    0  0.55161442985E+03  0.87479734831E+02 -0.16378247400E+04  0.17304401614E+04  0.46999998093E+01 0. -1.
       -5    1    3    3    0  502 -0.55161442985E+03 -0.87479734831E+02  0.43981834508E+03  0.71091029665E+03  0.46999998093E+01 0.  1.
</event>
<event>
 5   0  0.4133418E-05  0.2134159E+04  0.7818609E-02  0.8546343E-01
        1   -1    0    0  501    0  0.00000000000E+00  0.00000000000E+00  0.13169538139E+04  0.13169538139E+04  0.50400001928E-02 0. -1.
       -1   -1    0    0    0  501  0.00000000000E+00  0.00000000000E+00 -0.86461587444E+03  0.86461587446E+03  0.50400001928E-02 0.  1.
    10030    2    1    2    0    0  0.00000000000E+00  0.00000000000E+00  0.45233793942E+03  0.21815696883E+04  0.21341594818E+04 0.  0.
        4    1    3    3  502    0  0.28390864586E+03 -0.16839534319E+03 -0.81111299785E+03  0.87570943754E+03  0.12699999809E+01 0.  1.
       -4    1    3    3    0  502 -0.28390864586E+03  0.16839534319E+03  0.12634509373E+04  0.13058602508E+04  0.12699999809E+01 0. -1.
</event>
<event>
 5   0  0.4063293E-05  0.2196397E+04  0.7818609E-02  0.8519929E-01
        1   -1    0    0  501    0  0.00000000000E+00  0.00000000000E+00  0.29333992642E+04  0.29333992643E+04  0.50400001928E-02 0.  1.
       -1   -1    0    0    0  501  0.00000000000E+00  0.00000000000E+00 -0.41114080806E+03  0.41114080809E+03  0.50400001928E-02 0. -1.
    10030    2    1    2    0    0  0.00000000000E+00  0.00000000000E+00  0.25222584562E+04  0.33445400723E+04  0.21963971808E+04 0.  0.
        1    1    3    3  502    0  0.10404973010E+04  0.44493958205E+02  0.73051241153E+03  0.12721095586E+04  0.50400001928E-02 0. -1.
       -1    1    3    3    0  502 -0.10404973010E+04 -0.44493958205E+02  0.17917460447E+04  0.20724305137E+04  0.50400001928E-02 0.  1.
</event>
<event>
 5   0  0.9938176E-05  0.2201035E+04  0.7818609E-02  0.8517997E-01
        2   -1    0    0  501    0  0.00000000000E+00  0.00000000000E+00  0.20330194629E+04  0.20330194629E+04  0.25500000920E-02 0. -1.
       -2   -1    0    0    0  501  0.00000000000E+00  0.00000000000E+00 -0.59573410832E+03  0.59573410833E+03  0.25500000920E-02 0.  1.
    10030    2    1    2    0    0  0.00000000000E+00  0.00000000000E+00  0.14372853546E+04  0.26287535712E+04  0.22010352446E+04 0.  0.
        5    1    3    3  502    0  0.10132960098E+04  0.15219881118E+03  0.23914843941E+03  0.10522106955E+04  0.46999998093E+01 0.  1.
       -5    1    3    3    0  502 -0.10132960098E+04 -0.15219881118E+03  0.11981369152E+04  0.15765428758E+04  0.46999998093E+01 0. -1.
</event>
<event>
 5   0  0.4133418E-05  0.2133416E+04  0.7818609E-02  0.8546665E-01
        1   -1    0    0  501    0  0.00000000000E+00  0.00000000000E+00  0.15653989704E+04  0.15653989704E+04  0.50400001928E-02 0. -1.
       -1   -1    0    0    0  501  0.00000000000E+00  0.00000000000E+00 -0.72688549256E+03  0.72688549258E+03  0.50400001928E-02 0.  1.
    10030    2    1    2    0    0  0.00000000000E+00  0.00000000000E+00  0.83851347784E+03  0.22922844630E+04  0.21334158542E+04 0.  0.
        4    1    3    3  502    0 -0.45487565678E+03  0.82745313496E+03  0.95247124151E+03  0.13411911245E+04  0.12699999809E+01 0. -1.
       -4    1    3    3    0  502  0.45487565678E+03 -0.82745313496E+03 -0.11395776368E+03  0.95109333847E+03  0.12699999809E+01 0.  1.
</event>
<event>
 5   0  0.3283125E-05  0.2155588E+04  0.7818609E-02  0.8537144E-01
       -4   -1    0    0    0  501  0.00000000000E+00  0.00000000000E+00  0.16083941864E+04  0.16083946878E+04  0.12699999809E+01 0. -1.
        4   -1    0    0  501    0  0.00000000000E+00  0.00000000000E+00 -0.72223441996E+03  0.72223553657E+03  0.12699999809E+01 0.  1.
    10030    2    1    2    0    0  0.00000000000E+00  0.00000000000E+00  0.88615976643E+03  0.23306302244E+04  0.21555876487E+04 0.  0.
        5    1    3    3  502    0 -0.14309683414E+03 -0.10078893010E+04  0.82580153633E+03  0.13108347777E+04  0.46999998093E+01 0. -1.
       -5    1    3    3    0  502  0.14309683414E+03  0.10078893010E+04  0.60358230107E+02  0.10197954466E+04  0.46999998093E+01 0.  1.
</event>
<event>
 5   0  0.9179618E-05  0.2202141E+04  0.7818609E-02  0.8517538E-01
        2   -1    0    0  501    0  0.00000000000E+00  0.00000000000E+00  0.24396154156E+04  0.24396154156E+04  0.25500000920E-02 0. -1.
       -2   -1    0    0    0  501  0.00000000000E+00  0.00000000000E+00 -0.49694550741E+03  0.49694550742E+03  0.25500000920E-02 0.  1.
    10030    2    1    2    0    0  0.00000000000E+00  0.00000000000E+00  0.19426699082E+04  0.29365609231E+04  0.22021407045E+04 0.  0.
        3    1    3    3  502    0  0.20833227305E+03  0.68450485077E+03  0.20873475381E+04  0.22065740372E+04  0.10100000352E+00 0. -1.
       -3    1    3    3    0  502 -0.20833227305E+03 -0.68450485077E+03 -0.14467762987E+03  0.72998688584E+03  0.10100000352E+00 0.  1.
</event>
<event>
 5   0  0.9179618E-05  0.2137943E+04  0.7818609E-02  0.8544711E-01
        2   -1    0    0  501    0  0.00000000000E+00  0.00000000000E+00  0.14962549519E+04  0.14962549519E+04  0.25500000920E-02 0. -1.
       -2   -1    0    0    0  501  0.00000000000E+00  0.00000000000E+00 -0.76370679028E+03  0.76370679028E+03  0.25500000920E-02 0.  1.
    10030    2    1    2    0    0  0.00000000000E+00  0.00000000000E+00  0.73254816165E+03  0.22599617422E+04  0.21379429990E+04 0.  0.
        3    1    3    3  502    0  0.23807170953E+02  0.75038309409E+03 -0.43811502650E+03  0.86924470429E+03  0.10100000352E+00 0.  1.
       -3    1    3    3    0  502 -0.23807170953E+02 -0.75038309409E+03  0.11706631881E+04  0.13907170379E+04  0.10100000352E+00 0. -1.
</event>
<event>
 5   0  0.4174075E-05  0.2193916E+04  0.7818609E-02  0.8520965E-01
        1   -1    0    0  501    0  0.00000000000E+00  0.00000000000E+00  0.70408470695E+03  0.70408470697E+03  0.50400001928E-02 0.  1.
       -1   -1    0    0    0  501  0.00000000000E+00  0.00000000000E+00 -0.17090509577E+04  0.17090509577E+04  0.50400001928E-02 0. -1.
    10030    2    1    2    0    0  0.00000000000E+00  0.00000000000E+00 -0.10049662508E+04  0.24131356647E+04  0.21939158076E+04 0.  0.
        5    1    3    3  502    0 -0.25015295416E+03  0.37951582364E+03  0.59561440446E+03  0.74925787929E+03  0.46999998093E+01 0.  1.
       -5    1    3    3    0  502  0.25015295416E+03 -0.37951582364E+03 -0.16005806552E+04  0.16638777854E+04  0.46999998093E+01 0. -1.
</event>
<event>
 5   0  0.9938176E-05  0.2201303E+04  0.7818609E-02  0.8517886E-01
        2   -1    0    0  501    0  0.00000000000E+00  0.00000000000E+00  0.95714966832E+03  0.95714966833E+03  0.25500000920E-02 0.  1.
       -2   -1    0    0    0  501  0.00000000000E+00  0.00000000000E+00 -0.12656681811E+04  0.12656681811E+04  0.25500000920E-02 0. -1.
    10030    2    1    2    0    0  0.00000000000E+00  0.00000000000E+00 -0.30851851274E+03  0.22228178494E+04  0.22013031411E+04 0.  0.
        5    1    3    3  502    0 -0.93725886864E+03  0.36946562345E+02  0.42720953127E+03  0.10307033079E+04  0.46999998093E+01 0.  1.
       -5    1    3    3    0  502  0.93725886864E+03 -0.36946562345E+02 -0.73572804401E+03  0.11921145415E+04  0.46999998093E+01 0. -1.
</event>
<event>
 5   0  0.9179618E-05  0.2156200E+04  0.7818609E-02  0.8536883E-01
       -2   -1    0    0    0  501  0.00000000000E+00  0.00000000000E+00  0.12242175996E+04  0.12242175996E+04  0.25500000920E-02 0. -1.
        2   -1    0    0  501    0  0.00000000000E+00  0.00000000000E+00 -0.94942240144E+03  0.94942240145E+03  0.25500000920E-02 0.  1.
    10030    2    1    2    0    0  0.00000000000E+00  0.00000000000E+00  0.27479519819E+03  0.21736400011E+04  0.21562000031E+04 0.  0.
        3    1    3    3  502    0  0.19965092996E+02  0.49197381063E+03  0.11042498125E+04  0.12090510717E+04  0.10100000352E+00 0. -1.
       -3    1    3    3    0  502 -0.19965092996E+02 -0.49197381063E+03 -0.82945461433E+03  0.96458892940E+03  0.10100000352E+00 0.  1.
</event>
<event>
 5   0  0.4188865E-05  0.2224065E+04  0.7818609E-02  0.8508478E-01
        1   -1    0    0  501    0  0.00000000000E+00  0.00000000000E+00  0.60853376359E+03  0.60853376361E+03  0.50400001928E-02 0.  1.
       -1   -1    0    0    0  501  0.00000000000E+00  0.00000000000E+00 -0.20321245366E+04  0.20321245367E+04  0.50400001928E-02 0. -1.
    10030    2    1    2    0    0  0.00000000000E+00  0.00000000000E+00 -0.14235907731E+04  0.26406583003E+04  0.22240651001E+04 0.  0.
        3    1    3    3  502    0 -0.45465384791E+02  0.10889911764E+04 -0.44991982609E+03  0.11791508570E+04  0.10100000352E+00 0.  1.
       -3    1    3    3    0  502  0.45465384791E+02 -0.10889911764E+04 -0.97367094696E+03  0.14615074432E+04  0.10100000352E+00 0. -1.
</event>
<event>
 5   0  0.4188865E-05  0.1642690E+04  0.7818609E-02  0.8794743E-01
        1   -1    0    0  501    0  0.00000000000E+00  0.00000000000E+00  0.96318134000E+03  0.96318134001E+03  0.50400001928E-02 0. -1.
       -1   -1    0    0    0  501  0.00000000000E+00  0.00000000000E+00 -0.70039538577E+03  0.70039538579E+03  0.50400001928E-02 0.  1.
    10030    2    1    2    0    0  0.00000000000E+00  0.00000000000E+00  0.26278595423E+03  0.16635767258E+04  0.16426901914E+04 0.  0.
        3    1    3    3  502    0 -0.12337975070E+03  0.80773234724E+03  0.46944167069E+02  0.81844845451E+03  0.10100000352E+00 0. -1.
       -3    1    3    3    0  502  0.12337975070E+03 -0.80773234724E+03  0.21584178716E+03  0.84512827130E+03  0.10100000352E+00 0.  1.
</event>
<event>
 5   0  0.4133418E-05  0.2319966E+04  0.7818609E-02  0.8470090E-01
       -1   -1    0    0    0  501  0.00000000000E+00  0.00000000000E+00  0.12183183759E+04  0.12183183759E+04  0.50400001928E-02 0.  1.
        1   -1    0    0  501    0  0.00000000000E+00  0.00000000000E+00 -0.11044409474E+04  0.11044409474E+04  0.50400001928E-02 0. -1.
    10030    2    1    2    0    0  0.00000000000E+00  0.00000000000E+00  0.11387742853E+03  0.23227593234E+04  0.23199661216E+04 0.  0.
        4    1    3    3  502    0  0.13932931042E+03 -0.10965937018E+04  0.40897075543E+03  0.11786386619E+04  0.12699999809E+01 0.  1.
       -4    1    3    3    0  502 -0.13932931042E+03  0.10965937018E+04 -0.29509332690E+03  0.11441206615E+04  0.12699999809E+01 0. -1.
</event>
<event>
 5   0  0.9457742E-05  0.1968827E+04  0.7818609E-02  0.8621335E-01
       -2   -1    0    0    0  501  0.00000000000E+00  0.00000000000E+00  0.45604561550E+03  0.45604561551E+03  0.25500000920E-02 0. -1.
        2   -1    0    0  501    0  0.00000000000E+00  0.00000000000E+00 -0.21249412152E+04  0.21249412152E+04  0.25500000920E-02 0.  1.
    10030    2    1    2    0    0  0.00000000000E+00  0.00000000000E+00 -0.16688955997E+04  0.25809868307E+04  0.19688271883E+04 0.  0.
        1    1    3    3  502    0 -0.87545017104E+03 -0.21592887320E+03 -0.31662065682E+03  0.95566046304E+03  0.50400001928E-02 0.  1.
       -1    1    3    3    0  502  0.87545017104E+03  0.21592887320E+03 -0.13522749428E+04  0.16253263676E+04  0.50400001928E-02 0. -1.
</event>
<event>
 5   0  0.3283125E-05  0.1900668E+04  0.7818609E-02  0.8654524E-01
        4   -1    0    0  501    0  0.00000000000E+00  0.00000000000E+00  0.10415806672E+04  0.10415814414E+04  0.12699999809E+01 0. -1.
       -4   -1    0    0    0  501  0.00000000000E+00  0.00000000000E+00 -0.86707895904E+03  0.86707988911E+03  0.12699999809E+01 0.  1.
    10030    2    1    2    0    0  0.00000000000E+00  0.00000000000E+00  0.17450170815E+03  0.19086613306E+04  0.19006675745E+04 0.  0.
        3    1    3    3  502    0  0.73121048188E+03 -0.40121486860E+03  0.54467970425E+03  0.99615166015E+03  0.10100000352E+00 0. -1.
       -3    1    3    3    0  502 -0.73121048188E+03  0.40121486860E+03 -0.37017799610E+03  0.91250967041E+03  0.10100000352E+00 0.  1.
</event>
<event>
 5   0  0.9254673E-05  0.2259633E+04  0.7818609E-02  0.8494010E-01
        2   -1    0    0  501    0  0.00000000000E+00  0.00000000000E+00  0.86151536675E+03  0.86151536675E+03  0.25500000920E-02 0. -1.
       -2   -1    0    0    0  501  0.00000000000E+00  0.00000000000E+00 -0.14816742537E+04  0.14816742537E+04  0.25500000920E-02 0.  1.
    10030    2    1    2    0    0  0.00000000000E+00  0.00000000000E+00 -0.62015888697E+03  0.23431896205E+04  0.22596328358E+04 0.  0.
        2    1    3    3  502    0  0.86028807223E+03 -0.59524117197E+03 -0.75256359510E+03  0.12887046150E+04  0.25500000920E-02 0.  1.
       -2    1    3    3    0  502 -0.86028807223E+03  0.59524117197E+03  0.13240470813E+03  0.10544850055E+04  0.25500000920E-02 0. -1.
</event>
<event>
 5   0  0.9179618E-05  0.2188748E+04  0.7818609E-02  0.8523126E-01
       -2   -1    0    0    0  501  0.00000000000E+00  0.00000000000E+00  0.76871497208E+03  0.76871497208E+03  0.25500000920E-02 0.  1.
        2   -1    0    0  501    0  0.00000000000E+00  0.00000000000E+00 -0.15579949110E+04  0.15579949110E+04  0.25500000920E-02 0. -1.
    10030    2    1    2    0    0  0.00000000000E+00  0.00000000000E+00 -0.78927993889E+03  0.23267098831E+04  0.21887476003E+04 0.  0.
        3    1    3    3  502    0 -0.65246221638E+03 -0.39663730421E+03 -0.12280370669E+04  0.14460647091E+04  0.10100000352E+00 0. -1.
       -3    1    3    3    0  502  0.65246221638E+03  0.39663730421E+03  0.43875712802E+03  0.88064517399E+03  0.10100000352E+00 0.  1.
</event>
<event>
 5   0  0.4174030E-05  0.2211154E+04  0.7818609E-02  0.8513800E-01
        1   -1    0    0  501    0  0.00000000000E+00  0.00000000000E+00  0.73192000901E+03  0.73192000903E+03  0.50400001928E-02 0.  1.
       -1   -1    0    0    0  501  0.00000000000E+00  0.00000000000E+00 -0.16699923181E+04  0.16699923181E+04  0.50400001928E-02 0. -1.
    10030    2    1    2    0    0  0.00000000000E+00  0.00000000000E+00 -0.93807230912E+03  0.24019123272E+04  0.22111542620E+04 0.  0.
        2    1    3    3  502    0 -0.46818684521E+03  0.67867723096E+03 -0.12691238923E+04  0.15134322449E+04  0.25500000920E-02 0. -1.
       -2    1    3    3    0  502  0.46818684521E+03 -0.67867723096E+03  0.33105158319E+03  0.88848008227E+03  0.25500000920E-02 0.  1.
</event>
<event>
 5   0  0.4063293E-05  0.2201992E+04  0.7818609E-02  0.8517599E-01
        1   -1    0    0  501    0  0.00000000000E+00  0.00000000000E+00  0.13623919987E+04  0.13623919988E+04  0.50400001928E-02 0. -1.
       -1   -1    0    0    0  501  0.00000000000E+00  0.00000000000E+00 -0.88975299343E+03  0.88975299344E+03  0.50400001928E-02 0.  1.
    10030    2    1    2    0    0  0.00000000000E+00  0.00000000000E+00  0.47263900532E+03  0.22521449922E+04  0.22019921518E+04 0.  0.
        1    1    3    3  502    0  0.10346623843E+04  0.98226061827E+02  0.60793750462E+03  0.12040608865E+04  0.50400001928E-02 0. -1.
       -1    1    3    3    0  502 -0.10346623843E+04 -0.98226061827E+02 -0.13529849931E+03  0.10480841057E+04  0.50400001928E-02 0.  1.
</event>
<event>
 5   0  0.9179618E-05  0.2143806E+04  0.7818609E-02  0.8542188E-01
        2   -1    0    0  501    0  0.00000000000E+00  0.00000000000E+00  0.22448024074E+04  0.22448024074E+04  0.25500000920E-02 0. -1.
       -2   -1    0    0    0  501  0.00000000000E+00  0.00000000000E+00 -0.51183850458E+03  0.51183850458E+03  0.25500000920E-02 0.  1.
    10030    2    1    2    0    0  0.00000000000E+00  0.00000000000E+00  0.17329639029E+04  0.27566409120E+04  0.21438062481E+04 0.  0.
        3    1    3    3  502    0 -0.83505186086E+03 -0.41325862361E+03  0.18499645584E+03  0.94990420527E+03  0.10100000352E+00 0.  1.
       -3    1    3    3    0  502  0.83505186086E+03  0.41325862361E+03  0.15479674470E+04  0.18067367068E+04  0.10100000352E+00 0. -1.
</event>
<event>
 5   0  0.9938176E-05  0.2172347E+04  0.7818609E-02  0.8530027E-01
        2   -1    0    0  501    0  0.00000000000E+00  0.00000000000E+00  0.12323044008E+04  0.12323044008E+04  0.25500000920E-02 0. -1.
       -2   -1    0    0    0  501  0.00000000000E+00  0.00000000000E+00 -0.95737105757E+03  0.95737105758E+03  0.25500000920E-02 0.  1.
    10030    2    1    2    0    0  0.00000000000E+00  0.00000000000E+00  0.27493334327E+03  0.21896754584E+04  0.21723467196E+04 0.  0.
        5    1    3    3  502    0  0.28264890831E+03 -0.28227597563E+03 -0.88063015699E+03  0.96700656419E+03  0.46999998093E+01 0.  1.
       -5    1    3    3    0  502 -0.28264890831E+03  0.28227597563E+03  0.11555635003E+04  0.12226688942E+04  0.46999998093E+01 0. -1.
</event>
<event>
 5   0  0.4188865E-05  0.1734765E+04  0.7818609E-02  0.8741781E-01
        1   -1    0    0  501    0  0.00000000000E+00  0.00000000000E+00  0.85352271598E+03  0.85352271600E+03  0.50400001928E-02 0. -1.
       -1   -1    0    0    0  501  0.00000000000E+00  0.00000000000E+00 -0.88146748982E+03  0.88146748983E+03  0.50400001928E-02 0.  1.
    10030    2    1    2    0    0  0.00000000000E+00  0.00000000000E+00 -0.27944773835E+02  0.17349902058E+04  0.17347651437E+04 0.  0.
        3    1    3    3  502    0 -0.21048010681E+03 -0.14342054787E+03  0.81528003607E+03  0.85413867512E+03  0.10100000352E+00 0. -1.
       -3    1    3    3    0  502  0.21048010681E+03  0.14342054787E+03 -0.84322480990E+03  0.88085153071E+03  0.10100000352E+00 0.  1.
</event>
<event>
 5   0  0.4133418E-05  0.2262175E+04  0.7818609E-02  0.8492986E-01
        1   -1    0    0  501    0  0.00000000000E+00  0.00000000000E+00  0.90063999418E+03  0.90063999419E+03  0.50400001928E-02 0.  1.
       -1   -1    0    0    0  501  0.00000000000E+00  0.00000000000E+00 -0.14204997531E+04  0.14204997531E+04  0.50400001928E-02 0. -1.
    10030    2    1    2    0    0  0.00000000000E+00  0.00000000000E+00 -0.51985975891E+03  0.23211397473E+04  0.22621749617E+04 0.  0.
        4    1    3    3  502    0  0.76361432222E+03 -0.21757784347E+03  0.56661690305E+03  0.97545029540E+03  0.12699999809E+01 0.  1.
       -4    1    3    3    0  502 -0.76361432222E+03  0.21757784347E+03 -0.10864766620E+04  0.13456894519E+04  0.12699999809E+01 0. -1.
</event>
<event>
 5   0  0.4174030E-05  0.2190255E+04  0.7818609E-02  0.8522495E-01
        1   -1    0    0  501    0  0.00000000000E+00  0.00000000000E+00  0.12888525437E+04  0.12888525437E+04  0.50400001928E-02 0. -1.
       -1   -1    0    0    0  501  0.00000000000E+00  0.00000000000E+00 -0.93052116115E+03  0.93052116116E+03  0.50400001928E-02 0.  1.
    10030    2    1    2    0    0  0.00000000000E+00  0.00000000000E+00  0.35833138258E+03  0.22193737049E+04  0.21902552961E+04 0.  0.
        2    1    3    3  502    0 -0.30690095628E+03 -0.51829308102E+03  0.11059223680E+04  0.12593173543E+04  0.25500000920E-02 0. -1.
       -2    1    3    3    0  502  0.30690095628E+03  0.51829308102E+03 -0.74759098543E+03  0.96005635059E+03  0.25500000920E-02 0.  1.
</event>
<event>
 5   0  0.9442578E-05  0.2211537E+04  0.7818609E-02  0.8513641E-01
       -2   -1    0    0    0  501  0.00000000000E+00  0.00000000000E+00  0.88504070673E+03  0.88504070673E+03  0.25500000920E-02 0. -1.
        2   -1    0    0  501    0  0.00000000000E+00  0.00000000000E+00 -0.13815453635E+04  0.13815453635E+04  0.25500000920E-02 0.  1.
    10030    2    1    2    0    0  0.00000000000E+00  0.00000000000E+00 -0.49650465680E+03  0.22665860703E+04  0.22115369180E+04 0.  0.
        4    1    3    3  502    0  0.48399596707E+02  0.23454738209E+02 -0.13802032836E+04  0.13812513756E+04  0.12699999809E+01 0.  1.
       -4    1    3    3    0  502 -0.48399596707E+02 -0.23454738209E+02  0.88369862678E+03  0.88533469466E+03  0.12699999809E+01 0. -1.
</event>
<event>
 5   0  0.4174075E-05  0.2218093E+04  0.7818609E-02  0.8510935E-01
       -1   -1    0    0    0  501  0.00000000000E+00  0.00000000000E+00  0.17994987461E+04  0.17994987461E+04  0.50400001928E-02 0. -1.
        1   -1    0    0  501    0  0.00000000000E+00  0.00000000000E+00 -0.68351460178E+03  0.68351460180E+03  0.50400001928E-02 0.  1.
    10030    2    1    2    0    0  0.00000000000E+00  0.00000000000E+00  0.11159841443E+04  0.24830133479E+04  0.22180925760E+04 0.  0.
        5    1    3    3  502    0 -0.76313853394E+03  0.79219781984E+03  0.71631919680E+03  0.13126664045E+04  0.46999998093E+01 0.  1.
       -5    1    3    3    0  502  0.76313853394E+03 -0.79219781984E+03  0.39966494753E+03  0.11703469434E+04  0.46999998093E+01 0. -1.
</event>
<event>
 5   0  0.9938176E-05  0.2215837E+04  0.7818609E-02  0.8511865E-01
       -2   -1    0    0    0  501  0.00000000000E+00  0.00000000000E+00  0.91260755105E+03  0.91260755105E+03  0.25500000920E-02 0.  1.
        2   -1    0    0  501    0  0.00000000000E+00  0.00000000000E+00 -0.13450287222E+04  0.13450287222E+04  0.25500000920E-02 0. -1.
    10030    2    1    2    0    0  0.00000000000E+00  0.00000000000E+00 -0.43242117111E+03  0.22576362732E+04  0.22158369689E+04 0.  0.
        5    1    3    3  502    0  0.64648076410E+03  0.78122362116E+03  0.23854245517E+03  0.10417160446E+04  0.46999998093E+01 0.  1.
       -5    1    3    3    0  502 -0.64648076410E+03 -0.78122362116E+03 -0.67096362628E+03  0.12159202286E+04  0.46999998093E+01 0. -1.
</event>
<event>
 5   0  0.4174030E-05  0.2220104E+04  0.7818609E-02  0.8510107E-01
       -1   -1    0    0    0  501  0.00000000000E+00  0.00000000000E+00  0.11756361627E+04  0.11756361627E+04  0.50400001928E-02 0.  1.
        1   -1    0    0  501    0  0.00000000000E+00  0.00000000000E+00 -0.10481264415E+04  0.10481264415E+04  0.50400001928E-02 0. -1.
    10030    2    1    2    0    0  0.00000000000E+00  0.00000000000E+00  0.12750972124E+03  0.22237626042E+04  0.22201039144E+04 0.  0.
        2    1    3    3  502    0 -0.94794597976E+03  0.50250341063E+03  0.34901198288E+03  0.11282378395E+04  0.25500000920E-02 0.  1.
       -2    1    3    3    0  502  0.94794597976E+03 -0.50250341063E+03 -0.22150226165E+03  0.10955247647E+04  0.25500000920E-02 0. -1.
</event>
<event>
 5   0  0.9457742E-05  0.2241782E+04  0.7818609E-02  0.8501236E-01
        2   -1    0    0  501    0  0.00000000000E+00  0.00000000000E+00  0.40200650509E+03  0.40200650509E+03  0.25500000920E-02 0.  1.
       -2   -1    0    0    0  501  0.00000000000E+00  0.00000000000E+00 -0.31253146825E+04  0.31253146825E+04  0.25500000920E-02 0. -1.
    10030    2    1    2    0    0  0.00000000000E+00  0.00000000000E+00 -0.27233081774E+04  0.35273211876E+04  0.22417821775E+04 0.  0.
        1    1    3    3  502    0  0.53796836755E+03 -0.52941506902E+03 -0.26655327887E+04  0.27703348764E+04  0.50400001928E-02 0. -1.
       -1    1    3    3    0  502 -0.53796836755E+03  0.52941506902E+03 -0.57775388737E+02  0.75698631121E+03  0.50400001928E-02 0.  1.
</event>
<event>
 5   0  0.4174075E-05  0.1763677E+04  0.7818609E-02  0.8725858E-01
       -1   -1    0    0    0  501  0.00000000000E+00  0.00000000000E+00  0.11240166069E+04  0.11240166069E+04  0.50400001928E-02 0. -1.
        1   -1    0    0  501    0  0.00000000000E+00  0.00000000000E+00 -0.69183936232E+03  0.69183936234E+03  0.50400001928E-02 0.  1.
    10030    2    1    2    0    0  0.00000000000E+00  0.00000000000E+00  0.43217724455E+03  0.18158559692E+04  0.17636767647E+04 0.  0.
        5    1    3    3  502    0  0.61925265957E+03 -0.23339678405E+03 -0.38396534925E+03  0.76511397492E+03  0.46999998093E+01 0.  1.
       -5    1    3    3    0  502 -0.61925265957E+03  0.23339678405E+03  0.81614259380E+03  0.10507419943E+04  0.46999998093E+01 0. -1.
</event>
<event>
 5   0  0.4174030E-05  0.2205165E+04  0.7818609E-02  0.8516281E-01
        1   -1    0    0  501    0  0.00000000000E+00  0.00000000000E+00  0.11833152443E+04  0.11833152443E+04  0.50400001928E-02 0. -1.
       -1   -1    0    0    0  501  0.00000000000E+00  0.00000000000E+00 -0.10273582489E+04  0.10273582489E+04  0.50400001928E-02 0.  1.
    10030    2    1    2    0    0  0.00000000000E+00  0.00000000000E+00  0.15595699539E+03  0.22106734932E+04  0.22051654607E+04 0.  0.
        2    1    3    3  502    0 -0.31590745608E+02 -0.14199919384E+02 -0.10268127542E+04  0.10273967321E+04  0.25500000920E-02 0.  1.
       -2    1    3    3    0  502  0.31590745608E+02  0.14199919384E+02  0.11827697496E+04  0.11832767611E+04  0.25500000920E-02 0. -1.
</event>
<event>
 5   0  0.9254673E-05  0.2236285E+04  0.7818609E-02  0.8503476E-01
        2   -1    0    0  501    0  0.00000000000E+00  0.00000000000E+00  0.83924147869E+03  0.83924147869E+03  0.25500000920E-02 0.  1.
       -2   -1    0    0    0  501  0.00000000000E+00  0.00000000000E+00 -0.14897289449E+04  0.14897289449E+04  0.25500000920E-02 0. -1.
    10030    2    1    2    0    0  0.00000000000E+00  0.00000000000E+00 -0.65048746625E+03  0.23289704236E+04  0.22362847069E+04 0.  0.
        2    1    3    3  502    0  0.46108062526E+03 -0.89361948987E+03 -0.83447922348E+03  0.13067160021E+04  0.25500000920E-02 0. -1.
       -2    1    3    3    0  502 -0.46108062526E+03  0.89361948987E+03  0.18399175722E+03  0.10222544216E+04  0.25500000920E-02 0.  1.
</event>
<event>
 5   0  0.9254673E-05  0.2147522E+04  0.7818609E-02  0.8540594E-01
        2   -1    0    0  501    0  0.00000000000E+00  0.00000000000E+00  0.22163531349E+04  0.22163531349E+04  0.25500000920E-02 0.  1.
       -2   -1    0    0    0  501  0.00000000000E+00  0.00000000000E+00 -0.52020689065E+03  0.52020689065E+03  0.25500000920E-02 0. -1.
    10030    2    1    2    0    0  0.00000000000E+00  0.00000000000E+00  0.16961462442E+04  0.27365600255E+04  0.21475215229E+04 0.  0.
        2    1    3    3  502    0  0.84159470323E+03 -0.36164417106E+03  0.13413762478E+03  0.92577591962E+03  0.25500000920E-02 0. -1.
       -2    1    3    3    0  502 -0.84159470323E+03  0.36164417106E+03  0.15620086194E+04  0.18107841059E+04  0.25500000920E-02 0.  1.
</event>
<event>
 5   0  0.9442578E-05  0.2248749E+04  0.7818609E-02  0.8498407E-01
       -2   -1    0    0    0  501  0.00000000000E+00  0.00000000000E+00  0.90488423177E+03  0.90488423177E+03  0.25500000920E-02 0.  1.
        2   -1    0    0  501    0  0.00000000000E+00  0.00000000000E+00 -0.13971043802E+04  0.13971043802E+04  0.25500000920E-02 0. -1.
    10030    2    1    2    0    0  0.00000000000E+00  0.00000000000E+00 -0.49222014843E+03  0.23019886120E+04  0.22487487399E+04 0.  0.
        4    1    3    3  502    0 -0.91032834115E+03 -0.42560060334E+02 -0.92026620048E+03  0.12951449881E+04  0.12699999809E+01 0. -1.
       -4    1    3    3    0  502  0.91032834115E+03  0.42560060334E+02  0.42804605205E+03  0.10068436239E+04  0.12699999809E+01 0.  1.
</event>
<event>
 5   0  0.9254673E-05  0.2236476E+04  0.7818609E-02  0.8503397E-01
        2   -1    0    0  501    0  0.00000000000E+00  0.00000000000E+00  0.19064065919E+04  0.19064065919E+04  0.25500000920E-02 0.  1.
       -2   -1    0    0    0  501  0.00000000000E+00  0.00000000000E+00 -0.65592330320E+03  0.65592330321E+03  0.25500000920E-02 0. -1.
    10030    2    1    2    0    0  0.00000000000E+00  0.00000000000E+00  0.12504832887E+04  0.25623298951E+04  0.22364762543E+04 0.  0.
        2    1    3    3  502    0 -0.95508473207E+03  0.20067301280E+03 -0.18861344188E+00  0.97593879884E+03  0.25500000920E-02 0. -1.
       -2    1    3    3    0  502  0.95508473207E+03 -0.20067301280E+03  0.12506719021E+04  0.15863910962E+04  0.25500000920E-02 0.  1.
</event>
<event>
 5   0  0.9254673E-05  0.2222674E+04  0.7818609E-02  0.8509050E-01
       -2   -1    0    0    0  501  0.00000000000E+00  0.00000000000E+00  0.60345745977E+03  0.60345745978E+03  0.25500000920E-02 0.  1.
        2   -1    0    0  501    0  0.00000000000E+00  0.00000000000E+00 -0.20466559855E+04  0.20466559855E+04  0.25500000920E-02 0. -1.
    10030    2    1    2    0    0  0.00000000000E+00  0.00000000000E+00 -0.14431985257E+04  0.26501134453E+04  0.22226739050E+04 0.  0.
        2    1    3    3  502    0 -0.69381515900E+03  0.13159337668E+03  0.30154718125E+03  0.76787173028E+03  0.25500000920E-02 0.  1.
       -2    1    3    3    0  502  0.69381515900E+03 -0.13159337668E+03 -0.17447457070E+04  0.18822417150E+04  0.25500000920E-02 0. -1.
</event>
<event>
 5   0  0.9179618E-05  0.2262812E+04  0.7818609E-02  0.8492730E-01
       -2   -1    0    0    0  501  0.00000000000E+00  0.00000000000E+00  0.91904835340E+03  0.91904835341E+03  0.25500000920E-02 0. -1.
        2   -1    0    0  501    0  0.00000000000E+00  0.00000000000E+00 -0.13928315222E+04  0.13928315222E+04  0.25500000920E-02 0.  1.
    10030    2    1    2    0    0  0.00000000000E+00  0.00000000000E+00 -0.47378316881E+03  0.23118798756E+04  0.22628119825E+04 0.  0.
        3    1    3    3  502    0  0.14049827011E+03  0.64179947149E+03 -0.11779695765E+04  0.13487989691E+04  0.10100000352E+00 0.  1.
       -3    1    3    3    0  502 -0.14049827011E+03 -0.64179947149E+03  0.70418640773E+03  0.96308090655E+03  0.10100000352E+00 0. -1.
</event>
<event>
 5   0  0.4133418E-05  0.2258793E+04  0.7818609E-02  0.8494348E-01
        1   -1    0    0  501    0  0.00000000000E+00  0.00000000000E+00  0.11052538818E+04  0.11052538818E+04  0.50400001928E-02 0.  1.
       -1   -1    0    0    0  501  0.00000000000E+00  0.00000000000E+00 -0.11540662651E+04  0.11540662652E+04  0.50400001928E-02 0. -1.
    10030    2    1    2    0    0  0.00000000000E+00  0.00000000000E+00 -0.48812383327E+02  0.22593201470E+04  0.22587927921E+04 0.  0.
        4    1    3    3  502    0 -0.71786658672E+03 -0.57571517746E+03 -0.67935231801E+03  0.11438101183E+04  0.12699999809E+01 0.  1.
       -4    1    3    3    0  502  0.71786658672E+03  0.57571517746E+03  0.63053993469E+03  0.11155100287E+04  0.12699999809E+01 0. -1.
</event>
<event>
 5   0  0.4063293E-05  0.2220323E+04  0.7818609E-02  0.8510017E-01
        1   -1    0    0  501    0  0.00000000000E+00  0.00000000000E+00  0.10184740072E+04  0.10184740072E+04  0.50400001928E-02 0. -1.
       -1   -1    0    0    0  501  0.00000000000E+00  0.00000000000E+00 -0.12101031047E+04  0.12101031047E+04  0.50400001928E-02 0.  1.
    10030    2    1    2    0    0  0.00000000000E+00  0.00000000000E+00 -0.19162909748E+03  0.22285771120E+04  0.22203230019E+04 0.  0.
        1    1    3    3  502    0  0.14263568424E+03 -0.46539814866E+03  0.90565121299E+03  0.10281753230E+04  0.50400001928E-02 0. -1.
       -1    1    3    3    0  502 -0.14263568424E+03  0.46539814866E+03 -0.10972803105E+04  0.12004017890E+04  0.50400001928E-02 0.  1.
</event>
<event>
 5   0  0.4188865E-05  0.2135578E+04  0.7818609E-02  0.8545731E-01
       -1   -1    0    0    0  501  0.00000000000E+00  0.00000000000E+00  0.12088217260E+04  0.12088217260E+04  0.50400001928E-02 0. -1.
        1   -1    0    0  501    0  0.00000000000E+00  0.00000000000E+00 -0.94321088137E+03  0.94321088138E+03  0.50400001928E-02 0.  1.
    10030    2    1    2    0    0  0.00000000000E+00  0.00000000000E+00  0.26561084465E+03  0.21520326074E+04  0.21355784281E+04 0.  0.
        3    1    3    3  502    0  0.10215666447E+03  0.48905605190E+03  0.10837723195E+04  0.11933877227E+04  0.10100000352E+00 0. -1.
       -3    1    3    3    0  502 -0.10215666447E+03 -0.48905605190E+03 -0.81816147480E+03  0.95864488474E+03  0.10100000352E+00 0.  1.
</event>
<event>
 5   0  0.4174030E-05  0.2284575E+04  0.7818609E-02  0.8484028E-01
        1   -1    0    0  501    0  0.00000000000E+00  0.00000000000E+00  0.18624914356E+04  0.18624914356E+04  0.50400001928E-02 0. -1.
       -1   -1    0    0    0  501  0.00000000000E+00  0.00000000000E+00 -0.70057814742E+03  0.70057814744E+03  0.50400001928E-02 0.  1.
    10030    2    1    2    0    0  0.00000000000E+00  0.00000000000E+00  0.11619132882E+04  0.25630695830E+04  0.22845750586E+04 0.  0.
        2    1    3    3  502    0  0.13681903710E+03  0.10610711533E+04  0.13187426761E+03  0.10779528115E+04  0.25500000920E-02 0. -1.
       -2    1    3    3    0  502 -0.13681903710E+03 -0.10610711533E+04  0.10300390206E+04  0.14851167716E+04  0.25500000920E-02 0.  1.
</event>
<event>
 5   0  0.4063293E-05  0.2104975E+04  0.7818609E-02  0.8559055E-01
        1   -1    0    0  501    0  0.00000000000E+00  0.00000000000E+00  0.14640098348E+04  0.14640098348E+04  0.50400001928E-02 0.  1.
       -1   -1    0    0    0  501  0.00000000000E+00  0.00000000000E+00 -0.75664122698E+03  0.75664122699E+03  0.50400001928E-02 0. -1.
    10030    2    1    2    0    0  0.00000000000E+00  0.00000000000E+00  0.70736860783E+03  0.22206510618E+04  0.21049752471E+04 0.  0.
        1    1    3    3  502    0  0.89005847082E+02 -0.56461976889E+03 -0.57863004677E+03  0.81334510221E+03  0.50400001928E-02 0. -1.
       -1    1    3    3    0  502 -0.89005847082E+02  0.56461976889E+03  0.12859986546E+04  0.14073059596E+04  0.50400001928E-02 0.  1.
</event>
<event>
 5   0  0.9442578E-05  0.2189087E+04  0.7818609E-02  0.8522984E-01
       -2   -1    0    0    0  501  0.00000000000E+00  0.00000000000E+00  0.11461785888E+04  0.11461785888E+04  0.25500000920E-02 0.  1.
        2   -1    0    0  501    0  0.00000000000E+00  0.00000000000E+00 -0.10452349646E+04  0.10452349646E+04  0.25500000920E-02 0. -1.
    10030    2    1    2    0    0  0.00000000000E+00  0.00000000000E+00  0.10094362423E+03  0.21914135534E+04  0.21890874232E+04 0.  0.
        4    1    3    3  502    0  0.32059995473E+02  0.76791736293E+03 -0.72965043842E+03  0.10597718126E+04  0.12699999809E+01 0. -1.
       -4    1    3    3    0  502 -0.32059995473E+02 -0.76791736293E+03  0.83059406265E+03  0.11316417407E+04  0.12699999809E+01 0.  1.
</event>
<event>
 5   0  0.9442578E-05  0.2198422E+04  0.7818609E-02  0.8519085E-01
        2   -1    0    0  501    0  0.00000000000E+00  0.00000000000E+00  0.24952671367E+04  0.24952671367E+04  0.25500000920E-02 0.  1.
       -2   -1    0    0    0  501  0.00000000000E+00  0.00000000000E+00 -0.48422265520E+03  0.48422265520E+03  0.25500000920E-02 0. -1.
    10030    2    1    2    0    0  0.00000000000E+00  0.00000000000E+00  0.20110444815E+04  0.29794897919E+04  0.21984220508E+04 0.  0.
        4    1    3    3  502    0  0.96534354322E+03 -0.13845281127E+03  0.16928617639E+04  0.19536734379E+04  0.12699999809E+01 0.  1.
       -4    1    3    3    0  502 -0.96534354322E+03  0.13845281127E+03  0.31818271755E+03  0.10258163540E+04  0.12699999809E+01 0. -1.
</event>
<event>
 5   0  0.9254673E-05  0.2171529E+04  0.7818609E-02  0.8530373E-01
        2   -1    0    0  501    0  0.00000000000E+00  0.00000000000E+00  0.87476416661E+03  0.87476416661E+03  0.25500000920E-02 0. -1.
       -2   -1    0    0    0  501  0.00000000000E+00  0.00000000000E+00 -0.13476597121E+04  0.13476597121E+04  0.25500000920E-02 0.  1.
    10030    2    1    2    0    0  0.00000000000E+00  0.00000000000E+00 -0.47289554551E+03  0.22224238787E+04  0.21715288853E+04 0.  0.
        2    1    3    3  502    0 -0.10012918426E+04  0.34510579273E+03 -0.48122067232E+03  0.11632956193E+04  0.25500000920E-02 0. -1.
       -2    1    3    3    0  502  0.10012918426E+04 -0.34510579273E+03  0.83251268075E+01  0.10591282595E+04  0.25500000920E-02 0.  1.
</event>
<event>
 5   0  0.3283125E-05  0.2200471E+04  0.7818609E-02  0.8518232E-01
       -3   -1    0    0    0  501  0.00000000000E+00  0.00000000000E+00  0.12094831465E+04  0.12094831508E+04  0.10100000352E+00 0. -1.
        3   -1    0    0  501    0  0.00000000000E+00  0.00000000000E+00 -0.10008561082E+04  0.10008561133E+04  0.10100000352E+00 0.  1.
    10030    2    1    2    0    0  0.00000000000E+00  0.00000000000E+00  0.20862703829E+03  0.22103392641E+04  0.22004714089E+04 0.  0.
        2    1    3    3  502    0  0.30903594842E+03  0.91648929208E+03 -0.42250266813E+03  0.10554450931E+04  0.25500000920E-02 0.  1.
       -2    1    3    3    0  502 -0.30903594842E+03 -0.91648929208E+03  0.63112970642E+03  0.11548941710E+04  0.25500000920E-02 0. -1.
</event>
<event>
 5   0  0.4133418E-05  0.2176911E+04  0.7818609E-02  0.8528100E-01
        1   -1    0    0  501    0  0.00000000000E+00  0.00000000000E+00  0.10770030323E+04  0.10770030323E+04  0.50400001928E-02 0.  1.
       -1   -1    0    0    0  501  0.00000000000E+00  0.00000000000E+00 -0.11000298559E+04  0.11000298559E+04  0.50400001928E-02 0. -1.
    10030    2    1    2    0    0  0.00000000000E+00  0.00000000000E+00 -0.23026823571E+02  0.21770328882E+04  0.21769111056E+04 0.  0.
        4    1    3    3  502    0 -0.94128150722E+03  0.10758886091E+03 -0.54740497480E+03  0.10941846545E+04  0.12699999809E+01 0. -1.
       -4    1    3    3    0  502  0.94128150722E+03 -0.10758886091E+03  0.52437815123E+03  0.10828482337E+04  0.12699999809E+01 0.  1.
</event>
<event>
 5   0  0.4188865E-05  0.2206509E+04  0.7818609E-02  0.8515724E-01
        1   -1    0    0  501    0  0.00000000000E+00  0.00000000000E+00  0.88430864769E+03  0.88430864770E+03  0.50400001928E-02 0. -1.
       -1   -1    0    0    0  501  0.00000000000E+00  0.00000000000E+00 -0.13764096990E+04  0.13764096990E+04  0.50400001928E-02 0.  1.
    10030    2    1    2    0    0  0.00000000000E+00  0.00000000000E+00 -0.49210105127E+03  0.22607183467E+04  0.22065094603E+04 0.  0.
        3    1    3    3  502    0 -0.91507874896E+02  0.84464366983E+03  0.47506929246E+03  0.97338967685E+03  0.10100000352E+00 0. -1.
       -3    1    3    3    0  502  0.91507874896E+02 -0.84464366983E+03 -0.96717034373E+03  0.12873286698E+04  0.10100000352E+00 0.  1.
</event>
<event>
 5   0  0.4133418E-05  0.2202227E+04  0.7818609E-02  0.8517502E-01
       -1   -1    0    0    0  501  0.00000000000E+00  0.00000000000E+00  0.12334176925E+04  0.12334176925E+04  0.50400001928E-02 0.  1.
        1   -1    0    0  501    0  0.00000000000E+00  0.00000000000E+00 -0.98300091824E+03  0.98300091826E+03  0.50400001928E-02 0. -1.
    10030    2    1    2    0    0  0.00000000000E+00  0.00000000000E+00  0.25041677430E+03  0.22164186108E+04  0.22022268043E+04 0.  0.
        4    1    3    3  502    0  0.85719950703E+03  0.51232218637E+03  0.59207716029E+03  0.11609573610E+04  0.12699999809E+01 0.  1.
       -4    1    3    3    0  502 -0.85719950703E+03 -0.51232218637E+03 -0.34166038600E+03  0.10554612498E+04  0.12699999809E+01 0. -1.
</event>
<event>
 5   0  0.4133418E-05  0.2221583E+04  0.7818609E-02  0.8509498E-01
        1   -1    0    0  501    0  0.00000000000E+00  0.00000000000E+00  0.11326915741E+04  0.11326915742E+04  0.50400001928E-02 0.  1.
       -1   -1    0    0    0  501  0.00000000000E+00  0.00000000000E+00 -0.10893151145E+04  0.10893151145E+04  0.50400001928E-02 0. -1.
    10030    2    1    2    0    0  0.00000000000E+00  0.00000000000E+00  0.43376459606E+02  0.22220066887E+04  0.22215832659E+04 0.  0.
        4    1    3    3  502    0  0.58230082454E+03 -0.10263221888E+02  0.96774210217E+03  0.11294715460E+04  0.12699999809E+01 0.  1.
       -4    1    3    3    0  502 -0.58230082454E+03  0.10263221888E+02 -0.92436564257E+03  0.10925351427E+04  0.12699999809E+01 0. -1.
</event>
<event>
 5   0  0.9457742E-05  0.2189166E+04  0.7818609E-02  0.8522951E-01
        2   -1    0    0  501    0  0.00000000000E+00  0.00000000000E+00  0.22392179969E+04  0.22392179969E+04  0.25500000920E-02 0.  1.
       -2   -1    0    0    0  501  0.00000000000E+00  0.00000000000E+00 -0.53505827615E+03  0.53505827616E+03  0.25500000920E-02 0. -1.
    10030    2    1    2    0    0  0.00000000000E+00  0.00000000000E+00  0.17041597207E+04  0.27742762731E+04  0.21891661621E+04 0.  0.
        1    1    3    3  502    0 -0.37096543693E+03  0.29199068215E+03 -0.39940711673E+03  0.61838496002E+03  0.50400001928E-02 0. -1.
       -1    1    3    3    0  502  0.37096543693E+03 -0.29199068215E+03  0.21035668375E+04  0.21558913130E+04  0.50400001928E-02 0.  1.
</event>
<event>
 5   0  0.9254673E-05  0.2216755E+04  0.7818609E-02  0.8511486E-01
        2   -1    0    0  501    0  0.00000000000E+00  0.00000000000E+00  0.16753853261E+04  0.16753853261E+04  0.25500000920E-02 0.  1.
       -2   -1    0    0    0  501  0.00000000000E+00  0.00000000000E+00 -0.73326463071E+03  0.73326463072E+03  0.25500000920E-02 0. -1.
    10030    2    1    2    0    0  0.00000000000E+00  0.00000000000E+00  0.94212069540E+03  0.24086499568E+04  0.22167551082E+04 0.  0.
        2    1    3    3  502    0  0.78783905093E+02  0.72307236990E+03  0.13797958390E+04  0.15597682883E+04  0.25500000920E-02 0.  1.
       -2    1    3    3    0  502 -0.78783905093E+02 -0.72307236990E+03 -0.43767514362E+03  0.84888166853E+03  0.25500000920E-02 0. -1.
</event>
<event>
 5   0  0.9179618E-05  0.2182943E+04  0.7818609E-02  0.8525561E-01
       -2   -1    0    0    0  501  0.00000000000E+00  0.00000000000E+00  0.98255558085E+03  0.98255558086E+03  0.25500000920E-02 0.  1.
        2   -1    0    0  501    0  0.00000000000E+00  0.00000000000E+00 -0.12124602240E+04  0.12124602240E+04  0.25500000920E-02 0. -1.
    10030    2    1    2    0    0  0.00000000000E+00  0.00000000000E+00 -0.22990464316E+03  0.21950158049E+04  0.21829425642E+04 0.  0.
        3    1    3    3  502    0  0.14035557984E+02  0.43892516926E+02  0.98157696722E+03  0.98265808027E+03  0.10100000352E+00 0.  1.
       -3    1    3    3    0  502 -0.14035557984E+02 -0.43892516926E+02 -0.12114816104E+04  0.12123577246E+04  0.10100000352E+00 0. -1.
</event>
<event>
 5   0  0.9938176E-05  0.2184563E+04  0.7818609E-02  0.8524881E-01
       -2   -1    0    0    0  501  0.00000000000E+00  0.00000000000E+00  0.52964140178E+03  0.52964140178E+03  0.25500000920E-02 0. -1.
        2   -1    0    0  501    0  0.00000000000E+00  0.00000000000E+00 -0.22526159933E+04  0.22526159933E+04  0.25500000920E-02 0.  1.
    10030    2    1    2    0    0  0.00000000000E+00  0.00000000000E+00 -0.17229745915E+04  0.27822573951E+04  0.21845628326E+04 0.  0.
        5    1    3    3  502    0 -0.10643784408E+04  0.23230117657E+03 -0.76127437885E+03  0.13290696264E+04  0.46999998093E+01 0.  1.
       -5    1    3    3    0  502  0.10643784408E+04 -0.23230117657E+03 -0.96170021267E+03  0.14531877687E+04  0.46999998093E+01 0. -1.
</event>
<event>
 5   0  0.4174075E-05  0.2201665E+04  0.7818609E-02  0.8517735E-01
        1   -1    0    0  501    0  0.00000000000E+00  0.00000000000E+00  0.19764040954E+04  0.19764040954E+04  0.50400001928E-02 0. -1.
       -1   -1    0    0    0  501  0.00000000000E+00  0.00000000000E+00 -0.61315020843E+03  0.61315020845E+03  0.50400001928E-02 0.  1.
    10030    2    1    2    0    0  0.00000000000E+00  0.00000000000E+00  0.13632538870E+04  0.25895543039E+04  0.22016653543E+04 0.  0.
        5    1    3    3  502    0  0.59164503066E+03  0.47530900270E+02 -0.40880493805E+03  0.72072643642E+03  0.46999998093E+01 0.  1.
       -5    1    3    3    0  502 -0.59164503066E+03 -0.47530900270E+02  0.17720588250E+04  0.18688278675E+04  0.46999998093E+01 0. -1.
</event>
<event>
 5   0  0.4174030E-05  0.2178952E+04  0.7818609E-02  0.8527240E-01
        1   -1    0    0  501    0  0.00000000000E+00  0.00000000000E+00  0.85146684042E+03  0.85146684043E+03  0.50400001928E-02 0. -1.
       -1   -1    0    0    0  501  0.00000000000E+00  0.00000000000E+00 -0.13940159888E+04  0.13940159889E+04  0.50400001928E-02 0.  1.
    10030    2    1    2    0    0  0.00000000000E+00  0.00000000000E+00 -0.54254914843E+03  0.22454828293E+04  0.21789523992E+04 0.  0.
        2    1    3    3  502    0 -0.88180692915E+03 -0.61929293389E+03 -0.43696685498E+03  0.11627756579E+04  0.25500000920E-02 0.  1.
       -2    1    3    3    0  502  0.88180692915E+03  0.61929293389E+03 -0.10558229345E+03  0.10827071714E+04  0.25500000920E-02 0. -1.
</event>
<event>
 5   0  0.4174075E-05  0.2212844E+04  0.7818609E-02  0.8513101E-01
        1   -1    0    0  501    0  0.00000000000E+00  0.00000000000E+00  0.11266255669E+04  0.11266255670E+04  0.50400001928E-02 0.  1.
       -1   -1    0    0    0  501  0.00000000000E+00  0.00000000000E+00 -0.10865808850E+04  0.10865808850E+04  0.50400001928E-02 0. -1.
    10030    2    1    2    0    0  0.00000000000E+00  0.00000000000E+00  0.40044681988E+02  0.22132064519E+04  0.22128441478E+04 0.  0.
        5    1    3    3  502    0 -0.11063851382E+04 -0.64660153537E+01  0.15798821065E+02  0.11065268076E+04  0.46999998093E+01 0.  1.
       -5    1    3    3    0  502  0.11063851382E+04  0.64660153537E+01  0.24245860923E+02  0.11066796443E+04  0.46999998093E+01 0. -1.
</event>
<event>
 5   0  0.9254673E-05  0.2176780E+04  0.7818609E-02  0.8528155E-01
        2   -1    0    0  501    0  0.00000000000E+00  0.00000000000E+00  0.13995863125E+04  0.13995863125E+04  0.25500000920E-02 0.  1.
       -2   -1    0    0    0  501  0.00000000000E+00  0.00000000000E+00 -0.84638813125E+03  0.84638813125E+03  0.25500000920E-02 0. -1.
    10030    2    1    2    0    0  0.00000000000E+00  0.00000000000E+00  0.55319818126E+03  0.22459744438E+04  0.21767804148E+04 0.  0.
        2    1    3    3  502    0  0.85491968719E+03  0.60706486638E+03 -0.24530510865E+02  0.10488170334E+04  0.25500000920E-02 0. -1.
       -2    1    3    3    0  502 -0.85491968719E+03 -0.60706486638E+03  0.57772869213E+03  0.11971574104E+04  0.25500000920E-02 0.  1.
</event>
<event>
 5   0  0.9457742E-05  0.2004707E+04  0.7818609E-02  0.8604423E-01
       -2   -1    0    0    0  501  0.00000000000E+00  0.00000000000E+00  0.74399567028E+03  0.74399567029E+03  0.25500000920E-02 0.  1.
        2   -1    0    0  501    0  0.00000000000E+00  0.00000000000E+00 -0.13504279570E+04  0.13504279570E+04  0.25500000920E-02 0. -1.
    10030    2    1    2    0    0  0.00000000000E+00  0.00000000000E+00 -0.60643228667E+03  0.20944236272E+04  0.20047070140E+04 0.  0.
        1    1    3    3  502    0 -0.16059457753E+03  0.90191443828E+03 -0.72820372994E+03  0.11702653309E+04  0.50400001928E-02 0.  1.
       -1    1    3    3    0  502  0.16059457753E+03 -0.90191443828E+03  0.12177144327E+03  0.92415829636E+03  0.50400001928E-02 0. -1.
</event>
<event>
 5   0  0.9457742E-05  0.2193653E+04  0.7818609E-02  0.8521074E-01
        2   -1    0    0  501    0  0.00000000000E+00  0.00000000000E+00  0.98381224625E+03  0.98381224626E+03  0.25500000920E-02 0. -1.
       -2   -1    0    0    0  501  0.00000000000E+00  0.00000000000E+00 -0.12228233465E+04  0.12228233465E+04  0.25500000920E-02 0.  1.
    10030    2    1    2    0    0  0.00000000000E+00  0.00000000000E+00 -0.23901110022E+03  0.22066355927E+04  0.21936531934E+04 0.  0.
        1    1    3    3  502    0  0.43285522512E+03 -0.62168704387E+03 -0.91740232137E+03  0.11897417559E+04  0.50400001928E-02 0.  1.
       -1    1    3    3    0  502 -0.43285522512E+03  0.62168704387E+03  0.67839122116E+03  0.10168938368E+04  0.50400001928E-02 0. -1.
</event>
<event>
 5   0  0.9179618E-05  0.2171937E+04  0.7818609E-02  0.8530200E-01
       -2   -1    0    0    0  501  0.00000000000E+00  0.00000000000E+00  0.89597750680E+03  0.89597750680E+03  0.25500000920E-02 0.  1.
        2   -1    0    0  501    0  0.00000000000E+00  0.00000000000E+00 -0.13162472619E+04  0.13162472619E+04  0.25500000920E-02 0. -1.
    10030    2    1    2    0    0  0.00000000000E+00  0.00000000000E+00 -0.42026975510E+03  0.22122247687E+04  0.21719373288E+04 0.  0.
        3    1    3    3  502    0  0.10839718777E+04 -0.58228509349E+02 -0.17886792654E+03  0.11001724121E+04  0.10100000352E+00 0.  1.
       -3    1    3    3    0  502 -0.10839718777E+04  0.58228509349E+02 -0.24140182856E+03  0.11120523566E+04  0.10100000352E+00 0. -1.
</event>
<event>
 5   0  0.4133418E-05  0.2184608E+04  0.7818609E-02  0.8524862E-01
       -1   -1    0    0    0  501  0.00000000000E+00  0.00000000000E+00  0.64488814425E+03  0.64488814427E+03  0.50400001928E-02 0.  1.
        1   -1    0    0  501    0  0.00000000000E+00  0.00000000000E+00 -0.18501316158E+04  0.18501316158E+04  0.50400001928E-02 0. -1.
    10030    2    1    2    0    0  0.00000000000E+00  0.00000000000E+00 -0.12052434716E+04  0.24950197601E+04  0.21846079231E+04 0.  0.
        4    1    3    3  502    0 -0.10522507723E+04  0.21537726100E+02 -0.93643811755E+03  0.14087631179E+04  0.12699999809E+01 0. -1.
       -4    1    3    3    0  502  0.10522507723E+04 -0.21537726100E+02 -0.26880535404E+03  0.10862566422E+04  0.12699999809E+01 0.  1.
</event>
<event>
 5   0  0.9179618E-05  0.2181031E+04  0.7818609E-02  0.8526365E-01
       -2   -1    0    0    0  501  0.00000000000E+00  0.00000000000E+00  0.93242101630E+03  0.93242101630E+03  0.25500000920E-02 0.  1.
        2   -1    0    0  501    0  0.00000000000E+00  0.00000000000E+00 -0.12754148031E+04  0.12754148031E+04  0.25500000920E-02 0. -1.
    10030    2    1    2    0    0  0.00000000000E+00  0.00000000000E+00 -0.34299378681E+03  0.22078358194E+04  0.21810305518E+04 0.  0.
        3    1    3    3  502    0  0.29777141561E+03 -0.76508491017E+03 -0.89809338910E+03  0.12167968119E+04  0.10100000352E+00 0.  1.
       -3    1    3    3    0  502 -0.29777141561E+03  0.76508491017E+03  0.55509960229E+03  0.99103900750E+03  0.10100000352E+00 0. -1.
</event>
<event>
 5   0  0.4174030E-05  0.2194089E+04  0.7818609E-02  0.8520893E-01
       -1   -1    0    0    0  501  0.00000000000E+00  0.00000000000E+00  0.92474479556E+03  0.92474479557E+03  0.50400001928E-02 0.  1.
        1   -1    0    0  501    0  0.00000000000E+00  0.00000000000E+00 -0.13014468622E+04  0.13014468622E+04  0.50400001928E-02 0. -1.
    10030    2    1    2    0    0  0.00000000000E+00  0.00000000000E+00 -0.37670206663E+03  0.22261916578E+04  0.21940886149E+04 0.  0.
        2    1    3    3  502    0  0.47705181485E+02 -0.85489224736E+03  0.50753364848E+03  0.99534262608E+03  0.25500000920E-02 0.  1.
       -2    1    3    3    0  502 -0.47705181485E+02  0.85489224736E+03 -0.88423571511E+03  0.12308490317E+04  0.25500000920E-02 0. -1.
</event>
<event>
 5   0  0.3283125E-05  0.2197679E+04  0.7818609E-02  0.8519395E-01
       -4   -1    0    0    0  501  0.00000000000E+00  0.00000000000E+00  0.94928746054E+03  0.94928831008E+03  0.12699999809E+01 0. -1.
        4   -1    0    0  501    0  0.00000000000E+00  0.00000000000E+00 -0.12719503716E+04  0.12719510056E+04  0.12699999809E+01 0.  1.
    10030    2    1    2    0    0  0.00000000000E+00  0.00000000000E+00 -0.32266291105E+03  0.22212393157E+04  0.21976789446E+04 0.  0.
        4    1    3    3  502    0 -0.10423595319E+04 -0.34544294802E+03 -0.12087296865E+03  0.11047425544E+04  0.12699999809E+01 0.  1.
       -4    1    3    3    0  502  0.10423595319E+04  0.34544294802E+03 -0.20178994241E+03  0.11164967613E+04  0.12699999809E+01 0. -1.
</event>
<event>
 5   0  0.9179618E-05  0.2194921E+04  0.7818609E-02  0.8520545E-01
        2   -1    0    0  501    0  0.00000000000E+00  0.00000000000E+00  0.14983796427E+04  0.14983796427E+04  0.25500000920E-02 0. -1.
       -2   -1    0    0    0  501  0.00000000000E+00  0.00000000000E+00 -0.80381488188E+03  0.80381488188E+03  0.25500000920E-02 0.  1.
    10030    2    1    2    0    0  0.00000000000E+00  0.00000000000E+00  0.69456476086E+03  0.23021945246E+04  0.21949212793E+04 0.  0.
        3    1    3    3  502    0  0.10179569779E+03  0.10669536131E+04  0.59475309065E+03  0.12257583880E+04  0.10100000352E+00 0. -1.
       -3    1    3    3    0  502 -0.10179569779E+03 -0.10669536131E+04  0.99811670215E+02  0.10764361367E+04  0.10100000352E+00 0.  1.
</event>
<event>
 5   0  0.4174030E-05  0.2192000E+04  0.7818609E-02  0.8521765E-01
        1   -1    0    0  501    0  0.00000000000E+00  0.00000000000E+00  0.16002302609E+04  0.16002302610E+04  0.50400001928E-02 0. -1.
       -1   -1    0    0    0  501  0.00000000000E+00  0.00000000000E+00 -0.75065173608E+03  0.75065173610E+03  0.50400001928E-02 0.  1.
    10030    2    1    2    0    0  0.00000000000E+00  0.00000000000E+00  0.84957852487E+03  0.23508819970E+04  0.21919996565E+04 0.  0.
        2    1    3    3  502    0  0.51090602923E+03  0.26741179164E+03 -0.57479786880E+03  0.81420306251E+03  0.25500000920E-02 0.  1.
       -2    1    3    3    0  502 -0.51090602923E+03 -0.26741179164E+03  0.14243763937E+04  0.15366789345E+04  0.25500000920E-02 0. -1.
</event>
<event>
 5   0  0.4174030E-05  0.2212290E+04  0.7818609E-02  0.8513330E-01
        1   -1    0    0  501    0  0.00000000000E+00  0.00000000000E+00  0.16793801329E+04  0.16793801329E+04  0.50400001928E-02 0. -1.
       -1   -1    0    0    0  501  0.00000000000E+00  0.00000000000E+00 -0.72857624550E+03  0.72857624552E+03  0.50400001928E-02 0.  1.
    10030    2    1    2    0    0  0.00000000000E+00  0.00000000000E+00  0.95080388740E+03  0.24079563784E+04  0.22122897387E+04 0.  0.
        2    1    3    3  502    0 -0.76951849908E+02 -0.32587518202E+03 -0.67209006704E+03  0.75088033646E+03  0.25500000920E-02 0.  1.
       -2    1    3    3    0  502  0.76951849908E+02  0.32587518202E+03  0.16228939544E+04  0.16570760420E+04  0.25500000920E-02 0. -1.
</event>
<event>
 5   0  0.4174075E-05  0.2287215E+04  0.7818609E-02  0.8482979E-01
        1   -1    0    0  501    0  0.00000000000E+00  0.00000000000E+00  0.16812209779E+04  0.16812209779E+04  0.50400001928E-02 0. -1.
       -1   -1    0    0    0  501  0.00000000000E+00  0.00000000000E+00 -0.77790951706E+03  0.77790951708E+03  0.50400001928E-02 0.  1.
    10030    2    1    2    0    0  0.00000000000E+00  0.00000000000E+00  0.90331146086E+03  0.24591304950E+04  0.22872147245E+04 0.  0.
        5    1    3    3  502    0 -0.92329916437E+03  0.87768166112E+02  0.11709966549E+04  0.14938004732E+04  0.46999998093E+01 0. -1.
       -5    1    3    3    0  502  0.92329916437E+03 -0.87768166112E+02 -0.26768519405E+03  0.96533002182E+03  0.46999998093E+01 0.  1.
</event>
<event>
 5   0  0.9254673E-05  0.2205998E+04  0.7818609E-02  0.8515936E-01
       -2   -1    0    0    0  501  0.00000000000E+00  0.00000000000E+00  0.74471865425E+03  0.74471865425E+03  0.25500000920E-02 0. -1.
        2   -1    0    0  501    0  0.00000000000E+00  0.00000000000E+00 -0.16336468502E+04  0.16336468502E+04  0.25500000920E-02 0.  1.
    10030    2    1    2    0    0  0.00000000000E+00  0.00000000000E+00 -0.88892819591E+03  0.23783655044E+04  0.22059984440E+04 0.  0.
        2    1    3    3  502    0 -0.11525819655E+02  0.15501434505E+03 -0.16217788138E+04  0.16292111013E+04  0.25500000920E-02 0.  1.
       -2    1    3    3    0  502  0.11525819655E+02 -0.15501434505E+03  0.73285061785E+03  0.74915440316E+03  0.25500000920E-02 0. -1.
</event>
<event>
 5   0  0.9254673E-05  0.2217235E+04  0.7818609E-02  0.8511289E-01
        2   -1    0    0  501    0  0.00000000000E+00  0.00000000000E+00  0.16833414539E+04  0.16833414539E+04  0.25500000920E-02 0. -1.
       -2   -1    0    0    0  501  0.00000000000E+00  0.00000000000E+00 -0.73011465382E+03  0.73011465383E+03  0.25500000920E-02 0.  1.
    10030    2    1    2    0    0  0.00000000000E+00  0.00000000000E+00  0.95322680010E+03  0.24134561077E+04  0.22172345504E+04 0.  0.
        2    1    3    3  502    0  0.83795750601E+03  0.24485440809E+03 -0.26716301326E+03  0.91296360207E+03  0.25500000920E-02 0.  1.
       -2    1    3    3    0  502 -0.83795750601E+03 -0.24485440809E+03  0.12203898134E+04  0.15004925057E+04  0.25500000920E-02 0. -1.
</event>
<event>
 5   0  0.4188865E-05  0.2169897E+04  0.7818609E-02  0.8531063E-01
        1   -1    0    0  501    0  0.00000000000E+00  0.00000000000E+00  0.15381274179E+04  0.15381274179E+04  0.50400001928E-02 0. -1.
       -1   -1    0    0    0  501  0.00000000000E+00  0.00000000000E+00 -0.76528980662E+03  0.76528980663E+03  0.50400001928E-02 0.  1.
    10030    2    1    2    0    0  0.00000000000E+00  0.00000000000E+00  0.77283761124E+03  0.23034172245E+04  0.21698969876E+04 0.  0.
        3    1    3    3  502    0  0.77449100020E+03  0.20812330511E+03  0.11621093686E+04  0.14119666477E+04  0.10100000352E+00 0. -1.
       -3    1    3    3    0  502 -0.77449100020E+03 -0.20812330511E+03 -0.38927175737E+03  0.89145057676E+03  0.10100000352E+00 0.  1.
</event>
<event>
 5   0  0.9442578E-05  0.2183188E+04  0.7818609E-02  0.8525458E-01
       -2   -1    0    0    0  501  0.00000000000E+00  0.00000000000E+00  0.48195343197E+03  0.48195343197E+03  0.25500000920E-02 0. -1.
        2   -1    0    0  501    0  0.00000000000E+00  0.00000000000E+00 -0.24723906948E+04  0.24723906948E+04  0.25500000920E-02 0.  1.
    10030    2    1    2    0    0  0.00000000000E+00  0.00000000000E+00 -0.19904372628E+04  0.29543441268E+04  0.21831877432E+04 0.  0.
        4    1    3    3  502    0  0.79984495951E+03 -0.73710391844E+03 -0.11199902413E+04  0.15612347355E+04  0.12699999809E+01 0. -1.
       -4    1    3    3    0  502 -0.79984495951E+03  0.73710391844E+03 -0.87044702152E+03  0.13931093913E+04  0.12699999809E+01 0.  1.
</event>
<event>
 5   0  0.4063293E-05  0.2181192E+04  0.7818609E-02  0.8526297E-01
        1   -1    0    0  501    0  0.00000000000E+00  0.00000000000E+00  0.83391494205E+03  0.83391494207E+03  0.50400001928E-02 0. -1.
       -1   -1    0    0    0  501  0.00000000000E+00  0.00000000000E+00 -0.14262846217E+04  0.14262846218E+04  0.50400001928E-02 0.  1.
    10030    2    1    2    0    0  0.00000000000E+00  0.00000000000E+00 -0.59236967969E+03  0.22601995638E+04  0.21811923874E+04 0.  0.
        1    1    3    3  502    0  0.33087074142E+02 -0.10832123018E+04 -0.16945860567E+03  0.10968864410E+04  0.50400001928E-02 0.  1.
       -1    1    3    3    0  502 -0.33087074142E+02  0.10832123018E+04 -0.42291107403E+03  0.11633131229E+04  0.50400001928E-02 0. -1.
</event>
<event>
 5   0  0.9254673E-05  0.2143340E+04  0.7818609E-02  0.8542389E-01
       -2   -1    0    0    0  501  0.00000000000E+00  0.00000000000E+00  0.38219627758E+03  0.38219627759E+03  0.25500000920E-02 0. -1.
        2   -1    0    0  501    0  0.00000000000E+00  0.00000000000E+00 -0.30049381165E+04  0.30049381165E+04  0.25500000920E-02 0.  1.
    10030    2    1    2    0    0  0.00000000000E+00  0.00000000000E+00 -0.26227418389E+04  0.33871343941E+04  0.21433396021E+04 0.  0.
        2    1    3    3  502    0 -0.43579759458E+03 -0.65418141167E+03 -0.16023550892E+03  0.80221461040E+03  0.25500000920E-02 0.  1.
       -2    1    3    3    0  502  0.43579759458E+03  0.65418141167E+03 -0.24625063300E+04  0.25849197837E+04  0.25500000920E-02 0. -1.
</event>
<event>
 5   0  0.4188865E-05  0.2186172E+04  0.7818609E-02  0.8524206E-01
        1   -1    0    0  501    0  0.00000000000E+00  0.00000000000E+00  0.21778038202E+04  0.21778038202E+04  0.50400001928E-02 0.  1.
       -1   -1    0    0    0  501  0.00000000000E+00  0.00000000000E+00 -0.54864328527E+03  0.54864328530E+03  0.50400001928E-02 0. -1.
    10030    2    1    2    0    0  0.00000000000E+00  0.00000000000E+00  0.16291605349E+04  0.27264471055E+04  0.21861724018E+04 0.  0.
        3    1    3    3  502    0  0.83786121474E+03  0.22105926905E+03  0.16455477164E+04  0.18597596385E+04  0.10100000352E+00 0.  1.
       -3    1    3    3    0  502 -0.83786121474E+03 -0.22105926905E+03 -0.16387181510E+02  0.86668746703E+03  0.10100000352E+00 0. -1.
</event>
<event>
 5   0  0.9457742E-05  0.2113692E+04  0.7818609E-02  0.8555236E-01
        2   -1    0    0  501    0  0.00000000000E+00  0.00000000000E+00  0.17417561425E+04  0.17417561425E+04  0.25500000920E-02 0. -1.
       -2   -1    0    0    0  501  0.00000000000E+00  0.00000000000E+00 -0.64126257566E+03  0.64126257566E+03  0.25500000920E-02 0.  1.
    10030    2    1    2    0    0  0.00000000000E+00  0.00000000000E+00  0.11004935668E+04  0.23830187182E+04  0.21136915859E+04 0.  0.
        1    1    3    3  502    0 -0.72940658474E+03 -0.41300695117E+03  0.12759362318E+04  0.15266374734E+04  0.50400001928E-02 0. -1.
       -1    1    3    3    0  502  0.72940658474E+03  0.41300695117E+03 -0.17544266499E+03  0.85638124472E+03  0.50400001928E-02 0.  1.
</event>
<event>
 5   0  0.3283125E-05  0.2195874E+04  0.7818609E-02  0.8520147E-01
       -4   -1    0    0    0  501  0.00000000000E+00  0.00000000000E+00  0.12977623204E+04  0.12977629418E+04  0.12699999809E+01 0.  1.
        4   -1    0    0  501    0  0.00000000000E+00  0.00000000000E+00 -0.92887895264E+03  0.92887982084E+03  0.12699999809E+01 0. -1.
    10030    2    1    2    0    0  0.00000000000E+00  0.00000000000E+00  0.36888336773E+03  0.22266427626E+04  0.21958740978E+04 0.  0.
        1    1    3    3  502    0  0.48018639782E+03  0.38616166698E+03  0.11058913054E+04  0.12659760619E+04  0.50400001928E-02 0.  1.
       -1    1    3    3    0  502 -0.48018639782E+03 -0.38616166698E+03 -0.73700793772E+03  0.96066670078E+03  0.50400001928E-02 0. -1.
</event>
<event>
 5   0  0.4063293E-05  0.2154616E+04  0.7818609E-02  0.8537559E-01
       -1   -1    0    0    0  501  0.00000000000E+00  0.00000000000E+00  0.50096989963E+03  0.50096989966E+03  0.50400001928E-02 0.  1.
        1   -1    0    0  501    0  0.00000000000E+00  0.00000000000E+00 -0.23166908428E+04  0.23166908428E+04  0.50400001928E-02 0. -1.
    10030    2    1    2    0    0  0.00000000000E+00  0.00000000000E+00 -0.18157209431E+04  0.28176607424E+04  0.21546158628E+04 0.  0.
        1    1    3    3  502    0 -0.46910508029E+03 -0.17194776133E+03 -0.21560200557E+04  0.22131534265E+04  0.50400001928E-02 0. -1.
       -1    1    3    3    0  502  0.46910508029E+03  0.17194776133E+03  0.34029911251E+03  0.60450731590E+03  0.50400001928E-02 0.  1.
</event>
<event>
 5   0  0.4133418E-05  0.1986158E+04  0.7818609E-02  0.8613120E-01
       -1   -1    0    0    0  501  0.00000000000E+00  0.00000000000E+00  0.20230372898E+04  0.20230372898E+04  0.50400001928E-02 0.  1.
        1   -1    0    0  501    0  0.00000000000E+00  0.00000000000E+00 -0.48748763274E+03  0.48748763277E+03  0.50400001928E-02 0. -1.
    10030    2    1    2    0    0  0.00000000000E+00  0.00000000000E+00  0.15355496570E+04  0.25105249225E+04  0.19861577575E+04 0.  0.
        4    1    3    3  502    0 -0.84700451757E+03 -0.10042721532E+02  0.11257503857E+03  0.85451287951E+03  0.12699999809E+01 0. -1.
       -4    1    3    3    0  502  0.84700451757E+03  0.10042721532E+02  0.14229746185E+04  0.16560120430E+04  0.12699999809E+01 0.  1.
</event>
<event>
 5   0  0.4133418E-05  0.2206699E+04  0.7818609E-02  0.8515645E-01
        1   -1    0    0  501    0  0.00000000000E+00  0.00000000000E+00  0.10824217933E+04  0.10824217933E+04  0.50400001928E-02 0. -1.
       -1   -1    0    0    0  501  0.00000000000E+00  0.00000000000E+00 -0.11246823298E+04  0.11246823298E+04  0.50400001928E-02 0.  1.
    10030    2    1    2    0    0  0.00000000000E+00  0.00000000000E+00 -0.42260536479E+02  0.22071041231E+04  0.22066994941E+04 0.  0.
        4    1    3    3  502    0  0.81245143501E+03 -0.63818047442E+02  0.72279975336E+03  0.10893076580E+04  0.12699999809E+01 0. -1.
       -4    1    3    3    0  502 -0.81245143501E+03  0.63818047442E+02 -0.76506028984E+03  0.11177964651E+04  0.12699999809E+01 0.  1.
</event>
<event>
 5   0  0.9254673E-05  0.2166904E+04  0.7818609E-02  0.8532331E-01
       -2   -1    0    0    0  501  0.00000000000E+00  0.00000000000E+00  0.67431089055E+03  0.67431089056E+03  0.25500000920E-02 0.  1.
        2   -1    0    0  501    0  0.00000000000E+00  0.00000000000E+00 -0.17408408141E+04  0.17408408141E+04  0.25500000920E-02 0. -1.
    10030    2    1    2    0    0  0.00000000000E+00  0.00000000000E+00 -0.10665299236E+04  0.24151517047E+04  0.21669037078E+04 0.  0.
        2    1    3    3  502    0 -0.76402158970E+03  0.50080042783E+02  0.32112693826E+03  0.83027676753E+03  0.25500000920E-02 0.  1.
       -2    1    3    3    0  502  0.76402158970E+03 -0.50080042783E+02 -0.13876568618E+04  0.15848749372E+04  0.25500000920E-02 0. -1.
</event>
<event>
 5   0  0.9254673E-05  0.2378846E+04  0.7818609E-02  0.8447466E-01
       -2   -1    0    0    0  501  0.00000000000E+00  0.00000000000E+00  0.73686751981E+03  0.73686751981E+03  0.25500000920E-02 0. -1.
        2   -1    0    0  501    0  0.00000000000E+00  0.00000000000E+00 -0.19199207062E+04  0.19199207062E+04  0.25500000920E-02 0.  1.
    10030    2    1    2    0    0  0.00000000000E+00  0.00000000000E+00 -0.11830531863E+04  0.26567882260E+04  0.23788461144E+04 0.  0.
        2    1    3    3  502    0  0.51745930155E+03  0.10599267019E+04 -0.42025115308E+03  0.12521261014E+04  0.25500000920E-02 0.  1.
       -2    1    3    3    0  502 -0.51745930155E+03 -0.10599267019E+04 -0.76280203327E+03  0.14046621245E+04  0.25500000920E-02 0. -1.
</event>
<event>
 5   0  0.9442578E-05  0.2235646E+04  0.7818609E-02  0.8503736E-01
       -2   -1    0    0    0  501  0.00000000000E+00  0.00000000000E+00  0.72533518109E+03  0.72533518109E+03  0.25500000920E-02 0.  1.
        2   -1    0    0  501    0  0.00000000000E+00  0.00000000000E+00 -0.17226904424E+04  0.17226904424E+04  0.25500000920E-02 0. -1.
    10030    2    1    2    0    0  0.00000000000E+00  0.00000000000E+00 -0.99735526131E+03  0.24480256235E+04  0.22356457537E+04 0.  0.
        4    1    3    3  502    0  0.84994019683E+03  0.61808462444E+03 -0.91578304105E+03  0.13939466031E+04  0.12699999809E+01 0. -1.
       -4    1    3    3    0  502 -0.84994019683E+03 -0.61808462444E+03 -0.81572220255E+02  0.10540790204E+04  0.12699999809E+01 0.  1.
</event>
<event>
 5   0  0.9938176E-05  0.2178687E+04  0.7818609E-02  0.8527352E-01
       -2   -1    0    0    0  501  0.00000000000E+00  0.00000000000E+00  0.12651363003E+04  0.12651363003E+04  0.25500000920E-02 0.  1.
        2   -1    0    0  501    0  0.00000000000E+00  0.00000000000E+00 -0.93797768529E+03  0.93797768529E+03  0.25500000920E-02 0. -1.
    10030    2    1    2    0    0  0.00000000000E+00  0.00000000000E+00  0.32715861503E+03  0.22031139856E+04  0.21786873282E+04 0.  0.
        5    1    3    3  502    0  0.20821662750E+03 -0.94354970619E+03 -0.34505845507E+03  0.10260251651E+04  0.46999998093E+01 0. -1.
       -5    1    3    3    0  502 -0.20821662750E+03  0.94354970619E+03  0.67221707010E+03  0.11770888205E+04  0.46999998093E+01 0.  1.
</event>
<event>
 5   0  0.9254673E-05  0.2254922E+04  0.7818609E-02  0.8495910E-01
        2   -1    0    0  501    0  0.00000000000E+00  0.00000000000E+00  0.93478417787E+03  0.93478417787E+03  0.25500000920E-02 0.  1.
       -2   -1    0    0    0  501  0.00000000000E+00  0.00000000000E+00 -0.13598518278E+04  0.13598518278E+04  0.25500000920E-02 0. -1.
    10030    2    1    2    0    0  0.00000000000E+00  0.00000000000E+00 -0.42506764992E+03  0.22946360057E+04  0.22549217041E+04 0.  0.
        2    1    3    3  502    0 -0.67321877383E+03  0.84295191536E+03  0.12092100100E+03  0.10855474829E+04  0.25500000920E-02 0.  1.
       -2    1    3    3    0  502  0.67321877383E+03 -0.84295191536E+03 -0.54598865091E+03  0.12090885228E+04  0.25500000920E-02 0. -1.
</event>
<event>
 5   0  0.9457742E-05  0.2182303E+04  0.7818609E-02  0.8525830E-01
       -2   -1    0    0    0  501  0.00000000000E+00  0.00000000000E+00  0.87509049811E+03  0.87509049811E+03  0.25500000920E-02 0.  1.
        2   -1    0    0  501    0  0.00000000000E+00  0.00000000000E+00 -0.13605579832E+04  0.13605579832E+04  0.25500000920E-02 0. -1.
    10030    2    1    2    0    0  0.00000000000E+00  0.00000000000E+00 -0.48546748506E+03  0.22356484813E+04  0.21823027867E+04 0.  0.
        1    1    3    3  502    0 -0.59034233026E+03  0.90787548114E+03 -0.37967792330E+03  0.11475614500E+04  0.50400001928E-02 0. -1.
       -1    1    3    3    0  502  0.59034233026E+03 -0.90787548114E+03 -0.10578956176E+03  0.10880870312E+04  0.50400001928E-02 0.  1.
</event>
<event>
 5   0  0.9442578E-05  0.2197392E+04  0.7818609E-02  0.8519514E-01
        2   -1    0    0  501    0  0.00000000000E+00  0.00000000000E+00  0.18674699332E+04  0.18674699332E+04  0.25500000920E-02 0.  1.
       -2   -1    0    0    0  501  0.00000000000E+00  0.00000000000E+00 -0.64640003697E+03  0.64640003698E+03  0.25500000920E-02 0. -1.
    10030    2    1    2    0    0  0.00000000000E+00  0.00000000000E+00  0.12210698962E+04  0.25138699702E+04  0.21973917574E+04 0.  0.
        4    1    3    3  502    0  0.15837983088E+03  0.99958407098E+03  0.10997690099E+04  0.14945721709E+04  0.12699999809E+01 0. -1.
       -4    1    3    3    0  502 -0.15837983088E+03 -0.99958407098E+03  0.12130088629E+03  0.10192977993E+04  0.12699999809E+01 0.  1.
</event>
<event>
 5   0  0.9442578E-05  0.2149785E+04  0.7818609E-02  0.8539624E-01
       -2   -1    0    0    0  501  0.00000000000E+00  0.00000000000E+00  0.96861072903E+03  0.96861072903E+03  0.25500000920E-02 0.  1.
        2   -1    0    0  501    0  0.00000000000E+00  0.00000000000E+00 -0.11928356116E+04  0.11928356116E+04  0.25500000920E-02 0. -1.
    10030    2    1    2    0    0  0.00000000000E+00  0.00000000000E+00 -0.22422488256E+03  0.21614463406E+04  0.21497845207E+04 0.  0.
        4    1    3    3  502    0  0.57825173744E+03 -0.40940472655E+03  0.70060685821E+03  0.99641300908E+03  0.12699999809E+01 0.  1.
       -4    1    3    3    0  502 -0.57825173744E+03  0.40940472655E+03 -0.92483174077E+03  0.11650333315E+04  0.12699999809E+01 0. -1.
</event>
<event>
 5   0  0.9938176E-05  0.2190019E+04  0.7818609E-02  0.8522594E-01
       -2   -1    0    0    0  501  0.00000000000E+00  0.00000000000E+00  0.10744137721E+04  0.10744137721E+04  0.25500000920E-02 0.  1.
        2   -1    0    0  501    0  0.00000000000E+00  0.00000000000E+00 -0.11160001671E+04  0.11160001671E+04  0.25500000920E-02 0. -1.
    10030    2    1    2    0    0  0.00000000000E+00  0.00000000000E+00 -0.41586394978E+02  0.21904139392E+04  0.21900191316E+04 0.  0.
        5    1    3    3  502    0  0.61927913476E+03 -0.51847911153E+03 -0.76031584996E+03  0.11092472752E+04  0.46999998093E+01 0. -1.
       -5    1    3    3    0  502 -0.61927913476E+03  0.51847911153E+03  0.71872945498E+03  0.10811666640E+04  0.46999998093E+01 0.  1.
</event>
<event>
 5   0  0.4133418E-05  0.2273250E+04  0.7818609E-02  0.8488544E-01
       -1   -1    0    0    0  501  0.00000000000E+00  0.00000000000E+00  0.22118724004E+04  0.22118724004E+04  0.50400001928E-02 0.  1.
        1   -1    0    0  501    0  0.00000000000E+00  0.00000000000E+00 -0.58408268777E+03  0.58408268779E+03  0.50400001928E-02 0. -1.
    10030    2    1    2    0    0  0.00000000000E+00  0.00000000000E+00  0.16277897126E+04  0.27959550882E+04  0.22732499877E+04 0.  0.
        4    1    3    3  502    0  0.41289807914E+03  0.51695322044E+03 -0.32284230819E+03  0.73617540352E+03  0.12699999809E+01 0. -1.
       -4    1    3    3    0  502 -0.41289807914E+03 -0.51695322044E+03  0.19506320208E+04  0.20597796847E+04  0.12699999809E+01 0.  1.
</event>
<event>
 5   0  0.9938176E-05  0.2199008E+04  0.7818609E-02  0.8518841E-01
        2   -1    0    0  501    0  0.00000000000E+00  0.00000000000E+00  0.17608363989E+04  0.17608363989E+04  0.25500000920E-02 0. -1.
       -2   -1    0    0    0  501  0.00000000000E+00  0.00000000000E+00 -0.68655418035E+03  0.68655418035E+03  0.25500000920E-02 0.  1.
    10030    2    1    2    0    0  0.00000000000E+00  0.00000000000E+00  0.10742822186E+04  0.24473905793E+04  0.21990084953E+04 0.  0.
        5    1    3    3  502    0  0.40999352716E+03 -0.56503972600E+03  0.14825102930E+04  0.16386651407E+04  0.46999998093E+01 0. -1.
       -5    1    3    3    0  502 -0.40999352716E+03  0.56503972600E+03 -0.40822807447E+03  0.80872543861E+03  0.46999998093E+01 0.  1.
</event>
<event>
 5   0  0.9179618E-05  0.1706433E+04  0.7818609E-02  0.8757704E-01
       -2   -1    0    0    0  501  0.00000000000E+00  0.00000000000E+00  0.50797423524E+03  0.50797423525E+03  0.25500000920E-02 0.  1.
        2   -1    0    0  501    0  0.00000000000E+00  0.00000000000E+00 -0.14331008808E+04  0.14331008808E+04  0.25500000920E-02 0. -1.
    10030    2    1    2    0    0  0.00000000000E+00  0.00000000000E+00 -0.92512664553E+03  0.19410751160E+04  0.17064329157E+04 0.  0.
        3    1    3    3  502    0 -0.46142731629E+03  0.36540460043E+03  0.24006338391E+03  0.63566196106E+03  0.10100000352E+00 0.  1.
       -3    1    3    3    0  502  0.46142731629E+03 -0.36540460043E+03 -0.11651900294E+04  0.13054131550E+04  0.10100000352E+00 0. -1.
</event>
<event>
 5   0  0.4174030E-05  0.2193691E+04  0.7818609E-02  0.8521059E-01
        1   -1    0    0  501    0  0.00000000000E+00  0.00000000000E+00  0.94715234797E+03  0.94715234799E+03  0.50400001928E-02 0. -1.
       -1   -1    0    0    0  501  0.00000000000E+00  0.00000000000E+00 -0.12701970694E+04  0.12701970694E+04  0.50400001928E-02 0.  1.
    10030    2    1    2    0    0  0.00000000000E+00  0.00000000000E+00 -0.32304472146E+03  0.22173494174E+04  0.21936910783E+04 0.  0.
        2    1    3    3  502    0  0.97781209195E+03 -0.43692221456E+03  0.77785330369E+02  0.10738100700E+04  0.25500000920E-02 0.  1.
       -2    1    3    3    0  502 -0.97781209195E+03  0.43692221456E+03 -0.40083005183E+03  0.11435393475E+04  0.25500000920E-02 0. -1.
</event>
<event>
 5   0  0.4063293E-05  0.2124299E+04  0.7818609E-02  0.8550614E-01
        1   -1    0    0  501    0  0.00000000000E+00  0.00000000000E+00  0.12570786542E+04  0.12570786542E+04  0.50400001928E-02 0.  1.
       -1   -1    0    0    0  501  0.00000000000E+00  0.00000000000E+00 -0.89744746473E+03  0.89744746475E+03  0.50400001928E-02 0. -1.
    10030    2    1    2    0    0  0.00000000000E+00  0.00000000000E+00  0.35963118943E+03  0.21545261189E+04  0.21242994621E+04 0.  0.
        1    1    3    3  502    0  0.65792236746E+03  0.82254792015E+03  0.31856541588E+03  0.11004230308E+04  0.50400001928E-02 0. -1.
       -1    1    3    3    0  502 -0.65792236746E+03 -0.82254792015E+03  0.41065773546E+02  0.10541030881E+04  0.50400001928E-02 0.  1.
</event>
<event>
 5   0  0.4174075E-05  0.2221012E+04  0.7818609E-02  0.8509733E-01
        1   -1    0    0  501    0  0.00000000000E+00  0.00000000000E+00  0.80677662849E+03  0.80677662850E+03  0.50400001928E-02 0. -1.
       -1   -1    0    0    0  501  0.00000000000E+00  0.00000000000E+00 -0.15285812577E+04  0.15285812577E+04  0.50400001928E-02 0.  1.
    10030    2    1    2    0    0  0.00000000000E+00  0.00000000000E+00 -0.72180462918E+03  0.23353578862E+04  0.22210120517E+04 0.  0.
        5    1    3    3  502    0  0.20207781730E+03 -0.77212850719E+03 -0.11727836667E+04  0.14186125245E+04  0.46999998093E+01 0.  1.
       -5    1    3    3    0  502 -0.20207781730E+03  0.77212850719E+03  0.45097903751E+03  0.91674536166E+03  0.46999998093E+01 0. -1.
</event>
<event>
 5   0  0.4174075E-05  0.2180179E+04  0.7818609E-02  0.8526723E-01
        1   -1    0    0  501    0  0.00000000000E+00  0.00000000000E+00  0.10076695373E+04  0.10076695373E+04  0.50400001928E-02 0.  1.
       -1   -1    0    0    0  501  0.00000000000E+00  0.00000000000E+00 -0.11792511788E+04  0.11792511788E+04  0.50400001928E-02 0. -1.
    10030    2    1    2    0    0  0.00000000000E+00  0.00000000000E+00 -0.17158164151E+03  0.21869207162E+04  0.21801793411E+04 0.  0.
        5    1    3    3  502    0  0.79326308325E+03 -0.51244016275E+03 -0.63191175778E+03  0.11363079685E+04  0.46999998093E+01 0.  1.
       -5    1    3    3    0  502 -0.79326308325E+03  0.51244016275E+03  0.46033011628E+03  0.10506127477E+04  0.46999998093E+01 0. -1.
</event>
<event>
 5   0  0.9457742E-05  0.1574624E+04  0.7818609E-02  0.8836291E-01
        2   -1    0    0  501    0  0.00000000000E+00  0.00000000000E+00  0.12252697606E+04  0.12252697606E+04  0.25500000920E-02 0.  1.
       -2   -1    0    0    0  501  0.00000000000E+00  0.00000000000E+00 -0.50589697232E+03  0.50589697233E+03  0.25500000920E-02 0. -1.
    10030    2    1    2    0    0  0.00000000000E+00  0.00000000000E+00  0.71937278824E+03  0.17311667329E+04  0.15746240976E+04 0.  0.
        1    1    3    3  502    0 -0.39986276535E+03 -0.65467188594E+03  0.55442504664E+03  0.94650548953E+03  0.50400001928E-02 0. -1.
       -1    1    3    3    0  502  0.39986276535E+03  0.65467188594E+03  0.16494774161E+03  0.78466124336E+03  0.50400001928E-02 0.  1.
</event>
<event>
 5   0  0.9457742E-05  0.2193037E+04  0.7818609E-02  0.8521332E-01
        2   -1    0    0  501    0  0.00000000000E+00  0.00000000000E+00  0.12610608280E+04  0.12610608280E+04  0.25500000920E-02 0. -1.
       -2   -1    0    0    0  501  0.00000000000E+00  0.00000000000E+00 -0.95344587148E+03  0.95344587148E+03  0.25500000920E-02 0.  1.
    10030    2    1    2    0    0  0.00000000000E+00  0.00000000000E+00  0.30761495647E+03  0.22145066994E+04  0.21930373824E+04 0.  0.
        1    1    3    3  502    0  0.29775793531E+03 -0.21538131460E+03  0.11970255500E+04  0.12521657502E+04  0.50400001928E-02 0. -1.
       -1    1    3    3    0  502 -0.29775793531E+03  0.21538131460E+03 -0.88941059349E+03  0.96234094923E+03  0.50400001928E-02 0.  1.
</event>
<event>
 5   0  0.4133418E-05  0.2146500E+04  0.7818609E-02  0.8541032E-01
       -1   -1    0    0    0  501  0.00000000000E+00  0.00000000000E+00  0.10384501535E+04  0.10384501535E+04  0.50400001928E-02 0.  1.
        1   -1    0    0  501    0  0.00000000000E+00  0.00000000000E+00 -0.11092158200E+04  0.11092158200E+04  0.50400001928E-02 0. -1.
    10030    2    1    2    0    0  0.00000000000E+00  0.00000000000E+00 -0.70765666557E+02  0.21476659735E+04  0.21464997914E+04 0.  0.
        4    1    3    3  502    0  0.19280400639E+03  0.16163074215E+03 -0.10792932651E+04  0.11082298708E+04  0.12699999809E+01 0. -1.
       -4    1    3    3    0  502 -0.19280400639E+03 -0.16163074215E+03  0.10085275985E+04  0.10394361027E+04  0.12699999809E+01 0.  1.
</event>
<event>
 5   0  0.9254673E-05  0.2202365E+04  0.7818609E-02  0.8517444E-01
        2   -1    0    0  501    0  0.00000000000E+00  0.00000000000E+00  0.16135833128E+04  0.16135833128E+04  0.25500000920E-02 0. -1.
       -2   -1    0    0    0  501  0.00000000000E+00  0.00000000000E+00 -0.75149707426E+03  0.75149707427E+03  0.25500000920E-02 0.  1.
    10030    2    1    2    0    0  0.00000000000E+00  0.00000000000E+00  0.86208623855E+03  0.23650803871E+04  0.22023652183E+04 0.  0.
        2    1    3    3  502    0 -0.43330154460E+03  0.70012582420E+03 -0.35419651631E+03  0.89631555294E+03  0.25500000920E-02 0.  1.
       -2    1    3    3    0  502  0.43330154460E+03 -0.70012582420E+03  0.12162827549E+04  0.14687648342E+04  0.25500000920E-02 0. -1.
</event>
<event>
 5   0  0.3283125E-05  0.2151789E+04  0.7818609E-02  0.8538767E-01
        3   -1    0    0  501    0  0.00000000000E+00  0.00000000000E+00  0.14512146156E+04  0.14512146191E+04  0.10100000352E+00 0. -1.
       -3   -1    0    0    0  501  0.00000000000E+00  0.00000000000E+00 -0.79764133944E+03  0.79764134583E+03  0.10100000352E+00 0.  1.
    10030    2    1    2    0    0  0.00000000000E+00  0.00000000000E+00  0.65357327620E+03  0.22488559650E+04  0.21517888195E+04 0.  0.
        1    1    3    3  502    0 -0.13764071987E+03  0.10628489753E+04  0.22788218271E+03  0.10956838966E+04  0.50400001928E-02 0.  1.
       -1    1    3    3    0  502  0.13764071987E+03 -0.10628489753E+04  0.42569109349E+03  0.11531720683E+04  0.50400001928E-02 0. -1.
</event>
<event>
 5   0  0.9938176E-05  0.2215427E+04  0.7818609E-02  0.8512034E-01
        2   -1    0    0  501    0  0.00000000000E+00  0.00000000000E+00  0.14204818259E+04  0.14204818260E+04  0.25500000920E-02 0. -1.
       -2   -1    0    0    0  501  0.00000000000E+00  0.00000000000E+00 -0.86381211733E+03  0.86381211733E+03  0.25500000920E-02 0.  1.
    10030    2    1    2    0    0  0.00000000000E+00  0.00000000000E+00  0.55666970862E+03  0.22842939433E+04  0.22154271947E+04 0.  0.
        5    1    3    3  502    0  0.64673904888E+03 -0.91511756693E+02 -0.64410404155E+03  0.91735375145E+03  0.46999998093E+01 0.  1.
       -5    1    3    3    0  502 -0.64673904888E+03  0.91511756693E+02  0.12007737502E+04  0.13669401918E+04  0.46999998093E+01 0. -1.
</event>
<event>
 5   0  0.9938176E-05  0.2235323E+04  0.7818609E-02  0.8503868E-01
       -2   -1    0    0    0  501  0.00000000000E+00  0.00000000000E+00  0.11236729757E+04  0.11236729757E+04  0.25500000920E-02 0.  1.
        2   -1    0    0  501    0  0.00000000000E+00  0.00000000000E+00 -0.11116824143E+04  0.11116824143E+04  0.25500000920E-02 0. -1.
    10030    2    1    2    0    0  0.00000000000E+00  0.00000000000E+00  0.11990561406E+02  0.22353553899E+04  0.22353232307E+04 0.  0.
        5    1    3    3  502    0  0.10323976564E+04 -0.36638919692E+03 -0.21550154435E+03  0.11164895746E+04  0.46999998093E+01 0.  1.
       -5    1    3    3    0  502 -0.10323976564E+04  0.36638919692E+03  0.22749210575E+03  0.11188658153E+04  0.46999998093E+01 0. -1.
</event>
<event>
 5   0  0.4063293E-05  0.2222968E+04  0.7818609E-02  0.8508929E-01
       -1   -1    0    0    0  501  0.00000000000E+00  0.00000000000E+00  0.97472470750E+03  0.97472470751E+03  0.50400001928E-02 0. -1.
        1   -1    0    0  501    0  0.00000000000E+00  0.00000000000E+00 -0.12674309394E+04  0.12674309394E+04  0.50400001928E-02 0.  1.
    10030    2    1    2    0    0  0.00000000000E+00  0.00000000000E+00 -0.29270623190E+03  0.22421556469E+04  0.22229676126E+04 0.  0.
        1    1    3    3  502    0 -0.64097803022E+03  0.21485478166E+03 -0.10362274694E+04  0.12372480676E+04  0.50400001928E-02 0.  1.
       -1    1    3    3    0  502  0.64097803022E+03 -0.21485478166E+03  0.74352123746E+03  0.10049075793E+04  0.50400001928E-02 0. -1.
</event>
<event>
 5   0  0.4133418E-05  0.2182039E+04  0.7818609E-02  0.8525941E-01
       -1   -1    0    0    0  501  0.00000000000E+00  0.00000000000E+00  0.92992153013E+03  0.92992153014E+03  0.50400001928E-02 0.  1.
        1   -1    0    0  501    0  0.00000000000E+00  0.00000000000E+00 -0.12800256573E+04  0.12800256573E+04  0.50400001928E-02 0. -1.
    10030    2    1    2    0    0  0.00000000000E+00  0.00000000000E+00 -0.35010412720E+03  0.22099471875E+04  0.21820388795E+04 0.  0.
        4    1    3    3  502    0 -0.75105333839E+03 -0.37479747207E+03  0.53083245547E+03  0.99314599675E+03  0.12699999809E+01 0.  1.
       -4    1    3    3    0  502  0.75105333839E+03  0.37479747207E+03 -0.88093658267E+03  0.12168011907E+04  0.12699999809E+01 0. -1.
</event>
<event>
 5   0  0.9179618E-05  0.2193064E+04  0.7818609E-02  0.8521320E-01
        2   -1    0    0  501    0  0.00000000000E+00  0.00000000000E+00  0.16301574552E+04  0.16301574552E+04  0.25500000920E-02 0. -1.
       -2   -1    0    0    0  501  0.00000000000E+00  0.00000000000E+00 -0.73758685413E+03  0.73758685414E+03  0.25500000920E-02 0.  1.
    10030    2    1    2    0    0  0.00000000000E+00  0.00000000000E+00  0.89257060103E+03  0.23677443093E+04  0.21930642572E+04 0.  0.
        3    1    3    3  502    0 -0.39517606566E+03  0.88910865490E+02 -0.65385400481E+03  0.76915169809E+03  0.10100000352E+00 0.  1.
       -3    1    3    3    0  502  0.39517606566E+03 -0.88910865490E+02  0.15464246058E+04  0.15985926112E+04  0.10100000352E+00 0. -1.
</event>
<event>
 5   0  0.9457742E-05  0.1812146E+04  0.7818609E-02  0.8699867E-01
       -2   -1    0    0    0  501  0.00000000000E+00  0.00000000000E+00  0.62963518534E+03  0.62963518535E+03  0.25500000920E-02 0. -1.
        2   -1    0    0  501    0  0.00000000000E+00  0.00000000000E+00 -0.13038785834E+04  0.13038785834E+04  0.25500000920E-02 0.  1.
    10030    2    1    2    0    0  0.00000000000E+00  0.00000000000E+00 -0.67424339805E+03  0.19335137687E+04  0.18121455058E+04 0.  0.
        1    1    3    3  502    0 -0.32741714833E+03  0.22974656428E+03  0.53033766138E+03  0.66426162611E+03  0.50400001928E-02 0. -1.
       -1    1    3    3    0  502  0.32741714833E+03 -0.22974656428E+03 -0.12045810594E+04  0.12692521426E+04  0.50400001928E-02 0.  1.
</event>
<event>
 5   0  0.9938176E-05  0.2200087E+04  0.7818609E-02  0.8518392E-01
       -2   -1    0    0    0  501  0.00000000000E+00  0.00000000000E+00  0.54340600280E+03  0.54340600280E+03  0.25500000920E-02 0.  1.
        2   -1    0    0  501    0  0.00000000000E+00  0.00000000000E+00 -0.22268723765E+04  0.22268723765E+04  0.25500000920E-02 0. -1.
    10030    2    1    2    0    0  0.00000000000E+00  0.00000000000E+00 -0.16834663737E+04  0.27702783793E+04  0.22000871045E+04 0.  0.
        5    1    3    3  502    0  0.69849852394E+03 -0.84701108857E+03 -0.75498983833E+03  0.13324262524E+04  0.46999998093E+01 0.  1.
       -5    1    3    3    0  502 -0.69849852394E+03  0.84701108857E+03 -0.92847653537E+03  0.14378521269E+04  0.46999998093E+01 0. -1.
</event>
<event>
 5   0  0.4174030E-05  0.2220929E+04  0.7818609E-02  0.8509767E-01
        1   -1    0    0  501    0  0.00000000000E+00  0.00000000000E+00  0.18728336027E+04  0.18728336028E+04  0.50400001928E-02 0.  1.
       -1   -1    0    0    0  501  0.00000000000E+00  0.00000000000E+00 -0.65843102063E+03  0.65843102065E+03  0.50400001928E-02 0. -1.
    10030    2    1    2    0    0  0.00000000000E+00  0.00000000000E+00  0.12144025821E+04  0.25312646234E+04  0.22209293015E+04 0.  0.
        2    1    3    3  502    0  0.54910257008E+03  0.47407431392E+03  0.15654386495E+04  0.17253574276E+04  0.25500000920E-02 0.  1.
       -2    1    3    3    0  502 -0.54910257008E+03 -0.47407431392E+03 -0.35103606741E+03  0.80590719579E+03  0.25500000920E-02 0. -1.
</event>
<event>
 5   0  0.9179618E-05  0.2201258E+04  0.7818609E-02  0.8517905E-01
       -2   -1    0    0    0  501  0.00000000000E+00  0.00000000000E+00  0.89553030216E+03  0.89553030216E+03  0.25500000920E-02 0. -1.
        2   -1    0    0  501    0  0.00000000000E+00  0.00000000000E+00 -0.13527007744E+04  0.13527007744E+04  0.25500000920E-02 0.  1.
    10030    2    1    2    0    0  0.00000000000E+00  0.00000000000E+00 -0.45717047221E+03  0.22482310765E+04  0.22012583067E+04 0.  0.
        3    1    3    3  502    0  0.75572584324E+02  0.55123488182E+03  0.74131772203E+03  0.92688892842E+03  0.10100000352E+00 0. -1.
       -3    1    3    3    0  502 -0.75572584324E+02 -0.55123488182E+03 -0.11984881942E+04  0.13213421481E+04  0.10100000352E+00 0.  1.
</event>
<event>
 5   0  0.9442578E-05  0.2216360E+04  0.7818609E-02  0.8511650E-01
        2   -1    0    0  501    0  0.00000000000E+00  0.00000000000E+00  0.15468792797E+04  0.15468792797E+04  0.25500000920E-02 0.  1.
       -2   -1    0    0    0  501  0.00000000000E+00  0.00000000000E+00 -0.79389673120E+03  0.79389673120E+03  0.25500000920E-02 0. -1.
    10030    2    1    2    0    0  0.00000000000E+00  0.00000000000E+00  0.75298254850E+03  0.23407760109E+04  0.22163595410E+04 0.  0.
        4    1    3    3  502    0 -0.25735921254E+02 -0.16234024171E+03 -0.78095041594E+03  0.79806131141E+03  0.12699999809E+01 0. -1.
       -4    1    3    3    0  502  0.25735921254E+02  0.16234024171E+03  0.15339329644E+04  0.15427146995E+04  0.12699999809E+01 0.  1.
</event>
<event>
 5   0  0.4174075E-05  0.2210757E+04  0.7818609E-02  0.8513964E-01
       -1   -1    0    0    0  501  0.00000000000E+00  0.00000000000E+00  0.89238201624E+03  0.89238201625E+03  0.50400001928E-02 0.  1.
        1   -1    0    0  501    0  0.00000000000E+00  0.00000000000E+00 -0.13692142365E+04  0.13692142365E+04  0.50400001928E-02 0. -1.
    10030    2    1    2    0    0  0.00000000000E+00  0.00000000000E+00 -0.47683222027E+03  0.22615962528E+04  0.22107574820E+04 0.  0.
        5    1    3    3  502    0 -0.11702105472E+03 -0.91531639914E+03  0.38413566488E+03  0.99954006264E+03  0.46999998093E+01 0.  1.
       -5    1    3    3    0  502  0.11702105472E+03  0.91531639914E+03 -0.86096788515E+03  0.12620561901E+04  0.46999998093E+01 0. -1.
</event>
<event>
 5   0  0.9179618E-05  0.2236464E+04  0.7818609E-02  0.8503402E-01
        2   -1    0    0  501    0  0.00000000000E+00  0.00000000000E+00  0.15141214024E+04  0.15141214024E+04  0.25500000920E-02 0. -1.
       -2   -1    0    0    0  501  0.00000000000E+00  0.00000000000E+00 -0.82585377734E+03  0.82585377735E+03  0.25500000920E-02 0.  1.
    10030    2    1    2    0    0  0.00000000000E+00  0.00000000000E+00  0.68826762501E+03  0.23399751797E+04  0.22364640659E+04 0.  0.
        3    1    3    3  502    0  0.58977232755E+03 -0.12443935782E+03 -0.64133312395E+03  0.88012768289E+03  0.10100000352E+00 0.  1.
       -3    1    3    3    0  502 -0.58977232755E+03  0.12443935782E+03  0.13296007490E+04  0.14598474968E+04  0.10100000352E+00 0. -1.
</event>
<event>
 5   0  0.9442578E-05  0.2227306E+04  0.7818609E-02  0.8507148E-01
       -2   -1    0    0    0  501  0.00000000000E+00  0.00000000000E+00  0.39014414708E+03  0.39014414709E+03  0.25500000920E-02 0.  1.
        2   -1    0    0  501    0  0.00000000000E+00  0.00000000000E+00 -0.31788826225E+04  0.31788826225E+04  0.25500000920E-02 0. -1.
    10030    2    1    2    0    0  0.00000000000E+00  0.00000000000E+00 -0.27887384754E+04  0.35690267696E+04  0.22273055017E+04 0.  0.
        4    1    3    3  502    0 -0.14836911907E+03 -0.63928387007E+03  0.47363518904E+02  0.65798341761E+03  0.12699999809E+01 0.  1.
       -4    1    3    3    0  502  0.14836911907E+03  0.63928387007E+03 -0.28361019943E+04  0.29110433520E+04  0.12699999809E+01 0. -1.
</event>
<event>
 5   0  0.9457742E-05  0.2224105E+04  0.7818609E-02  0.8508462E-01
       -2   -1    0    0    0  501  0.00000000000E+00  0.00000000000E+00  0.12204676789E+04  0.12204676789E+04  0.25500000920E-02 0. -1.
        2   -1    0    0  501    0  0.00000000000E+00  0.00000000000E+00 -0.10132676329E+04  0.10132676329E+04  0.25500000920E-02 0.  1.
    10030    2    1    2    0    0  0.00000000000E+00  0.00000000000E+00  0.20720004594E+03  0.22337353118E+04  0.22241046703E+04 0.  0.
        1    1    3    3  502    0 -0.68609685224E+03  0.77850202056E+03 -0.29796390213E+03  0.10796188094E+04  0.50400001928E-02 0.  1.
       -1    1    3    3    0  502  0.68609685224E+03 -0.77850202056E+03  0.50516394807E+03  0.11541165024E+04  0.50400001928E-02 0. -1.
</event>
<event>
 5   0  0.4133418E-05  0.2152310E+04  0.7818609E-02  0.8538544E-01
        1   -1    0    0  501    0  0.00000000000E+00  0.00000000000E+00  0.13959541118E+04  0.13959541118E+04  0.50400001928E-02 0.  1.
       -1   -1    0    0    0  501  0.00000000000E+00  0.00000000000E+00 -0.82961891639E+03  0.82961891641E+03  0.50400001928E-02 0. -1.
    10030    2    1    2    0    0  0.00000000000E+00  0.00000000000E+00  0.56633519544E+03  0.22255730282E+04  0.21523103286E+04 0.  0.
        4    1    3    3  502    0 -0.38108461322E+03  0.87498743851E+03 -0.23103148999E+03  0.98193974471E+03  0.12699999809E+01 0. -1.
       -4    1    3    3    0  502  0.38108461322E+03 -0.87498743851E+03  0.79736668543E+03  0.12436332835E+04  0.12699999809E+01 0.  1.
</event>
<event>
 5   0  0.9179618E-05  0.2131485E+04  0.7818609E-02  0.8547499E-01
        2   -1    0    0  501    0  0.00000000000E+00  0.00000000000E+00  0.10695386013E+04  0.10695386013E+04  0.25500000920E-02 0.  1.
       -2   -1    0    0    0  501  0.00000000000E+00  0.00000000000E+00 -0.10619599407E+04  0.10619599407E+04  0.25500000920E-02 0. -1.
    10030    2    1    2    0    0  0.00000000000E+00  0.00000000000E+00  0.75786605711E+01  0.21314985421E+04  0.21314850688E+04 0.  0.
        3    1    3    3  502    0 -0.32342306476E+03 -0.75967526282E+03  0.67766164495E+03  0.10681452612E+04  0.10100000352E+00 0.  1.
       -3    1    3    3    0  502  0.32342306476E+03  0.75967526282E+03 -0.67008298438E+03  0.10633532809E+04  0.10100000352E+00 0. -1.
</event>
<event>
 5   0  0.9938176E-05  0.1943695E+04  0.7818609E-02  0.8633407E-01
        2   -1    0    0  501    0  0.00000000000E+00  0.00000000000E+00  0.19153514084E+04  0.19153514084E+04  0.25500000920E-02 0.  1.
       -2   -1    0    0    0  501  0.00000000000E+00  0.00000000000E+00 -0.49311465255E+03  0.49311465256E+03  0.25500000920E-02 0. -1.
    10030    2    1    2    0    0  0.00000000000E+00  0.00000000000E+00  0.14222367559E+04  0.24084660610E+04  0.19436952892E+04 0.  0.
        5    1    3    3  502    0 -0.58672535826E+03 -0.67818206727E+03  0.11752304955E+04  0.14782984712E+04  0.46999998093E+01 0.  1.
       -5    1    3    3    0  502  0.58672535826E+03  0.67818206727E+03  0.24700626034E+03  0.93016758976E+03  0.46999998093E+01 0. -1.
</event>
<event>
 5   0  0.4188865E-05  0.2189828E+04  0.7818609E-02  0.8522674E-01
        1   -1    0    0  501    0  0.00000000000E+00  0.00000000000E+00  0.11664617696E+04  0.11664617696E+04  0.50400001928E-02 0.  1.
       -1   -1    0    0    0  501  0.00000000000E+00  0.00000000000E+00 -0.10277548161E+04  0.10277548161E+04  0.50400001928E-02 0. -1.
    10030    2    1    2    0    0  0.00000000000E+00  0.00000000000E+00  0.13870695348E+03  0.21942165857E+04  0.21898280312E+04 0.  0.
        3    1    3    3  502    0  0.81656356369E+03 -0.47687218138E+03  0.62241393831E+03  0.11320698970E+04  0.10100000352E+00 0.  1.
       -3    1    3    3    0  502 -0.81656356369E+03  0.47687218138E+03 -0.48370698483E+03  0.10621466887E+04  0.10100000352E+00 0. -1.
</event>
<event>
 5   0  0.4133418E-05  0.2225405E+04  0.7818609E-02  0.8507928E-01
        1   -1    0    0  501    0  0.00000000000E+00  0.00000000000E+00  0.17111162428E+04  0.17111162428E+04  0.50400001928E-02 0.  1.
       -1   -1    0    0    0  501  0.00000000000E+00  0.00000000000E+00 -0.72356655108E+03  0.72356655110E+03  0.50400001928E-02 0. -1.
    10030    2    1    2    0    0  0.00000000000E+00  0.00000000000E+00  0.98754969173E+03  0.24346827939E+04  0.22254046628E+04 0.  0.
        4    1    3    3  502    0 -0.84608646900E+03  0.53567048847E+03  0.10244687039E+04  0.14326000570E+04  0.12699999809E+01 0.  1.
       -4    1    3    3    0  502  0.84608646900E+03 -0.53567048847E+03 -0.36919012146E+02  0.10020827369E+04  0.12699999809E+01 0. -1.
</event>
<event>
 5   0  0.9442578E-05  0.2212650E+04  0.7818609E-02  0.8513181E-01
        2   -1    0    0  501    0  0.00000000000E+00  0.00000000000E+00  0.11128189229E+04  0.11128189229E+04  0.25500000920E-02 0.  1.
       -2   -1    0    0    0  501  0.00000000000E+00  0.00000000000E+00 -0.10998692888E+04  0.10998692888E+04  0.25500000920E-02 0. -1.
    10030    2    1    2    0    0  0.00000000000E+00  0.00000000000E+00  0.12949634079E+02  0.22126882116E+04  0.22126503178E+04 0.  0.
        4    1    3    3  502    0 -0.93856584588E+03 -0.12158552228E+03 -0.56647902215E+03  0.11029909255E+04  0.12699999809E+01 0. -1.
       -4    1    3    3    0  502  0.93856584588E+03  0.12158552228E+03  0.57942865623E+03  0.11096972861E+04  0.12699999809E+01 0.  1.
</event>
<event>
 5   0  0.4188865E-05  0.2269165E+04  0.7818609E-02  0.8490179E-01
       -1   -1    0    0    0  501  0.00000000000E+00  0.00000000000E+00  0.10678659333E+04  0.10678659333E+04  0.50400001928E-02 0. -1.
        1   -1    0    0  501    0  0.00000000000E+00  0.00000000000E+00 -0.12054672507E+04  0.12054672507E+04  0.50400001928E-02 0.  1.
    10030    2    1    2    0    0  0.00000000000E+00  0.00000000000E+00 -0.13760131746E+03  0.22733331840E+04  0.22691649660E+04 0.  0.
        3    1    3    3  502    0 -0.14199127102E+03  0.87564723740E+03 -0.77745973965E+03  0.11795606226E+04  0.10100000352E+00 0.  1.
       -3    1    3    3    0  502  0.14199127102E+03 -0.87564723740E+03  0.63985842220E+03  0.10937725614E+04  0.10100000352E+00 0. -1.
</event>
<event>
 5   0  0.9938176E-05  0.2124882E+04  0.7818609E-02  0.8550361E-01
       -2   -1    0    0    0  501  0.00000000000E+00  0.00000000000E+00  0.11618433725E+04  0.11618433725E+04  0.25500000920E-02 0.  1.
        2   -1    0    0  501    0  0.00000000000E+00  0.00000000000E+00 -0.97154343486E+03  0.97154343486E+03  0.25500000920E-02 0. -1.
    10030    2    1    2    0    0  0.00000000000E+00  0.00000000000E+00  0.19029993765E+03  0.21333868074E+04  0.21248823976E+04 0.  0.
        5    1    3    3  502    0 -0.41085378366E+03  0.25239137976E+02 -0.88821960030E+03  0.97897599255E+03  0.46999998093E+01 0. -1.
       -5    1    3    3    0  502  0.41085378366E+03 -0.25239137976E+02  0.10785195379E+04  0.11544108148E+04  0.46999998093E+01 0.  1.
</event>
<event>
 5   0  0.9254673E-05  0.2197970E+04  0.7818609E-02  0.8519273E-01
       -2   -1    0    0    0  501  0.00000000000E+00  0.00000000000E+00  0.73011032095E+03  0.73011032095E+03  0.25500000920E-02 0. -1.
        2   -1    0    0  501    0  0.00000000000E+00  0.00000000000E+00 -0.16542270460E+04  0.16542270460E+04  0.25500000920E-02 0.  1.
    10030    2    1    2    0    0  0.00000000000E+00  0.00000000000E+00 -0.92411672501E+03  0.23843373669E+04  0.21979701904E+04 0.  0.
        2    1    3    3  502    0 -0.60094397204E+03  0.86843806678E+03 -0.79189518964E+03  0.13200061836E+04  0.25500000920E-02 0.  1.
       -2    1    3    3    0  502  0.60094397204E+03 -0.86843806678E+03 -0.13222153537E+03  0.10643311833E+04  0.25500000920E-02 0. -1.
</event>
<event>
 5   0  0.9938176E-05  0.2200592E+04  0.7818609E-02  0.8518182E-01
       -2   -1    0    0    0  501  0.00000000000E+00  0.00000000000E+00  0.12339118333E+04  0.12339118333E+04  0.25500000920E-02 0. -1.
        2   -1    0    0  501    0  0.00000000000E+00  0.00000000000E+00 -0.98114916314E+03  0.98114916314E+03  0.25500000920E-02 0.  1.
    10030    2    1    2    0    0  0.00000000000E+00  0.00000000000E+00  0.25276267012E+03  0.22150609964E+04  0.22005922499E+04 0.  0.
        5    1    3    3  502    0  0.44871139197E+03  0.32183107497E+03  0.10843278199E+04  0.12168426624E+04  0.46999998093E+01 0. -1.
       -5    1    3    3    0  502 -0.44871139197E+03 -0.32183107497E+03 -0.83156514974E+03  0.99821833401E+03  0.46999998093E+01 0.  1.
</event>
<event>
 5   0  0.4174075E-05  0.2188511E+04  0.7818609E-02  0.8523225E-01
        1   -1    0    0  501    0  0.00000000000E+00  0.00000000000E+00  0.90373496889E+03  0.90373496890E+03  0.50400001928E-02 0.  1.
       -1   -1    0    0    0  501  0.00000000000E+00  0.00000000000E+00 -0.13249405406E+04  0.13249405406E+04  0.50400001928E-02 0. -1.
    10030    2    1    2    0    0  0.00000000000E+00  0.00000000000E+00 -0.42120557174E+03  0.22286755095E+04  0.21885109991E+04 0.  0.
        5    1    3    3  502    0  0.19404921821E+02 -0.42972142074E+03  0.81401157508E+03  0.92069212270E+03  0.46999998093E+01 0.  1.
       -5    1    3    3    0  502 -0.19404921821E+02  0.42972142074E+03 -0.12352171468E+04  0.13079833868E+04  0.46999998093E+01 0. -1.
</event>
<event>
 5   0  0.4133418E-05  0.2183548E+04  0.7818609E-02  0.8525307E-01
       -1   -1    0    0    0  501  0.00000000000E+00  0.00000000000E+00  0.93375445066E+03  0.93375445067E+03  0.50400001928E-02 0. -1.
        1   -1    0    0  501    0  0.00000000000E+00  0.00000000000E+00 -0.12765356399E+04  0.12765356399E+04  0.50400001928E-02 0.  1.
    10030    2    1    2    0    0  0.00000000000E+00  0.00000000000E+00 -0.34278118925E+03  0.22102900906E+04  0.21835483372E+04 0.  0.
        4    1    3    3  502    0  0.99147407010E+03  0.34622028207E+03  0.13072722624E+03  0.10582913285E+04  0.12699999809E+01 0. -1.
       -4    1    3    3    0  502 -0.99147407010E+03 -0.34622028207E+03 -0.47350841549E+03  0.11519987621E+04  0.12699999809E+01 0.  1.
</event>
<event>
 5   0  0.9179618E-05  0.2238421E+04  0.7818609E-02  0.8502605E-01
       -2   -1    0    0    0  501  0.00000000000E+00  0.00000000000E+00  0.61489344664E+03  0.61489344665E+03  0.25500000920E-02 0.  1.
        2   -1    0    0  501    0  0.00000000000E+00  0.00000000000E+00 -0.20371523243E+04  0.20371523243E+04  0.25500000920E-02 0. -1.
    10030    2    1    2    0    0  0.00000000000E+00  0.00000000000E+00 -0.14222588776E+04  0.26520457709E+04  0.22384205271E+04 0.  0.
        3    1    3    3  502    0 -0.21773522218E+03  0.98320857104E+03 -0.13249367791E+03  0.10157077857E+04  0.10100000352E+00 0. -1.
       -3    1    3    3    0  502  0.21773522218E+03 -0.98320857104E+03 -0.12897651997E+04  0.16363379852E+04  0.10100000352E+00 0.  1.
</event>
<event>
 5   0  0.4174030E-05  0.1918683E+04  0.7818609E-02  0.8645612E-01
        1   -1    0    0  501    0  0.00000000000E+00  0.00000000000E+00  0.12529223260E+04  0.12529223260E+04  0.50400001928E-02 0.  1.
       -1   -1    0    0    0  501  0.00000000000E+00  0.00000000000E+00 -0.73455190473E+03  0.73455190475E+03  0.50400001928E-02 0. -1.
    10030    2    1    2    0    0  0.00000000000E+00  0.00000000000E+00  0.51837042129E+03  0.19874742308E+04  0.19186833830E+04 0.  0.
        2    1    3    3  502    0 -0.85556328497E+02 -0.58294857445E+02 -0.72874846137E+03  0.73606555123E+03  0.25500000920E-02 0. -1.
       -2    1    3    3    0  502  0.85556328497E+02  0.58294857445E+02  0.12471188827E+04  0.12514086795E+04  0.25500000920E-02 0.  1.
</event>
<event>
 5   0  0.9442578E-05  0.2170881E+04  0.7818609E-02  0.8530647E-01
        2   -1    0    0  501    0  0.00000000000E+00  0.00000000000E+00  0.13042860108E+04  0.13042860108E+04  0.25500000920E-02 0. -1.
       -2   -1    0    0    0  501  0.00000000000E+00  0.00000000000E+00 -0.90331505899E+03  0.90331505899E+03  0.25500000920E-02 0.  1.
    10030    2    1    2    0    0  0.00000000000E+00  0.00000000000E+00  0.40097095180E+03  0.22076010698E+04  0.21708811066E+04 0.  0.
        4    1    3    3  502    0 -0.37966244535E+02  0.45754373640E+03 -0.79971204723E+03  0.92213267908E+03  0.12699999809E+01 0.  1.
       -4    1    3    3    0  502  0.37966244535E+02 -0.45754373640E+03  0.12006829990E+04  0.12854683907E+04  0.12699999809E+01 0. -1.
</event>
<event>
 5   0  0.4133418E-05  0.2248481E+04  0.7818609E-02  0.8498516E-01
        1   -1    0    0  501    0  0.00000000000E+00  0.00000000000E+00  0.10787644177E+04  0.10787644177E+04  0.50400001928E-02 0. -1.
       -1   -1    0    0    0  501  0.00000000000E+00  0.00000000000E+00 -0.11716336542E+04  0.11716336542E+04  0.50400001928E-02 0.  1.
    10030    2    1    2    0    0  0.00000000000E+00  0.00000000000E+00 -0.92869236525E+02  0.22503980719E+04  0.22484809954E+04 0.  0.
        4    1    3    3  502    0 -0.22619583893E+03 -0.97660816629E+03 -0.55577618703E+03  0.11462185005E+04  0.12699999809E+01 0.  1.
       -4    1    3    3    0  502  0.22619583893E+03  0.97660816629E+03  0.46290695051E+03  0.11041795713E+04  0.12699999809E+01 0. -1.
</event>
<event>
 5   0  0.4063293E-05  0.2014868E+04  0.7818609E-02  0.8599701E-01
       -1   -1    0    0    0  501  0.00000000000E+00  0.00000000000E+00  0.11355219778E+04  0.11355219778E+04  0.50400001928E-02 0. -1.
        1   -1    0    0  501    0  0.00000000000E+00  0.00000000000E+00 -0.89379483578E+03  0.89379483579E+03  0.50400001928E-02 0.  1.
    10030    2    1    2    0    0  0.00000000000E+00  0.00000000000E+00  0.24172714201E+03  0.20293168136E+04  0.20148684123E+04 0.  0.
        1    1    3    3  502    0 -0.77548529442E+03 -0.46792747614E+03  0.56515051650E+03  0.10675807562E+04  0.50400001928E-02 0. -1.
       -1    1    3    3    0  502  0.77548529442E+03  0.46792747614E+03 -0.32342337449E+03  0.96173605733E+03  0.50400001928E-02 0.  1.
</event>
<event>
 5   0  0.4174075E-05  0.2159490E+04  0.7818609E-02  0.8535481E-01
        1   -1    0    0  501    0  0.00000000000E+00  0.00000000000E+00  0.52666630546E+03  0.52666630548E+03  0.50400001928E-02 0.  1.
       -1   -1    0    0    0  501  0.00000000000E+00  0.00000000000E+00 -0.22136387236E+04  0.22136387236E+04  0.50400001928E-02 0. -1.
    10030    2    1    2    0    0  0.00000000000E+00  0.00000000000E+00 -0.16869724182E+04  0.27403050291E+04  0.21594896881E+04 0.  0.
        5    1    3    3  502    0 -0.10156355219E+04  0.10936174271E+03 -0.12873524629E+04  0.16434031635E+04  0.46999998093E+01 0.  1.
       -5    1    3    3    0  502  0.10156355219E+04 -0.10936174271E+03 -0.39961995527E+03  0.10969018656E+04  0.46999998093E+01 0. -1.
</event>
<event>
 5   0  0.4188865E-05  0.1665634E+04  0.7818609E-02  0.8781211E-01
       -1   -1    0    0    0  501  0.00000000000E+00  0.00000000000E+00  0.71229230264E+03  0.71229230266E+03  0.50400001928E-02 0.  1.
        1   -1    0    0  501    0  0.00000000000E+00  0.00000000000E+00 -0.97373533128E+03  0.97373533129E+03  0.50400001928E-02 0. -1.
    10030    2    1    2    0    0  0.00000000000E+00  0.00000000000E+00 -0.26144302864E+03  0.16860276340E+04  0.16656340310E+04 0.  0.
        3    1    3    3  502    0  0.19338099677E+03  0.11924515626E+03 -0.94176096657E+03  0.96877724248E+03  0.10100000352E+00 0. -1.
       -3    1    3    3    0  502 -0.19338099677E+03 -0.11924515626E+03  0.68031793792E+03  0.71725039147E+03  0.10100000352E+00 0.  1.
</event>
<event>
 5   0  0.9254673E-05  0.2201530E+04  0.7818609E-02  0.8517792E-01
       -2   -1    0    0    0  501  0.00000000000E+00  0.00000000000E+00  0.11051748468E+04  0.11051748468E+04  0.25500000920E-02 0. -1.
        2   -1    0    0  501    0  0.00000000000E+00  0.00000000000E+00 -0.10963728581E+04  0.10963728581E+04  0.25500000920E-02 0.  1.
    10030    2    1    2    0    0  0.00000000000E+00  0.00000000000E+00  0.88019887427E+01  0.22015477049E+04  0.22015301092E+04 0.  0.
        2    1    3    3  502    0 -0.18035170559E+02  0.48666317701E+03 -0.98278336929E+03  0.10968269992E+04  0.25500000920E-02 0.  1.
       -2    1    3    3    0  502  0.18035170559E+02 -0.48666317701E+03  0.99158535803E+03  0.11047207057E+04  0.25500000920E-02 0. -1.
</event>
<event>
 5   0  0.4133418E-05  0.2209935E+04  0.7818609E-02  0.8514304E-01
        1   -1    0    0  501    0  0.00000000000E+00  0.00000000000E+00  0.22461553596E+04  0.22461553596E+04  0.50400001928E-02 0. -1.
       -1   -1    0    0    0  501  0.00000000000E+00  0.00000000000E+00 -0.54357490782E+03  0.54357490785E+03  0.50400001928E-02 0.  1.
    10030    2    1    2    0    0  0.00000000000E+00  0.00000000000E+00  0.17025804518E+04  0.27897302674E+04  0.22099354675E+04 0.  0.
        4    1    3    3  502    0 -0.89620786435E+03 -0.63170066629E+03  0.67858313845E+03  0.12894614987E+04  0.12699999809E+01 0.  1.
       -4    1    3    3    0  502  0.89620786435E+03  0.63170066629E+03  0.10239973133E+04  0.15002687688E+04  0.12699999809E+01 0. -1.
</event>
<event>
 5   0  0.9179618E-05  0.2209138E+04  0.7818609E-02  0.8514634E-01
        2   -1    0    0  501    0  0.00000000000E+00  0.00000000000E+00  0.17185915587E+04  0.17185915587E+04  0.25500000920E-02 0.  1.
       -2   -1    0    0    0  501  0.00000000000E+00  0.00000000000E+00 -0.70992610718E+03  0.70992610718E+03  0.25500000920E-02 0. -1.
    10030    2    1    2    0    0  0.00000000000E+00  0.00000000000E+00  0.10086654515E+04  0.24285176659E+04  0.22091383072E+04 0.  0.
        3    1    3    3  502    0  0.99862597241E+03 -0.16023643677E+03  0.99243355309E+03  0.14169876202E+04  0.10100000352E+00 0. -1.
       -3    1    3    3    0  502 -0.99862597241E+03  0.16023643677E+03  0.16231898400E+02  0.10115300456E+04  0.10100000352E+00 0.  1.
</event>
<event>
 5   0  0.9442578E-05  0.1613160E+04  0.7818609E-02  0.8812504E-01
        2   -1    0    0  501    0  0.00000000000E+00  0.00000000000E+00  0.71933287006E+03  0.71933287007E+03  0.25500000920E-02 0. -1.
       -2   -1    0    0    0  501  0.00000000000E+00  0.00000000000E+00 -0.90440946071E+03  0.90440946071E+03  0.25500000920E-02 0.  1.
    10030    2    1    2    0    0  0.00000000000E+00  0.00000000000E+00 -0.18507659065E+03  0.16237423308E+04  0.16131601943E+04 0.  0.
        4    1    3    3  502    0 -0.42739471520E+03 -0.32568216203E+03 -0.69801123597E+03  0.88088388093E+03  0.12699999809E+01 0.  1.
       -4    1    3    3    0  502  0.42739471520E+03  0.32568216203E+03  0.51293464532E+03  0.74285844985E+03  0.12699999809E+01 0. -1.
</event>
<event>
 5   0  0.4063293E-05  0.2030070E+04  0.7818609E-02  0.8592690E-01
       -1   -1    0    0    0  501  0.00000000000E+00  0.00000000000E+00  0.13298266909E+04  0.13298266909E+04  0.50400001928E-02 0. -1.
        1   -1    0    0  501    0  0.00000000000E+00  0.00000000000E+00 -0.77475936267E+03  0.77475936268E+03  0.50400001928E-02 0.  1.
    10030    2    1    2    0    0  0.00000000000E+00  0.00000000000E+00  0.55506732825E+03  0.21045860536E+04  0.20300696338E+04 0.  0.
        1    1    3    3  502    0  0.89244376557E+03 -0.17749356347E+03  0.74386238183E+03  0.11752834054E+04  0.50400001928E-02 0. -1.
       -1    1    3    3    0  502 -0.89244376557E+03  0.17749356347E+03 -0.18879505358E+03  0.92930264826E+03  0.50400001928E-02 0.  1.
</event>
<event>
 5   0  0.9938176E-05  0.2137250E+04  0.7818609E-02  0.8545010E-01
       -2   -1    0    0    0  501  0.00000000000E+00  0.00000000000E+00  0.12155234605E+04  0.12155234605E+04  0.25500000920E-02 0. -1.
        2   -1    0    0  501    0  0.00000000000E+00  0.00000000000E+00 -0.93947939710E+03  0.93947939711E+03  0.25500000920E-02 0.  1.
    10030    2    1    2    0    0  0.00000000000E+00  0.00000000000E+00  0.27604406337E+03  0.21550028576E+04  0.21372498664E+04 0.  0.
        5    1    3    3  502    0  0.38492186069E+02  0.59139072397E+03 -0.75858442038E+03  0.96265105289E+03  0.46999998093E+01 0.  1.
       -5    1    3    3    0  502 -0.38492186069E+02 -0.59139072397E+03  0.10346284837E+04  0.11923518047E+04  0.46999998093E+01 0. -1.
</event>
<event>
 5   0  0.9457742E-05  0.2208751E+04  0.7818609E-02  0.8514794E-01
       -2   -1    0    0    0  501  0.00000000000E+00  0.00000000000E+00  0.64605663457E+03  0.64605663458E+03  0.25500000920E-02 0. -1.
        2   -1    0    0  501    0  0.00000000000E+00  0.00000000000E+00 -0.18878310786E+04  0.18878310786E+04  0.25500000920E-02 0.  1.
    10030    2    1    2    0    0  0.00000000000E+00  0.00000000000E+00 -0.12417744440E+04  0.25338877132E+04  0.22087514965E+04 0.  0.
        1    1    3    3  502    0  0.41151318861E+03  0.33777860346E+03  0.48912242522E+03  0.72296489281E+03  0.50400001928E-02 0. -1.
       -1    1    3    3    0  502 -0.41151318861E+03 -0.33777860346E+03 -0.17308968692E+04  0.18109228204E+04  0.50400001928E-02 0.  1.
</event>
<event>
 5   0  0.9179618E-05  0.2222886E+04  0.7818609E-02  0.8508963E-01
       -2   -1    0    0    0  501  0.00000000000E+00  0.00000000000E+00  0.80655545528E+03  0.80655545528E+03  0.25500000920E-02 0. -1.
        2   -1    0    0  501    0  0.00000000000E+00  0.00000000000E+00 -0.15315812986E+04  0.15315812986E+04  0.25500000920E-02 0.  1.
    10030    2    1    2    0    0  0.00000000000E+00  0.00000000000E+00 -0.72502584330E+03  0.23381367539E+04  0.22228857385E+04 0.  0.
        3    1    3    3  502    0 -0.50209313535E+03 -0.22677166867E+03 -0.13778494376E+04  0.14839110449E+04  0.10100000352E+00 0.  1.
       -3    1    3    3    0  502  0.50209313535E+03  0.22677166867E+03  0.65282359434E+03  0.85422570893E+03  0.10100000352E+00 0. -1.
</event>
<event>
 5   0  0.4063293E-05  0.2179653E+04  0.7818609E-02  0.8526945E-01
       -1   -1    0    0    0  501  0.00000000000E+00  0.00000000000E+00  0.12577040303E+04  0.12577040304E+04  0.50400001928E-02 0.  1.
        1   -1    0    0  501    0  0.00000000000E+00  0.00000000000E+00 -0.94435717672E+03  0.94435717673E+03  0.50400001928E-02 0. -1.
    10030    2    1    2    0    0  0.00000000000E+00  0.00000000000E+00  0.31334685363E+03  0.22020612071E+04  0.21796530249E+04 0.  0.
        1    1    3    3  502    0 -0.79928609797E+03 -0.72313182709E+03 -0.60536535286E+01  0.10778750171E+04  0.50400001928E-02 0. -1.
       -1    1    3    3    0  502  0.79928609797E+03  0.72313182709E+03  0.31940050716E+03  0.11241861900E+04  0.50400001928E-02 0.  1.
</event>
<event>
 5   0  0.4174030E-05  0.2124361E+04  0.7818609E-02  0.8550588E-01
       -1   -1    0    0    0  501  0.00000000000E+00  0.00000000000E+00  0.60398833398E+03  0.60398833400E+03  0.50400001928E-02 0. -1.
        1   -1    0    0  501    0  0.00000000000E+00  0.00000000000E+00 -0.18679615700E+04  0.18679615700E+04  0.50400001928E-02 0.  1.
    10030    2    1    2    0    0  0.00000000000E+00  0.00000000000E+00 -0.12639732361E+04  0.24719499040E+04  0.21243606065E+04 0.  0.
        2    1    3    3  502    0  0.67421966699E+03 -0.87446490943E+02 -0.15816094151E+04  0.17215421546E+04  0.25500000920E-02 0.  1.
       -2    1    3    3    0  502 -0.67421966699E+03  0.87446490943E+02  0.31763617906E+03  0.75040774942E+03  0.25500000920E-02 0. -1.
</event>
<event>
 5   0  0.9457742E-05  0.1666321E+04  0.7818609E-02  0.8780809E-01
       -2   -1    0    0    0  501  0.00000000000E+00  0.00000000000E+00  0.63336813041E+03  0.63336813042E+03  0.25500000920E-02 0.  1.
        2   -1    0    0  501    0  0.00000000000E+00  0.00000000000E+00 -0.10959758388E+04  0.10959758388E+04  0.25500000920E-02 0. -1.
    10030    2    1    2    0    0  0.00000000000E+00  0.00000000000E+00 -0.46260770834E+03  0.17293439692E+04  0.16663206990E+04 0.  0.
        1    1    3    3  502    0  0.73362089462E+03  0.17918909355E+03 -0.59653430320E+03  0.96237286079E+03  0.50400001928E-02 0. -1.
       -1    1    3    3    0  502 -0.73362089462E+03 -0.17918909355E+03  0.13392659485E+03  0.76697110839E+03  0.50400001928E-02 0.  1.
</event>
<event>
 5   0  0.9179618E-05  0.2172853E+04  0.7818609E-02  0.8529813E-01
        2   -1    0    0  501    0  0.00000000000E+00  0.00000000000E+00  0.13865543723E+04  0.13865543723E+04  0.25500000920E-02 0. -1.
       -2   -1    0    0    0  501  0.00000000000E+00  0.00000000000E+00 -0.85126307870E+03  0.85126307870E+03  0.25500000920E-02 0.  1.
    10030    2    1    2    0    0  0.00000000000E+00  0.00000000000E+00  0.53529129364E+03  0.22378174510E+04  0.21728530036E+04 0.  0.
        3    1    3    3  502    0  0.44197183379E+03  0.77302639059E+03 -0.37338937667E+03  0.96557161269E+03  0.10100000352E+00 0.  1.
       -3    1    3    3    0  502 -0.44197183379E+03 -0.77302639059E+03  0.90868067031E+03  0.12722458384E+04  0.10100000352E+00 0. -1.
</event>
<event>
 5   0  0.4174075E-05  0.2176148E+04  0.7818609E-02  0.8528422E-01
        1   -1    0    0  501    0  0.00000000000E+00  0.00000000000E+00  0.12165892648E+04  0.12165892648E+04  0.50400001928E-02 0. -1.
       -1   -1    0    0    0  501  0.00000000000E+00  0.00000000000E+00 -0.97313418465E+03  0.97313418467E+03  0.50400001928E-02 0.  1.
    10030    2    1    2    0    0  0.00000000000E+00  0.00000000000E+00  0.24345508018E+03  0.21897234495E+04  0.21761476074E+04 0.  0.
        5    1    3    3  502    0 -0.58863169060E+02 -0.10734647251E+04  0.29037720205E+03  0.11136123195E+04  0.46999998093E+01 0. -1.
       -5    1    3    3    0  502  0.58863169060E+02  0.10734647251E+04 -0.46922121869E+02  0.10761111300E+04  0.46999998093E+01 0.  1.
</event>
<event>
 5   0  0.9179618E-05  0.2186920E+04  0.7818609E-02  0.8523892E-01
        2   -1    0    0  501    0  0.00000000000E+00  0.00000000000E+00  0.16843585180E+04  0.16843585180E+04  0.25500000920E-02 0.  1.
       -2   -1    0    0    0  501  0.00000000000E+00  0.00000000000E+00 -0.70985783326E+03  0.70985783326E+03  0.25500000920E-02 0. -1.
    10030    2    1    2    0    0  0.00000000000E+00  0.00000000000E+00  0.97450068476E+03  0.23942163513E+04  0.21869202894E+04 0.  0.
        3    1    3    3  502    0 -0.61521216126E+02  0.42881865551E+03 -0.61190082534E+03  0.74972857061E+03  0.10100000352E+00 0. -1.
       -3    1    3    3    0  502  0.61521216126E+02 -0.42881865551E+03  0.15864015101E+04  0.16444877807E+04  0.10100000352E+00 0.  1.
</event>
<event>
 5   0  0.4133418E-05  0.2192428E+04  0.7818609E-02  0.8521586E-01
        1   -1    0    0  501    0  0.00000000000E+00  0.00000000000E+00  0.88363145918E+03  0.88363145919E+03  0.50400001928E-02 0.  1.
       -1   -1    0    0    0  501  0.00000000000E+00  0.00000000000E+00 -0.13599393820E+04  0.13599393820E+04  0.50400001928E-02 0. -1.
    10030    2    1    2    0    0  0.00000000000E+00  0.00000000000E+00 -0.47630792286E+03  0.22435708412E+04  0.21924280792E+04 0.  0.
        4    1    3    3  502    0 -0.16211118197E+02 -0.10234398032E+04 -0.63972575100E+03  0.12070387237E+04  0.12699999809E+01 0. -1.
       -4    1    3    3    0  502  0.16211118197E+02  0.10234398032E+04  0.16341782813E+03  0.10365321175E+04  0.12699999809E+01 0.  1.
</event>
<event>
 5   0  0.4133418E-05  0.2150878E+04  0.7818609E-02  0.8539157E-01
       -1   -1    0    0    0  501  0.00000000000E+00  0.00000000000E+00  0.15954646022E+04  0.15954646023E+04  0.50400001928E-02 0. -1.
        1   -1    0    0  501    0  0.00000000000E+00  0.00000000000E+00 -0.72491047683E+03  0.72491047685E+03  0.50400001928E-02 0.  1.
    10030    2    1    2    0    0  0.00000000000E+00  0.00000000000E+00  0.87055412541E+03  0.23203750791E+04  0.21508779655E+04 0.  0.
        4    1    3    3  502    0 -0.10049733286E+04 -0.30509698353E+03  0.18572145575E+03  0.10665597183E+04  0.12699999809E+01 0. -1.
       -4    1    3    3    0  502  0.10049733286E+04  0.30509698353E+03  0.68483266966E+03  0.12538153608E+04  0.12699999809E+01 0.  1.
</event>
<event>
 5   0  0.9179618E-05  0.2185890E+04  0.7818609E-02  0.8524324E-01
       -2   -1    0    0    0  501  0.00000000000E+00  0.00000000000E+00  0.86502035785E+03  0.86502035786E+03  0.25500000920E-02 0. -1.
        2   -1    0    0  501    0  0.00000000000E+00  0.00000000000E+00 -0.13809256302E+04  0.13809256302E+04  0.25500000920E-02 0.  1.
    10030    2    1    2    0    0  0.00000000000E+00  0.00000000000E+00 -0.51590527239E+03  0.22459459881E+04  0.21858900090E+04 0.  0.
        3    1    3    3  502    0  0.18332553192E+03  0.15357635609E+03 -0.13537119517E+04  0.13746745092E+04  0.10100000352E+00 0.  1.
       -3    1    3    3    0  502 -0.18332553192E+03 -0.15357635609E+03  0.83780667934E+03  0.87127147890E+03  0.10100000352E+00 0. -1.
</event>
<event>
 5   0  0.4188865E-05  0.2163371E+04  0.7818609E-02  0.8533830E-01
       -1   -1    0    0    0  501  0.00000000000E+00  0.00000000000E+00  0.11261319802E+04  0.11261319802E+04  0.50400001928E-02 0. -1.
        1   -1    0    0  501    0  0.00000000000E+00  0.00000000000E+00 -0.10389931203E+04  0.10389931203E+04  0.50400001928E-02 0.  1.
    10030    2    1    2    0    0  0.00000000000E+00  0.00000000000E+00  0.87138859859E+02  0.21651251005E+04  0.21633708698E+04 0.  0.
        3    1    3    3  502    0  0.10236478439E+04  0.37459995860E+02 -0.30425405106E+03  0.10685638480E+04  0.10100000352E+00 0.  1.
       -3    1    3    3    0  502 -0.10236478439E+04 -0.37459995860E+02  0.39139291091E+03  0.10965612525E+04  0.10100000352E+00 0. -1.
</event>
<event>
 5   0  0.4063293E-05  0.2024101E+04  0.7818609E-02  0.8595435E-01
        1   -1    0    0  501    0  0.00000000000E+00  0.00000000000E+00  0.93367037483E+03  0.93367037484E+03  0.50400001928E-02 0. -1.
       -1   -1    0    0    0  501  0.00000000000E+00  0.00000000000E+00 -0.10970108492E+04  0.10970108493E+04  0.50400001928E-02 0.  1.
    10030    2    1    2    0    0  0.00000000000E+00  0.00000000000E+00 -0.16334047441E+03  0.20306812241E+04  0.20241013125E+04 0.  0.
        1    1    3    3  502    0 -0.29317847249E+03 -0.62390521306E+03  0.66170758622E+03  0.95554605399E+03  0.50400001928E-02 0. -1.
       -1    1    3    3    0  502  0.29317847249E+03  0.62390521306E+03 -0.82504806063E+03  0.10751351701E+04  0.50400001928E-02 0.  1.
</event>
<event>
 5   0  0.4133418E-05  0.1996657E+04  0.7818609E-02  0.8608185E-01
        1   -1    0    0  501    0  0.00000000000E+00  0.00000000000E+00  0.62131992265E+03  0.62131992267E+03  0.50400001928E-02 0.  1.
       -1   -1    0    0    0  501  0.00000000000E+00  0.00000000000E+00 -0.16041003307E+04  0.16041003307E+04  0.50400001928E-02 0. -1.
    10030    2    1    2    0    0  0.00000000000E+00  0.00000000000E+00 -0.98278040807E+03  0.22254202534E+04  0.19966566990E+04 0.  0.
        4    1    3    3  502    0  0.31229329884E+03 -0.17545227475E+03 -0.15300070432E+04  0.15713795755E+04  0.12699999809E+01 0. -1.
       -4    1    3    3    0  502 -0.31229329884E+03  0.17545227475E+03  0.54722663513E+03  0.65404067787E+03  0.12699999809E+01 0.  1.
</event>
<event>
 5   0  0.9254673E-05  0.2013860E+04  0.7818609E-02  0.8600168E-01
        2   -1    0    0  501    0  0.00000000000E+00  0.00000000000E+00  0.15069994810E+04  0.15069994810E+04  0.25500000920E-02 0.  1.
       -2   -1    0    0    0  501  0.00000000000E+00  0.00000000000E+00 -0.67279948363E+03  0.67279948363E+03  0.25500000920E-02 0. -1.
    10030    2    1    2    0    0  0.00000000000E+00  0.00000000000E+00  0.83419999733E+03  0.21797989646E+04  0.20138604446E+04 0.  0.
        2    1    3    3  502    0 -0.85003624354E+03 -0.44581567157E+03  0.74646800500E+03  0.12159472484E+04  0.25500000920E-02 0.  1.
       -2    1    3    3    0  502  0.85003624354E+03  0.44581567157E+03  0.87731992329E+02  0.96385171621E+03  0.25500000920E-02 0. -1.
</event>
<event>
 5   0  0.9254673E-05  0.2211660E+04  0.7818609E-02  0.8513591E-01
        2   -1    0    0  501    0  0.00000000000E+00  0.00000000000E+00  0.18892253854E+04  0.18892253854E+04  0.25500000920E-02 0.  1.
       -2   -1    0    0    0  501  0.00000000000E+00  0.00000000000E+00 -0.64728118306E+03  0.64728118307E+03  0.25500000920E-02 0. -1.
    10030    2    1    2    0    0  0.00000000000E+00  0.00000000000E+00  0.12419442023E+04  0.25365065685E+04  0.22116600485E+04 0.  0.
        2    1    3    3  502    0  0.35475732248E+03  0.10263731537E+04  0.38159167218E+03  0.11510459647E+04  0.25500000920E-02 0. -1.
       -2    1    3    3    0  502 -0.35475732248E+03 -0.10263731537E+04  0.86035253014E+03  0.13854606038E+04  0.25500000920E-02 0.  1.
</event>
<event>
 5   0  0.9254673E-05  0.2211455E+04  0.7818609E-02  0.8513676E-01
        2   -1    0    0  501    0  0.00000000000E+00  0.00000000000E+00  0.21604784834E+04  0.21604784834E+04  0.25500000920E-02 0. -1.
       -2   -1    0    0    0  501  0.00000000000E+00  0.00000000000E+00 -0.56590834804E+03  0.56590834805E+03  0.25500000920E-02 0.  1.
    10030    2    1    2    0    0  0.00000000000E+00  0.00000000000E+00  0.15945701354E+04  0.27263868315E+04  0.22114545526E+04 0.  0.
        2    1    3    3  502    0 -0.25549789496E+02 -0.82247011348E+03 -0.11329043424E+03  0.83062903983E+03  0.25500000920E-02 0.  1.
       -2    1    3    3    0  502  0.25549789496E+02  0.82247011348E+03  0.17078605696E+04  0.18957577916E+04  0.25500000920E-02 0. -1.
</event>
<event>
 5   0  0.4174030E-05  0.2095815E+04  0.7818609E-02  0.8563089E-01
        1   -1    0    0  501    0  0.00000000000E+00  0.00000000000E+00  0.18925575174E+04  0.18925575174E+04  0.50400001928E-02 0. -1.
       -1   -1    0    0    0  501  0.00000000000E+00  0.00000000000E+00 -0.58022560130E+03  0.58022560132E+03  0.50400001928E-02 0.  1.
    10030    2    1    2    0    0  0.00000000000E+00  0.00000000000E+00  0.13123319161E+04  0.24727831187E+04  0.20958151861E+04 0.  0.
        2    1    3    3  502    0  0.31623699808E+03  0.45362335680E+03 -0.39406831308E+03  0.67902122513E+03  0.25500000920E-02 0.  1.
       -2    1    3    3    0  502 -0.31623699808E+03 -0.45362335680E+03  0.17064002292E+04  0.17937618936E+04  0.25500000920E-02 0. -1.
</event>
<event>
 5   0  0.4133418E-05  0.2060437E+04  0.7818609E-02  0.8578874E-01
       -1   -1    0    0    0  501  0.00000000000E+00  0.00000000000E+00  0.82432550538E+03  0.82432550540E+03  0.50400001928E-02 0.  1.
        1   -1    0    0  501    0  0.00000000000E+00  0.00000000000E+00 -0.12875382830E+04  0.12875382830E+04  0.50400001928E-02 0. -1.
    10030    2    1    2    0    0  0.00000000000E+00  0.00000000000E+00 -0.46321277760E+03  0.21118637884E+04  0.20604374738E+04 0.  0.
        4    1    3    3  502    0  0.58169229925E+03  0.23872712107E+03 -0.10680585757E+04  0.12393979600E+04  0.12699999809E+01 0. -1.
       -4    1    3    3    0  502 -0.58169229925E+03 -0.23872712107E+03  0.60484579807E+03  0.87246582837E+03  0.12699999809E+01 0.  1.
</event>
<event>
 5   0  0.4188865E-05  0.2204320E+04  0.7818609E-02  0.8516632E-01
       -1   -1    0    0    0  501  0.00000000000E+00  0.00000000000E+00  0.87491534014E+03  0.87491534015E+03  0.50400001928E-02 0. -1.
        1   -1    0    0  501    0  0.00000000000E+00  0.00000000000E+00 -0.13884279252E+04  0.13884279252E+04  0.50400001928E-02 0.  1.
    10030    2    1    2    0    0  0.00000000000E+00  0.00000000000E+00 -0.51351258502E+03  0.22633432653E+04  0.22043202040E+04 0.  0.
        3    1    3    3  502    0  0.31355184499E+03  0.67399918342E+03  0.57876896582E+03  0.94210571845E+03  0.10100000352E+00 0. -1.
       -3    1    3    3    0  502 -0.31355184499E+03 -0.67399918342E+03 -0.10922815508E+04  0.13212375469E+04  0.10100000352E+00 0.  1.
</event>
<event>
 5   0  0.9938176E-05  0.2168738E+04  0.7818609E-02  0.8531554E-01
        2   -1    0    0  501    0  0.00000000000E+00  0.00000000000E+00  0.95650651301E+03  0.95650651301E+03  0.25500000920E-02 0. -1.
       -2   -1    0    0    0  501  0.00000000000E+00  0.00000000000E+00 -0.12293240344E+04  0.12293240344E+04  0.25500000920E-02 0.  1.
    10030    2    1    2    0    0  0.00000000000E+00  0.00000000000E+00 -0.27281752139E+03  0.21858305474E+04  0.21687382927E+04 0.  0.
        5    1    3    3  502    0  0.49088425960E+03 -0.25984776698E+03  0.80224530938E+03  0.97576013689E+03  0.46999998093E+01 0. -1.
       -5    1    3    3    0  502 -0.49088425960E+03  0.25984776698E+03 -0.10750628308E+04  0.12100704105E+04  0.46999998093E+01 0.  1.
</event>
<event>
 5   0  0.4133418E-05  0.2206469E+04  0.7818609E-02  0.8515740E-01
        1   -1    0    0  501    0  0.00000000000E+00  0.00000000000E+00  0.22684985747E+04  0.22684985748E+04  0.50400001928E-02 0.  1.
       -1   -1    0    0    0  501  0.00000000000E+00  0.00000000000E+00 -0.53653411354E+03  0.53653411356E+03  0.50400001928E-02 0. -1.
    10030    2    1    2    0    0  0.00000000000E+00  0.00000000000E+00  0.17319644612E+04  0.28050326883E+04  0.22064694622E+04 0.  0.
        4    1    3    3  502    0  0.60554113148E+03 -0.47323183219E+03  0.18722172888E+04  0.20238151146E+04  0.12699999809E+01 0.  1.
       -4    1    3    3    0  502 -0.60554113148E+03  0.47323183219E+03 -0.14025282755E+03  0.78121757369E+03  0.12699999809E+01 0. -1.
</event>
<event>
 5   0  0.9938176E-05  0.2181171E+04  0.7818609E-02  0.8526306E-01
       -2   -1    0    0    0  501  0.00000000000E+00  0.00000000000E+00  0.40589348410E+03  0.40589348411E+03  0.25500000920E-02 0.  1.
        2   -1    0    0  501    0  0.00000000000E+00  0.00000000000E+00 -0.29302684592E+04  0.29302684592E+04  0.25500000920E-02 0. -1.
    10030    2    1    2    0    0  0.00000000000E+00  0.00000000000E+00 -0.25243749751E+04  0.33361619433E+04  0.21811711297E+04 0.  0.
        5    1    3    3  502    0 -0.12380739957E+03 -0.99962890381E+03 -0.19016116534E+04  0.21519143077E+04  0.46999998093E+01 0.  1.
       -5    1    3    3    0  502  0.12380739957E+03  0.99962890381E+03 -0.62276332169E+03  0.11842476356E+04  0.46999998093E+01 0. -1.
</event>
<event>
 5   0  0.4133418E-05  0.2245963E+04  0.7818609E-02  0.8499537E-01
        1   -1    0    0  501    0  0.00000000000E+00  0.00000000000E+00  0.14967200312E+04  0.14967200312E+04  0.50400001928E-02 0. -1.
       -1   -1    0    0    0  501  0.00000000000E+00  0.00000000000E+00 -0.84256751099E+03  0.84256751101E+03  0.50400001928E-02 0.  1.
    10030    2    1    2    0    0  0.00000000000E+00  0.00000000000E+00  0.65415252018E+03  0.23392875422E+04  0.22459631977E+04 0.  0.
        4    1    3    3  502    0  0.21020455018E+03 -0.10254785233E+04 -0.96380812361E+02  0.10512292940E+04  0.12699999809E+01 0.  1.
       -4    1    3    3    0  502 -0.21020455018E+03  0.10254785233E+04  0.75053333254E+03  0.12880582482E+04  0.12699999809E+01 0. -1.
</event>
<event>
 5   0  0.4174075E-05  0.2212222E+04  0.7818609E-02  0.8513358E-01
        1   -1    0    0  501    0  0.00000000000E+00  0.00000000000E+00  0.11944516962E+04  0.11944516962E+04  0.50400001928E-02 0. -1.
       -1   -1    0    0    0  501  0.00000000000E+00  0.00000000000E+00 -0.10243037244E+04  0.10243037244E+04  0.50400001928E-02 0.  1.
    10030    2    1    2    0    0  0.00000000000E+00  0.00000000000E+00  0.17014797177E+03  0.22187554206E+04  0.22122217981E+04 0.  0.
        5    1    3    3  502    0 -0.85006923896E+03 -0.69296852957E+03  0.22915108827E+03  0.11204264390E+04  0.46999998093E+01 0.  1.
       -5    1    3    3    0  502  0.85006923896E+03  0.69296852957E+03 -0.59003116499E+02  0.10983289816E+04  0.46999998093E+01 0. -1.
</event>
<event>
 5   0  0.4188865E-05  0.2221437E+04  0.7818609E-02  0.8509558E-01
       -1   -1    0    0    0  501  0.00000000000E+00  0.00000000000E+00  0.64508035768E+03  0.64508035770E+03  0.50400001928E-02 0.  1.
        1   -1    0    0  501    0  0.00000000000E+00  0.00000000000E+00 -0.19124685328E+04  0.19124685328E+04  0.50400001928E-02 0. -1.
    10030    2    1    2    0    0  0.00000000000E+00  0.00000000000E+00 -0.12673881751E+04  0.25575488905E+04  0.22214372692E+04 0.  0.
        3    1    3    3  502    0  0.17082378516E+03  0.65057100893E+03  0.38393884190E+03  0.77448850718E+03  0.10100000352E+00 0.  1.
       -3    1    3    3    0  502 -0.17082378516E+03 -0.65057100893E+03 -0.16513270170E+04  0.17830603833E+04  0.10100000352E+00 0. -1.
</event>
<event>
 5   0  0.4063293E-05  0.2146504E+04  0.7818609E-02  0.8541030E-01
        1   -1    0    0  501    0  0.00000000000E+00  0.00000000000E+00  0.16171844383E+04  0.16171844383E+04  0.50400001928E-02 0. -1.
       -1   -1    0    0    0  501  0.00000000000E+00  0.00000000000E+00 -0.71226881876E+03  0.71226881877E+03  0.50400001928E-02 0.  1.
    10030    2    1    2    0    0  0.00000000000E+00  0.00000000000E+00  0.90491561954E+03  0.23294532571E+04  0.21465041808E+04 0.  0.
        1    1    3    3  502    0 -0.79654181222E+03  0.56187711345E+02 -0.32576276978E+03  0.86241364769E+03  0.50400001928E-02 0.  1.
       -1    1    3    3    0  502  0.79654181222E+03 -0.56187711345E+02  0.12306783893E+04  0.14670396094E+04  0.50400001928E-02 0. -1.
</event>
<event>
 5   0  0.9442578E-05  0.2225213E+04  0.7818609E-02  0.8508007E-01
       -2   -1    0    0    0  501  0.00000000000E+00  0.00000000000E+00  0.59919402124E+03  0.59919402124E+03  0.25500000920E-02 0.  1.
        2   -1    0    0  501    0  0.00000000000E+00  0.00000000000E+00 -0.20659300918E+04  0.20659300918E+04  0.25500000920E-02 0. -1.
    10030    2    1    2    0    0  0.00000000000E+00  0.00000000000E+00 -0.14667360706E+04  0.26651241131E+04  0.22252127623E+04 0.  0.
        4    1    3    3  502    0 -0.83721226815E+02 -0.37401426601E+03 -0.19843681875E+04  0.20210429564E+04  0.12699999809E+01 0. -1.
       -4    1    3    3    0  502  0.83721226815E+02  0.37401426601E+03  0.51763211694E+03  0.64408115668E+03  0.12699999809E+01 0.  1.
</event>
<event>
 5   0  0.9254673E-05  0.2171450E+04  0.7818609E-02  0.8530406E-01
        2   -1    0    0  501    0  0.00000000000E+00  0.00000000000E+00  0.10800186575E+04  0.10800186575E+04  0.25500000920E-02 0. -1.
       -2   -1    0    0    0  501  0.00000000000E+00  0.00000000000E+00 -0.10914617924E+04  0.10914617924E+04  0.25500000920E-02 0.  1.
    10030    2    1    2    0    0  0.00000000000E+00  0.00000000000E+00 -0.11443134873E+02  0.21714804499E+04  0.21714502985E+04 0.  0.
        2    1    3    3  502    0 -0.77540859032E+03 -0.50521520283E+03  0.56199946190E+03  0.10827484834E+04  0.25500000920E-02 0. -1.
       -2    1    3    3    0  502  0.77540859032E+03  0.50521520283E+03 -0.57344259677E+03  0.10887319665E+04  0.25500000920E-02 0.  1.
</event>
<event>
 5   0  0.4188865E-05  0.2239425E+04  0.7818609E-02  0.8502195E-01
        1   -1    0    0  501    0  0.00000000000E+00  0.00000000000E+00  0.10810208222E+04  0.10810208222E+04  0.50400001928E-02 0.  1.
       -1   -1    0    0    0  501  0.00000000000E+00  0.00000000000E+00 -0.11597891244E+04  0.11597891244E+04  0.50400001928E-02 0. -1.
    10030    2    1    2    0    0  0.00000000000E+00  0.00000000000E+00 -0.78768302201E+02  0.22408099465E+04  0.22394250983E+04 0.  0.
        3    1    3    3  502    0  0.24052934312E+03  0.35623500514E+03  0.99517902875E+03  0.10840383080E+04  0.10100000352E+00 0.  1.
       -3    1    3    3    0  502 -0.24052934312E+03 -0.35623500514E+03 -0.10739473310E+04  0.11567716385E+04  0.10100000352E+00 0. -1.
</event>
<event>
 5   0  0.9179618E-05  0.2214081E+04  0.7818609E-02  0.8512590E-01
        2   -1    0    0  501    0  0.00000000000E+00  0.00000000000E+00  0.18981226771E+04  0.18981226771E+04  0.25500000920E-02 0. -1.
       -2   -1    0    0    0  501  0.00000000000E+00  0.00000000000E+00 -0.64565831738E+03  0.64565831738E+03  0.25500000920E-02 0.  1.
    10030    2    1    2    0    0  0.00000000000E+00  0.00000000000E+00  0.12524643597E+04  0.25437809945E+04  0.22140810228E+04 0.  0.
        3    1    3    3  502    0  0.11682167753E+03  0.17342872371E+03 -0.62276295770E+03  0.65693115182E+03  0.10100000352E+00 0.  1.
       -3    1    3    3    0  502 -0.11682167753E+03 -0.17342872371E+03  0.18752273174E+04  0.18868498427E+04  0.10100000352E+00 0. -1.
</event>
<event>
 5   0  0.4063293E-05  0.2193929E+04  0.7818609E-02  0.8520959E-01
       -1   -1    0    0    0  501  0.00000000000E+00  0.00000000000E+00  0.73265204540E+03  0.73265204541E+03  0.50400001928E-02 0.  1.
        1   -1    0    0  501    0  0.00000000000E+00  0.00000000000E+00 -0.16424322212E+04  0.16424322212E+04  0.50400001928E-02 0. -1.
    10030    2    1    2    0    0  0.00000000000E+00  0.00000000000E+00 -0.90978017578E+03  0.23750842666E+04  0.21939291933E+04 0.  0.
        1    1    3    3  502    0  0.39486805750E+03 -0.51708098093E+03 -0.14110141343E+04  0.15537871189E+04  0.50400001928E-02 0. -1.
       -1    1    3    3    0  502 -0.39486805750E+03  0.51708098093E+03  0.50123395849E+03  0.82129714772E+03  0.50400001928E-02 0.  1.
</event>
<event>
 5   0  0.4133418E-05  0.2118839E+04  0.7818609E-02  0.8552990E-01
        1   -1    0    0  501    0  0.00000000000E+00  0.00000000000E+00  0.97881911450E+03  0.97881911451E+03  0.50400001928E-02 0.  1.
       -1   -1    0    0    0  501  0.00000000000E+00  0.00000000000E+00 -0.11466571011E+04  0.11466571011E+04  0.50400001928E-02 0. -1.
    10030    2    1    2    0    0  0.00000000000E+00  0.00000000000E+00 -0.16783798659E+03  0.21254762156E+04  0.21188391995E+04 0.  0.
        4    1    3    3  502    0  0.24282556720E+03 -0.68964512350E+03  0.68515953322E+03  0.10020079098E+04  0.12699999809E+01 0.  1.
       -4    1    3    3    0  502 -0.24282556720E+03  0.68964512350E+03 -0.85299751981E+03  0.11234683058E+04  0.12699999809E+01 0. -1.
</event>
<event>
 5   0  0.4174075E-05  0.2237135E+04  0.7818609E-02  0.8503129E-01
        1   -1    0    0  501    0  0.00000000000E+00  0.00000000000E+00  0.10858619081E+04  0.10858619082E+04  0.50400001928E-02 0. -1.
       -1   -1    0    0    0  501  0.00000000000E+00  0.00000000000E+00 -0.11522582348E+04  0.11522582348E+04  0.50400001928E-02 0.  1.
    10030    2    1    2    0    0  0.00000000000E+00  0.00000000000E+00 -0.66396326622E+02  0.22381201429E+04  0.22371350657E+04 0.  0.
        5    1    3    3  502    0  0.41494221414E+03  0.67342811752E+03  0.75802856080E+03  0.10955874495E+04  0.46999998093E+01 0. -1.
       -5    1    3    3    0  502 -0.41494221414E+03 -0.67342811752E+03 -0.82442488742E+03  0.11425326934E+04  0.46999998093E+01 0.  1.
</event>
<event>
 5   0  0.9179618E-05  0.2202550E+04  0.7818609E-02  0.8517368E-01
        2   -1    0    0  501    0  0.00000000000E+00  0.00000000000E+00  0.13143168981E+04  0.13143168981E+04  0.25500000920E-02 0.  1.
       -2   -1    0    0    0  501  0.00000000000E+00  0.00000000000E+00 -0.92276563476E+03  0.92276563476E+03  0.25500000920E-02 0. -1.
    10030    2    1    2    0    0  0.00000000000E+00  0.00000000000E+00  0.39155126339E+03  0.22370825329E+04  0.22025498558E+04 0.  0.
        3    1    3    3  502    0  0.84615901608E+03  0.62936091150E+03 -0.12657425773E+03  0.10621211279E+04  0.10100000352E+00 0.  1.
       -3    1    3    3    0  502 -0.84615901608E+03 -0.62936091150E+03  0.51812552111E+03  0.11749614050E+04  0.10100000352E+00 0. -1.
</event>
<event>
 5   0  0.4063293E-05  0.2199335E+04  0.7818609E-02  0.8518705E-01
       -1   -1    0    0    0  501  0.00000000000E+00  0.00000000000E+00  0.12272945428E+04  0.12272945428E+04  0.50400001928E-02 0. -1.
        1   -1    0    0  501    0  0.00000000000E+00  0.00000000000E+00 -0.98531282593E+03  0.98531282595E+03  0.50400001928E-02 0.  1.
    10030    2    1    2    0    0  0.00000000000E+00  0.00000000000E+00  0.24198171682E+03  0.22126073687E+04  0.21993354034E+04 0.  0.
        1    1    3    3  502    0 -0.96155764450E+03 -0.47572263230E+03  0.36403499272E+03  0.11328841964E+04  0.50400001928E-02 0. -1.
       -1    1    3    3    0  502  0.96155764450E+03  0.47572263230E+03 -0.12205327590E+03  0.10797231723E+04  0.50400001928E-02 0.  1.
</event>
<event>
 5   0  0.9457742E-05  0.2281544E+04  0.7818609E-02  0.8485234E-01
        2   -1    0    0  501    0  0.00000000000E+00  0.00000000000E+00  0.78076323843E+03  0.78076323844E+03  0.25500000920E-02 0.  1.
       -2   -1    0    0    0  501  0.00000000000E+00  0.00000000000E+00 -0.16667806962E+04  0.16667806962E+04  0.25500000920E-02 0. -1.
    10030    2    1    2    0    0  0.00000000000E+00  0.00000000000E+00 -0.88601745773E+03  0.24475439346E+04  0.22815442964E+04 0.  0.
        1    1    3    3  502    0 -0.96784343423E+03 -0.11757289263E+03  0.19238332616E+03  0.99375834209E+03  0.50400001928E-02 0.  1.
       -1    1    3    3    0  502  0.96784343423E+03  0.11757289263E+03 -0.10784007839E+04  0.14537855925E+04  0.50400001928E-02 0. -1.
</event>
<event>
 5   0  0.4133418E-05  0.2177739E+04  0.7818609E-02  0.8527751E-01
        1   -1    0    0  501    0  0.00000000000E+00  0.00000000000E+00  0.15820250431E+04  0.15820250431E+04  0.50400001928E-02 0. -1.
       -1   -1    0    0    0  501  0.00000000000E+00  0.00000000000E+00 -0.74944276586E+03  0.74944276588E+03  0.50400001928E-02 0.  1.
    10030    2    1    2    0    0  0.00000000000E+00  0.00000000000E+00  0.83258227720E+03  0.23314678089E+04  0.21777394004E+04 0.  0.
        4    1    3    3  502    0 -0.79632412079E+03 -0.22103825049E+03 -0.34273102296E+03  0.89468216733E+03  0.12699999809E+01 0. -1.
       -4    1    3    3    0  502  0.79632412079E+03  0.22103825049E+03  0.11753133002E+04  0.14367856416E+04  0.12699999809E+01 0.  1.
</event>
<event>
 5   0  0.4174075E-05  0.2192046E+04  0.7818609E-02  0.8521746E-01
        1   -1    0    0  501    0  0.00000000000E+00  0.00000000000E+00  0.20897853150E+04  0.20897853150E+04  0.50400001928E-02 0. -1.
       -1   -1    0    0    0  501  0.00000000000E+00  0.00000000000E+00 -0.57482748835E+03  0.57482748838E+03  0.50400001928E-02 0.  1.
    10030    2    1    2    0    0  0.00000000000E+00  0.00000000000E+00  0.15149578266E+04  0.26646128034E+04  0.21920456600E+04 0.  0.
        5    1    3    3  502    0  0.41595726462E+03 -0.57994698354E+03  0.17685960548E+04  0.19071740992E+04  0.46999998093E+01 0. -1.
       -5    1    3    3    0  502 -0.41595726462E+03  0.57994698354E+03 -0.25363822818E+03  0.75743870412E+03  0.46999998093E+01 0.  1.
</event>
<event>
 5   0  0.4174030E-05  0.2206235E+04  0.7818609E-02  0.8515837E-01
        1   -1    0    0  501    0  0.00000000000E+00  0.00000000000E+00  0.11110363332E+04  0.11110363332E+04  0.50400001928E-02 0. -1.
       -1   -1    0    0    0  501  0.00000000000E+00  0.00000000000E+00 -0.10952555195E+04  0.10952555195E+04  0.50400001928E-02 0.  1.
    10030    2    1    2    0    0  0.00000000000E+00  0.00000000000E+00  0.15780813697E+02  0.22062918527E+04  0.22062354147E+04 0.  0.
        2    1    3    3  502    0  0.62900684177E+03  0.64144080850E+03  0.64804173555E+03  0.11077246990E+04  0.25500000920E-02 0. -1.
       -2    1    3    3    0  502 -0.62900684177E+03 -0.64144080850E+03 -0.63226092185E+03  0.10985671537E+04  0.25500000920E-02 0.  1.
</event>
<event>
 5   0  0.4133418E-05  0.2203718E+04  0.7818609E-02  0.8516882E-01
        1   -1    0    0  501    0  0.00000000000E+00  0.00000000000E+00  0.13333672866E+04  0.13333672866E+04  0.50400001928E-02 0. -1.
       -1   -1    0    0    0  501  0.00000000000E+00  0.00000000000E+00 -0.91054674603E+03  0.91054674604E+03  0.50400001928E-02 0.  1.
    10030    2    1    2    0    0  0.00000000000E+00  0.00000000000E+00  0.42282054056E+03  0.22439140326E+04  0.22037179893E+04 0.  0.
        4    1    3    3  502    0  0.17967136232E+03  0.64689499962E+03  0.11010379089E+04  0.12895894807E+04  0.12699999809E+01 0. -1.
       -4    1    3    3    0  502 -0.17967136232E+03 -0.64689499962E+03 -0.67821736830E+03  0.95432455199E+03  0.12699999809E+01 0.  1.
</event>
<event>
 5   0  0.4174075E-05  0.2242579E+04  0.7818609E-02  0.8500912E-01
        1   -1    0    0  501    0  0.00000000000E+00  0.00000000000E+00  0.10337001889E+04  0.10337001889E+04  0.50400001928E-02 0. -1.
       -1   -1    0    0    0  501  0.00000000000E+00  0.00000000000E+00 -0.12163011185E+04  0.12163011185E+04  0.50400001928E-02 0.  1.
    10030    2    1    2    0    0  0.00000000000E+00  0.00000000000E+00 -0.18260092961E+03  0.22500013074E+04  0.22425794933E+04 0.  0.
        5    1    3    3  502    0  0.60706851423E+03 -0.29312706384E+03 -0.99026406774E+03  0.11979568733E+04  0.46999998093E+01 0.  1.
       -5    1    3    3    0  502 -0.60706851423E+03  0.29312706384E+03  0.80766313813E+03  0.10520444340E+04  0.46999998093E+01 0. -1.
</event>
<event>
 5   0  0.9254673E-05  0.1866069E+04  0.7818609E-02  0.8671933E-01
        2   -1    0    0  501    0  0.00000000000E+00  0.00000000000E+00  0.77727682755E+03  0.77727682756E+03  0.25500000920E-02 0. -1.
       -2   -1    0    0    0  501  0.00000000000E+00  0.00000000000E+00 -0.11200045510E+04  0.11200045510E+04  0.25500000920E-02 0.  1.
    10030    2    1    2    0    0  0.00000000000E+00  0.00000000000E+00 -0.34272772342E+03  0.18972813785E+04  0.18660692208E+04 0.  0.
        2    1    3    3  502    0 -0.88460649622E+03  0.26347801624E+03 -0.31004272244E+03  0.97369184445E+03  0.25500000920E-02 0. -1.
       -2    1    3    3    0  502  0.88460649622E+03 -0.26347801624E+03 -0.32685000978E+02  0.92358953409E+03  0.25500000920E-02 0.  1.
</event>
<event>
 5   0  0.4063293E-05  0.2224179E+04  0.7818609E-02  0.8508431E-01
        1   -1    0    0  501    0  0.00000000000E+00  0.00000000000E+00  0.10237543516E+04  0.10237543516E+04  0.50400001928E-02 0. -1.
       -1   -1    0    0    0  501  0.00000000000E+00  0.00000000000E+00 -0.12080464438E+04  0.12080464439E+04  0.50400001928E-02 0.  1.
    10030    2    1    2    0    0  0.00000000000E+00  0.00000000000E+00 -0.18429209224E+03  0.22318007955E+04  0.22241787732E+04 0.  0.
        1    1    3    3  502    0  0.79373222808E+03 -0.55809586722E+03 -0.63738735016E+03  0.11609239773E+04  0.50400001928E-02 0.  1.
       -1    1    3    3    0  502 -0.79373222808E+03  0.55809586722E+03  0.45309525792E+03  0.10708768182E+04  0.50400001928E-02 0. -1.
</event>
<event>
 5   0  0.4063293E-05  0.2266007E+04  0.7818609E-02  0.8491446E-01
        1   -1    0    0  501    0  0.00000000000E+00  0.00000000000E+00  0.10097479993E+04  0.10097479993E+04  0.50400001928E-02 0. -1.
       -1   -1    0    0    0  501  0.00000000000E+00  0.00000000000E+00 -0.12713043211E+04  0.12713043211E+04  0.50400001928E-02 0.  1.
    10030    2    1    2    0    0  0.00000000000E+00  0.00000000000E+00 -0.26155632176E+03  0.22810523204E+04  0.22660070563E+04 0.  0.
        1    1    3    3  502    0  0.48883859625E+03  0.32719625137E+03  0.84398810213E+03  0.10287548185E+04  0.50400001928E-02 0. -1.
       -1    1    3    3    0  502 -0.48883859625E+03 -0.32719625137E+03 -0.11055444239E+04  0.12522975019E+04  0.50400001928E-02 0.  1.
</event>
<event>
 5   0  0.4063293E-05  0.2192208E+04  0.7818609E-02  0.8521678E-01
       -1   -1    0    0    0  501  0.00000000000E+00  0.00000000000E+00  0.72746347832E+03  0.72746347833E+03  0.50400001928E-02 0.  1.
        1   -1    0    0  501    0  0.00000000000E+00  0.00000000000E+00 -0.16515528369E+04  0.16515528369E+04  0.50400001928E-02 0. -1.
    10030    2    1    2    0    0  0.00000000000E+00  0.00000000000E+00 -0.92408935858E+03  0.23790163152E+04  0.21922083581E+04 0.  0.
        1    1    3    3  502    0  0.57307396610E+02 -0.33374965018E+03  0.66927330882E+03  0.75006648280E+03  0.50400001928E-02 0.  1.
       -1    1    3    3    0  502 -0.57307396610E+02  0.33374965018E+03 -0.15933626674E+04  0.16289498324E+04  0.50400001928E-02 0. -1.
</event>
<event>
 5   0  0.9442578E-05  0.2193780E+04  0.7818609E-02  0.8521022E-01
        2   -1    0    0  501    0  0.00000000000E+00  0.00000000000E+00  0.19837467955E+04  0.19837467955E+04  0.25500000920E-02 0.  1.
       -2   -1    0    0    0  501  0.00000000000E+00  0.00000000000E+00 -0.60651256613E+03  0.60651256614E+03  0.25500000920E-02 0. -1.
    10030    2    1    2    0    0  0.00000000000E+00  0.00000000000E+00  0.13772342294E+04  0.25902593616E+04  0.21937797150E+04 0.  0.
        4    1    3    3  502    0 -0.56053466132E+03  0.33027230196E+02  0.18011845790E+04  0.18866789353E+04  0.12699999809E+01 0.  1.
       -4    1    3    3    0  502  0.56053466132E+03 -0.33027230196E+02 -0.42395034962E+03  0.70358042633E+03  0.12699999809E+01 0. -1.
</event>
<event>
 5   0  0.4188865E-05  0.2206753E+04  0.7818609E-02  0.8515622E-01
       -1   -1    0    0    0  501  0.00000000000E+00  0.00000000000E+00  0.44423663903E+03  0.44423663906E+03  0.50400001928E-02 0. -1.
        1   -1    0    0  501    0  0.00000000000E+00  0.00000000000E+00 -0.27405215182E+04  0.27405215182E+04  0.50400001928E-02 0.  1.
    10030    2    1    2    0    0  0.00000000000E+00  0.00000000000E+00 -0.22962848791E+04  0.31847581572E+04  0.22067533333E+04 0.  0.
        3    1    3    3  502    0  0.55631013968E+03  0.47691254786E+03 -0.23386743559E+04  0.24507803457E+04  0.10100000352E+00 0.  1.
       -3    1    3    3    0  502 -0.55631013968E+03 -0.47691254786E+03  0.42389476790E+02  0.73397781149E+03  0.10100000352E+00 0. -1.
</event>
<event>
 5   0  0.9442578E-05  0.2142045E+04  0.7818609E-02  0.8542945E-01
        2   -1    0    0  501    0  0.00000000000E+00  0.00000000000E+00  0.11885790982E+04  0.11885790982E+04  0.25500000920E-02 0. -1.
       -2   -1    0    0    0  501  0.00000000000E+00  0.00000000000E+00 -0.96509314812E+03  0.96509314812E+03  0.25500000920E-02 0.  1.
    10030    2    1    2    0    0  0.00000000000E+00  0.00000000000E+00  0.22348595007E+03  0.21536722463E+04  0.21420453251E+04 0.  0.
        4    1    3    3  502    0 -0.10334952272E+04  0.11731769618E+03  0.36849570052E+03  0.11034792797E+04  0.12699999809E+01 0. -1.
       -4    1    3    3    0  502  0.10334952272E+04 -0.11731769618E+03 -0.14500975045E+03  0.10501929666E+04  0.12699999809E+01 0.  1.
</event>
<event>
 5   0  0.9179618E-05  0.2218000E+04  0.7818609E-02  0.8510973E-01
        2   -1    0    0  501    0  0.00000000000E+00  0.00000000000E+00  0.14259078142E+04  0.14259078142E+04  0.25500000920E-02 0. -1.
       -2   -1    0    0    0  501  0.00000000000E+00  0.00000000000E+00 -0.86252469369E+03  0.86252469369E+03  0.25500000920E-02 0.  1.
    10030    2    1    2    0    0  0.00000000000E+00  0.00000000000E+00  0.56338312055E+03  0.22884325079E+04  0.22179997301E+04 0.  0.
        3    1    3    3  502    0  0.84209881005E+03 -0.10043144310E+03  0.10189914348E+04  0.13257301516E+04  0.10100000352E+00 0. -1.
       -3    1    3    3    0  502 -0.84209881005E+03  0.10043144310E+03 -0.45560831420E+03  0.96270235630E+03  0.10100000352E+00 0.  1.
</event>
<event>
 5   0  0.9457742E-05  0.2222760E+04  0.7818609E-02  0.8509014E-01
        2   -1    0    0  501    0  0.00000000000E+00  0.00000000000E+00  0.13335541773E+04  0.13335541773E+04  0.25500000920E-02 0. -1.
       -2   -1    0    0    0  501  0.00000000000E+00  0.00000000000E+00 -0.92622048147E+03  0.92622048147E+03  0.25500000920E-02 0.  1.
    10030    2    1    2    0    0  0.00000000000E+00  0.00000000000E+00  0.40733369582E+03  0.22597746588E+04  0.22227597191E+04 0.  0.
        1    1    3    3  502    0  0.88732427633E+02 -0.56935020794E+03 -0.76249137165E+03  0.95573332832E+03  0.50400001928E-02 0.  1.
       -1    1    3    3    0  502 -0.88732427633E+02  0.56935020794E+03  0.11698250675E+04  0.13040413304E+04  0.50400001928E-02 0. -1.
</event>
<event>
 5   0  0.9442578E-05  0.1792215E+04  0.7818609E-02  0.8710450E-01
       -2   -1    0    0    0  501  0.00000000000E+00  0.00000000000E+00  0.58562190472E+03  0.58562190473E+03  0.25500000920E-02 0.  1.
        2   -1    0    0  501    0  0.00000000000E+00  0.00000000000E+00 -0.13712066334E+04  0.13712066334E+04  0.25500000920E-02 0. -1.
    10030    2    1    2    0    0  0.00000000000E+00  0.00000000000E+00 -0.78558472872E+03  0.19568285382E+04  0.17922149876E+04 0.  0.
        4    1    3    3  502    0 -0.67740711673E+03 -0.55269546492E+03 -0.60745766513E+03  0.10645933996E+04  0.12699999809E+01 0. -1.
       -4    1    3    3    0  502  0.67740711673E+03  0.55269546492E+03 -0.17812706359E+03  0.89223513853E+03  0.12699999809E+01 0.  1.
</event>
<event>
 5   0  0.4188865E-05  0.2204672E+04  0.7818609E-02  0.8516486E-01
        1   -1    0    0  501    0  0.00000000000E+00  0.00000000000E+00  0.86055004352E+03  0.86055004354E+03  0.50400001928E-02 0.  1.
       -1   -1    0    0    0  501  0.00000000000E+00  0.00000000000E+00 -0.14120555826E+04  0.14120555826E+04  0.50400001928E-02 0. -1.
    10030    2    1    2    0    0  0.00000000000E+00  0.00000000000E+00 -0.55150553905E+03  0.22726056261E+04  0.22046718514E+04 0.  0.
        3    1    3    3  502    0 -0.31757361257E+03 -0.50350396959E+03 -0.12321206950E+04  0.13683898070E+04  0.10100000352E+00 0. -1.
       -3    1    3    3    0  502  0.31757361257E+03  0.50350396959E+03  0.68061515593E+03  0.90421581908E+03  0.10100000352E+00 0.  1.
</event>
<event>
 5   0  0.9179618E-05  0.2195348E+04  0.7818609E-02  0.8520367E-01
       -2   -1    0    0    0  501  0.00000000000E+00  0.00000000000E+00  0.67696737405E+03  0.67696737405E+03  0.25500000920E-02 0. -1.
        2   -1    0    0  501    0  0.00000000000E+00  0.00000000000E+00 -0.17798317576E+04  0.17798317576E+04  0.25500000920E-02 0.  1.
    10030    2    1    2    0    0  0.00000000000E+00  0.00000000000E+00 -0.11028643835E+04  0.24567991316E+04  0.21953478368E+04 0.  0.
        3    1    3    3  502    0 -0.91199397429E+03  0.35088933996E+03  0.81499306510E+01  0.97720149898E+03  0.10100000352E+00 0. -1.
       -3    1    3    3    0  502  0.91199397429E+03 -0.35088933996E+03 -0.11110143142E+04  0.14795976326E+04  0.10100000352E+00 0.  1.
</event>
<event>
 5   0  0.4188865E-05  0.2228704E+04  0.7818609E-02  0.8506575E-01
       -1   -1    0    0    0  501  0.00000000000E+00  0.00000000000E+00  0.63010288995E+03  0.63010288997E+03  0.50400001928E-02 0. -1.
        1   -1    0    0  501    0  0.00000000000E+00  0.00000000000E+00 -0.19707573615E+04  0.19707573615E+04  0.50400001928E-02 0.  1.
    10030    2    1    2    0    0  0.00000000000E+00  0.00000000000E+00 -0.13406544716E+04  0.26008602515E+04  0.22287035773E+04 0.  0.
        3    1    3    3  502    0  0.65775920635E+03  0.88603844881E+03 -0.48928076918E+03  0.12071068667E+04  0.10100000352E+00 0.  1.
       -3    1    3    3    0  502 -0.65775920635E+03 -0.88603844881E+03 -0.85137370239E+03  0.13937533848E+04  0.10100000352E+00 0. -1.
</event>
<event>
 5   0  0.9442578E-05  0.2271902E+04  0.7818609E-02  0.8489083E-01
        2   -1    0    0  501    0  0.00000000000E+00  0.00000000000E+00  0.88549997092E+03  0.88549997092E+03  0.25500000920E-02 0. -1.
       -2   -1    0    0    0  501  0.00000000000E+00  0.00000000000E+00 -0.14572385975E+04  0.14572385975E+04  0.25500000920E-02 0.  1.
    10030    2    1    2    0    0  0.00000000000E+00  0.00000000000E+00 -0.57173862659E+03  0.23427385684E+04  0.22719020540E+04 0.  0.
        4    1    3    3  502    0  0.17264309740E+03  0.10673756059E+04  0.73251843570E+02  0.10837267962E+04  0.12699999809E+01 0. -1.
       -4    1    3    3    0  502 -0.17264309740E+03 -0.10673756059E+04 -0.64499047016E+03  0.12590117723E+04  0.12699999809E+01 0.  1.
</event>
<event>
 5   0  0.9254673E-05  0.2196909E+04  0.7818609E-02  0.8519716E-01
       -2   -1    0    0    0  501  0.00000000000E+00  0.00000000000E+00  0.48775977077E+03  0.48775977078E+03  0.25500000920E-02 0. -1.
        2   -1    0    0  501    0  0.00000000000E+00  0.00000000000E+00 -0.24737626178E+04  0.24737626178E+04  0.25500000920E-02 0.  1.
    10030    2    1    2    0    0  0.00000000000E+00  0.00000000000E+00 -0.19860028470E+04  0.29615223886E+04  0.21969086348E+04 0.  0.
        2    1    3    3  502    0  0.76372702371E+03 -0.29222765260E+03 -0.43020478979E+01  0.81773741220E+03  0.25500000920E-02 0.  1.
       -2    1    3    3    0  502 -0.76372702371E+03  0.29222765260E+03 -0.19817007991E+04  0.21437849764E+04  0.25500000920E-02 0. -1.
</event>
<event>
 5   0  0.9457742E-05  0.2157094E+04  0.7818609E-02  0.8536502E-01
       -2   -1    0    0    0  501  0.00000000000E+00  0.00000000000E+00  0.11873839733E+04  0.11873839733E+04  0.25500000920E-02 0. -1.
        2   -1    0    0  501    0  0.00000000000E+00  0.00000000000E+00 -0.97968622035E+03  0.97968622035E+03  0.25500000920E-02 0.  1.
    10030    2    1    2    0    0  0.00000000000E+00  0.00000000000E+00  0.20769775291E+03  0.21670701936E+04  0.21570940794E+04 0.  0.
        1    1    3    3  502    0  0.86674354915E+03  0.29540819149E+03 -0.46865799460E+03  0.10286645204E+04  0.50400001928E-02 0.  1.
       -1    1    3    3    0  502 -0.86674354915E+03 -0.29540819149E+03  0.67635574752E+03  0.11384056732E+04  0.50400001928E-02 0. -1.
</event>
<event>
 5   0  0.9179618E-05  0.2163676E+04  0.7818609E-02  0.8533701E-01
        2   -1    0    0  501    0  0.00000000000E+00  0.00000000000E+00  0.22177740878E+04  0.22177740878E+04  0.25500000920E-02 0.  1.
       -2   -1    0    0    0  501  0.00000000000E+00  0.00000000000E+00 -0.52772450703E+03  0.52772450704E+03  0.25500000920E-02 0. -1.
    10030    2    1    2    0    0  0.00000000000E+00  0.00000000000E+00  0.16900495808E+04  0.27454985948E+04  0.21636762579E+04 0.  0.
        3    1    3    3  502    0  0.42270888053E+03 -0.84249312860E+03  0.15187357330E+04  0.17874662812E+04  0.10100000352E+00 0.  1.
       -3    1    3    3    0  502 -0.42270888053E+03  0.84249312860E+03  0.17131384777E+03  0.95803231368E+03  0.10100000352E+00 0. -1.
</event>
<event>
 5   0  0.9254673E-05  0.2210742E+04  0.7818609E-02  0.8513970E-01
       -2   -1    0    0    0  501  0.00000000000E+00  0.00000000000E+00  0.58168393460E+03  0.58168393461E+03  0.25500000920E-02 0. -1.
        2   -1    0    0  501    0  0.00000000000E+00  0.00000000000E+00 -0.21005305247E+04  0.21005305247E+04  0.25500000920E-02 0.  1.
    10030    2    1    2    0    0  0.00000000000E+00  0.00000000000E+00 -0.15188465901E+04  0.26822144593E+04  0.22107418306E+04 0.  0.
        2    1    3    3  502    0 -0.62951815725E+03 -0.24648054257E+03  0.30161034259E+03  0.74028005980E+03  0.25500000920E-02 0. -1.
       -2    1    3    3    0  502  0.62951815725E+03  0.24648054257E+03 -0.18204569326E+04  0.19419343995E+04  0.25500000920E-02 0.  1.
</event>
<event>
 5   0  0.4174030E-05  0.2231579E+04  0.7818609E-02  0.8505398E-01
       -1   -1    0    0    0  501  0.00000000000E+00  0.00000000000E+00  0.15759950792E+04  0.15759950792E+04  0.50400001928E-02 0.  1.
        1   -1    0    0  501    0  0.00000000000E+00  0.00000000000E+00 -0.78996840379E+03  0.78996840380E+03  0.50400001928E-02 0. -1.
    10030    2    1    2    0    0  0.00000000000E+00  0.00000000000E+00  0.78602667544E+03  0.23659634830E+04  0.22315790975E+04 0.  0.
        2    1    3    3  502    0 -0.70780625585E+03  0.77442063569E+03  0.79571434439E+03  0.13167681401E+04  0.25500000920E-02 0.  1.
       -2    1    3    3    0  502  0.70780625585E+03 -0.77442063569E+03 -0.96876689456E+01  0.10491953430E+04  0.25500000920E-02 0. -1.
</event>
<event>
 5   0  0.4174030E-05  0.2201607E+04  0.7818609E-02  0.8517759E-01
        1   -1    0    0  501    0  0.00000000000E+00  0.00000000000E+00  0.10311923908E+04  0.10311923909E+04  0.50400001928E-02 0. -1.
       -1   -1    0    0    0  501  0.00000000000E+00  0.00000000000E+00 -0.11751141909E+04  0.11751141909E+04  0.50400001928E-02 0.  1.
    10030    2    1    2    0    0  0.00000000000E+00  0.00000000000E+00 -0.14392180009E+03  0.22063065818E+04  0.22016074238E+04 0.  0.
        2    1    3    3  502    0  0.64372070730E+03 -0.56446441841E+03 -0.76537157826E+03  0.11483858591E+04  0.25500000920E-02 0.  1.
       -2    1    3    3    0  502 -0.64372070730E+03  0.56446441841E+03  0.62144977817E+03  0.10579207227E+04  0.25500000920E-02 0. -1.
</event>
<event>
 5   0  0.4133418E-05  0.2122717E+04  0.7818609E-02  0.8551302E-01
        1   -1    0    0  501    0  0.00000000000E+00  0.00000000000E+00  0.81890607840E+03  0.81890607842E+03  0.50400001928E-02 0.  1.
       -1   -1    0    0    0  501  0.00000000000E+00  0.00000000000E+00 -0.13755932933E+04  0.13755932933E+04  0.50400001928E-02 0. -1.
    10030    2    1    2    0    0  0.00000000000E+00  0.00000000000E+00 -0.55668721485E+03  0.21944993717E+04  0.21227168528E+04 0.  0.
        4    1    3    3  502    0  0.66335466427E+03  0.76576378129E+03  0.48653853100E+02  0.10142989646E+04  0.12699999809E+01 0.  1.
       -4    1    3    3    0  502 -0.66335466427E+03 -0.76576378129E+03 -0.60534106795E+03  0.11802004070E+04  0.12699999809E+01 0. -1.
</event>
<event>
 5   0  0.4174075E-05  0.2084072E+04  0.7818609E-02  0.8568292E-01
       -1   -1    0    0    0  501  0.00000000000E+00  0.00000000000E+00  0.50272326967E+03  0.50272326970E+03  0.50400001928E-02 0. -1.
        1   -1    0    0  501    0  0.00000000000E+00  0.00000000000E+00 -0.21599142129E+04  0.21599142129E+04  0.50400001928E-02 0.  1.
    10030    2    1    2    0    0  0.00000000000E+00  0.00000000000E+00 -0.16571909432E+04  0.26626374826E+04  0.20840721056E+04 0.  0.
        5    1    3    3  502    0  0.26552355810E+03 -0.96368201688E+03 -0.12046376895E+04  0.15653625275E+04  0.46999998093E+01 0.  1.
       -5    1    3    3    0  502 -0.26552355810E+03  0.96368201688E+03 -0.45255325367E+03  0.10972749550E+04  0.46999998093E+01 0. -1.
</event>
<event>
 5   0  0.4174075E-05  0.2214693E+04  0.7818609E-02  0.8512338E-01
       -1   -1    0    0    0  501  0.00000000000E+00  0.00000000000E+00  0.57047438379E+03  0.57047438381E+03  0.50400001928E-02 0.  1.
        1   -1    0    0  501    0  0.00000000000E+00  0.00000000000E+00 -0.21494668348E+04  0.21494668348E+04  0.50400001928E-02 0. -1.
    10030    2    1    2    0    0  0.00000000000E+00  0.00000000000E+00 -0.15789924510E+04  0.27199412186E+04  0.22146925458E+04 0.  0.
        5    1    3    3  502    0 -0.29661404237E+02  0.87767780217E+02 -0.21446865796E+04  0.21466917796E+04  0.46999998093E+01 0. -1.
       -5    1    3    3    0  502  0.29661404237E+02 -0.87767780217E+02  0.56569412859E+03  0.57324943896E+03  0.46999998093E+01 0.  1.
</event>
<event>
 5   0  0.9179618E-05  0.2221870E+04  0.7818609E-02  0.8509380E-01
        2   -1    0    0  501    0  0.00000000000E+00  0.00000000000E+00  0.15281509881E+04  0.15281509881E+04  0.25500000920E-02 0. -1.
       -2   -1    0    0    0  501  0.00000000000E+00  0.00000000000E+00 -0.80762748134E+03  0.80762748134E+03  0.25500000920E-02 0.  1.
    10030    2    1    2    0    0  0.00000000000E+00  0.00000000000E+00  0.72052350676E+03  0.23357784694E+04  0.22218701435E+04 0.  0.
        3    1    3    3  502    0 -0.34316428864E+03 -0.47236490099E+01  0.14710249156E+04  0.15105291637E+04  0.10100000352E+00 0. -1.
       -3    1    3    3    0  502  0.34316428864E+03  0.47236490099E+01 -0.75050140881E+03  0.82524930577E+03  0.10100000352E+00 0.  1.
</event>
<event>
 5   0  0.9179618E-05  0.2181562E+04  0.7818609E-02  0.8526142E-01
        2   -1    0    0  501    0  0.00000000000E+00  0.00000000000E+00  0.16771587145E+04  0.16771587145E+04  0.25500000920E-02 0.  1.
       -2   -1    0    0    0  501  0.00000000000E+00  0.00000000000E+00 -0.70941622489E+03  0.70941622490E+03  0.25500000920E-02 0. -1.
    10030    2    1    2    0    0  0.00000000000E+00  0.00000000000E+00  0.96774248963E+03  0.23865749394E+04  0.21815623794E+04 0.  0.
        3    1    3    3  502    0  0.97325236089E+03 -0.41814334492E+03  0.76859826693E+03  0.13087426489E+04  0.10100000352E+00 0. -1.
       -3    1    3    3    0  502 -0.97325236089E+03  0.41814334492E+03  0.19914422270E+03  0.10778322905E+04  0.10100000352E+00 0.  1.
</event>
<event>
 5   0  0.4174075E-05  0.2174400E+04  0.7818609E-02  0.8529159E-01
        1   -1    0    0  501    0  0.00000000000E+00  0.00000000000E+00  0.13101059191E+04  0.13101059191E+04  0.50400001928E-02 0. -1.
       -1   -1    0    0    0  501  0.00000000000E+00  0.00000000000E+00 -0.90222038229E+03  0.90222038230E+03  0.50400001928E-02 0.  1.
    10030    2    1    2    0    0  0.00000000000E+00  0.00000000000E+00  0.40788553683E+03  0.22123263014E+04  0.21744003893E+04 0.  0.
        5    1    3    3  502    0 -0.60646807574E+03 -0.53793353917E+02 -0.71248104841E+03  0.93720253209E+03  0.46999998093E+01 0.  1.
       -5    1    3    3    0  502  0.60646807574E+03  0.53793353917E+02  0.11203665852E+04  0.12751237693E+04  0.46999998093E+01 0. -1.
</event>
<event>
 5   0  0.9457742E-05  0.2172304E+04  0.7818609E-02  0.8530045E-01
        2   -1    0    0  501    0  0.00000000000E+00  0.00000000000E+00  0.14553416700E+04  0.14553416700E+04  0.25500000920E-02 0. -1.
       -2   -1    0    0    0  501  0.00000000000E+00  0.00000000000E+00 -0.81061773413E+03  0.81061773413E+03  0.25500000920E-02 0.  1.
    10030    2    1    2    0    0  0.00000000000E+00  0.00000000000E+00  0.64472393585E+03  0.22659594041E+04  0.21723036315E+04 0.  0.
        1    1    3    3  502    0 -0.58491239842E+03 -0.89532107337E+03  0.52028827756E+03  0.11892948457E+04  0.50400001928E-02 0. -1.
       -1    1    3    3    0  502  0.58491239842E+03  0.89532107337E+03  0.12443565829E+03  0.10766645584E+04  0.50400001928E-02 0.  1.
</event>
<event>
 5   0  0.4174030E-05  0.2217944E+04  0.7818609E-02  0.8510996E-01
        1   -1    0    0  501    0  0.00000000000E+00  0.00000000000E+00  0.10006635584E+04  0.10006635584E+04  0.50400001928E-02 0. -1.
       -1   -1    0    0    0  501  0.00000000000E+00  0.00000000000E+00 -0.12290033708E+04  0.12290033708E+04  0.50400001928E-02 0.  1.
    10030    2    1    2    0    0  0.00000000000E+00  0.00000000000E+00 -0.22833981236E+03  0.22296669292E+04  0.22179439905E+04 0.  0.
        2    1    3    3  502    0 -0.79063865985E+03 -0.64654047182E+03  0.32019581520E+03  0.10703501447E+04  0.25500000920E-02 0. -1.
       -2    1    3    3    0  502  0.79063865985E+03  0.64654047182E+03 -0.54853562756E+03  0.11593167845E+04  0.25500000920E-02 0.  1.
</event>
<event>
 5   0  0.9179618E-05  0.2202723E+04  0.7818609E-02  0.8517296E-01
       -2   -1    0    0    0  501  0.00000000000E+00  0.00000000000E+00  0.94118205051E+03  0.94118205051E+03  0.25500000920E-02 0.  1.
        2   -1    0    0  501    0  0.00000000000E+00  0.00000000000E+00 -0.12888020890E+04  0.12888020890E+04  0.25500000920E-02 0. -1.
    10030    2    1    2    0    0  0.00000000000E+00  0.00000000000E+00 -0.34762003845E+03  0.22299841395E+04  0.22027232171E+04 0.  0.
        3    1    3    3  502    0 -0.42069157247E+03 -0.10060866035E+04 -0.17609456329E+02  0.10906428178E+04  0.10100000352E+00 0. -1.
       -3    1    3    3    0  502  0.42069157247E+03  0.10060866035E+04 -0.33001058212E+03  0.11393413217E+04  0.10100000352E+00 0.  1.
</event>
<event>
 5   0  0.9442578E-05  0.2168238E+04  0.7818609E-02  0.8531766E-01
        2   -1    0    0  501    0  0.00000000000E+00  0.00000000000E+00  0.15141459066E+04  0.15141459066E+04  0.25500000920E-02 0. -1.
       -2   -1    0    0    0  501  0.00000000000E+00  0.00000000000E+00 -0.77622209877E+03  0.77622209878E+03  0.25500000920E-02 0.  1.
    10030    2    1    2    0    0  0.00000000000E+00  0.00000000000E+00  0.73792380783E+03  0.22903680054E+04  0.21682375455E+04 0.  0.
        4    1    3    3  502    0 -0.16614966812E+03  0.10680289928E+04  0.28045544300E+03  0.11166684871E+04  0.12699999809E+01 0.  1.
       -4    1    3    3    0  502  0.16614966812E+03 -0.10680289928E+04  0.45746836483E+03  0.11736995183E+04  0.12699999809E+01 0. -1.
</event>
<event>
 5   0  0.9938176E-05  0.2200552E+04  0.7818609E-02  0.8518199E-01
        2   -1    0    0  501    0  0.00000000000E+00  0.00000000000E+00  0.11024406243E+04  0.11024406243E+04  0.25500000920E-02 0.  1.
       -2   -1    0    0    0  501  0.00000000000E+00  0.00000000000E+00 -0.10981153545E+04  0.10981153545E+04  0.25500000920E-02 0. -1.
    10030    2    1    2    0    0  0.00000000000E+00  0.00000000000E+00  0.43252698247E+01  0.22005559788E+04  0.22005517281E+04 0.  0.
        5    1    3    3  502    0  0.17712092632E+02  0.43123629791E+03  0.10142448358E+04  0.11022672724E+04  0.46999998093E+01 0.  1.
       -5    1    3    3    0  502 -0.17712092632E+02 -0.43123629791E+03 -0.10099195660E+04  0.10982887064E+04  0.46999998093E+01 0. -1.
</event>
<event>
 5   0  0.4063293E-05  0.2370216E+04  0.7818609E-02  0.8450739E-01
       -1   -1    0    0    0  501  0.00000000000E+00  0.00000000000E+00  0.86285842183E+03  0.86285842184E+03  0.50400001928E-02 0.  1.
        1   -1    0    0  501    0  0.00000000000E+00  0.00000000000E+00 -0.16277078210E+04  0.16277078210E+04  0.50400001928E-02 0. -1.
    10030    2    1    2    0    0  0.00000000000E+00  0.00000000000E+00 -0.76484939921E+03  0.24905662429E+04  0.23702163629E+04 0.  0.
        1    1    3    3  502    0  0.69543882015E+02 -0.15692412403E+02  0.86060313504E+03  0.86355101725E+03  0.50400001928E-02 0.  1.
       -1    1    3    3    0  502 -0.69543882015E+02  0.15692412403E+02 -0.16254525342E+04  0.16270152256E+04  0.50400001928E-02 0. -1.
</event>
<event>
 5   0  0.4188865E-05  0.2053759E+04  0.7818609E-02  0.8581891E-01
       -1   -1    0    0    0  501  0.00000000000E+00  0.00000000000E+00  0.72925042659E+03  0.72925042660E+03  0.50400001928E-02 0.  1.
        1   -1    0    0  501    0  0.00000000000E+00  0.00000000000E+00 -0.14459797461E+04  0.14459797462E+04  0.50400001928E-02 0. -1.
    10030    2    1    2    0    0  0.00000000000E+00  0.00000000000E+00 -0.71672931956E+03  0.21752301728E+04  0.20537588434E+04 0.  0.
        3    1    3    3  502    0 -0.14245463097E+03 -0.64227833756E+03  0.47672772394E+03  0.81245560972E+03  0.10100000352E+00 0.  1.
       -3    1    3    3    0  502  0.14245463097E+03  0.64227833756E+03 -0.11934570435E+04  0.13627745630E+04  0.10100000352E+00 0. -1.
</event>
<event>
 5   0  0.4133418E-05  0.2070184E+04  0.7818609E-02  0.8574493E-01
       -1   -1    0    0    0  501  0.00000000000E+00  0.00000000000E+00  0.74188306286E+03  0.74188306288E+03  0.50400001928E-02 0. -1.
        1   -1    0    0  501    0  0.00000000000E+00  0.00000000000E+00 -0.14441830825E+04  0.14441830826E+04  0.50400001928E-02 0.  1.
    10030    2    1    2    0    0  0.00000000000E+00  0.00000000000E+00 -0.70230001968E+03  0.21860661454E+04  0.20701835364E+04 0.  0.
        4    1    3    3  502    0 -0.72378591632E+03 -0.41740489401E+03  0.29405145222E+03  0.88575434950E+03  0.12699999809E+01 0. -1.
       -4    1    3    3    0  502  0.72378591632E+03  0.41740489401E+03 -0.99635147190E+03  0.13003117959E+04  0.12699999809E+01 0.  1.
</event>
<event>
 5   0  0.4174075E-05  0.2173446E+04  0.7818609E-02  0.8529562E-01
        1   -1    0    0  501    0  0.00000000000E+00  0.00000000000E+00  0.79828405925E+03  0.79828405927E+03  0.50400001928E-02 0. -1.
       -1   -1    0    0    0  501  0.00000000000E+00  0.00000000000E+00 -0.14793821725E+04  0.14793821725E+04  0.50400001928E-02 0.  1.
    10030    2    1    2    0    0  0.00000000000E+00  0.00000000000E+00 -0.68109811320E+03  0.22776662317E+04  0.21734463010E+04 0.  0.
        5    1    3    3  502    0  0.32500254623E+03 -0.33346947003E+03 -0.13695267089E+04  0.14465317276E+04  0.46999998093E+01 0.  1.
       -5    1    3    3    0  502 -0.32500254623E+03  0.33346947003E+03  0.68842859574E+03  0.83113450412E+03  0.46999998093E+01 0. -1.
</event>
<event>
 5   0  0.9179618E-05  0.2132609E+04  0.7818609E-02  0.8547013E-01
       -2   -1    0    0    0  501  0.00000000000E+00  0.00000000000E+00  0.71174505875E+03  0.71174505876E+03  0.25500000920E-02 0. -1.
        2   -1    0    0  501    0  0.00000000000E+00  0.00000000000E+00 -0.15974899206E+04  0.15974899206E+04  0.25500000920E-02 0.  1.
    10030    2    1    2    0    0  0.00000000000E+00  0.00000000000E+00 -0.88574486184E+03  0.23092349794E+04  0.21326092538E+04 0.  0.
        3    1    3    3  502    0  0.84094184168E+03  0.41480064684E+03 -0.99262459741E+03  0.13654839286E+04  0.10100000352E+00 0.  1.
       -3    1    3    3    0  502 -0.84094184168E+03 -0.41480064684E+03  0.10687973557E+03  0.94375105074E+03  0.10100000352E+00 0. -1.
</event>
<event>
 5   0  0.4174030E-05  0.2196283E+04  0.7818609E-02  0.8519977E-01
       -1   -1    0    0    0  501  0.00000000000E+00  0.00000000000E+00  0.12012915782E+04  0.12012915782E+04  0.50400001928E-02 0.  1.
        1   -1    0    0  501    0  0.00000000000E+00  0.00000000000E+00 -0.10038489116E+04  0.10038489116E+04  0.50400001928E-02 0. -1.
    10030    2    1    2    0    0  0.00000000000E+00  0.00000000000E+00  0.19744266659E+03  0.22051404898E+04  0.21962834456E+04 0.  0.
        2    1    3    3  502    0 -0.21101801755E+03 -0.99883250618E+03  0.50497668392E+03  0.11389453150E+04  0.25500000920E-02 0.  1.
       -2    1    3    3    0  502  0.21101801755E+03  0.99883250618E+03 -0.30753401734E+03  0.10661951749E+04  0.25500000920E-02 0. -1.
</event>
<event>
 5   0  0.4133418E-05  0.2193583E+04  0.7818609E-02  0.8521104E-01
        1   -1    0    0  501    0  0.00000000000E+00  0.00000000000E+00  0.20533664003E+04  0.20533664003E+04  0.50400001928E-02 0.  1.
       -1   -1    0    0    0  501  0.00000000000E+00  0.00000000000E+00 -0.58584361791E+03  0.58584361793E+03  0.50400001928E-02 0. -1.
    10030    2    1    2    0    0  0.00000000000E+00  0.00000000000E+00  0.14675227824E+04  0.26392100182E+04  0.21935830059E+04 0.  0.
        4    1    3    3  502    0 -0.72127255770E+03  0.75067532368E+03  0.31836524993E+03  0.10886255506E+04  0.12699999809E+01 0. -1.
       -4    1    3    3    0  502  0.72127255770E+03 -0.75067532368E+03  0.11491575325E+04  0.15505844677E+04  0.12699999809E+01 0.  1.
</event>
<event>
 5   0  0.4188865E-05  0.1706097E+04  0.7818609E-02  0.8757895E-01
        1   -1    0    0  501    0  0.00000000000E+00  0.00000000000E+00  0.58595553781E+03  0.58595553784E+03  0.50400001928E-02 0.  1.
       -1   -1    0    0    0  501  0.00000000000E+00  0.00000000000E+00 -0.12418888553E+04  0.12418888554E+04  0.50400001928E-02 0. -1.
    10030    2    1    2    0    0  0.00000000000E+00  0.00000000000E+00 -0.65593331753E+03  0.18278443932E+04  0.17060968931E+04 0.  0.
        3    1    3    3  502    0  0.35485609381E+02 -0.80375560654E+03 -0.63176736096E+03  0.10229429662E+04  0.10100000352E+00 0.  1.
       -3    1    3    3    0  502 -0.35485609381E+02  0.80375560654E+03 -0.24165956569E+02  0.80490142699E+03  0.10100000352E+00 0. -1.
</event>
<event>
 5   0  0.4133418E-05  0.2174615E+04  0.7818609E-02  0.8529069E-01
       -1   -1    0    0    0  501  0.00000000000E+00  0.00000000000E+00  0.98767766450E+03  0.98767766451E+03  0.50400001928E-02 0.  1.
        1   -1    0    0  501    0  0.00000000000E+00  0.00000000000E+00 -0.11969872476E+04  0.11969872477E+04  0.50400001928E-02 0. -1.
    10030    2    1    2    0    0  0.00000000000E+00  0.00000000000E+00 -0.20930958315E+03  0.21846649122E+04  0.21746149721E+04 0.  0.
        4    1    3    3  502    0  0.48456786145E+03 -0.41634070128E+03 -0.98854493413E+03  0.11770166913E+04  0.12699999809E+01 0. -1.
       -4    1    3    3    0  502 -0.48456786145E+03  0.41634070128E+03  0.77923535098E+03  0.10076482209E+04  0.12699999809E+01 0.  1.
</event>
<event>
 5   0  0.9254673E-05  0.2248042E+04  0.7818609E-02  0.8498694E-01
        2   -1    0    0  501    0  0.00000000000E+00  0.00000000000E+00  0.13870754050E+04  0.13870754050E+04  0.25500000920E-02 0. -1.
       -2   -1    0    0    0  501  0.00000000000E+00  0.00000000000E+00 -0.91085437930E+03  0.91085437930E+03  0.25500000920E-02 0.  1.
    10030    2    1    2    0    0  0.00000000000E+00  0.00000000000E+00  0.47622102569E+03  0.22979297843E+04  0.22480424436E+04 0.  0.
        2    1    3    3  502    0 -0.79137449412E+03 -0.38055224500E+03 -0.47912278637E+03  0.10003260696E+04  0.25500000920E-02 0.  1.
       -2    1    3    3    0  502  0.79137449412E+03  0.38055224500E+03  0.95534381206E+03  0.12976037147E+04  0.25500000920E-02 0. -1.
</event>
<event>
 5   0  0.9938176E-05  0.1817229E+04  0.7818609E-02  0.8697190E-01
       -2   -1    0    0    0  501  0.00000000000E+00  0.00000000000E+00  0.34216380561E+03  0.34216380561E+03  0.25500000920E-02 0. -1.
        2   -1    0    0  501    0  0.00000000000E+00  0.00000000000E+00 -0.24128226901E+04  0.24128226901E+04  0.25500000920E-02 0.  1.
    10030    2    1    2    0    0  0.00000000000E+00  0.00000000000E+00 -0.20706588845E+04  0.27549864957E+04  0.18172293129E+04 0.  0.
        5    1    3    3  502    0 -0.46066883583E+03  0.68215619801E+03 -0.16185715715E+04  0.18158603682E+04  0.46999998093E+01 0.  1.
       -5    1    3    3    0  502  0.46066883583E+03 -0.68215619801E+03 -0.45208731299E+03  0.93912612750E+03  0.46999998093E+01 0. -1.
</event>
<event>
 5   0  0.9179618E-05  0.2204241E+04  0.7818609E-02  0.8516665E-01
        2   -1    0    0  501    0  0.00000000000E+00  0.00000000000E+00  0.24573548477E+04  0.24573548477E+04  0.25500000920E-02 0. -1.
       -2   -1    0    0    0  501  0.00000000000E+00  0.00000000000E+00 -0.49429967699E+03  0.49429967699E+03  0.25500000920E-02 0.  1.
    10030    2    1    2    0    0  0.00000000000E+00  0.00000000000E+00  0.19630551707E+04  0.29516545247E+04  0.22042411007E+04 0.  0.
        3    1    3    3  502    0 -0.37220910769E+03 -0.10318759201E+04  0.83879046424E+03  0.13808971676E+04  0.10100000352E+00 0. -1.
       -3    1    3    3    0  502  0.37220910769E+03  0.10318759201E+04  0.11242647065E+04  0.15707573571E+04  0.10100000352E+00 0.  1.
</event>
<event>
 5   0  0.9938176E-05  0.2218727E+04  0.7818609E-02  0.8510674E-01
        2   -1    0    0  501    0  0.00000000000E+00  0.00000000000E+00  0.23680634385E+04  0.23680634385E+04  0.25500000920E-02 0. -1.
       -2   -1    0    0    0  501  0.00000000000E+00  0.00000000000E+00 -0.51970187600E+03  0.51970187600E+03  0.25500000920E-02 0.  1.
    10030    2    1    2    0    0  0.00000000000E+00  0.00000000000E+00  0.18483615625E+04  0.28877653145E+04  0.22187266722E+04 0.  0.
        5    1    3    3  502    0  0.29836330611E+03 -0.42695193078E+03 -0.35063684374E+03  0.62791472336E+03  0.46999998093E+01 0.  1.
       -5    1    3    3    0  502 -0.29836330611E+03  0.42695193078E+03  0.21989984063E+04  0.22598505912E+04  0.46999998093E+01 0. -1.
</event>
<event>
 5   0  0.4133418E-05  0.2507036E+04  0.7818609E-02  0.8400483E-01
       -1   -1    0    0    0  501  0.00000000000E+00  0.00000000000E+00  0.94777277972E+03  0.94777277974E+03  0.50400001928E-02 0. -1.
        1   -1    0    0  501    0  0.00000000000E+00  0.00000000000E+00 -0.16578944741E+04  0.16578944741E+04  0.50400001928E-02 0.  1.
    10030    2    1    2    0    0  0.00000000000E+00  0.00000000000E+00 -0.71012169437E+03  0.26056672538E+04  0.25070359026E+04 0.  0.
        4    1    3    3  502    0  0.66443074500E+03 -0.27685713369E+03  0.71156293007E+03  0.10121469773E+04  0.12699999809E+01 0. -1.
       -4    1    3    3    0  502 -0.66443074500E+03  0.27685713369E+03 -0.14216846244E+04  0.15935202765E+04  0.12699999809E+01 0.  1.
</event>
<event>
 5   0  0.4188865E-05  0.2103131E+04  0.7818609E-02  0.8559865E-01
       -1   -1    0    0    0  501  0.00000000000E+00  0.00000000000E+00  0.69015095363E+03  0.69015095365E+03  0.50400001928E-02 0.  1.
        1   -1    0    0  501    0  0.00000000000E+00  0.00000000000E+00 -0.16022433796E+04  0.16022433796E+04  0.50400001928E-02 0. -1.
    10030    2    1    2    0    0  0.00000000000E+00  0.00000000000E+00 -0.91209242594E+03  0.22923943332E+04  0.21031308056E+04 0.  0.
        3    1    3    3  502    0 -0.83716188200E+03 -0.61445674529E+03 -0.27564465444E+03  0.10744194219E+04  0.10100000352E+00 0. -1.
       -3    1    3    3    0  502  0.83716188200E+03  0.61445674529E+03 -0.63644777150E+03  0.12179749113E+04  0.10100000352E+00 0.  1.
</event>
<event>
 5   0  0.4188865E-05  0.2200870E+04  0.7818609E-02  0.8518066E-01
       -1   -1    0    0    0  501  0.00000000000E+00  0.00000000000E+00  0.14303868612E+04  0.14303868612E+04  0.50400001928E-02 0.  1.
        1   -1    0    0  501    0  0.00000000000E+00  0.00000000000E+00 -0.84659442670E+03  0.84659442672E+03  0.50400001928E-02 0. -1.
    10030    2    1    2    0    0  0.00000000000E+00  0.00000000000E+00  0.58379243449E+03  0.22769812879E+04  0.22008703231E+04 0.  0.
        3    1    3    3  502    0 -0.41061068727E+03  0.73242285867E+03  0.10277694283E+04  0.13271602723E+04  0.10100000352E+00 0.  1.
       -3    1    3    3    0  502  0.41061068727E+03 -0.73242285867E+03 -0.44397699385E+03  0.94982101559E+03  0.10100000352E+00 0. -1.
</event>
<event>
 5   0  0.4174075E-05  0.2183428E+04  0.7818609E-02  0.8525357E-01
        1   -1    0    0  501    0  0.00000000000E+00  0.00000000000E+00  0.18466610235E+04  0.18466610235E+04  0.50400001928E-02 0. -1.
       -1   -1    0    0    0  501  0.00000000000E+00  0.00000000000E+00 -0.64540245705E+03  0.64540245707E+03  0.50400001928E-02 0.  1.
    10030    2    1    2    0    0  0.00000000000E+00  0.00000000000E+00  0.12012585665E+04  0.24920634806E+04  0.21834280954E+04 0.  0.
        5    1    3    3  502    0  0.12908788666E+03 -0.79118004435E+03  0.14464546336E+04  0.16537480588E+04  0.46999998093E+01 0. -1.
       -5    1    3    3    0  502 -0.12908788666E+03  0.79118004435E+03 -0.24519606711E+03  0.83831542177E+03  0.46999998093E+01 0.  1.
</event>
<event>
 5   0  0.9254673E-05  0.2209142E+04  0.7818609E-02  0.8514633E-01
        2   -1    0    0  501    0  0.00000000000E+00  0.00000000000E+00  0.20801465755E+04  0.20801465755E+04  0.25500000920E-02 0.  1.
       -2   -1    0    0    0  501  0.00000000000E+00  0.00000000000E+00 -0.58653420294E+03  0.58653420294E+03  0.25500000920E-02 0. -1.
    10030    2    1    2    0    0  0.00000000000E+00  0.00000000000E+00  0.14936123726E+04  0.26666807785E+04  0.22091420178E+04 0.  0.
        2    1    3    3  502    0 -0.28795914673E+03 -0.69908845608E+03  0.17188360442E+04  0.18777759415E+04  0.25500000920E-02 0.  1.
       -2    1    3    3    0  502  0.28795914673E+03  0.69908845608E+03 -0.22522367157E+03  0.78890483701E+03  0.25500000920E-02 0. -1.
</event>
<event>
 5   0  0.9179618E-05  0.2145523E+04  0.7818609E-02  0.8541451E-01
        2   -1    0    0  501    0  0.00000000000E+00  0.00000000000E+00  0.13551895287E+04  0.13551895287E+04  0.25500000920E-02 0.  1.
       -2   -1    0    0    0  501  0.00000000000E+00  0.00000000000E+00 -0.84919243956E+03  0.84919243956E+03  0.25500000920E-02 0. -1.
    10030    2    1    2    0    0  0.00000000000E+00  0.00000000000E+00  0.50599708909E+03  0.22043819682E+04  0.21455225022E+04 0.  0.
        3    1    3    3  502    0 -0.14292125535E+03 -0.10455004203E+04  0.45147967565E+03  0.11477506358E+04  0.10100000352E+00 0. -1.
       -3    1    3    3    0  502  0.14292125535E+03  0.10455004203E+04  0.54517413439E+02  0.10566313325E+04  0.10100000352E+00 0.  1.
</event>
<event>
 5   0  0.9179618E-05  0.2233083E+04  0.7818609E-02  0.8504783E-01
       -2   -1    0    0    0  501  0.00000000000E+00  0.00000000000E+00  0.94715461492E+03  0.94715461492E+03  0.25500000920E-02 0.  1.
        2   -1    0    0  501    0  0.00000000000E+00  0.00000000000E+00 -0.13162212615E+04  0.13162212615E+04  0.25500000920E-02 0. -1.
    10030    2    1    2    0    0  0.00000000000E+00  0.00000000000E+00 -0.36906664657E+03  0.22633758764E+04  0.22330831082E+04 0.  0.
        3    1    3    3  502    0 -0.16449870538E+03 -0.31974618147E+03 -0.12559288552E+04  0.13063899664E+04  0.10100000352E+00 0. -1.
       -3    1    3    3    0  502  0.16449870538E+03  0.31974618147E+03  0.88686220867E+03  0.95698591003E+03  0.10100000352E+00 0.  1.
</event>
<event>
 5   0  0.4174030E-05  0.2130605E+04  0.7818609E-02  0.8547880E-01
       -1   -1    0    0    0  501  0.00000000000E+00  0.00000000000E+00  0.53776767674E+03  0.53776767676E+03  0.50400001928E-02 0. -1.
        1   -1    0    0  501    0  0.00000000000E+00  0.00000000000E+00 -0.21103342865E+04  0.21103342865E+04  0.50400001928E-02 0.  1.
    10030    2    1    2    0    0  0.00000000000E+00  0.00000000000E+00 -0.15725666098E+04  0.26481019633E+04  0.21306051407E+04 0.  0.
        2    1    3    3  502    0  0.86978359040E+03 -0.31749536700E+03 -0.13150137226E+03  0.93521089232E+03  0.25500000920E-02 0. -1.
       -2    1    3    3    0  502 -0.86978359040E+03  0.31749536700E+03 -0.14410652375E+04  0.17128910710E+04  0.25500000920E-02 0.  1.
</event>
<event>
 5   0  0.9442578E-05  0.2157127E+04  0.7818609E-02  0.8536488E-01
        2   -1    0    0  501    0  0.00000000000E+00  0.00000000000E+00  0.81922195911E+03  0.81922195911E+03  0.25500000920E-02 0.  1.
       -2   -1    0    0    0  501  0.00000000000E+00  0.00000000000E+00 -0.14200053205E+04  0.14200053205E+04  0.25500000920E-02 0. -1.
    10030    2    1    2    0    0  0.00000000000E+00  0.00000000000E+00 -0.60078336137E+03  0.22392272796E+04  0.21571272940E+04 0.  0.
        4    1    3    3  502    0  0.74220549261E+03 -0.42452756824E+03 -0.98283633392E+03  0.13027131387E+04  0.12699999809E+01 0. -1.
       -4    1    3    3    0  502 -0.74220549261E+03  0.42452756824E+03  0.38205297254E+03  0.93651414094E+03  0.12699999809E+01 0.  1.
</event>
<event>
 5   0  0.9179618E-05  0.2233520E+04  0.7818609E-02  0.8504605E-01
       -2   -1    0    0    0  501  0.00000000000E+00  0.00000000000E+00  0.79014698878E+03  0.79014698879E+03  0.25500000920E-02 0. -1.
        2   -1    0    0  501    0  0.00000000000E+00  0.00000000000E+00 -0.15783802886E+04  0.15783802886E+04  0.25500000920E-02 0.  1.
    10030    2    1    2    0    0  0.00000000000E+00  0.00000000000E+00 -0.78823329980E+03  0.23685272774E+04  0.22335195832E+04 0.  0.
        3    1    3    3  502    0  0.22017399401E+03  0.30993286484E+02  0.76643751842E+03  0.79803737462E+03  0.10100000352E+00 0. -1.
       -3    1    3    3    0  502 -0.22017399401E+03 -0.30993286484E+02 -0.15546708182E+04  0.15704899028E+04  0.10100000352E+00 0.  1.
</event>
<event>
 5   0  0.9179618E-05  0.2215810E+04  0.7818609E-02  0.8511877E-01
        2   -1    0    0  501    0  0.00000000000E+00  0.00000000000E+00  0.96211302705E+03  0.96211302706E+03  0.25500000920E-02 0. -1.
       -2   -1    0    0    0  501  0.00000000000E+00  0.00000000000E+00 -0.12757887715E+04  0.12757887715E+04  0.25500000920E-02 0.  1.
    10030    2    1    2    0    0  0.00000000000E+00  0.00000000000E+00 -0.31367574441E+03  0.22379017985E+04  0.22158095557E+04 0.  0.
        3    1    3    3  502    0 -0.14039844219E+03 -0.13933608198E+03  0.94413476557E+03  0.96463295199E+03  0.10100000352E+00 0. -1.
       -3    1    3    3    0  502  0.14039844219E+03  0.13933608198E+03 -0.12578105100E+04  0.12732688465E+04  0.10100000352E+00 0.  1.
</event>
<event>
 5   0  0.9179618E-05  0.2276837E+04  0.7818609E-02  0.8487111E-01
        2   -1    0    0  501    0  0.00000000000E+00  0.00000000000E+00  0.71873565176E+03  0.71873565177E+03  0.25500000920E-02 0.  1.
       -2   -1    0    0    0  501  0.00000000000E+00  0.00000000000E+00 -0.18031610291E+04  0.18031610291E+04  0.25500000920E-02 0. -1.
    10030    2    1    2    0    0  0.00000000000E+00  0.00000000000E+00 -0.10844253774E+04  0.25218966809E+04  0.22768365049E+04 0.  0.
        3    1    3    3  502    0 -0.26121809764E+03  0.78715106203E+03 -0.14059911635E+04  0.16323764428E+04  0.10100000352E+00 0. -1.
       -3    1    3    3    0  502  0.26121809764E+03 -0.78715106203E+03  0.32156578612E+03  0.88952023810E+03  0.10100000352E+00 0.  1.
</event>
<event>
 5   0  0.9938176E-05  0.2167668E+04  0.7818609E-02  0.8532007E-01
       -2   -1    0    0    0  501  0.00000000000E+00  0.00000000000E+00  0.63456870028E+03  0.63456870029E+03  0.25500000920E-02 0.  1.
        2   -1    0    0  501    0  0.00000000000E+00  0.00000000000E+00 -0.18511723575E+04  0.18511723575E+04  0.25500000920E-02 0. -1.
    10030    2    1    2    0    0  0.00000000000E+00  0.00000000000E+00 -0.12166036572E+04  0.24857410578E+04  0.21676679053E+04 0.  0.
        5    1    3    3  502    0  0.25135183414E+03 -0.10537320746E+04 -0.64710348132E+03  0.12618613375E+04  0.46999998093E+01 0. -1.
       -5    1    3    3    0  502 -0.25135183414E+03  0.10537320746E+04 -0.56950017589E+03  0.12238797203E+04  0.46999998093E+01 0.  1.
</event>
<event>
 5   0  0.4188865E-05  0.2149870E+04  0.7818609E-02  0.8539588E-01
       -1   -1    0    0    0  501  0.00000000000E+00  0.00000000000E+00  0.10376826274E+04  0.10376826274E+04  0.50400001928E-02 0.  1.
        1   -1    0    0  501    0  0.00000000000E+00  0.00000000000E+00 -0.11135250239E+04  0.11135250239E+04  0.50400001928E-02 0. -1.
    10030    2    1    2    0    0  0.00000000000E+00  0.00000000000E+00 -0.75842396522E+02  0.21512076514E+04  0.21498702961E+04 0.  0.
        3    1    3    3  502    0 -0.10657854720E+04 -0.69182505198E+02 -0.15965488588E+03  0.10798956357E+04  0.10100000352E+00 0.  1.
       -3    1    3    3    0  502  0.10657854720E+04  0.69182505198E+02  0.83812489359E+02  0.10713120156E+04  0.10100000352E+00 0. -1.
</event>
<event>
 5   0  0.4174030E-05  0.2174033E+04  0.7818609E-02  0.8529315E-01
       -1   -1    0    0    0  501  0.00000000000E+00  0.00000000000E+00  0.16735002559E+04  0.16735002559E+04  0.50400001928E-02 0.  1.
        1   -1    0    0  501    0  0.00000000000E+00  0.00000000000E+00 -0.70606780349E+03  0.70606780351E+03  0.50400001928E-02 0. -1.
    10030    2    1    2    0    0  0.00000000000E+00  0.00000000000E+00  0.96743245237E+03  0.23795680594E+04  0.21740327963E+04 0.  0.
        2    1    3    3  502    0  0.32090227252E+02  0.98242989525E+02 -0.70067789111E+03  0.70825911556E+03  0.25500000920E-02 0. -1.
       -2    1    3    3    0  502 -0.32090227252E+02 -0.98242989525E+02  0.16681103435E+04  0.16713089438E+04  0.25500000920E-02 0.  1.
</event>
<event>
 5   0  0.4133418E-05  0.2181568E+04  0.7818609E-02  0.8526139E-01
       -1   -1    0    0    0  501  0.00000000000E+00  0.00000000000E+00  0.39755429796E+03  0.39755429799E+03  0.50400001928E-02 0.  1.
        1   -1    0    0  501    0  0.00000000000E+00  0.00000000000E+00 -0.29928221680E+04  0.29928221680E+04  0.50400001928E-02 0. -1.
    10030    2    1    2    0    0  0.00000000000E+00  0.00000000000E+00 -0.25952678700E+04  0.33903764660E+04  0.21815676162E+04 0.  0.
        4    1    3    3  502    0 -0.67955691077E+03  0.52308483162E+03 -0.23452321754E+04  0.24971045043E+04  0.12699999809E+01 0. -1.
       -4    1    3    3    0  502  0.67955691077E+03 -0.52308483162E+03 -0.25003569467E+03  0.89327196170E+03  0.12699999809E+01 0.  1.
</event>
<event>
 5   0  0.9179618E-05  0.2170049E+04  0.7818609E-02  0.8530999E-01
       -2   -1    0    0    0  501  0.00000000000E+00  0.00000000000E+00  0.63347350096E+03  0.63347350097E+03  0.25500000920E-02 0.  1.
        2   -1    0    0  501    0  0.00000000000E+00  0.00000000000E+00 -0.18584489354E+04  0.18584489354E+04  0.25500000920E-02 0. -1.
    10030    2    1    2    0    0  0.00000000000E+00  0.00000000000E+00 -0.12249754344E+04  0.24919224363E+04  0.21700489888E+04 0.  0.
        3    1    3    3  502    0 -0.47585837183E+02 -0.24940000935E+03 -0.18238558623E+04  0.18414437252E+04  0.10100000352E+00 0. -1.
       -3    1    3    3    0  502  0.47585837183E+02  0.24940000935E+03  0.59888042786E+03  0.65047871114E+03  0.10100000352E+00 0.  1.
</event>
<event>
 5   0  0.9179618E-05  0.2178062E+04  0.7818609E-02  0.8527615E-01
       -2   -1    0    0    0  501  0.00000000000E+00  0.00000000000E+00  0.10664146765E+04  0.10664146765E+04  0.25500000920E-02 0.  1.
        2   -1    0    0  501    0  0.00000000000E+00  0.00000000000E+00 -0.11121267688E+04  0.11121267688E+04  0.25500000920E-02 0. -1.
    10030    2    1    2    0    0  0.00000000000E+00  0.00000000000E+00 -0.45712092309E+02  0.21785414453E+04  0.21780618067E+04 0.  0.
        3    1    3    3  502    0  0.17584417589E+03 -0.19848279511E+02  0.10519377830E+04  0.10667184436E+04  0.10100000352E+00 0.  1.
       -3    1    3    3    0  502 -0.17584417589E+03  0.19848279511E+02 -0.10976498753E+04  0.11118230018E+04  0.10100000352E+00 0. -1.
</event>
<event>
 5   0  0.9457742E-05  0.1610227E+04  0.7818609E-02  0.8814290E-01
       -2   -1    0    0    0  501  0.00000000000E+00  0.00000000000E+00  0.51121499078E+03  0.51121499079E+03  0.25500000920E-02 0. -1.
        2   -1    0    0  501    0  0.00000000000E+00  0.00000000000E+00 -0.12679751842E+04  0.12679751842E+04  0.25500000920E-02 0.  1.
    10030    2    1    2    0    0  0.00000000000E+00  0.00000000000E+00 -0.75676019338E+03  0.17791901749E+04  0.16102272164E+04 0.  0.
        1    1    3    3  502    0 -0.10966259573E+03 -0.75271176150E+03 -0.86864499806E+02  0.76560193453E+03  0.50400001928E-02 0. -1.
       -1    1    3    3    0  502  0.10966259573E+03  0.75271176150E+03 -0.66989569357E+03  0.10135882404E+04  0.50400001928E-02 0.  1.
</event>
<event>
 5   0  0.4063293E-05  0.2206898E+04  0.7818609E-02  0.8515563E-01
        1   -1    0    0  501    0  0.00000000000E+00  0.00000000000E+00  0.17998728128E+04  0.17998728129E+04  0.50400001928E-02 0.  1.
       -1   -1    0    0    0  501  0.00000000000E+00  0.00000000000E+00 -0.67649188184E+03  0.67649188185E+03  0.50400001928E-02 0. -1.
    10030    2    1    2    0    0  0.00000000000E+00  0.00000000000E+00  0.11233809310E+04  0.24763646947E+04  0.22068976834E+04 0.  0.
        1    1    3    3  502    0 -0.16749436548E+03 -0.44509193052E+03 -0.55559775389E+03  0.73133443323E+03  0.50400001928E-02 0. -1.
       -1    1    3    3    0  502  0.16749436548E+03  0.44509193052E+03  0.16789786849E+04  0.17450302615E+04  0.50400001928E-02 0.  1.
</event>
<event>
 5   0  0.9254673E-05  0.2234027E+04  0.7818609E-02  0.8504398E-01
       -2   -1    0    0    0  501  0.00000000000E+00  0.00000000000E+00  0.62447027939E+03  0.62447027940E+03  0.25500000920E-02 0.  1.
        2   -1    0    0  501    0  0.00000000000E+00  0.00000000000E+00 -0.19980432687E+04  0.19980432687E+04  0.25500000920E-02 0. -1.
    10030    2    1    2    0    0  0.00000000000E+00  0.00000000000E+00 -0.13735729893E+04  0.26225135481E+04  0.22340265336E+04 0.  0.
        2    1    3    3  502    0 -0.52386313579E+03 -0.98408230623E+03 -0.60488200283E+03  0.12683583121E+04  0.25500000920E-02 0.  1.
       -2    1    3    3    0  502  0.52386313579E+03  0.98408230623E+03 -0.76869098644E+03  0.13541552360E+04  0.25500000920E-02 0. -1.
</event>
<event>
 5   0  0.9179618E-05  0.2190646E+04  0.7818609E-02  0.8522331E-01
       -2   -1    0    0    0  501  0.00000000000E+00  0.00000000000E+00  0.10947494449E+04  0.10947494449E+04  0.25500000920E-02 0. -1.
        2   -1    0    0  501    0  0.00000000000E+00  0.00000000000E+00 -0.10958972667E+04  0.10958972667E+04  0.25500000920E-02 0.  1.
    10030    2    1    2    0    0  0.00000000000E+00  0.00000000000E+00 -0.11478217902E+01  0.21906467116E+04  0.21906464109E+04 0.  0.
        3    1    3    3  502    0  0.10956730807E+03  0.31498520949E+03  0.10427441307E+04  0.10947766939E+04  0.10100000352E+00 0. -1.
       -3    1    3    3    0  502 -0.10956730807E+03 -0.31498520949E+03 -0.10438919525E+04  0.10958700178E+04  0.10100000352E+00 0.  1.
</event>
<event>
 5   0  0.4063293E-05  0.2274388E+04  0.7818609E-02  0.8488089E-01
       -1   -1    0    0    0  501  0.00000000000E+00  0.00000000000E+00  0.13447170193E+04  0.13447170193E+04  0.50400001928E-02 0. -1.
        1   -1    0    0  501    0  0.00000000000E+00  0.00000000000E+00 -0.96169671540E+03  0.96169671541E+03  0.50400001928E-02 0.  1.
    10030    2    1    2    0    0  0.00000000000E+00  0.00000000000E+00  0.38302030392E+03  0.23064137347E+04  0.22743877775E+04 0.  0.
        1    1    3    3  502    0 -0.99375127864E+02 -0.98289662117E+03  0.76268972460E+03  0.12480612164E+04  0.50400001928E-02 0. -1.
       -1    1    3    3    0  502  0.99375127864E+02  0.98289662117E+03 -0.37966942069E+03  0.10583525183E+04  0.50400001928E-02 0.  1.
</event>
<event>
 5   0  0.9442578E-05  0.2169583E+04  0.7818609E-02  0.8531196E-01
       -2   -1    0    0    0  501  0.00000000000E+00  0.00000000000E+00  0.83897261454E+03  0.83897261454E+03  0.25500000920E-02 0.  1.
        2   -1    0    0  501    0  0.00000000000E+00  0.00000000000E+00 -0.14026352598E+04  0.14026352598E+04  0.25500000920E-02 0. -1.
    10030    2    1    2    0    0  0.00000000000E+00  0.00000000000E+00 -0.56366264531E+03  0.22416078744E+04  0.21695829749E+04 0.  0.
        4    1    3    3  502    0 -0.10445620007E+04  0.18515105659E+03 -0.47634188730E+02  0.10619139870E+04  0.12699999809E+01 0. -1.
       -4    1    3    3    0  502  0.10445620007E+04 -0.18515105659E+03 -0.51602845658E+03  0.11796938874E+04  0.12699999809E+01 0.  1.
</event>
<event>
 5   0  0.4174075E-05  0.2235439E+04  0.7818609E-02  0.8503821E-01
       -1   -1    0    0    0  501  0.00000000000E+00  0.00000000000E+00  0.10893294083E+04  0.10893294083E+04  0.50400001928E-02 0.  1.
        1   -1    0    0  501    0  0.00000000000E+00  0.00000000000E+00 -0.11468493834E+04  0.11468493834E+04  0.50400001928E-02 0. -1.
    10030    2    1    2    0    0  0.00000000000E+00  0.00000000000E+00 -0.57519975116E+02  0.22361787917E+04  0.22354388922E+04 0.  0.
        5    1    3    3  502    0  0.86710797552E+02  0.11750217868E+03  0.10797354562E+04  0.10895761881E+04  0.46999998093E+01 0.  1.
       -5    1    3    3    0  502 -0.86710797552E+02 -0.11750217868E+03 -0.11372554313E+04  0.11466026035E+04  0.46999998093E+01 0. -1.
</event>
<event>
 5   0  0.9938176E-05  0.2219804E+04  0.7818609E-02  0.8510230E-01
        2   -1    0    0  501    0  0.00000000000E+00  0.00000000000E+00  0.99555474739E+03  0.99555474739E+03  0.25500000920E-02 0.  1.
       -2   -1    0    0    0  501  0.00000000000E+00  0.00000000000E+00 -0.12373824191E+04  0.12373824191E+04  0.25500000920E-02 0. -1.
    10030    2    1    2    0    0  0.00000000000E+00  0.00000000000E+00 -0.24182767173E+03  0.22329371665E+04  0.22198035424E+04 0.  0.
        5    1    3    3  502    0  0.32721898897E+03 -0.76617388633E+03 -0.85857733416E+03  0.11963577306E+04  0.46999998093E+01 0. -1.
       -5    1    3    3    0  502 -0.32721898897E+03  0.76617388633E+03  0.61674966243E+03  0.10365794359E+04  0.46999998093E+01 0.  1.
</event>
<event>
 5   0  0.9442578E-05  0.2204169E+04  0.7818609E-02  0.8516695E-01
       -2   -1    0    0    0  501  0.00000000000E+00  0.00000000000E+00  0.73431281394E+03  0.73431281395E+03  0.25500000920E-02 0.  1.
        2   -1    0    0  501    0  0.00000000000E+00  0.00000000000E+00 -0.16540498708E+04  0.16540498708E+04  0.25500000920E-02 0. -1.
    10030    2    1    2    0    0  0.00000000000E+00  0.00000000000E+00 -0.91973705686E+03  0.23883626847E+04  0.22041687912E+04 0.  0.
        4    1    3    3  502    0 -0.10960459711E+04 -0.15152662759E+02 -0.33612343252E+03  0.11465282154E+04  0.12699999809E+01 0.  1.
       -4    1    3    3    0  502  0.10960459711E+04  0.15152662759E+02 -0.58361362434E+03  0.12418344694E+04  0.12699999809E+01 0. -1.
</event>
<event>
 5   0  0.9179618E-05  0.2182481E+04  0.7818609E-02  0.8525755E-01
        2   -1    0    0  501    0  0.00000000000E+00  0.00000000000E+00  0.92531014181E+03  0.92531014181E+03  0.25500000920E-02 0. -1.
       -2   -1    0    0    0  501  0.00000000000E+00  0.00000000000E+00 -0.12869261794E+04  0.12869261794E+04  0.25500000920E-02 0.  1.
    10030    2    1    2    0    0  0.00000000000E+00  0.00000000000E+00 -0.36161603758E+03  0.22122363212E+04  0.21824810153E+04 0.  0.
        3    1    3    3  502    0 -0.74725260314E+03 -0.58127903608E+03  0.36930105596E+03  0.10161963643E+04  0.10100000352E+00 0.  1.
       -3    1    3    3    0  502  0.74725260314E+03  0.58127903608E+03 -0.73091709354E+03  0.11960399569E+04  0.10100000352E+00 0. -1.
</event>
<event>
 5   0  0.9179618E-05  0.2178951E+04  0.7818609E-02  0.8527241E-01
        2   -1    0    0  501    0  0.00000000000E+00  0.00000000000E+00  0.97558338552E+03  0.97558338552E+03  0.25500000920E-02 0. -1.
       -2   -1    0    0    0  501  0.00000000000E+00  0.00000000000E+00 -0.12166631248E+04  0.12166631248E+04  0.25500000920E-02 0.  1.
    10030    2    1    2    0    0  0.00000000000E+00  0.00000000000E+00 -0.24107973930E+03  0.21922465103E+04  0.21789505092E+04 0.  0.
        3    1    3    3  502    0  0.52294713788E+03  0.95031971776E+03 -0.22301937467E+03  0.11073928511E+04  0.10100000352E+00 0. -1.
       -3    1    3    3    0  502 -0.52294713788E+03 -0.95031971776E+03 -0.18060364627E+02  0.10848536592E+04  0.10100000352E+00 0.  1.
</event>
<event>
 5   0  0.9442578E-05  0.2190427E+04  0.7818609E-02  0.8522423E-01
       -2   -1    0    0    0  501  0.00000000000E+00  0.00000000000E+00  0.84533746078E+03  0.84533746078E+03  0.25500000920E-02 0. -1.
        2   -1    0    0  501    0  0.00000000000E+00  0.00000000000E+00 -0.14189516815E+04  0.14189516815E+04  0.25500000920E-02 0.  1.
    10030    2    1    2    0    0  0.00000000000E+00  0.00000000000E+00 -0.57361422076E+03  0.22642891423E+04  0.21904273660E+04 0.  0.
        4    1    3    3  502    0 -0.28987544700E+03  0.46162483491E+03 -0.12687685222E+04  0.13809056589E+04  0.12699999809E+01 0.  1.
       -4    1    3    3    0  502  0.28987544700E+03 -0.46162483491E+03  0.69515430147E+03  0.88338348339E+03  0.12699999809E+01 0. -1.
</event>
<event>
 5   0  0.9179618E-05  0.1932087E+04  0.7818609E-02  0.8639047E-01
        2   -1    0    0  501    0  0.00000000000E+00  0.00000000000E+00  0.11716184642E+04  0.11716184642E+04  0.25500000920E-02 0.  1.
       -2   -1    0    0    0  501  0.00000000000E+00  0.00000000000E+00 -0.79653930267E+03  0.79653930267E+03  0.25500000920E-02 0. -1.
    10030    2    1    2    0    0  0.00000000000E+00  0.00000000000E+00  0.37507916151E+03  0.19681577669E+04  0.19320871145E+04 0.  0.
        3    1    3    3  502    0  0.90986526497E+03  0.20253668684E+03 -0.70897905406E+02  0.93482748842E+03  0.10100000352E+00 0.  1.
       -3    1    3    3    0  502 -0.90986526497E+03 -0.20253668684E+03  0.44597706691E+03  0.10333302784E+04  0.10100000352E+00 0. -1.
</event>
<event>
 5   0  0.4174075E-05  0.1938404E+04  0.7818609E-02  0.8635973E-01
        1   -1    0    0  501    0  0.00000000000E+00  0.00000000000E+00  0.97163085810E+03  0.97163085811E+03  0.50400001928E-02 0. -1.
       -1   -1    0    0    0  501  0.00000000000E+00  0.00000000000E+00 -0.96677908208E+03  0.96677908209E+03  0.50400001928E-02 0.  1.
    10030    2    1    2    0    0  0.00000000000E+00  0.00000000000E+00  0.48517760199E+01  0.19384099402E+04  0.19384038683E+04 0.  0.
        5    1    3    3  502    0 -0.87530879010E+03 -0.40223210698E+03 -0.10422412134E+03  0.96893802865E+03  0.46999998093E+01 0. -1.
       -5    1    3    3    0  502  0.87530879010E+03  0.40223210698E+03  0.10907589736E+03  0.96947191155E+03  0.46999998093E+01 0.  1.
</event>
<event>
 5   0  0.9457742E-05  0.2208866E+04  0.7818609E-02  0.8514747E-01
        2   -1    0    0  501    0  0.00000000000E+00  0.00000000000E+00  0.19125165896E+04  0.19125165896E+04  0.25500000920E-02 0.  1.
       -2   -1    0    0    0  501  0.00000000000E+00  0.00000000000E+00 -0.63778384856E+03  0.63778384856E+03  0.25500000920E-02 0. -1.
    10030    2    1    2    0    0  0.00000000000E+00  0.00000000000E+00  0.12747327410E+04  0.25503004381E+04  0.22088659452E+04 0.  0.
        1    1    3    3  502    0 -0.10505840943E+04 -0.25767662843E+03  0.38010599764E+03  0.11465621455E+04  0.50400001928E-02 0. -1.
       -1    1    3    3    0  502  0.10505840943E+04  0.25767662843E+03  0.89462674337E+03  0.14037382926E+04  0.50400001928E-02 0.  1.
</event>
<event>
 5   0  0.4188865E-05  0.2183547E+04  0.7818609E-02  0.8525307E-01
       -1   -1    0    0    0  501  0.00000000000E+00  0.00000000000E+00  0.10972032709E+04  0.10972032710E+04  0.50400001928E-02 0. -1.
        1   -1    0    0  501    0  0.00000000000E+00  0.00000000000E+00 -0.10863708887E+04  0.10863708887E+04  0.50400001928E-02 0.  1.
    10030    2    1    2    0    0  0.00000000000E+00  0.00000000000E+00  0.10832382239E+02  0.21835741597E+04  0.21835472906E+04 0.  0.
        3    1    3    3  502    0 -0.49388520788E+03 -0.94933218827E+03  0.22178770562E+03  0.10928604663E+04  0.10100000352E+00 0. -1.
       -3    1    3    3    0  502  0.49388520788E+03  0.94933218827E+03 -0.21095532339E+03  0.10907136934E+04  0.10100000352E+00 0.  1.
</event>
<event>
 5   0  0.9442578E-05  0.2209591E+04  0.7818609E-02  0.8514447E-01
       -2   -1    0    0    0  501  0.00000000000E+00  0.00000000000E+00  0.52480595257E+03  0.52480595258E+03  0.25500000920E-02 0.  1.
        2   -1    0    0  501    0  0.00000000000E+00  0.00000000000E+00 -0.23257603742E+04  0.23257603742E+04  0.25500000920E-02 0. -1.
    10030    2    1    2    0    0  0.00000000000E+00  0.00000000000E+00 -0.18009544216E+04  0.28505663268E+04  0.22095908116E+04 0.  0.
        4    1    3    3  502    0 -0.86242501607E+03  0.63358017812E+03 -0.54630044612E+03  0.12015184313E+04  0.12699999809E+01 0.  1.
       -4    1    3    3    0  502  0.86242501607E+03 -0.63358017812E+03 -0.12546539755E+04  0.16490478955E+04  0.12699999809E+01 0. -1.
</event>
<event>
 5   0  0.9442578E-05  0.2206816E+04  0.7818609E-02  0.8515596E-01
        2   -1    0    0  501    0  0.00000000000E+00  0.00000000000E+00  0.28161236291E+04  0.28161236291E+04  0.25500000920E-02 0. -1.
       -2   -1    0    0    0  501  0.00000000000E+00  0.00000000000E+00 -0.43233518124E+03  0.43233518125E+03  0.25500000920E-02 0.  1.
    10030    2    1    2    0    0  0.00000000000E+00  0.00000000000E+00  0.23837884479E+04  0.32484588104E+04  0.22068160953E+04 0.  0.
        4    1    3    3  502    0  0.51722572027E+02  0.86378214417E+03  0.21996717520E+04  0.23637580770E+04  0.12699999809E+01 0. -1.
       -4    1    3    3    0  502 -0.51722572027E+02 -0.86378214417E+03  0.18411669586E+03  0.88470073337E+03  0.12699999809E+01 0.  1.
</event>
<event>
 5   0  0.3283125E-05  0.2198301E+04  0.7818609E-02  0.8519136E-01
        3   -1    0    0  501    0  0.00000000000E+00  0.00000000000E+00  0.99752492580E+03  0.99752493091E+03  0.10100000352E+00 0. -1.
       -3   -1    0    0    0  501  0.00000000000E+00  0.00000000000E+00 -0.12111292341E+04  0.12111292383E+04  0.10100000352E+00 0.  1.
    10030    2    1    2    0    0  0.00000000000E+00  0.00000000000E+00 -0.21360430830E+03  0.22086541692E+04  0.21983008071E+04 0.  0.
        1    1    3    3  502    0  0.60184451512E+03 -0.90187026430E+03 -0.28805361181E+03  0.11218563532E+04  0.50400001928E-02 0.  1.
       -1    1    3    3    0  502 -0.60184451512E+03  0.90187026430E+03  0.74449303503E+02  0.10867978160E+04  0.50400001928E-02 0. -1.
</event>
<event>
 5   0  0.9442578E-05  0.2161853E+04  0.7818609E-02  0.8534476E-01
       -2   -1    0    0    0  501  0.00000000000E+00  0.00000000000E+00  0.87580983918E+03  0.87580983918E+03  0.25500000920E-02 0. -1.
        2   -1    0    0  501    0  0.00000000000E+00  0.00000000000E+00 -0.13340819927E+04  0.13340819927E+04  0.25500000920E-02 0.  1.
    10030    2    1    2    0    0  0.00000000000E+00  0.00000000000E+00 -0.45827215350E+03  0.22098918319E+04  0.21618530343E+04 0.  0.
        4    1    3    3  502    0  0.44544047891E+02  0.20837305905E+03  0.85412752693E+03  0.88030616782E+03  0.12699999809E+01 0. -1.
       -4    1    3    3    0  502 -0.44544047891E+02 -0.20837305905E+03 -0.13123996804E+04  0.13295856640E+04  0.12699999809E+01 0.  1.
</event>
<event>
 5   0  0.9457742E-05  0.2328778E+04  0.7818609E-02  0.8466660E-01
        2   -1    0    0  501    0  0.00000000000E+00  0.00000000000E+00  0.16703458699E+04  0.16703458699E+04  0.25500000920E-02 0.  1.
       -2   -1    0    0    0  501  0.00000000000E+00  0.00000000000E+00 -0.81168895526E+03  0.81168895526E+03  0.25500000920E-02 0. -1.
    10030    2    1    2    0    0  0.00000000000E+00  0.00000000000E+00  0.85865691469E+03  0.24820348252E+04  0.23287776142E+04 0.  0.
        1    1    3    3  502    0  0.32470972969E+03 -0.10582382520E+04  0.81434518368E+03  0.13742134786E+04  0.50400001928E-02 0.  1.
       -1    1    3    3    0  502 -0.32470972969E+03  0.10582382520E+04  0.44311731010E+02  0.11078213466E+04  0.50400001928E-02 0. -1.
</event>
<event>
 5   0  0.4133418E-05  0.2186827E+04  0.7818609E-02  0.8523931E-01
       -1   -1    0    0    0  501  0.00000000000E+00  0.00000000000E+00  0.98921513969E+03  0.98921513970E+03  0.50400001928E-02 0.  1.
        1   -1    0    0  501    0  0.00000000000E+00  0.00000000000E+00 -0.12085871750E+04  0.12085871751E+04  0.50400001928E-02 0. -1.
    10030    2    1    2    0    0  0.00000000000E+00  0.00000000000E+00 -0.21937203535E+03  0.21978023148E+04  0.21868266792E+04 0.  0.
        4    1    3    3  502    0  0.71004288279E+03 -0.81425642763E+03 -0.27898531416E+03  0.11157996432E+04  0.12699999809E+01 0.  1.
       -4    1    3    3    0  502 -0.71004288279E+03  0.81425642763E+03  0.59613278809E+02  0.10820026716E+04  0.12699999809E+01 0. -1.
</event>
<event>
 5   0  0.3283125E-05  0.2159713E+04  0.7818609E-02  0.8535386E-01
        3   -1    0    0  501    0  0.00000000000E+00  0.00000000000E+00  0.13349634975E+04  0.13349635013E+04  0.10100000352E+00 0.  1.
       -3   -1    0    0    0  501  0.00000000000E+00  0.00000000000E+00 -0.87349974802E+03  0.87349975386E+03  0.10100000352E+00 0. -1.
    10030    2    1    2    0    0  0.00000000000E+00  0.00000000000E+00  0.46146374949E+03  0.22084632552E+04  0.21597132119E+04 0.  0.
        3    1    3    3  502    0 -0.22679629821E+03  0.28701263422E+03 -0.80821254856E+03  0.88714167241E+03  0.10100000352E+00 0. -1.
       -3    1    3    3    0  502  0.22679629821E+03 -0.28701263422E+03  0.12696762981E+04  0.13213215828E+04  0.10100000352E+00 0.  1.
</event>
<event>
 5   0  0.4174075E-05  0.2242937E+04  0.7818609E-02  0.8500766E-01
        1   -1    0    0  501    0  0.00000000000E+00  0.00000000000E+00  0.19566448752E+04  0.19566448752E+04  0.50400001928E-02 0.  1.
       -1   -1    0    0    0  501  0.00000000000E+00  0.00000000000E+00 -0.64277983350E+03  0.64277983352E+03  0.50400001928E-02 0. -1.
    10030    2    1    2    0    0  0.00000000000E+00  0.00000000000E+00  0.13138650417E+04  0.25994247087E+04  0.22429372413E+04 0.  0.
        5    1    3    3  502    0  0.84642539447E+03 -0.50646306162E+03  0.38523282024E+02  0.98714077742E+03  0.46999998093E+01 0. -1.
       -5    1    3    3    0  502 -0.84642539447E+03  0.50646306162E+03  0.12753417597E+04  0.16122839313E+04  0.46999998093E+01 0.  1.
</event>
<event>
 5   0  0.9442578E-05  0.2196963E+04  0.7818609E-02  0.8519693E-01
       -2   -1    0    0    0  501  0.00000000000E+00  0.00000000000E+00  0.75028018500E+03  0.75028018501E+03  0.25500000920E-02 0. -1.
        2   -1    0    0  501    0  0.00000000000E+00  0.00000000000E+00 -0.16082816453E+04  0.16082816453E+04  0.25500000920E-02 0.  1.
    10030    2    1    2    0    0  0.00000000000E+00  0.00000000000E+00 -0.85800146025E+03  0.23585618303E+04  0.21969632226E+04 0.  0.
        4    1    3    3  502    0 -0.40637275085E+03 -0.10183695494E+04 -0.35742681405E+03  0.11532436395E+04  0.12699999809E+01 0. -1.
       -4    1    3    3    0  502  0.40637275085E+03  0.10183695494E+04 -0.50057464620E+03  0.12053181908E+04  0.12699999809E+01 0.  1.
</event>
<event>
 5   0  0.9457742E-05  0.2184089E+04  0.7818609E-02  0.8525080E-01
       -2   -1    0    0    0  501  0.00000000000E+00  0.00000000000E+00  0.13321160140E+04  0.13321160140E+04  0.25500000920E-02 0.  1.
        2   -1    0    0  501    0  0.00000000000E+00  0.00000000000E+00 -0.89523845577E+03  0.89523845577E+03  0.25500000920E-02 0. -1.
    10030    2    1    2    0    0  0.00000000000E+00  0.00000000000E+00  0.43687755821E+03  0.22273544698E+04  0.21840892686E+04 0.  0.
        1    1    3    3  502    0  0.25148733620E+03 -0.36884976225E+03 -0.79793070865E+03  0.91432458308E+03  0.50400001928E-02 0. -1.
       -1    1    3    3    0  502 -0.25148733620E+03  0.36884976225E+03  0.12348082669E+04  0.13130298867E+04  0.50400001928E-02 0.  1.
</event>
<event>
 5   0  0.9254673E-05  0.2198569E+04  0.7818609E-02  0.8519024E-01
       -2   -1    0    0    0  501  0.00000000000E+00  0.00000000000E+00  0.85419112503E+03  0.85419112503E+03  0.25500000920E-02 0. -1.
        2   -1    0    0  501    0  0.00000000000E+00  0.00000000000E+00 -0.14147027364E+04  0.14147027364E+04  0.25500000920E-02 0.  1.
    10030    2    1    2    0    0  0.00000000000E+00  0.00000000000E+00 -0.56051161133E+03  0.22688938614E+04  0.21985691001E+04 0.  0.
        2    1    3    3  502    0  0.79470270338E+03  0.11138097116E+03  0.49508721694E+03  0.94290479894E+03  0.25500000920E-02 0. -1.
       -2    1    3    3    0  502 -0.79470270338E+03 -0.11138097116E+03 -0.10555988283E+04  0.13259890624E+04  0.25500000920E-02 0.  1.
</event>
<event>
 5   0  0.9938176E-05  0.2202596E+04  0.7818609E-02  0.8517348E-01
        2   -1    0    0  501    0  0.00000000000E+00  0.00000000000E+00  0.15133293629E+04  0.15133293629E+04  0.25500000920E-02 0.  1.
       -2   -1    0    0    0  501  0.00000000000E+00  0.00000000000E+00 -0.80144973831E+03  0.80144973832E+03  0.25500000920E-02 0. -1.
    10030    2    1    2    0    0  0.00000000000E+00  0.00000000000E+00  0.71187962461E+03  0.23147791012E+04  0.22025961245E+04 0.  0.
        5    1    3    3  502    0 -0.60706929319E+02 -0.88291357378E+03 -0.33289280520E+03  0.94554821125E+03  0.46999998093E+01 0. -1.
       -5    1    3    3    0  502  0.60706929319E+02  0.88291357378E+03  0.10447724298E+04  0.13692308900E+04  0.46999998093E+01 0.  1.
</event>
<event>
 5   0  0.9254673E-05  0.2199397E+04  0.7818609E-02  0.8518679E-01
       -2   -1    0    0    0  501  0.00000000000E+00  0.00000000000E+00  0.12421273484E+04  0.12421273485E+04  0.25500000920E-02 0. -1.
        2   -1    0    0  501    0  0.00000000000E+00  0.00000000000E+00 -0.97360107980E+03  0.97360107980E+03  0.25500000920E-02 0.  1.
    10030    2    1    2    0    0  0.00000000000E+00  0.00000000000E+00  0.26852626865E+03  0.22157284283E+04  0.21993967607E+04 0.  0.
        2    1    3    3  502    0  0.97694698749E+03 -0.29529212853E+03 -0.27830642403E+03  0.10578645108E+04  0.25500000920E-02 0.  1.
       -2    1    3    3    0  502 -0.97694698749E+03  0.29529212853E+03  0.54683269268E+03  0.11578639175E+04  0.25500000920E-02 0. -1.
</event>
<event>
 5   0  0.4188865E-05  0.2050349E+04  0.7818609E-02  0.8583436E-01
       -1   -1    0    0    0  501  0.00000000000E+00  0.00000000000E+00  0.10235940260E+04  0.10235940261E+04  0.50400001928E-02 0.  1.
        1   -1    0    0  501    0  0.00000000000E+00  0.00000000000E+00 -0.10267572017E+04  0.10267572018E+04  0.50400001928E-02 0. -1.
    10030    2    1    2    0    0  0.00000000000E+00  0.00000000000E+00 -0.31631757017E+01  0.20503512278E+04  0.20503487878E+04 0.  0.
        3    1    3    3  502    0 -0.52799959407E+03  0.15386561469E+03 -0.86675562269E+03  0.10265103596E+04  0.10100000352E+00 0. -1.
       -3    1    3    3    0  502  0.52799959407E+03 -0.15386561469E+03  0.86359244699E+03  0.10238408682E+04  0.10100000352E+00 0.  1.
</event>
<event>
 5   0  0.9457742E-05  0.2210190E+04  0.7818609E-02  0.8514199E-01
       -2   -1    0    0    0  501  0.00000000000E+00  0.00000000000E+00  0.11318656239E+04  0.11318656239E+04  0.25500000920E-02 0.  1.
        2   -1    0    0  501    0  0.00000000000E+00  0.00000000000E+00 -0.10789571108E+04  0.10789571108E+04  0.25500000920E-02 0. -1.
    10030    2    1    2    0    0  0.00000000000E+00  0.00000000000E+00  0.52908513097E+02  0.22108227348E+04  0.22101895515E+04 0.  0.
        1    1    3    3  502    0  0.40100609162E+03  0.87868899587E+03 -0.51066719732E+03  0.10925571946E+04  0.50400001928E-02 0. -1.
       -1    1    3    3    0  502 -0.40100609162E+03 -0.87868899587E+03  0.56357571041E+03  0.11182655402E+04  0.50400001928E-02 0.  1.
</event>
<event>
 5   0  0.4174030E-05  0.2174051E+04  0.7818609E-02  0.8529307E-01
        1   -1    0    0  501    0  0.00000000000E+00  0.00000000000E+00  0.13085199940E+04  0.13085199940E+04  0.50400001928E-02 0. -1.
       -1   -1    0    0    0  501  0.00000000000E+00  0.00000000000E+00 -0.90302356833E+03  0.90302356834E+03  0.50400001928E-02 0.  1.
    10030    2    1    2    0    0  0.00000000000E+00  0.00000000000E+00  0.40549642565E+03  0.22115435623E+04  0.21740509600E+04 0.  0.
        2    1    3    3  502    0 -0.43553989177E+03  0.22415708214E+03  0.11898868337E+04  0.12867680723E+04  0.25500000920E-02 0. -1.
       -2    1    3    3    0  502  0.43553989177E+03 -0.22415708214E+03 -0.78439040804E+03  0.92477549007E+03  0.25500000920E-02 0.  1.
</event>
<event>
 5   0  0.4133418E-05  0.2195405E+04  0.7818609E-02  0.8520343E-01
       -1   -1    0    0    0  501  0.00000000000E+00  0.00000000000E+00  0.11343788401E+04  0.11343788401E+04  0.50400001928E-02 0. -1.
        1   -1    0    0  501    0  0.00000000000E+00  0.00000000000E+00 -0.10622117243E+04  0.10622117243E+04  0.50400001928E-02 0.  1.
    10030    2    1    2    0    0  0.00000000000E+00  0.00000000000E+00  0.72167115753E+02  0.21965905644E+04  0.21954047497E+04 0.  0.
        4    1    3    3  502    0 -0.50942054385E+03  0.96433501987E+03 -0.88472918868E+02  0.10942030850E+04  0.12699999809E+01 0. -1.
       -4    1    3    3    0  502  0.50942054385E+03 -0.96433501987E+03  0.16064003462E+03  0.11023874794E+04  0.12699999809E+01 0.  1.
</event>
<event>
 5   0  0.9179618E-05  0.2205851E+04  0.7818609E-02  0.8515997E-01
       -2   -1    0    0    0  501  0.00000000000E+00  0.00000000000E+00  0.85116822472E+03  0.85116822472E+03  0.25500000920E-02 0.  1.
        2   -1    0    0  501    0  0.00000000000E+00  0.00000000000E+00 -0.14291468244E+04  0.14291468244E+04  0.25500000920E-02 0. -1.
    10030    2    1    2    0    0  0.00000000000E+00  0.00000000000E+00 -0.57797859964E+03  0.22803150491E+04  0.22058507342E+04 0.  0.
        3    1    3    3  502    0  0.95687576302E+03 -0.62327928420E+02 -0.85231452214E+03  0.12829403928E+04  0.10100000352E+00 0. -1.
       -3    1    3    3    0  502 -0.95687576302E+03  0.62327928420E+02  0.27433592250E+03  0.99737465633E+03  0.10100000352E+00 0.  1.
</event>
<event>
 5   0  0.9938176E-05  0.2159848E+04  0.7818609E-02  0.8535328E-01
       -2   -1    0    0    0  501  0.00000000000E+00  0.00000000000E+00  0.49602754151E+03  0.49602754151E+03  0.25500000920E-02 0.  1.
        2   -1    0    0  501    0  0.00000000000E+00  0.00000000000E+00 -0.23511522685E+04  0.23511522685E+04  0.25500000920E-02 0. -1.
    10030    2    1    2    0    0  0.00000000000E+00  0.00000000000E+00 -0.18551247270E+04  0.28471798100E+04  0.21598484016E+04 0.  0.
        5    1    3    3  502    0  0.57602524009E+03  0.90628600952E+03 -0.10781802067E+04  0.15217273265E+04  0.46999998093E+01 0. -1.
       -5    1    3    3    0  502 -0.57602524009E+03 -0.90628600952E+03 -0.77694452030E+03  0.13254524835E+04  0.46999998093E+01 0.  1.
</event>
<event>
 5   0  0.3283125E-05  0.2201731E+04  0.7818609E-02  0.8517708E-01
       -3   -1    0    0    0  501  0.00000000000E+00  0.00000000000E+00  0.12113150620E+04  0.12113150662E+04  0.10100000352E+00 0.  1.
        3   -1    0    0  501    0  0.00000000000E+00  0.00000000000E+00 -0.10004866456E+04  0.10004866507E+04  0.10100000352E+00 0. -1.
    10030    2    1    2    0    0  0.00000000000E+00  0.00000000000E+00  0.21082841637E+03  0.22118017169E+04  0.22017307314E+04 0.  0.
        3    1    3    3  502    0  0.39744759428E+03 -0.27396466373E+03 -0.88849668355E+03  0.10111615074E+04  0.10100000352E+00 0. -1.
       -3    1    3    3    0  502 -0.39744759428E+03  0.27396466373E+03  0.10993250999E+04  0.12006402095E+04  0.10100000352E+00 0.  1.
</event>
<event>
 5   0  0.9938176E-05  0.2104261E+04  0.7818609E-02  0.8559369E-01
        2   -1    0    0  501    0  0.00000000000E+00  0.00000000000E+00  0.21847718989E+04  0.21847718989E+04  0.25500000920E-02 0.  1.
       -2   -1    0    0    0  501  0.00000000000E+00  0.00000000000E+00 -0.50667944774E+03  0.50667944774E+03  0.25500000920E-02 0. -1.
    10030    2    1    2    0    0  0.00000000000E+00  0.00000000000E+00  0.16780924512E+04  0.26914513467E+04  0.21042614088E+04 0.  0.
        5    1    3    3  502    0 -0.77057695563E+02  0.47706191876E+03  0.20344128769E+04  0.20910245830E+04  0.46999998093E+01 0.  1.
       -5    1    3    3    0  502  0.77057695563E+02 -0.47706191876E+03 -0.35632042573E+03  0.60042676370E+03  0.46999998093E+01 0. -1.
</event>
<event>
 5   0  0.9457742E-05  0.2203396E+04  0.7818609E-02  0.8517016E-01
        2   -1    0    0  501    0  0.00000000000E+00  0.00000000000E+00  0.13896872034E+04  0.13896872034E+04  0.25500000920E-02 0. -1.
       -2   -1    0    0    0  501  0.00000000000E+00  0.00000000000E+00 -0.87338940659E+03  0.87338940659E+03  0.25500000920E-02 0.  1.
    10030    2    1    2    0    0  0.00000000000E+00  0.00000000000E+00  0.51629779686E+03  0.22630766100E+04  0.22033956358E+04 0.  0.
        1    1    3    3  502    0 -0.10294825642E+04 -0.36380649228E+03  0.40891926114E+03  0.11659350222E+04  0.50400001928E-02 0. -1.
       -1    1    3    3    0  502  0.10294825642E+04  0.36380649228E+03  0.10737853572E+03  0.10971415878E+04  0.50400001928E-02 0.  1.
</event>
<event>
 5   0  0.4133418E-05  0.2211524E+04  0.7818609E-02  0.8513647E-01
        1   -1    0    0  501    0  0.00000000000E+00  0.00000000000E+00  0.14488433210E+04  0.14488433211E+04  0.50400001928E-02 0. -1.
       -1   -1    0    0    0  501  0.00000000000E+00  0.00000000000E+00 -0.84392128959E+03  0.84392128961E+03  0.50400001928E-02 0.  1.
    10030    2    1    2    0    0  0.00000000000E+00  0.00000000000E+00  0.60492203145E+03  0.22927646107E+04  0.22115241115E+04 0.  0.
        4    1    3    3  502    0  0.20037057165E+03  0.72683081126E+02 -0.82242134065E+03  0.84959382691E+03  0.12699999809E+01 0.  1.
       -4    1    3    3    0  502 -0.20037057165E+03 -0.72683081126E+02  0.14273433721E+04  0.14431707837E+04  0.12699999809E+01 0. -1.
</event>
<event>
 5   0  0.4174075E-05  0.2167218E+04  0.7818609E-02  0.8532198E-01
       -1   -1    0    0    0  501  0.00000000000E+00  0.00000000000E+00  0.65542487375E+03  0.65542487377E+03  0.50400001928E-02 0.  1.
        1   -1    0    0  501    0  0.00000000000E+00  0.00000000000E+00 -0.17915226198E+04  0.17915226198E+04  0.50400001928E-02 0. -1.
    10030    2    1    2    0    0  0.00000000000E+00  0.00000000000E+00 -0.11360977461E+04  0.24469474936E+04  0.21672180204E+04 0.  0.
        5    1    3    3  502    0 -0.75780770199E+03 -0.10925685695E+03 -0.14338181114E+04  0.16254433366E+04  0.46999998093E+01 0. -1.
       -5    1    3    3    0  502  0.75780770199E+03  0.10925685695E+03  0.29772036533E+03  0.82150415697E+03  0.46999998093E+01 0.  1.
</event>
<event>
 5   0  0.9938176E-05  0.2021854E+04  0.7818609E-02  0.8596471E-01
        2   -1    0    0  501    0  0.00000000000E+00  0.00000000000E+00  0.13209107319E+04  0.13209107319E+04  0.25500000920E-02 0. -1.
       -2   -1    0    0    0  501  0.00000000000E+00  0.00000000000E+00 -0.77368849198E+03  0.77368849198E+03  0.25500000920E-02 0.  1.
    10030    2    1    2    0    0  0.00000000000E+00  0.00000000000E+00  0.54722223993E+03  0.20945992239E+04  0.20218540325E+04 0.  0.
        5    1    3    3  502    0 -0.40108534387E+03 -0.11037827363E+03  0.12281179260E+04  0.12966682484E+04  0.46999998093E+01 0. -1.
       -5    1    3    3    0  502  0.40108534387E+03  0.11037827363E+03 -0.68089568604E+03  0.79793097548E+03  0.46999998093E+01 0.  1.
</event>
<event>
 5   0  0.9254673E-05  0.2199391E+04  0.7818609E-02  0.8518682E-01
       -2   -1    0    0    0  501  0.00000000000E+00  0.00000000000E+00  0.12577898987E+04  0.12577898987E+04  0.25500000920E-02 0.  1.
        2   -1    0    0  501    0  0.00000000000E+00  0.00000000000E+00 -0.96147246070E+03  0.96147246070E+03  0.25500000920E-02 0. -1.
    10030    2    1    2    0    0  0.00000000000E+00  0.00000000000E+00  0.29631743801E+03  0.22192623594E+04  0.21993911421E+04 0.  0.
        2    1    3    3  502    0  0.10464701623E+04 -0.32304677589E+03  0.47906501284E+02  0.10962454346E+04  0.25500000920E-02 0.  1.
       -2    1    3    3    0  502 -0.10464701623E+04  0.32304677589E+03  0.24841093672E+03  0.11230169248E+04  0.25500000920E-02 0. -1.
</event>
<event>
 5   0  0.9179618E-05  0.2251160E+04  0.7818609E-02  0.8497431E-01
       -2   -1    0    0    0  501  0.00000000000E+00  0.00000000000E+00  0.10518339322E+04  0.10518339322E+04  0.25500000920E-02 0.  1.
        2   -1    0    0  501    0  0.00000000000E+00  0.00000000000E+00 -0.12044962983E+04  0.12044962983E+04  0.25500000920E-02 0. -1.
    10030    2    1    2    0    0  0.00000000000E+00  0.00000000000E+00 -0.15266236608E+03  0.22563302305E+04  0.22511597702E+04 0.  0.
        3    1    3    3  502    0  0.73299862013E+03  0.55826293671E+03 -0.72433415080E+03  0.11720087269E+04  0.10100000352E+00 0. -1.
       -3    1    3    3    0  502 -0.73299862013E+03 -0.55826293671E+03  0.57167178472E+03  0.10843215036E+04  0.10100000352E+00 0.  1.
</event>
<event>
 5   0  0.4063293E-05  0.2169944E+04  0.7818609E-02  0.8531043E-01
       -1   -1    0    0    0  501  0.00000000000E+00  0.00000000000E+00  0.10778201814E+04  0.10778201814E+04  0.50400001928E-02 0.  1.
        1   -1    0    0  501    0  0.00000000000E+00  0.00000000000E+00 -0.10921708057E+04  0.10921708057E+04  0.50400001928E-02 0. -1.
    10030    2    1    2    0    0  0.00000000000E+00  0.00000000000E+00 -0.14350624249E+02  0.21699909871E+04  0.21699435347E+04 0.  0.
        1    1    3    3  502    0  0.58580529205E+03 -0.56619591580E+03  0.70937233863E+03  0.10802568075E+04  0.50400001928E-02 0.  1.
       -1    1    3    3    0  502 -0.58580529205E+03  0.56619591580E+03 -0.72372296288E+03  0.10897341796E+04  0.50400001928E-02 0. -1.
</event>
<event>
 5   0  0.9179618E-05  0.2209645E+04  0.7818609E-02  0.8514425E-01
       -2   -1    0    0    0  501  0.00000000000E+00  0.00000000000E+00  0.86780136880E+03  0.86780136880E+03  0.25500000920E-02 0.  1.
        2   -1    0    0  501    0  0.00000000000E+00  0.00000000000E+00 -0.14065802815E+04  0.14065802815E+04  0.25500000920E-02 0. -1.
    10030    2    1    2    0    0  0.00000000000E+00  0.00000000000E+00 -0.53877891274E+03  0.22743816503E+04  0.22096445811E+04 0.  0.
        3    1    3    3  502    0  0.49429673784E+03  0.76963608830E+03  0.36841240559E+03  0.98610176161E+03  0.10100000352E+00 0. -1.
       -3    1    3    3    0  502 -0.49429673784E+03 -0.76963608830E+03 -0.90719131833E+03  0.12882798887E+04  0.10100000352E+00 0.  1.
</event>
<event>
 5   0  0.9938176E-05  0.2186077E+04  0.7818609E-02  0.8524246E-01
        2   -1    0    0  501    0  0.00000000000E+00  0.00000000000E+00  0.96437504505E+03  0.96437504506E+03  0.25500000920E-02 0. -1.
       -2   -1    0    0    0  501  0.00000000000E+00  0.00000000000E+00 -0.12388672838E+04  0.12388672838E+04  0.25500000920E-02 0.  1.
    10030    2    1    2    0    0  0.00000000000E+00  0.00000000000E+00 -0.27449223874E+03  0.22032423289E+04  0.21860765701E+04 0.  0.
        5    1    3    3  502    0  0.44524475539E+03 -0.57041220750E+03 -0.96288426106E+03  0.12044837769E+04  0.46999998093E+01 0.  1.
       -5    1    3    3    0  502 -0.44524475539E+03  0.57041220750E+03  0.68839202232E+03  0.99875855193E+03  0.46999998093E+01 0. -1.
</event>
<event>
 5   0  0.4063293E-05  0.2192808E+04  0.7818609E-02  0.8521428E-01
       -1   -1    0    0    0  501  0.00000000000E+00  0.00000000000E+00  0.85796381504E+03  0.85796381506E+03  0.50400001928E-02 0.  1.
        1   -1    0    0  501    0  0.00000000000E+00  0.00000000000E+00 -0.14011094572E+04  0.14011094572E+04  0.50400001928E-02 0. -1.
    10030    2    1    2    0    0  0.00000000000E+00  0.00000000000E+00 -0.54314564214E+03  0.22590732723E+04  0.21928075294E+04 0.  0.
        1    1    3    3  502    0 -0.96904958344E+03  0.28734651092E+03  0.16609000018E+03  0.10243100120E+04  0.50400001928E-02 0. -1.
       -1    1    3    3    0  502  0.96904958344E+03 -0.28734651092E+03 -0.70923564232E+03  0.12347632603E+04  0.50400001928E-02 0.  1.
</event>
<event>
 5   0  0.4174030E-05  0.2129921E+04  0.7818609E-02  0.8548176E-01
       -1   -1    0    0    0  501  0.00000000000E+00  0.00000000000E+00  0.83233707667E+03  0.83233707669E+03  0.50400001928E-02 0.  1.
        1   -1    0    0  501    0  0.00000000000E+00  0.00000000000E+00 -0.13625980203E+04  0.13625980203E+04  0.50400001928E-02 0. -1.
    10030    2    1    2    0    0  0.00000000000E+00  0.00000000000E+00 -0.53026094358E+03  0.21949350969E+04  0.21299209872E+04 0.  0.
        2    1    3    3  502    0 -0.54083421247E+02  0.10433481468E+04 -0.52331640930E+02  0.10460587806E+04  0.25500000920E-02 0.  1.
       -2    1    3    3    0  502  0.54083421247E+02 -0.10433481468E+04 -0.47792930265E+03  0.11488763163E+04  0.25500000920E-02 0. -1.
</event>
<event>
 5   0  0.9442578E-05  0.2210992E+04  0.7818609E-02  0.8513867E-01
       -2   -1    0    0    0  501  0.00000000000E+00  0.00000000000E+00  0.69355936085E+03  0.69355936085E+03  0.25500000920E-02 0. -1.
        2   -1    0    0  501    0  0.00000000000E+00  0.00000000000E+00 -0.17621000444E+04  0.17621000444E+04  0.25500000920E-02 0.  1.
    10030    2    1    2    0    0  0.00000000000E+00  0.00000000000E+00 -0.10685406836E+04  0.24556594053E+04  0.22109916152E+04 0.  0.
        4    1    3    3  502    0  0.15195156262E+03 -0.21017594911E+03  0.65929165704E+03  0.70847040087E+03  0.12699999809E+01 0. -1.
       -4    1    3    3    0  502 -0.15195156262E+03  0.21017594911E+03 -0.17278323406E+04  0.17471890044E+04  0.12699999809E+01 0.  1.
</event>
<event>
 5   0  0.9442578E-05  0.2203759E+04  0.7818609E-02  0.8516865E-01
        2   -1    0    0  501    0  0.00000000000E+00  0.00000000000E+00  0.18252741912E+04  0.18252741912E+04  0.25500000920E-02 0.  1.
       -2   -1    0    0    0  501  0.00000000000E+00  0.00000000000E+00 -0.66518159222E+03  0.66518159222E+03  0.25500000920E-02 0. -1.
    10030    2    1    2    0    0  0.00000000000E+00  0.00000000000E+00  0.11600925990E+04  0.24904557835E+04  0.22037593269E+04 0.  0.
        4    1    3    3  502    0  0.29616982648E+03 -0.42717283028E+02 -0.61838435679E+03  0.68698046407E+03  0.12699999809E+01 0. -1.
       -4    1    3    3    0  502 -0.29616982648E+03  0.42717283028E+02  0.17784769558E+04  0.18034753194E+04  0.12699999809E+01 0.  1.
</event>
<event>
 5   0  0.9254673E-05  0.2199409E+04  0.7818609E-02  0.8518674E-01
       -2   -1    0    0    0  501  0.00000000000E+00  0.00000000000E+00  0.63477631826E+03  0.63477631826E+03  0.25500000920E-02 0. -1.
        2   -1    0    0  501    0  0.00000000000E+00  0.00000000000E+00 -0.19051592796E+04  0.19051592796E+04  0.25500000920E-02 0.  1.
    10030    2    1    2    0    0  0.00000000000E+00  0.00000000000E+00 -0.12703829614E+04  0.25399355979E+04  0.21994090054E+04 0.  0.
        2    1    3    3  502    0  0.41349410883E+03  0.92024653327E+03 -0.11405767311E+04  0.15227430313E+04  0.25500000920E-02 0.  1.
       -2    1    3    3    0  502 -0.41349410883E+03 -0.92024653327E+03 -0.12980623030E+03  0.10171925666E+04  0.25500000920E-02 0. -1.
</event>
<event>
 5   0  0.9457742E-05  0.2316737E+04  0.7818609E-02  0.8471351E-01
        2   -1    0    0  501    0  0.00000000000E+00  0.00000000000E+00  0.88932871660E+03  0.88932871660E+03  0.25500000920E-02 0. -1.
       -2   -1    0    0    0  501  0.00000000000E+00  0.00000000000E+00 -0.15087988361E+04  0.15087988361E+04  0.25500000920E-02 0.  1.
    10030    2    1    2    0    0  0.00000000000E+00  0.00000000000E+00 -0.61947011948E+03  0.23981275527E+04  0.23167374754E+04 0.  0.
        1    1    3    3  502    0  0.59125371211E+03 -0.87644951771E+03 -0.79972891018E+03  0.13256360884E+04  0.50400001928E-02 0.  1.
       -1    1    3    3    0  502 -0.59125371211E+03  0.87644951771E+03  0.18025879070E+03  0.10724914642E+04  0.50400001928E-02 0. -1.
</event>
<event>
 5   0  0.9442578E-05  0.2197938E+04  0.7818609E-02  0.8519287E-01
       -2   -1    0    0    0  501  0.00000000000E+00  0.00000000000E+00  0.85925989974E+03  0.85925989975E+03  0.25500000920E-02 0.  1.
        2   -1    0    0  501    0  0.00000000000E+00  0.00000000000E+00 -0.14055499127E+04  0.14055499127E+04  0.25500000920E-02 0. -1.
    10030    2    1    2    0    0  0.00000000000E+00  0.00000000000E+00 -0.54629001296E+03  0.22648098125E+04  0.21979378309E+04 0.  0.
        4    1    3    3  502    0  0.89288830270E+03 -0.14984895434E+02  0.38685559551E+03  0.97320754871E+03  0.12699999809E+01 0.  1.
       -4    1    3    3    0  502 -0.89288830270E+03  0.14984895434E+02 -0.93314560848E+03  0.12916022637E+04  0.12699999809E+01 0. -1.
</event>
<event>
 5   0  0.9179618E-05  0.2319896E+04  0.7818609E-02  0.8470117E-01
        2   -1    0    0  501    0  0.00000000000E+00  0.00000000000E+00  0.24516394956E+04  0.24516394956E+04  0.25500000920E-02 0. -1.
       -2   -1    0    0    0  501  0.00000000000E+00  0.00000000000E+00 -0.54880808262E+03  0.54880808262E+03  0.25500000920E-02 0.  1.
    10030    2    1    2    0    0  0.00000000000E+00  0.00000000000E+00  0.19028314130E+04  0.30004475782E+04  0.23198961794E+04 0.  0.
        3    1    3    3  502    0  0.54034544415E+03  0.91484591324E+03  0.34953566697E+03  0.11185219876E+04  0.10100000352E+00 0.  1.
       -3    1    3    3    0  502 -0.54034544415E+03 -0.91484591324E+03  0.15532957460E+04  0.18819255906E+04  0.10100000352E+00 0. -1.
</event>
<event>
 5   0  0.4188865E-05  0.2199519E+04  0.7818609E-02  0.8518628E-01
        1   -1    0    0  501    0  0.00000000000E+00  0.00000000000E+00  0.16353168696E+04  0.16353168697E+04  0.50400001928E-02 0. -1.
       -1   -1    0    0    0  501  0.00000000000E+00  0.00000000000E+00 -0.73959414216E+03  0.73959414217E+03  0.50400001928E-02 0.  1.
    10030    2    1    2    0    0  0.00000000000E+00  0.00000000000E+00  0.89572272749E+03  0.23749110118E+04  0.21995188359E+04 0.  0.
        3    1    3    3  502    0 -0.96073532425E+03 -0.52095175819E+03  0.31532266589E+03  0.11374671386E+04  0.10100000352E+00 0.  1.
       -3    1    3    3    0  502  0.96073532425E+03  0.52095175819E+03  0.58040006159E+03  0.12374438732E+04  0.10100000352E+00 0. -1.
</event>
<event>
 5   0  0.4188865E-05  0.2174489E+04  0.7818609E-02  0.8529122E-01
       -1   -1    0    0    0  501  0.00000000000E+00  0.00000000000E+00  0.98202158485E+03  0.98202158486E+03  0.50400001928E-02 0. -1.
        1   -1    0    0  501    0  0.00000000000E+00  0.00000000000E+00 -0.12037425147E+04  0.12037425147E+04  0.50400001928E-02 0.  1.
    10030    2    1    2    0    0  0.00000000000E+00  0.00000000000E+00 -0.22172092982E+03  0.21857640995E+04  0.21744894868E+04 0.  0.
        3    1    3    3  502    0  0.12438438755E+01 -0.78743229784E+03  0.64272659667E+03  0.10164392058E+04  0.10100000352E+00 0.  1.
       -3    1    3    3    0  502 -0.12438438755E+01  0.78743229784E+03 -0.86444752649E+03  0.11693248937E+04  0.10100000352E+00 0. -1.
</event>
<event>
 5   0  0.4133418E-05  0.2275466E+04  0.7818609E-02  0.8487658E-01
        1   -1    0    0  501    0  0.00000000000E+00  0.00000000000E+00  0.74680174794E+03  0.74680174796E+03  0.50400001928E-02 0.  1.
       -1   -1    0    0    0  501  0.00000000000E+00  0.00000000000E+00 -0.17333066802E+04  0.17333066802E+04  0.50400001928E-02 0. -1.
    10030    2    1    2    0    0  0.00000000000E+00  0.00000000000E+00 -0.98650493229E+03  0.24801084282E+04  0.22754660697E+04 0.  0.
        4    1    3    3  502    0  0.10119010580E+04 -0.51590791546E+03 -0.56497409206E+03  0.12685826998E+04  0.12699999809E+01 0.  1.
       -4    1    3    3    0  502 -0.10119010580E+04  0.51590791546E+03 -0.42153084023E+03  0.12115257284E+04  0.12699999809E+01 0. -1.
</event>
<event>
 5   0  0.4063293E-05  0.2158785E+04  0.7818609E-02  0.8535781E-01
        1   -1    0    0  501    0  0.00000000000E+00  0.00000000000E+00  0.91476845690E+03  0.91476845691E+03  0.50400001928E-02 0.  1.
       -1   -1    0    0    0  501  0.00000000000E+00  0.00000000000E+00 -0.12736428746E+04  0.12736428746E+04  0.50400001928E-02 0. -1.
    10030    2    1    2    0    0  0.00000000000E+00  0.00000000000E+00 -0.35887441772E+03  0.21884113315E+04  0.21587851464E+04 0.  0.
        1    1    3    3  502    0 -0.86708187064E+03 -0.54600592391E+03 -0.52340913991E+03  0.11506131266E+04  0.50400001928E-02 0. -1.
       -1    1    3    3    0  502  0.86708187064E+03  0.54600592391E+03  0.16453472220E+03  0.10377982049E+04  0.50400001928E-02 0.  1.
</event>
<event>
 5   0  0.9457742E-05  0.2204163E+04  0.7818609E-02  0.8516698E-01
        2   -1    0    0  501    0  0.00000000000E+00  0.00000000000E+00  0.22625187276E+04  0.22625187276E+04  0.25500000920E-02 0.  1.
       -2   -1    0    0    0  501  0.00000000000E+00  0.00000000000E+00 -0.53682786729E+03  0.53682786729E+03  0.25500000920E-02 0. -1.
    10030    2    1    2    0    0  0.00000000000E+00  0.00000000000E+00  0.17256908603E+04  0.27993465949E+04  0.22041625196E+04 0.  0.
        1    1    3    3  502    0 -0.96494631331E+03 -0.26660668631E+03  0.14481373338E+04  0.17604835275E+04  0.50400001928E-02 0. -1.
       -1    1    3    3    0  502  0.96494631331E+03  0.26660668631E+03  0.27755352644E+03  0.10388630674E+04  0.50400001928E-02 0.  1.
</event>
<event>
 5   0  0.9442578E-05  0.1995025E+04  0.7818609E-02  0.8608950E-01
       -2   -1    0    0    0  501  0.00000000000E+00  0.00000000000E+00  0.74967702959E+03  0.74967702959E+03  0.25500000920E-02 0. -1.
        2   -1    0    0  501    0  0.00000000000E+00  0.00000000000E+00 -0.13272797817E+04  0.13272797817E+04  0.25500000920E-02 0.  1.
    10030    2    1    2    0    0  0.00000000000E+00  0.00000000000E+00 -0.57760275210E+03  0.20769568113E+04  0.19950249765E+04 0.  0.
        4    1    3    3  502    0 -0.43918971852E+03 -0.26524309347E+01  0.64359985183E+03  0.77917714701E+03  0.12699999809E+01 0. -1.
       -4    1    3    3    0  502  0.43918971852E+03  0.26524309347E+01 -0.12212026039E+04  0.12977796643E+04  0.12699999809E+01 0.  1.
</event>
<event>
 5   0  0.9254673E-05  0.2183184E+04  0.7818609E-02  0.8525460E-01
        2   -1    0    0  501    0  0.00000000000E+00  0.00000000000E+00  0.15110120759E+04  0.15110120759E+04  0.25500000920E-02 0. -1.
       -2   -1    0    0    0  501  0.00000000000E+00  0.00000000000E+00 -0.78859272420E+03  0.78859272421E+03  0.25500000920E-02 0.  1.
    10030    2    1    2    0    0  0.00000000000E+00  0.00000000000E+00  0.72241935168E+03  0.22996048001E+04  0.21831840319E+04 0.  0.
        2    1    3    3  502    0  0.19717858364E+03 -0.47271678586E+03  0.13765814196E+04  0.14687807727E+04  0.25500000920E-02 0. -1.
       -2    1    3    3    0  502 -0.19717858364E+03  0.47271678586E+03 -0.65416206788E+03  0.83082402742E+03  0.25500000920E-02 0.  1.
</event>
<event>
 5   0  0.4174075E-05  0.2226528E+04  0.7818609E-02  0.8507467E-01
        1   -1    0    0  501    0  0.00000000000E+00  0.00000000000E+00  0.11726066330E+04  0.11726066330E+04  0.50400001928E-02 0. -1.
       -1   -1    0    0    0  501  0.00000000000E+00  0.00000000000E+00 -0.10569248831E+04  0.10569248831E+04  0.50400001928E-02 0.  1.
    10030    2    1    2    0    0  0.00000000000E+00  0.00000000000E+00  0.11568174986E+03  0.22295315162E+04  0.22265283547E+04 0.  0.
        5    1    3    3  502    0 -0.96785429013E+02 -0.65946367098E+03  0.95071350964E+03  0.11610934588E+04  0.46999998093E+01 0. -1.
       -5    1    3    3    0  502  0.96785429013E+02  0.65946367098E+03 -0.83503175978E+03  0.10684380574E+04  0.46999998093E+01 0.  1.
</event>
<event>
 5   0  0.4188865E-05  0.2191016E+04  0.7818609E-02  0.8522177E-01
        1   -1    0    0  501    0  0.00000000000E+00  0.00000000000E+00  0.79311615477E+03  0.79311615479E+03  0.50400001928E-02 0.  1.
       -1   -1    0    0    0  501  0.00000000000E+00  0.00000000000E+00 -0.15131923125E+04  0.15131923125E+04  0.50400001928E-02 0. -1.
    10030    2    1    2    0    0  0.00000000000E+00  0.00000000000E+00 -0.72007615775E+03  0.23063084673E+04  0.21910155347E+04 0.  0.
        3    1    3    3  502    0 -0.23610760033E+03 -0.31638207427E+03  0.71564190478E+03  0.81730518286E+03  0.10100000352E+00 0.  1.
       -3    1    3    3    0  502  0.23610760033E+03  0.31638207427E+03 -0.14357180625E+04  0.14890032845E+04  0.10100000352E+00 0. -1.
</event>
<event>
 5   0  0.9457742E-05  0.2181902E+04  0.7818609E-02  0.8525999E-01
        2   -1    0    0  501    0  0.00000000000E+00  0.00000000000E+00  0.18211151756E+04  0.18211151756E+04  0.25500000920E-02 0.  1.
       -2   -1    0    0    0  501  0.00000000000E+00  0.00000000000E+00 -0.65354157910E+03  0.65354157910E+03  0.25500000920E-02 0. -1.
    10030    2    1    2    0    0  0.00000000000E+00  0.00000000000E+00  0.11675735965E+04  0.24746567547E+04  0.21819023696E+04 0.  0.
        1    1    3    3  502    0  0.85089525752E+03 -0.25881600030E+03 -0.13277960214E+03  0.89924350654E+03  0.50400001928E-02 0. -1.
       -1    1    3    3    0  502 -0.85089525752E+03  0.25881600030E+03  0.13003531987E+04  0.15754132482E+04  0.50400001928E-02 0.  1.
</event>
<event>
 5   0  0.4133418E-05  0.2209765E+04  0.7818609E-02  0.8514375E-01
       -1   -1    0    0    0  501  0.00000000000E+00  0.00000000000E+00  0.10813504121E+04  0.10813504121E+04  0.50400001928E-02 0.  1.
        1   -1    0    0  501    0  0.00000000000E+00  0.00000000000E+00 -0.11289265857E+04  0.11289265857E+04  0.50400001928E-02 0. -1.
    10030    2    1    2    0    0  0.00000000000E+00  0.00000000000E+00 -0.47576173596E+02  0.22102769978E+04  0.22097649003E+04 0.  0.
        4    1    3    3  502    0  0.37215163927E+03 -0.98183962775E+03  0.32017780636E+03  0.10977346391E+04  0.12699999809E+01 0.  1.
       -4    1    3    3    0  502 -0.37215163927E+03  0.98183962775E+03 -0.36775397996E+03  0.11125423587E+04  0.12699999809E+01 0. -1.
</event>
<event>
 5   0  0.4188865E-05  0.2160217E+04  0.7818609E-02  0.8535172E-01
        1   -1    0    0  501    0  0.00000000000E+00  0.00000000000E+00  0.92469510099E+03  0.92469510100E+03  0.50400001928E-02 0.  1.
       -1   -1    0    0    0  501  0.00000000000E+00  0.00000000000E+00 -0.12616421152E+04  0.12616421152E+04  0.50400001928E-02 0. -1.
    10030    2    1    2    0    0  0.00000000000E+00  0.00000000000E+00 -0.33694701420E+03  0.21863372162E+04  0.21602169179E+04 0.  0.
        3    1    3    3  502    0  0.30592739578E+03 -0.26211390777E+03  0.84581136557E+03  0.93685225541E+03  0.10100000352E+00 0.  1.
       -3    1    3    3    0  502 -0.30592739578E+03  0.26211390777E+03 -0.11827583798E+04  0.12494849608E+04  0.10100000352E+00 0. -1.
</event>
<event>
 5   0  0.4063293E-05  0.2211968E+04  0.7818609E-02  0.8513463E-01
        1   -1    0    0  501    0  0.00000000000E+00  0.00000000000E+00  0.91499061901E+03  0.91499061902E+03  0.50400001928E-02 0.  1.
       -1   -1    0    0    0  501  0.00000000000E+00  0.00000000000E+00 -0.13368453889E+04  0.13368453889E+04  0.50400001928E-02 0. -1.
    10030    2    1    2    0    0  0.00000000000E+00  0.00000000000E+00 -0.42185476991E+03  0.22518360079E+04  0.22119683451E+04 0.  0.
        1    1    3    3  502    0  0.91802003116E+03  0.59752074626E+03 -0.55169206135E+02  0.10967385564E+04  0.50400001928E-02 0.  1.
       -1    1    3    3    0  502 -0.91802003116E+03 -0.59752074626E+03 -0.36668556377E+03  0.11550974515E+04  0.50400001928E-02 0. -1.
</event>
<event>
 5   0  0.4174075E-05  0.2127921E+04  0.7818609E-02  0.8549043E-01
        1   -1    0    0  501    0  0.00000000000E+00  0.00000000000E+00  0.17324004711E+04  0.17324004711E+04  0.50400001928E-02 0. -1.
       -1   -1    0    0    0  501  0.00000000000E+00  0.00000000000E+00 -0.65343529164E+03  0.65343529166E+03  0.50400001928E-02 0.  1.
    10030    2    1    2    0    0  0.00000000000E+00  0.00000000000E+00  0.10789651795E+04  0.23858357628E+04  0.21279206819E+04 0.  0.
        5    1    3    3  502    0 -0.56338857874E+03  0.85561437831E+02 -0.46789522286E+03  0.73734352907E+03  0.46999998093E+01 0.  1.
       -5    1    3    3    0  502  0.56338857874E+03 -0.85561437831E+02  0.15468604024E+04  0.16484922337E+04  0.46999998093E+01 0. -1.
</event>
<event>
 5   0  0.4188865E-05  0.2123387E+04  0.7818609E-02  0.8551011E-01
        1   -1    0    0  501    0  0.00000000000E+00  0.00000000000E+00  0.97189961179E+03  0.97189961180E+03  0.50400001928E-02 0. -1.
       -1   -1    0    0    0  501  0.00000000000E+00  0.00000000000E+00 -0.11597831970E+04  0.11597831971E+04  0.50400001928E-02 0.  1.
    10030    2    1    2    0    0  0.00000000000E+00  0.00000000000E+00 -0.18788358526E+03  0.21316828089E+04  0.21233867655E+04 0.  0.
        3    1    3    3  502    0  0.10508626445E+04  0.11955326718E+03 -0.18697287088E+03  0.10740410355E+04  0.10100000352E+00 0. -1.
       -3    1    3    3    0  502 -0.10508626445E+04 -0.11955326718E+03 -0.91071437853E+00  0.10576417734E+04  0.10100000352E+00 0.  1.
</event>
<event>
 5   0  0.9442578E-05  0.2189943E+04  0.7818609E-02  0.8522626E-01
       -2   -1    0    0    0  501  0.00000000000E+00  0.00000000000E+00  0.95324275563E+03  0.95324275563E+03  0.25500000920E-02 0. -1.
        2   -1    0    0  501    0  0.00000000000E+00  0.00000000000E+00 -0.12577720297E+04  0.12577720297E+04  0.25500000920E-02 0.  1.
    10030    2    1    2    0    0  0.00000000000E+00  0.00000000000E+00 -0.30452927407E+03  0.22110147853E+04  0.21899425340E+04 0.  0.
        4    1    3    3  502    0  0.29335201094E+03  0.37329319470E+02  0.91216246609E+03  0.95890085925E+03  0.12699999809E+01 0. -1.
       -4    1    3    3    0  502 -0.29335201094E+03 -0.37329319470E+02 -0.12166917402E+04  0.12521139261E+04  0.12699999809E+01 0.  1.
</event>
<event>
 5   0  0.9457742E-05  0.1924719E+04  0.7818609E-02  0.8642649E-01
        2   -1    0    0  501    0  0.00000000000E+00  0.00000000000E+00  0.11910938734E+04  0.11910938734E+04  0.25500000920E-02 0. -1.
       -2   -1    0    0    0  501  0.00000000000E+00  0.00000000000E+00 -0.77755060631E+03  0.77755060632E+03  0.25500000920E-02 0.  1.
    10030    2    1    2    0    0  0.00000000000E+00  0.00000000000E+00  0.41354326709E+03  0.19686444797E+04  0.19247189545E+04 0.  0.
        1    1    3    3  502    0 -0.44952583448E+03 -0.43554901373E+03  0.95445320114E+03  0.11413839549E+04  0.50400001928E-02 0. -1.
       -1    1    3    3    0  502  0.44952583448E+03  0.43554901373E+03 -0.54090993405E+03  0.82726052487E+03  0.50400001928E-02 0.  1.
</event>
<event>
 5   0  0.4133418E-05  0.2158824E+04  0.7818609E-02  0.8535764E-01
        1   -1    0    0  501    0  0.00000000000E+00  0.00000000000E+00  0.16428438381E+04  0.16428438381E+04  0.50400001928E-02 0. -1.
       -1   -1    0    0    0  501  0.00000000000E+00  0.00000000000E+00 -0.70921563350E+03  0.70921563351E+03  0.50400001928E-02 0.  1.
    10030    2    1    2    0    0  0.00000000000E+00  0.00000000000E+00  0.93362820456E+03  0.23520594716E+04  0.21588242479E+04 0.  0.
        4    1    3    3  502    0  0.36068789203E+03  0.98870436347E+03  0.72806213258E+03  0.12797297197E+04  0.12699999809E+01 0. -1.
       -4    1    3    3    0  502 -0.36068789203E+03 -0.98870436347E+03  0.20556607197E+03  0.10723297518E+04  0.12699999809E+01 0.  1.
</event>
<event>
 5   0  0.9938176E-05  0.2204468E+04  0.7818609E-02  0.8516571E-01
        2   -1    0    0  501    0  0.00000000000E+00  0.00000000000E+00  0.14239842576E+04  0.14239842576E+04  0.25500000920E-02 0.  1.
       -2   -1    0    0    0  501  0.00000000000E+00  0.00000000000E+00 -0.85318324875E+03  0.85318324876E+03  0.25500000920E-02 0. -1.
    10030    2    1    2    0    0  0.00000000000E+00  0.00000000000E+00  0.57080100889E+03  0.22771675064E+04  0.22044677499E+04 0.  0.
        5    1    3    3  502    0 -0.32581263651E+03  0.81669688773E+03  0.97196190305E+03  0.13106791032E+04  0.46999998093E+01 0.  1.
       -5    1    3    3    0  502  0.32581263651E+03 -0.81669688773E+03 -0.40116089416E+03  0.96648840321E+03  0.46999998093E+01 0. -1.
</event>
<event>
 5   0  0.4133418E-05  0.2180064E+04  0.7818609E-02  0.8526772E-01
       -1   -1    0    0    0  501  0.00000000000E+00  0.00000000000E+00  0.11764020895E+04  0.11764020895E+04  0.50400001928E-02 0.  1.
        1   -1    0    0  501    0  0.00000000000E+00  0.00000000000E+00 -0.10100032739E+04  0.10100032739E+04  0.50400001928E-02 0. -1.
    10030    2    1    2    0    0  0.00000000000E+00  0.00000000000E+00  0.16639881557E+03  0.21864053634E+04  0.21800641842E+04 0.  0.
        4    1    3    3  502    0 -0.49305324737E+03  0.79599639970E+03 -0.47650684200E+03  0.10506056141E+04  0.12699999809E+01 0. -1.
       -4    1    3    3    0  502  0.49305324737E+03 -0.79599639970E+03  0.64290565757E+03  0.11357997493E+04  0.12699999809E+01 0.  1.
</event>
<event>
 5   0  0.4063293E-05  0.2221725E+04  0.7818609E-02  0.8509440E-01
       -1   -1    0    0    0  501  0.00000000000E+00  0.00000000000E+00  0.12890348722E+04  0.12890348722E+04  0.50400001928E-02 0.  1.
        1   -1    0    0  501    0  0.00000000000E+00  0.00000000000E+00 -0.95731779126E+03  0.95731779127E+03  0.50400001928E-02 0. -1.
    10030    2    1    2    0    0  0.00000000000E+00  0.00000000000E+00  0.33171708092E+03  0.22463526635E+04  0.22217254706E+04 0.  0.
        1    1    3    3  502    0 -0.30784371739E+03 -0.78737648175E+03 -0.56274466411E+03  0.10155840858E+04  0.50400001928E-02 0. -1.
       -1    1    3    3    0  502  0.30784371739E+03  0.78737648175E+03  0.89446174503E+03  0.12307685776E+04  0.50400001928E-02 0.  1.
</event>
<event>
 5   0  0.4063293E-05  0.2193428E+04  0.7818609E-02  0.8521168E-01
        1   -1    0    0  501    0  0.00000000000E+00  0.00000000000E+00  0.10877778704E+04  0.10877778704E+04  0.50400001928E-02 0. -1.
       -1   -1    0    0    0  501  0.00000000000E+00  0.00000000000E+00 -0.11057237069E+04  0.11057237069E+04  0.50400001928E-02 0.  1.
    10030    2    1    2    0    0  0.00000000000E+00  0.00000000000E+00 -0.17945836423E+02  0.21935015773E+04  0.21934281654E+04 0.  0.
        1    1    3    3  502    0 -0.93668562345E+02 -0.13786565244E+03  0.10750380112E+04  0.10878820999E+04  0.50400001928E-02 0. -1.
       -1    1    3    3    0  502  0.93668562345E+02  0.13786565244E+03 -0.10929838476E+04  0.11056194774E+04  0.50400001928E-02 0.  1.
</event>
<event>
 5   0  0.4188865E-05  0.2196164E+04  0.7818609E-02  0.8520026E-01
       -1   -1    0    0    0  501  0.00000000000E+00  0.00000000000E+00  0.15702806321E+04  0.15702806321E+04  0.50400001928E-02 0. -1.
        1   -1    0    0  501    0  0.00000000000E+00  0.00000000000E+00 -0.76787842273E+03  0.76787842274E+03  0.50400001928E-02 0.  1.
    10030    2    1    2    0    0  0.00000000000E+00  0.00000000000E+00  0.80240220938E+03  0.23381590549E+04  0.21961644884E+04 0.  0.
        3    1    3    3  502    0  0.52154335147E+03  0.28813140811E+03  0.13832024015E+04  0.15060797022E+04  0.10100000352E+00 0. -1.
       -3    1    3    3    0  502 -0.52154335147E+03 -0.28813140811E+03 -0.58080019207E+03  0.83207935266E+03  0.10100000352E+00 0.  1.
</event>
<event>
 5   0  0.9938176E-05  0.2206481E+04  0.7818609E-02  0.8515735E-01
       -2   -1    0    0    0  501  0.00000000000E+00  0.00000000000E+00  0.59974429109E+03  0.59974429109E+03  0.25500000920E-02 0. -1.
        2   -1    0    0  501    0  0.00000000000E+00  0.00000000000E+00 -0.20294306455E+04  0.20294306455E+04  0.25500000920E-02 0.  1.
    10030    2    1    2    0    0  0.00000000000E+00  0.00000000000E+00 -0.14296863544E+04  0.26291749366E+04  0.22064808576E+04 0.  0.
        5    1    3    3  502    0 -0.13504436694E+03  0.63718914487E+02  0.58763546597E+03  0.60632879857E+03  0.46999998093E+01 0. -1.
       -5    1    3    3    0  502  0.13504436694E+03 -0.63718914487E+02 -0.20173218204E+04  0.20228461380E+04  0.46999998093E+01 0.  1.
</event>
<event>
 5   0  0.9457742E-05  0.1640964E+04  0.7818609E-02  0.8795770E-01
        2   -1    0    0  501    0  0.00000000000E+00  0.00000000000E+00  0.57351452147E+03  0.57351452147E+03  0.25500000920E-02 0. -1.
       -2   -1    0    0    0  501  0.00000000000E+00  0.00000000000E+00 -0.11737987543E+04  0.11737987543E+04  0.25500000920E-02 0.  1.
    10030    2    1    2    0    0  0.00000000000E+00  0.00000000000E+00 -0.60028423286E+03  0.17473132758E+04  0.16409639008E+04 0.  0.
        1    1    3    3  502    0 -0.50851191547E+03 -0.36319569196E+03 -0.86629135796E+03  0.10681555110E+04  0.50400001928E-02 0.  1.
       -1    1    3    3    0  502  0.50851191547E+03  0.36319569196E+03  0.26600712510E+03  0.67915776478E+03  0.50400001928E-02 0. -1.
</event>
<event>
 5   0  0.4133418E-05  0.2258552E+04  0.7818609E-02  0.8494445E-01
        1   -1    0    0  501    0  0.00000000000E+00  0.00000000000E+00  0.17283047528E+04  0.17283047528E+04  0.50400001928E-02 0. -1.
       -1   -1    0    0    0  501  0.00000000000E+00  0.00000000000E+00 -0.73787030650E+03  0.73787030652E+03  0.50400001928E-02 0.  1.
    10030    2    1    2    0    0  0.00000000000E+00  0.00000000000E+00  0.99043444633E+03  0.24661750594E+04  0.22585524193E+04 0.  0.
        4    1    3    3  502    0 -0.10417899855E+03 -0.11167880684E+04  0.63839837985E+03  0.12905901587E+04  0.12699999809E+01 0. -1.
       -4    1    3    3    0  502  0.10417899855E+03  0.11167880684E+04  0.35203606649E+03  0.11755849006E+04  0.12699999809E+01 0.  1.
</event>
<event>
 5   0  0.4188865E-05  0.2187539E+04  0.7818609E-02  0.8523633E-01
        1   -1    0    0  501    0  0.00000000000E+00  0.00000000000E+00  0.11826555063E+04  0.11826555063E+04  0.50400001928E-02 0. -1.
       -1   -1    0    0    0  501  0.00000000000E+00  0.00000000000E+00 -0.10115639075E+04  0.10115639075E+04  0.50400001928E-02 0.  1.
    10030    2    1    2    0    0  0.00000000000E+00  0.00000000000E+00  0.17109159884E+03  0.21942194138E+04  0.21875389141E+04 0.  0.
        3    1    3    3  502    0 -0.89641027680E+03  0.88740433250E+02  0.70784787392E+03  0.11456329568E+04  0.10100000352E+00 0. -1.
       -3    1    3    3    0  502  0.89641027680E+03 -0.88740433250E+02 -0.53675627508E+03  0.10485864570E+04  0.10100000352E+00 0.  1.
</event>
<event>
 5   0  0.9938176E-05  0.2243515E+04  0.7818609E-02  0.8500531E-01
        2   -1    0    0  501    0  0.00000000000E+00  0.00000000000E+00  0.20482990498E+04  0.20482990498E+04  0.25500000920E-02 0. -1.
       -2   -1    0    0    0  501  0.00000000000E+00  0.00000000000E+00 -0.61433395781E+03  0.61433395782E+03  0.25500000920E-02 0.  1.
    10030    2    1    2    0    0  0.00000000000E+00  0.00000000000E+00  0.14339650920E+04  0.26626330076E+04  0.22435147979E+04 0.  0.
        5    1    3    3  502    0  0.13379426471E+03 -0.10520905381E+04  0.11506522248E+04  0.15648699748E+04  0.46999998093E+01 0. -1.
       -5    1    3    3    0  502 -0.13379426471E+03  0.10520905381E+04  0.28331286722E+03  0.10977630328E+04  0.46999998093E+01 0.  1.
</event>
<event>
 5   0  0.4188865E-05  0.2232165E+04  0.7818609E-02  0.8505158E-01
        1   -1    0    0  501    0  0.00000000000E+00  0.00000000000E+00  0.12550077688E+04  0.12550077688E+04  0.50400001928E-02 0. -1.
       -1   -1    0    0    0  501  0.00000000000E+00  0.00000000000E+00 -0.99253599752E+03  0.99253599754E+03  0.50400001928E-02 0.  1.
    10030    2    1    2    0    0  0.00000000000E+00  0.00000000000E+00  0.26247177130E+03  0.22475437664E+04  0.22321652159E+04 0.  0.
        3    1    3    3  502    0 -0.79148305839E+03  0.14273393720E+03  0.91040312456E+03  0.12147642849E+04  0.10100000352E+00 0. -1.
       -3    1    3    3    0  502  0.79148305839E+03 -0.14273393720E+03 -0.64793135326E+03  0.10327794814E+04  0.10100000352E+00 0.  1.
</event>
<event>
 5   0  0.4188865E-05  0.2179484E+04  0.7818609E-02  0.8527016E-01
       -1   -1    0    0    0  501  0.00000000000E+00  0.00000000000E+00  0.10461319155E+04  0.10461319155E+04  0.50400001928E-02 0.  1.
        1   -1    0    0  501    0  0.00000000000E+00  0.00000000000E+00 -0.11351697447E+04  0.11351697448E+04  0.50400001928E-02 0. -1.
    10030    2    1    2    0    0  0.00000000000E+00  0.00000000000E+00 -0.89037829252E+02  0.21813016603E+04  0.21794836999E+04 0.  0.
        3    1    3    3  502    0 -0.37454546536E+03  0.61111575785E+03 -0.86605104006E+03  0.11241846776E+04  0.10100000352E+00 0. -1.
       -3    1    3    3    0  502  0.37454546536E+03 -0.61111575785E+03  0.77701321081E+03  0.10571169827E+04  0.10100000352E+00 0.  1.
</event>
<event>
 5   0  0.9442578E-05  0.2244194E+04  0.7818609E-02  0.8500256E-01
        2   -1    0    0  501    0  0.00000000000E+00  0.00000000000E+00  0.13775091060E+04  0.13775091060E+04  0.25500000920E-02 0.  1.
       -2   -1    0    0    0  501  0.00000000000E+00  0.00000000000E+00 -0.91404224523E+03  0.91404224524E+03  0.25500000920E-02 0. -1.
    10030    2    1    2    0    0  0.00000000000E+00  0.00000000000E+00  0.46346686081E+03  0.22915513513E+04  0.22441938563E+04 0.  0.
        4    1    3    3  502    0  0.18782635324E+02  0.10728282446E+04  0.56697028631E+03  0.12135774175E+04  0.12699999809E+01 0.  1.
       -4    1    3    3    0  502 -0.18782635324E+02 -0.10728282446E+04 -0.10350342550E+03  0.10779739338E+04  0.12699999809E+01 0. -1.
</event>
<event>
 5   0  0.9254673E-05  0.2211590E+04  0.7818609E-02  0.8513620E-01
        2   -1    0    0  501    0  0.00000000000E+00  0.00000000000E+00  0.15743048754E+04  0.15743048754E+04  0.25500000920E-02 0. -1.
       -2   -1    0    0    0  501  0.00000000000E+00  0.00000000000E+00 -0.77671242006E+03  0.77671242006E+03  0.25500000920E-02 0.  1.
    10030    2    1    2    0    0  0.00000000000E+00  0.00000000000E+00  0.79759245532E+03  0.23510172955E+04  0.22115896090E+04 0.  0.
        2    1    3    3  502    0 -0.70435209313E+03  0.43991437674E+02 -0.50618779231E+03  0.86848903204E+03  0.25500000920E-02 0.  1.
       -2    1    3    3    0  502  0.70435209313E+03 -0.43991437674E+02  0.13037802476E+04  0.14825282634E+04  0.25500000920E-02 0. -1.
</event>
<event>
 5   0  0.4174030E-05  0.2175939E+04  0.7818609E-02  0.8528510E-01
       -1   -1    0    0    0  501  0.00000000000E+00  0.00000000000E+00  0.48930139054E+03  0.48930139057E+03  0.50400001928E-02 0.  1.
        1   -1    0    0  501    0  0.00000000000E+00  0.00000000000E+00 -0.24191179154E+04  0.24191179154E+04  0.50400001928E-02 0. -1.
    10030    2    1    2    0    0  0.00000000000E+00  0.00000000000E+00 -0.19298165249E+04  0.29084193060E+04  0.21759391167E+04 0.  0.
        2    1    3    3  502    0 -0.70963652064E+02 -0.60322648894E+03  0.24158542851E+03  0.65366777200E+03  0.25500000920E-02 0.  1.
       -2    1    3    3    0  502  0.70963652064E+02  0.60322648894E+03 -0.21714019534E+04  0.22547515340E+04  0.25500000920E-02 0. -1.
</event>
<event>
 5   0  0.9254673E-05  0.2204518E+04  0.7818609E-02  0.8516550E-01
        2   -1    0    0  501    0  0.00000000000E+00  0.00000000000E+00  0.15337041001E+04  0.15337041001E+04  0.25500000920E-02 0. -1.
       -2   -1    0    0    0  501  0.00000000000E+00  0.00000000000E+00 -0.79218306658E+03  0.79218306659E+03  0.25500000920E-02 0.  1.
    10030    2    1    2    0    0  0.00000000000E+00  0.00000000000E+00  0.74152103347E+03  0.23258871666E+04  0.22045175592E+04 0.  0.
        2    1    3    3  502    0 -0.90707087571E+03  0.61445016661E+03  0.49845196727E+03  0.12036531662E+04  0.25500000920E-02 0. -1.
       -2    1    3    3    0  502  0.90707087571E+03 -0.61445016661E+03  0.24306906620E+03  0.11222340004E+04  0.25500000920E-02 0.  1.
</event>
<event>
 5   0  0.4174030E-05  0.2173044E+04  0.7818609E-02  0.8529732E-01
       -1   -1    0    0    0  501  0.00000000000E+00  0.00000000000E+00  0.93337077769E+03  0.93337077770E+03  0.50400001928E-02 0.  1.
        1   -1    0    0  501    0  0.00000000000E+00  0.00000000000E+00 -0.12648024700E+04  0.12648024700E+04  0.50400001928E-02 0. -1.
    10030    2    1    2    0    0  0.00000000000E+00  0.00000000000E+00 -0.33143169234E+03  0.21981732477E+04  0.21730436398E+04 0.  0.
        2    1    3    3  502    0  0.57416179153E+03 -0.59774009807E+03  0.54495729987E+03  0.99193419458E+03  0.25500000920E-02 0.  1.
       -2    1    3    3    0  502 -0.57416179153E+03  0.59774009807E+03 -0.87638899221E+03  0.12062390532E+04  0.25500000920E-02 0. -1.
</event>
<event>
 5   0  0.3283125E-05  0.2200702E+04  0.7818609E-02  0.8518136E-01
       -3   -1    0    0    0  501  0.00000000000E+00  0.00000000000E+00  0.14715967843E+04  0.14715967877E+04  0.10100000352E+00 0.  1.
        3   -1    0    0  501    0  0.00000000000E+00  0.00000000000E+00 -0.82276101618E+03  0.82276102238E+03  0.10100000352E+00 0. -1.
    10030    2    1    2    0    0  0.00000000000E+00  0.00000000000E+00  0.64883576807E+03  0.22943578101E+04  0.22007021395E+04 0.  0.
        1    1    3    3  502    0 -0.92054232544E+03 -0.17424611992E+03  0.92604889121E+03  0.13173178934E+04  0.50400001928E-02 0.  1.
       -1    1    3    3    0  502  0.92054232544E+03  0.17424611992E+03 -0.27721312314E+03  0.97703991674E+03  0.50400001928E-02 0. -1.
</event>
<event>
 5   0  0.4063293E-05  0.2220146E+04  0.7818609E-02  0.8510089E-01
       -1   -1    0    0    0  501  0.00000000000E+00  0.00000000000E+00  0.61167441517E+03  0.61167441519E+03  0.50400001928E-02 0.  1.
        1   -1    0    0  501    0  0.00000000000E+00  0.00000000000E+00 -0.20145725121E+04  0.20145725121E+04  0.50400001928E-02 0. -1.
    10030    2    1    2    0    0  0.00000000000E+00  0.00000000000E+00 -0.14028980969E+04  0.26262469273E+04  0.22201463584E+04 0.  0.
        1    1    3    3  502    0 -0.86355651880E+03  0.69604494638E+03 -0.64783756440E+03  0.12844850869E+04  0.50400001928E-02 0.  1.
       -1    1    3    3    0  502  0.86355651880E+03 -0.69604494638E+03 -0.75506053251E+03  0.13417618404E+04  0.50400001928E-02 0. -1.
</event>
<event>
 5   0  0.9254673E-05  0.2235178E+04  0.7818609E-02  0.8503927E-01
       -2   -1    0    0    0  501  0.00000000000E+00  0.00000000000E+00  0.64646276212E+03  0.64646276212E+03  0.25500000920E-02 0.  1.
        2   -1    0    0  501    0  0.00000000000E+00  0.00000000000E+00 -0.19320596490E+04  0.19320596490E+04  0.25500000920E-02 0. -1.
    10030    2    1    2    0    0  0.00000000000E+00  0.00000000000E+00 -0.12855968869E+04  0.25785224112E+04  0.22351775028E+04 0.  0.
        2    1    3    3  502    0  0.11043264050E+04  0.85017478265E+02 -0.47076032231E+03  0.12034866271E+04  0.25500000920E-02 0. -1.
       -2    1    3    3    0  502 -0.11043264050E+04 -0.85017478265E+02 -0.81483656460E+03  0.13750357841E+04  0.25500000920E-02 0.  1.
</event>
<event>
 5   0  0.9442578E-05  0.2051264E+04  0.7818609E-02  0.8583021E-01
        2   -1    0    0  501    0  0.00000000000E+00  0.00000000000E+00  0.12298972173E+04  0.12298972173E+04  0.25500000920E-02 0. -1.
       -2   -1    0    0    0  501  0.00000000000E+00  0.00000000000E+00 -0.85529143197E+03  0.85529143197E+03  0.25500000920E-02 0.  1.
    10030    2    1    2    0    0  0.00000000000E+00  0.00000000000E+00  0.37460578534E+03  0.20851886493E+04  0.20512635639E+04 0.  0.
        4    1    3    3  502    0 -0.78048329017E+03 -0.25293060030E+03  0.81294165176E+03  0.11549908211E+04  0.12699999809E+01 0. -1.
       -4    1    3    3    0  502  0.78048329017E+03  0.25293060030E+03 -0.43833586643E+03  0.93019782815E+03  0.12699999809E+01 0.  1.
</event>
<event>
 5   0  0.9457742E-05  0.2203149E+04  0.7818609E-02  0.8517118E-01
       -2   -1    0    0    0  501  0.00000000000E+00  0.00000000000E+00  0.55173319386E+03  0.55173319387E+03  0.25500000920E-02 0. -1.
        2   -1    0    0  501    0  0.00000000000E+00  0.00000000000E+00 -0.21993725390E+04  0.21993725390E+04  0.25500000920E-02 0.  1.
    10030    2    1    2    0    0  0.00000000000E+00  0.00000000000E+00 -0.16476393451E+04  0.27511057329E+04  0.22031494143E+04 0.  0.
        1    1    3    3  502    0  0.78823423064E+03 -0.60525669692E+03 -0.23042646035E+03  0.10201692140E+04  0.50400001928E-02 0. -1.
       -1    1    3    3    0  502 -0.78823423064E+03  0.60525669692E+03 -0.14172128848E+04  0.17309365189E+04  0.50400001928E-02 0.  1.
</event>
<event>
 5   0  0.9457742E-05  0.2179106E+04  0.7818609E-02  0.8527175E-01
       -2   -1    0    0    0  501  0.00000000000E+00  0.00000000000E+00  0.10593423385E+04  0.10593423385E+04  0.25500000920E-02 0.  1.
        2   -1    0    0  501    0  0.00000000000E+00  0.00000000000E+00 -0.11206254810E+04  0.11206254810E+04  0.25500000920E-02 0. -1.
    10030    2    1    2    0    0  0.00000000000E+00  0.00000000000E+00 -0.61283142466E+02  0.21799678195E+04  0.21791062550E+04 0.  0.
        1    1    3    3  502    0  0.67888625213E+03 -0.64192617113E+03 -0.59137211656E+03  0.11057471378E+04  0.50400001928E-02 0. -1.
       -1    1    3    3    0  502 -0.67888625213E+03  0.64192617113E+03  0.53008897410E+03  0.10742206817E+04  0.50400001928E-02 0.  1.
</event>
<event>
 5   0  0.4174030E-05  0.2197227E+04  0.7818609E-02  0.8519583E-01
       -1   -1    0    0    0  501  0.00000000000E+00  0.00000000000E+00  0.15612121269E+04  0.15612121269E+04  0.50400001928E-02 0. -1.
        1   -1    0    0  501    0  0.00000000000E+00  0.00000000000E+00 -0.77308615815E+03  0.77308615816E+03  0.50400001928E-02 0.  1.
    10030    2    1    2    0    0  0.00000000000E+00  0.00000000000E+00  0.78812596878E+03  0.23342982851E+04  0.21972268752E+04 0.  0.
        2    1    3    3  502    0  0.39977973866E+03  0.68378655479E+02  0.14787625922E+04  0.15333748022E+04  0.25500000920E-02 0. -1.
       -2    1    3    3    0  502 -0.39977973866E+03 -0.68378655479E+02 -0.69063662337E+03  0.80092348293E+03  0.25500000920E-02 0.  1.
</event>
<event>
 5   0  0.4174030E-05  0.2564002E+04  0.7818609E-02  0.8380533E-01
       -1   -1    0    0    0  501  0.00000000000E+00  0.00000000000E+00  0.15491436049E+04  0.15491436049E+04  0.50400001928E-02 0.  1.
        1   -1    0    0  501    0  0.00000000000E+00  0.00000000000E+00 -0.10609255175E+04  0.10609255176E+04  0.50400001928E-02 0. -1.
    10030    2    1    2    0    0  0.00000000000E+00  0.00000000000E+00  0.48821808738E+03  0.26100691225E+04  0.25640015451E+04 0.  0.
        2    1    3    3  502    0  0.43824027273E+03  0.12875014708E+03  0.14635022297E+04  0.15331242329E+04  0.25500000920E-02 0.  1.
       -2    1    3    3    0  502 -0.43824027273E+03 -0.12875014708E+03 -0.97528414234E+03  0.10769448896E+04  0.25500000920E-02 0. -1.
</event>
<event>
 5   0  0.9457742E-05  0.2207291E+04  0.7818609E-02  0.8515400E-01
       -2   -1    0    0    0  501  0.00000000000E+00  0.00000000000E+00  0.55614076954E+03  0.55614076955E+03  0.25500000920E-02 0. -1.
        2   -1    0    0  501    0  0.00000000000E+00  0.00000000000E+00 -0.21901522768E+04  0.21901522768E+04  0.25500000920E-02 0.  1.
    10030    2    1    2    0    0  0.00000000000E+00  0.00000000000E+00 -0.16340115072E+04  0.27462930463E+04  0.22072906221E+04 0.  0.
        1    1    3    3  502    0 -0.45425755553E+03 -0.30203997380E+03  0.37667616698E+03  0.66292006104E+03  0.50400001928E-02 0. -1.
       -1    1    3    3    0  502  0.45425755553E+03  0.30203997380E+03 -0.20106876742E+04  0.20833729853E+04  0.50400001928E-02 0.  1.
</event>
<event>
 5   0  0.9938176E-05  0.2250534E+04  0.7818609E-02  0.8497684E-01
        2   -1    0    0  501    0  0.00000000000E+00  0.00000000000E+00  0.14650639124E+04  0.14650639124E+04  0.25500000920E-02 0.  1.
       -2   -1    0    0    0  501  0.00000000000E+00  0.00000000000E+00 -0.86428050191E+03  0.86428050191E+03  0.25500000920E-02 0. -1.
    10030    2    1    2    0    0  0.00000000000E+00  0.00000000000E+00  0.60078341048E+03  0.23293444143E+04  0.22505343130E+04 0.  0.
        5    1    3    3  502    0 -0.47385922367E+03 -0.81095294407E+03  0.94178321201E+03  0.13300996015E+04  0.46999998093E+01 0.  1.
       -5    1    3    3    0  502  0.47385922367E+03  0.81095294407E+03 -0.34099980153E+03  0.99924481285E+03  0.46999998093E+01 0. -1.
</event>
<event>
 5   0  0.9442578E-05  0.2221751E+04  0.7818609E-02  0.8509429E-01
        2   -1    0    0  501    0  0.00000000000E+00  0.00000000000E+00  0.24356438131E+04  0.24356438131E+04  0.25500000920E-02 0. -1.
       -2   -1    0    0    0  501  0.00000000000E+00  0.00000000000E+00 -0.50666030819E+03  0.50666030820E+03  0.25500000920E-02 0.  1.
    10030    2    1    2    0    0  0.00000000000E+00  0.00000000000E+00  0.19289835049E+04  0.29423041213E+04  0.22217507016E+04 0.  0.
        4    1    3    3  502    0 -0.36608358564E+03 -0.77825405234E+02 -0.42065131271E+03  0.56304806647E+03  0.12699999809E+01 0.  1.
       -4    1    3    3    0  502  0.36608358564E+03  0.77825405234E+02  0.23496348176E+04  0.23792560548E+04  0.12699999809E+01 0. -1.
</event>
<event>
 5   0  0.4063293E-05  0.2162899E+04  0.7818609E-02  0.8534031E-01
        1   -1    0    0  501    0  0.00000000000E+00  0.00000000000E+00  0.19807058271E+04  0.19807058271E+04  0.50400001928E-02 0. -1.
       -1   -1    0    0    0  501  0.00000000000E+00  0.00000000000E+00 -0.59046262053E+03  0.59046262055E+03  0.50400001928E-02 0.  1.
    10030    2    1    2    0    0  0.00000000000E+00  0.00000000000E+00  0.13902432066E+04  0.25711684477E+04  0.21628987523E+04 0.  0.
        1    1    3    3  502    0  0.64653264683E+03 -0.76851206564E+03  0.21825602897E+03  0.10277407030E+04  0.50400001928E-02 0. -1.
       -1    1    3    3    0  502 -0.64653264683E+03  0.76851206564E+03  0.11719871776E+04  0.15434277447E+04  0.50400001928E-02 0.  1.
</event>
<event>
 5   0  0.9179618E-05  0.2317703E+04  0.7818609E-02  0.8470973E-01
        2   -1    0    0  501    0  0.00000000000E+00  0.00000000000E+00  0.14672679500E+04  0.14672679501E+04  0.25500000920E-02 0. -1.
       -2   -1    0    0    0  501  0.00000000000E+00  0.00000000000E+00 -0.91526379328E+03  0.91526379328E+03  0.25500000920E-02 0.  1.
    10030    2    1    2    0    0  0.00000000000E+00  0.00000000000E+00  0.55200415677E+03  0.23825317433E+04  0.23177033716E+04 0.  0.
        3    1    3    3  502    0  0.80484800990E+03  0.27429375254E+03 -0.53337073075E+03  0.10037438559E+04  0.10100000352E+00 0.  1.
       -3    1    3    3    0  502 -0.80484800990E+03 -0.27429375254E+03  0.10853748875E+04  0.13787878874E+04  0.10100000352E+00 0. -1.
</event>
<event>
 5   0  0.9457742E-05  0.2198120E+04  0.7818609E-02  0.8519211E-01
        2   -1    0    0  501    0  0.00000000000E+00  0.00000000000E+00  0.16951816997E+04  0.16951816997E+04  0.25500000920E-02 0.  1.
       -2   -1    0    0    0  501  0.00000000000E+00  0.00000000000E+00 -0.71256865447E+03  0.71256865447E+03  0.25500000920E-02 0. -1.
    10030    2    1    2    0    0  0.00000000000E+00  0.00000000000E+00  0.98261304523E+03  0.24077503542E+04  0.21981204179E+04 0.  0.
        1    1    3    3  502    0  0.46587590000E+02 -0.13454122494E+03 -0.70242409247E+03  0.71670869289E+03  0.50400001928E-02 0. -1.
       -1    1    3    3    0  502 -0.46587590000E+02  0.13454122494E+03  0.16850371377E+04  0.16910416613E+04  0.50400001928E-02 0.  1.
</event>
<event>
 5   0  0.4133418E-05  0.2200634E+04  0.7818609E-02  0.8518164E-01
        1   -1    0    0  501    0  0.00000000000E+00  0.00000000000E+00  0.13870996630E+04  0.13870996630E+04  0.50400001928E-02 0.  1.
       -1   -1    0    0    0  501  0.00000000000E+00  0.00000000000E+00 -0.87282645739E+03  0.87282645740E+03  0.50400001928E-02 0. -1.
    10030    2    1    2    0    0  0.00000000000E+00  0.00000000000E+00  0.51427320558E+03  0.22599261204E+04  0.22006338041E+04 0.  0.
        4    1    3    3  502    0  0.30846798472E+03  0.56986571217E+02  0.13402067663E+04  0.13764286238E+04  0.12699999809E+01 0.  1.
       -4    1    3    3    0  502 -0.30846798472E+03 -0.56986571217E+02 -0.82593356074E+03  0.88349749663E+03  0.12699999809E+01 0. -1.
</event>
<event>
 5   0  0.9179618E-05  0.2226360E+04  0.7818609E-02  0.8507536E-01
       -2   -1    0    0    0  501  0.00000000000E+00  0.00000000000E+00  0.49273609006E+03  0.49273609006E+03  0.25500000920E-02 0. -1.
        2   -1    0    0  501    0  0.00000000000E+00  0.00000000000E+00 -0.25148760586E+04  0.25148760586E+04  0.25500000920E-02 0.  1.
    10030    2    1    2    0    0  0.00000000000E+00  0.00000000000E+00 -0.20221399686E+04  0.30076121487E+04  0.22263604345E+04 0.  0.
        3    1    3    3  502    0  0.65205561021E+03 -0.33975035401E+03 -0.21401617957E+04  0.22629404198E+04  0.10100000352E+00 0.  1.
       -3    1    3    3    0  502 -0.65205561021E+03  0.33975035401E+03  0.11802182712E+03  0.74467172884E+03  0.10100000352E+00 0. -1.
</event>
<event>
 5   0  0.9457742E-05  0.2138845E+04  0.7818609E-02  0.8544322E-01
       -2   -1    0    0    0  501  0.00000000000E+00  0.00000000000E+00  0.12591103227E+04  0.12591103227E+04  0.25500000920E-02 0.  1.
        2   -1    0    0  501    0  0.00000000000E+00  0.00000000000E+00 -0.90831149362E+03  0.90831149362E+03  0.25500000920E-02 0. -1.
    10030    2    1    2    0    0  0.00000000000E+00  0.00000000000E+00  0.35079882908E+03  0.21674218163E+04  0.21388449012E+04 0.  0.
        1    1    3    3  502    0  0.74072262429E+03 -0.77109249689E+03  0.19593674060E+03  0.10870348896E+04  0.50400001928E-02 0.  1.
       -1    1    3    3    0  502 -0.74072262429E+03  0.77109249689E+03  0.15486208848E+03  0.10803869267E+04  0.50400001928E-02 0. -1.
</event>
<event>
 5   0  0.4174030E-05  0.2198423E+04  0.7818609E-02  0.8519085E-01
       -1   -1    0    0    0  501  0.00000000000E+00  0.00000000000E+00  0.79509755177E+03  0.79509755179E+03  0.50400001928E-02 0.  1.
        1   -1    0    0  501    0  0.00000000000E+00  0.00000000000E+00 -0.15196450093E+04  0.15196450094E+04  0.50400001928E-02 0. -1.
    10030    2    1    2    0    0  0.00000000000E+00  0.00000000000E+00 -0.72454745757E+03  0.23147425611E+04  0.21984230953E+04 0.  0.
        2    1    3    3  502    0 -0.79493507386E+03 -0.14889622979E+03 -0.11460905113E+04  0.14027171201E+04  0.25500000920E-02 0. -1.
       -2    1    3    3    0  502  0.79493507386E+03  0.14889622979E+03  0.42154305376E+03  0.91202544102E+03  0.25500000920E-02 0.  1.
</event>
<event>
 5   0  0.9938176E-05  0.2192142E+04  0.7818609E-02  0.8521706E-01
       -2   -1    0    0    0  501  0.00000000000E+00  0.00000000000E+00  0.57208760840E+03  0.57208760841E+03  0.25500000920E-02 0. -1.
        2   -1    0    0  501    0  0.00000000000E+00  0.00000000000E+00 -0.20999792872E+04  0.20999792872E+04  0.25500000920E-02 0.  1.
    10030    2    1    2    0    0  0.00000000000E+00  0.00000000000E+00 -0.15278916788E+04  0.26720668956E+04  0.21921424480E+04 0.  0.
        5    1    3    3  502    0 -0.92814542186E+03  0.32106384038E+03 -0.17077149942E+03  0.99685551045E+03  0.46999998093E+01 0. -1.
       -5    1    3    3    0  502  0.92814542186E+03 -0.32106384038E+03 -0.13571201794E+04  0.16752113852E+04  0.46999998093E+01 0.  1.
</event>
<event>
 5   0  0.4063293E-05  0.2194368E+04  0.7818609E-02  0.8520776E-01
       -1   -1    0    0    0  501  0.00000000000E+00  0.00000000000E+00  0.16027810650E+04  0.16027810650E+04  0.50400001928E-02 0.  1.
        1   -1    0    0  501    0  0.00000000000E+00  0.00000000000E+00 -0.75107749965E+03  0.75107749966E+03  0.50400001928E-02 0. -1.
    10030    2    1    2    0    0  0.00000000000E+00  0.00000000000E+00  0.85170356531E+03  0.23538585646E+04  0.21943680592E+04 0.  0.
        1    1    3    3  502    0 -0.84499731173E+03  0.27606139322E+03  0.11156974470E+04  0.14265381673E+04  0.50400001928E-02 0.  1.
       -1    1    3    3    0  502  0.84499731173E+03 -0.27606139322E+03 -0.26399388166E+03  0.92732039729E+03  0.50400001928E-02 0. -1.
</event>
<event>
 5   0  0.9457742E-05  0.2205027E+04  0.7818609E-02  0.8516339E-01
        2   -1    0    0  501    0  0.00000000000E+00  0.00000000000E+00  0.17899114496E+04  0.17899114496E+04  0.25500000920E-02 0.  1.
       -2   -1    0    0    0  501  0.00000000000E+00  0.00000000000E+00 -0.67910389656E+03  0.67910389656E+03  0.25500000920E-02 0. -1.
    10030    2    1    2    0    0  0.00000000000E+00  0.00000000000E+00  0.11108075531E+04  0.24690153462E+04  0.22050268388E+04 0.  0.
        1    1    3    3  502    0 -0.71083282568E+03 -0.82065877929E+03  0.34068660658E+03  0.11379066315E+04  0.50400001928E-02 0. -1.
       -1    1    3    3    0  502  0.71083282568E+03  0.82065877929E+03  0.77012094647E+03  0.13311087147E+04  0.50400001928E-02 0.  1.
</event>
<event>
 5   0  0.9254673E-05  0.2308120E+04  0.7818609E-02  0.8474726E-01
       -2   -1    0    0    0  501  0.00000000000E+00  0.00000000000E+00  0.68395777536E+03  0.68395777537E+03  0.25500000920E-02 0. -1.
        2   -1    0    0  501    0  0.00000000000E+00  0.00000000000E+00 -0.19472766698E+04  0.19472766698E+04  0.25500000920E-02 0.  1.
    10030    2    1    2    0    0  0.00000000000E+00  0.00000000000E+00 -0.12633188944E+04  0.26312344451E+04  0.23081204640E+04 0.  0.
        2    1    3    3  502    0 -0.99224047131E+03 -0.51545715049E+03 -0.95734125163E+03  0.14719848841E+04  0.25500000920E-02 0. -1.
       -2    1    3    3    0  502  0.99224047131E+03  0.51545715049E+03 -0.30597764276E+03  0.11592495610E+04  0.25500000920E-02 0.  1.
</event>
<event>
 5   0  0.4174075E-05  0.2068137E+04  0.7818609E-02  0.8575411E-01
       -1   -1    0    0    0  501  0.00000000000E+00  0.00000000000E+00  0.91578156597E+03  0.91578156598E+03  0.50400001928E-02 0.  1.
        1   -1    0    0  501    0  0.00000000000E+00  0.00000000000E+00 -0.11676335808E+04  0.11676335808E+04  0.50400001928E-02 0. -1.
    10030    2    1    2    0    0  0.00000000000E+00  0.00000000000E+00 -0.25185201479E+03  0.20834151467E+04  0.20681366580E+04 0.  0.
        5    1    3    3  502    0 -0.33751367081E+03 -0.62808292059E+03  0.62852024243E+03  0.95050692699E+03  0.46999998093E+01 0.  1.
       -5    1    3    3    0  502  0.33751367081E+03  0.62808292059E+03 -0.88037225721E+03  0.11329082198E+04  0.46999998093E+01 0. -1.
</event>
<event>
 5   0  0.4188865E-05  0.2206358E+04  0.7818609E-02  0.8515787E-01
        1   -1    0    0  501    0  0.00000000000E+00  0.00000000000E+00  0.18542116527E+04  0.18542116527E+04  0.50400001928E-02 0.  1.
       -1   -1    0    0    0  501  0.00000000000E+00  0.00000000000E+00 -0.65634554844E+03  0.65634554846E+03  0.50400001928E-02 0. -1.
    10030    2    1    2    0    0  0.00000000000E+00  0.00000000000E+00  0.11978661043E+04  0.25105572012E+04  0.22063576901E+04 0.  0.
        3    1    3    3  502    0  0.11025148285E+04 -0.64510355301E+01  0.55600953835E+03  0.12347984370E+04  0.10100000352E+00 0. -1.
       -3    1    3    3    0  502 -0.11025148285E+04  0.64510355301E+01  0.64185656592E+03  0.12757587642E+04  0.10100000352E+00 0.  1.
</event>
<event>
 5   0  0.9179618E-05  0.2196316E+04  0.7818609E-02  0.8519963E-01
        2   -1    0    0  501    0  0.00000000000E+00  0.00000000000E+00  0.14159977631E+04  0.14159977631E+04  0.25500000920E-02 0.  1.
       -2   -1    0    0    0  501  0.00000000000E+00  0.00000000000E+00 -0.85166194334E+03  0.85166194335E+03  0.25500000920E-02 0. -1.
    10030    2    1    2    0    0  0.00000000000E+00  0.00000000000E+00  0.56433581973E+03  0.22676597064E+04  0.21963163767E+04 0.  0.
        3    1    3    3  502    0 -0.60639492089E+03 -0.20660045920E+03 -0.63874275060E+03  0.90464957938E+03  0.10100000352E+00 0. -1.
       -3    1    3    3    0  502  0.60639492089E+03  0.20660045920E+03  0.12030785703E+04  0.13630101270E+04  0.10100000352E+00 0.  1.
</event>
<event>
 5   0  0.9938176E-05  0.2062758E+04  0.7818609E-02  0.8577829E-01
       -2   -1    0    0    0  501  0.00000000000E+00  0.00000000000E+00  0.13430531198E+04  0.13430531198E+04  0.25500000920E-02 0. -1.
        2   -1    0    0  501    0  0.00000000000E+00  0.00000000000E+00 -0.79203289240E+03  0.79203289240E+03  0.25500000920E-02 0.  1.
    10030    2    1    2    0    0  0.00000000000E+00  0.00000000000E+00  0.55102022743E+03  0.21350860122E+04  0.20627576175E+04 0.  0.
        5    1    3    3  502    0 -0.18114731802E+03  0.71003283157E+03  0.10267406518E+04  0.12614196085E+04  0.46999998093E+01 0. -1.
       -5    1    3    3    0  502  0.18114731802E+03 -0.71003283157E+03 -0.47572042439E+03  0.87366640368E+03  0.46999998093E+01 0.  1.
</event>
<event>
 5   0  0.4174075E-05  0.2226695E+04  0.7818609E-02  0.8507398E-01
       -1   -1    0    0    0  501  0.00000000000E+00  0.00000000000E+00  0.76060232770E+03  0.76060232772E+03  0.50400001928E-02 0.  1.
        1   -1    0    0  501    0  0.00000000000E+00  0.00000000000E+00 -0.16296861023E+04  0.16296861023E+04  0.50400001928E-02 0. -1.
    10030    2    1    2    0    0  0.00000000000E+00  0.00000000000E+00 -0.86908377457E+03  0.23902884300E+04  0.22266953477E+04 0.  0.
        5    1    3    3  502    0 -0.15792959973E+03  0.10430724427E+04 -0.81646018355E+03  0.13340056973E+04  0.46999998093E+01 0.  1.
       -5    1    3    3    0  502  0.15792959973E+03 -0.10430724427E+04 -0.52623591026E+02  0.10562827327E+04  0.46999998093E+01 0. -1.
</event>
<event>
 5   0  0.9457742E-05  0.2237557E+04  0.7818609E-02  0.8502957E-01
       -2   -1    0    0    0  501  0.00000000000E+00  0.00000000000E+00  0.10359151701E+04  0.10359151701E+04  0.25500000920E-02 0.  1.
        2   -1    0    0  501    0  0.00000000000E+00  0.00000000000E+00 -0.12082697430E+04  0.12082697430E+04  0.25500000920E-02 0. -1.
    10030    2    1    2    0    0  0.00000000000E+00  0.00000000000E+00 -0.17235457290E+03  0.22441849130E+04  0.22375566641E+04 0.  0.
        1    1    3    3  502    0  0.36103685577E+03  0.83891763567E+03  0.56190597234E+03  0.10723193239E+04  0.50400001928E-02 0. -1.
       -1    1    3    3    0  502 -0.36103685577E+03 -0.83891763567E+03 -0.73426054524E+03  0.11718655891E+04  0.50400001928E-02 0.  1.
</event>
<event>
 5   0  0.4063293E-05  0.2160929E+04  0.7818609E-02  0.8534869E-01
       -1   -1    0    0    0  501  0.00000000000E+00  0.00000000000E+00  0.80941114018E+03  0.80941114020E+03  0.50400001928E-02 0.  1.
        1   -1    0    0  501    0  0.00000000000E+00  0.00000000000E+00 -0.14422874246E+04  0.14422874247E+04  0.50400001928E-02 0. -1.
    10030    2    1    2    0    0  0.00000000000E+00  0.00000000000E+00 -0.63287628446E+03  0.22516985648E+04  0.21609289751E+04 0.  0.
        1    1    3    3  502    0  0.10361986733E+04  0.29773788020E+03 -0.24240464362E+03  0.11050409708E+04  0.50400001928E-02 0. -1.
       -1    1    3    3    0  502 -0.10361986733E+04 -0.29773788020E+03 -0.39047164084E+03  0.11466575941E+04  0.50400001928E-02 0.  1.
</event>
<event>
 5   0  0.9179618E-05  0.2189227E+04  0.7818609E-02  0.8522926E-01
        2   -1    0    0  501    0  0.00000000000E+00  0.00000000000E+00  0.10281008511E+04  0.10281008511E+04  0.25500000920E-02 0.  1.
       -2   -1    0    0    0  501  0.00000000000E+00  0.00000000000E+00 -0.11654290430E+04  0.11654290430E+04  0.25500000920E-02 0. -1.
    10030    2    1    2    0    0  0.00000000000E+00  0.00000000000E+00 -0.13732819186E+03  0.21935298941E+04  0.21892268873E+04 0.  0.
        3    1    3    3  502    0 -0.73265902395E+03  0.26551331754E+03  0.70154180958E+03  0.10485454153E+04  0.10100000352E+00 0.  1.
       -3    1    3    3    0  502  0.73265902395E+03 -0.26551331754E+03 -0.83887000144E+03  0.11449844788E+04  0.10100000352E+00 0. -1.
</event>
<event>
 5   0  0.9442578E-05  0.2113499E+04  0.7818609E-02  0.8555320E-01
       -2   -1    0    0    0  501  0.00000000000E+00  0.00000000000E+00  0.10075607276E+04  0.10075607276E+04  0.25500000920E-02 0. -1.
        2   -1    0    0  501    0  0.00000000000E+00  0.00000000000E+00 -0.11083393807E+04  0.11083393808E+04  0.25500000920E-02 0.  1.
    10030    2    1    2    0    0  0.00000000000E+00  0.00000000000E+00 -0.10077865319E+03  0.21159001083E+04  0.21134987418E+04 0.  0.
        4    1    3    3  502    0 -0.66003817960E+03  0.82352988736E+03 -0.10398281407E+03  0.10605026697E+04  0.12699999809E+01 0.  1.
       -4    1    3    3    0  502  0.66003817960E+03 -0.82352988736E+03  0.32041608828E+01  0.10553974386E+04  0.12699999809E+01 0. -1.
</event>
<event>
 5   0  0.9254673E-05  0.2224644E+04  0.7818609E-02  0.8508240E-01
        2   -1    0    0  501    0  0.00000000000E+00  0.00000000000E+00  0.15779527989E+04  0.15779527989E+04  0.25500000920E-02 0.  1.
       -2   -1    0    0    0  501  0.00000000000E+00  0.00000000000E+00 -0.78409171583E+03  0.78409171583E+03  0.25500000920E-02 0. -1.
    10030    2    1    2    0    0  0.00000000000E+00  0.00000000000E+00  0.79386108310E+03  0.23620445148E+04  0.22246435378E+04 0.  0.
        2    1    3    3  502    0  0.38161971778E+03 -0.11479962418E+03  0.14995536248E+04  0.15516035693E+04  0.25500000920E-02 0.  1.
       -2    1    3    3    0  502 -0.38161971778E+03  0.11479962418E+03 -0.70569254167E+03  0.81044094546E+03  0.25500000920E-02 0. -1.
</event>
<event>
 5   0  0.9254673E-05  0.2217365E+04  0.7818609E-02  0.8511235E-01
        2   -1    0    0  501    0  0.00000000000E+00  0.00000000000E+00  0.94874737867E+03  0.94874737867E+03  0.25500000920E-02 0.  1.
       -2   -1    0    0    0  501  0.00000000000E+00  0.00000000000E+00 -0.12955781517E+04  0.12955781517E+04  0.25500000920E-02 0. -1.
    10030    2    1    2    0    0  0.00000000000E+00  0.00000000000E+00 -0.34683077307E+03  0.22443255304E+04  0.22173645396E+04 0.  0.
        2    1    3    3  502    0  0.25831729259E+03  0.52293354270E+03  0.78091106277E+03  0.97468425744E+03  0.25500000920E-02 0.  1.
       -2    1    3    3    0  502 -0.25831729259E+03 -0.52293354270E+03 -0.11277418358E+04  0.12696412730E+04  0.25500000920E-02 0. -1.
</event>
<event>
 5   0  0.9457742E-05  0.2227337E+04  0.7818609E-02  0.8507135E-01
       -2   -1    0    0    0  501  0.00000000000E+00  0.00000000000E+00  0.52069248919E+03  0.52069248919E+03  0.25500000920E-02 0.  1.
        2   -1    0    0  501    0  0.00000000000E+00  0.00000000000E+00 -0.23819382654E+04  0.23819382654E+04  0.25500000920E-02 0. -1.
    10030    2    1    2    0    0  0.00000000000E+00  0.00000000000E+00 -0.18612457762E+04  0.29026307546E+04  0.22273368533E+04 0.  0.
        1    1    3    3  502    0 -0.10138176099E+04 -0.42756833830E+03 -0.70635194532E+03  0.13075067498E+04  0.50400001928E-02 0.  1.
       -1    1    3    3    0  502  0.10138176099E+04  0.42756833830E+03 -0.11548938309E+04  0.15951240048E+04  0.50400001928E-02 0. -1.
</event>
<event>
 5   0  0.4174075E-05  0.2204365E+04  0.7818609E-02  0.8516614E-01
        1   -1    0    0  501    0  0.00000000000E+00  0.00000000000E+00  0.11557227757E+04  0.11557227757E+04  0.50400001928E-02 0.  1.
       -1   -1    0    0    0  501  0.00000000000E+00  0.00000000000E+00 -0.10511223658E+04  0.10511223658E+04  0.50400001928E-02 0. -1.
    10030    2    1    2    0    0  0.00000000000E+00  0.00000000000E+00  0.10460040991E+03  0.22068451414E+04  0.22043648139E+04 0.  0.
        5    1    3    3  502    0  0.23488101681E+03 -0.10439682292E+04 -0.21209013892E+03  0.10908909536E+04  0.46999998093E+01 0.  1.
       -5    1    3    3    0  502 -0.23488101681E+03  0.10439682292E+04  0.31669054883E+03  0.11159541878E+04  0.46999998093E+01 0. -1.
</event>
<event>
 5   0  0.4063293E-05  0.2142918E+04  0.7818609E-02  0.8542570E-01
       -1   -1    0    0    0  501  0.00000000000E+00  0.00000000000E+00  0.18242284509E+04  0.18242284510E+04  0.50400001928E-02 0.  1.
        1   -1    0    0  501    0  0.00000000000E+00  0.00000000000E+00 -0.62932058943E+03  0.62932058945E+03  0.50400001928E-02 0. -1.
    10030    2    1    2    0    0  0.00000000000E+00  0.00000000000E+00  0.11949078615E+04  0.24535490404E+04  0.21429181263E+04 0.  0.
        1    1    3    3  502    0 -0.76761094099E+03  0.10090762133E+03  0.14455074260E+04  0.16397867615E+04  0.50400001928E-02 0.  1.
       -1    1    3    3    0  502  0.76761094099E+03 -0.10090762133E+03 -0.25059956444E+03  0.81376227886E+03  0.50400001928E-02 0. -1.
</event>
<event>
 5   0  0.9457742E-05  0.2181758E+04  0.7818609E-02  0.8526059E-01
        2   -1    0    0  501    0  0.00000000000E+00  0.00000000000E+00  0.14229096656E+04  0.14229096656E+04  0.25500000920E-02 0.  1.
       -2   -1    0    0    0  501  0.00000000000E+00  0.00000000000E+00 -0.83632631430E+03  0.83632631430E+03  0.25500000920E-02 0. -1.
    10030    2    1    2    0    0  0.00000000000E+00  0.00000000000E+00  0.58658335128E+03  0.22592359799E+04  0.21817578199E+04 0.  0.
        1    1    3    3  502    0  0.43422254152E+03  0.59603495538E+03 -0.53912709048E+03  0.91349050532E+03  0.50400001928E-02 0. -1.
       -1    1    3    3    0  502 -0.43422254152E+03 -0.59603495538E+03  0.11257104418E+04  0.13457454746E+04  0.50400001928E-02 0.  1.
</event>
<event>
 5   0  0.4174030E-05  0.2187902E+04  0.7818609E-02  0.8523481E-01
       -1   -1    0    0    0  501  0.00000000000E+00  0.00000000000E+00  0.12857580162E+04  0.12857580162E+04  0.50400001928E-02 0.  1.
        1   -1    0    0  501    0  0.00000000000E+00  0.00000000000E+00 -0.93075734071E+03  0.93075734072E+03  0.50400001928E-02 0. -1.
    10030    2    1    2    0    0  0.00000000000E+00  0.00000000000E+00  0.35500067547E+03  0.22165153569E+04  0.21879019283E+04 0.  0.
        2    1    3    3  502    0  0.47673171839E+03  0.61568172496E+03 -0.60091785296E+03  0.98358496521E+03  0.25500000920E-02 0. -1.
       -2    1    3    3    0  502 -0.47673171839E+03 -0.61568172496E+03  0.95591852843E+03  0.12329303917E+04  0.25500000920E-02 0.  1.
</event>
<event>
 5   0  0.4188865E-05  0.2193008E+04  0.7818609E-02  0.8521344E-01
        1   -1    0    0  501    0  0.00000000000E+00  0.00000000000E+00  0.22663582250E+04  0.22663582250E+04  0.50400001928E-02 0. -1.
       -1   -1    0    0    0  501  0.00000000000E+00  0.00000000000E+00 -0.53050811119E+03  0.53050811122E+03  0.50400001928E-02 0.  1.
    10030    2    1    2    0    0  0.00000000000E+00  0.00000000000E+00  0.17358501138E+04  0.27968663362E+04  0.21930083641E+04 0.  0.
        3    1    3    3  502    0  0.27598047486E+03  0.52268290361E+02  0.22196966443E+04  0.22373981317E+04  0.10100000352E+00 0. -1.
       -3    1    3    3    0  502 -0.27598047486E+03 -0.52268290361E+02 -0.48384653047E+03  0.55946820458E+03  0.10100000352E+00 0.  1.
</event>
<event>
 5   0  0.4133418E-05  0.2023368E+04  0.7818609E-02  0.8595773E-01
        1   -1    0    0  501    0  0.00000000000E+00  0.00000000000E+00  0.55785201415E+03  0.55785201417E+03  0.50400001928E-02 0. -1.
       -1   -1    0    0    0  501  0.00000000000E+00  0.00000000000E+00 -0.18347244417E+04  0.18347244417E+04  0.50400001928E-02 0.  1.
    10030    2    1    2    0    0  0.00000000000E+00  0.00000000000E+00 -0.12768724275E+04  0.23925764558E+04  0.20233682070E+04 0.  0.
        4    1    3    3  502    0  0.54836260964E+03  0.27884324300E+03  0.31126484413E+03  0.68945088434E+03  0.12699999809E+01 0. -1.
       -4    1    3    3    0  502 -0.54836260964E+03 -0.27884324300E+03 -0.15881372717E+04  0.17031255715E+04  0.12699999809E+01 0.  1.
</event>
<event>
 5   0  0.9457742E-05  0.2126112E+04  0.7818609E-02  0.8549827E-01
        2   -1    0    0  501    0  0.00000000000E+00  0.00000000000E+00  0.19133573811E+04  0.19133573811E+04  0.25500000920E-02 0.  1.
       -2   -1    0    0    0  501  0.00000000000E+00  0.00000000000E+00 -0.59063112148E+03  0.59063112148E+03  0.25500000920E-02 0. -1.
    10030    2    1    2    0    0  0.00000000000E+00  0.00000000000E+00  0.13227262596E+04  0.25039885026E+04  0.21261123355E+04 0.  0.
        1    1    3    3  502    0  0.41570330941E+03 -0.83336149526E+02  0.18094752888E+04  0.18584819010E+04  0.50400001928E-02 0.  1.
       -1    1    3    3    0  502 -0.41570330941E+03  0.83336149526E+02 -0.48674902921E+03  0.64550660162E+03  0.50400001928E-02 0. -1.
</event>
<event>
 5   0  0.4174030E-05  0.2205392E+04  0.7818609E-02  0.8516187E-01
        1   -1    0    0  501    0  0.00000000000E+00  0.00000000000E+00  0.83870068193E+03  0.83870068195E+03  0.50400001928E-02 0. -1.
       -1   -1    0    0    0  501  0.00000000000E+00  0.00000000000E+00 -0.14497888969E+04  0.14497888969E+04  0.50400001928E-02 0.  1.
    10030    2    1    2    0    0  0.00000000000E+00  0.00000000000E+00 -0.61108821495E+03  0.22884895788E+04  0.22053924245E+04 0.  0.
        2    1    3    3  502    0  0.82705280081E+03  0.37764183956E+03  0.34191212778E+03  0.97135657585E+03  0.25500000920E-02 0. -1.
       -2    1    3    3    0  502 -0.82705280081E+03 -0.37764183956E+03 -0.95300034273E+03  0.13171330030E+04  0.25500000920E-02 0.  1.
</event>
<event>
 5   0  0.4188865E-05  0.2178411E+04  0.7818609E-02  0.8527468E-01
       -1   -1    0    0    0  501  0.00000000000E+00  0.00000000000E+00  0.95694251926E+03  0.95694251927E+03  0.50400001928E-02 0. -1.
        1   -1    0    0  501    0  0.00000000000E+00  0.00000000000E+00 -0.12397488418E+04  0.12397488419E+04  0.50400001928E-02 0.  1.
    10030    2    1    2    0    0  0.00000000000E+00  0.00000000000E+00 -0.28280632258E+03  0.21966913611E+04  0.21784107785E+04 0.  0.
        3    1    3    3  502    0  0.53502125793E+03  0.17186567800E+03 -0.10822833179E+04  0.12194764237E+04  0.10100000352E+00 0.  1.
       -3    1    3    3    0  502 -0.53502125793E+03 -0.17186567800E+03  0.79947699527E+03  0.97721493740E+03  0.10100000352E+00 0. -1.
</event>
<event>
 5   0  0.4174075E-05  0.2213261E+04  0.7818609E-02  0.8512929E-01
        1   -1    0    0  501    0  0.00000000000E+00  0.00000000000E+00  0.93484590498E+03  0.93484590500E+03  0.50400001928E-02 0.  1.
       -1   -1    0    0    0  501  0.00000000000E+00  0.00000000000E+00 -0.13099818222E+04  0.13099818222E+04  0.50400001928E-02 0. -1.
    10030    2    1    2    0    0  0.00000000000E+00  0.00000000000E+00 -0.37513591717E+03  0.22448277272E+04  0.22132610710E+04 0.  0.
        5    1    3    3  502    0  0.59676877179E+03  0.73978314895E+03 -0.76239355377E+03  0.12184736744E+04  0.46999998093E+01 0. -1.
       -5    1    3    3    0  502 -0.59676877179E+03 -0.73978314895E+03  0.38725763660E+03  0.10263540527E+04  0.46999998093E+01 0.  1.
</event>
<event>
 5   0  0.9457742E-05  0.2165964E+04  0.7818609E-02  0.8532730E-01
       -2   -1    0    0    0  501  0.00000000000E+00  0.00000000000E+00  0.13737057815E+04  0.13737057815E+04  0.25500000920E-02 0. -1.
        2   -1    0    0  501    0  0.00000000000E+00  0.00000000000E+00 -0.85378567592E+03  0.85378567593E+03  0.25500000920E-02 0.  1.
    10030    2    1    2    0    0  0.00000000000E+00  0.00000000000E+00  0.51992010559E+03  0.22274914574E+04  0.21659642834E+04 0.  0.
        1    1    3    3  502    0 -0.97287051245E+03  0.33904920853E+02  0.74801850775E+03  0.12276637429E+04  0.50400001928E-02 0. -1.
       -1    1    3    3    0  502  0.97287051245E+03 -0.33904920853E+02 -0.22809840217E+03  0.99982771454E+03  0.50400001928E-02 0.  1.
</event>
<event>
 5   0  0.4174075E-05  0.2181977E+04  0.7818609E-02  0.8525967E-01
       -1   -1    0    0    0  501  0.00000000000E+00  0.00000000000E+00  0.72038978736E+03  0.72038978738E+03  0.50400001928E-02 0. -1.
        1   -1    0    0  501    0  0.00000000000E+00  0.00000000000E+00 -0.16522394821E+04  0.16522394821E+04  0.50400001928E-02 0.  1.
    10030    2    1    2    0    0  0.00000000000E+00  0.00000000000E+00 -0.93184969473E+03  0.23726292695E+04  0.21819774969E+04 0.  0.
        5    1    3    3  502    0  0.23917134344E+03 -0.31845145692E+03 -0.15703582002E+04  0.16200806242E+04  0.46999998093E+01 0.  1.
       -5    1    3    3    0  502 -0.23917134344E+03  0.31845145692E+03  0.63850850549E+03  0.75254864528E+03  0.46999998093E+01 0. -1.
</event>
<event>
 5   0  0.9254673E-05  0.2219288E+04  0.7818609E-02  0.8510443E-01
       -2   -1    0    0    0  501  0.00000000000E+00  0.00000000000E+00  0.78483343182E+03  0.78483343182E+03  0.25500000920E-02 0.  1.
        2   -1    0    0  501    0  0.00000000000E+00  0.00000000000E+00 -0.15688802386E+04  0.15688802386E+04  0.25500000920E-02 0. -1.
    10030    2    1    2    0    0  0.00000000000E+00  0.00000000000E+00 -0.78404680680E+03  0.23537136704E+04  0.22192878694E+04 0.  0.
        2    1    3    3  502    0  0.21429132567E+02  0.87720416599E+03 -0.11124031850E+04  0.14168229256E+04  0.25500000920E-02 0. -1.
       -2    1    3    3    0  502 -0.21429132567E+02 -0.87720416599E+03  0.32835637824E+03  0.93689074479E+03  0.25500000920E-02 0.  1.
</event>
<event>
 5   0  0.4174030E-05  0.2181789E+04  0.7818609E-02  0.8526046E-01
       -1   -1    0    0    0  501  0.00000000000E+00  0.00000000000E+00  0.10231341155E+04  0.10231341155E+04  0.50400001928E-02 0. -1.
        1   -1    0    0  501    0  0.00000000000E+00  0.00000000000E+00 -0.11631426980E+04  0.11631426980E+04  0.50400001928E-02 0.  1.
    10030    2    1    2    0    0  0.00000000000E+00  0.00000000000E+00 -0.14000858250E+03  0.21862768135E+04  0.21817891516E+04 0.  0.
        2    1    3    3  502    0 -0.36831110645E+03 -0.97900449049E+03  0.24038775746E+03  0.10732609829E+04  0.25500000920E-02 0. -1.
       -2    1    3    3    0  502  0.36831110645E+03  0.97900449049E+03 -0.38039633996E+03  0.11130158305E+04  0.25500000920E-02 0.  1.
</event>
<event>
 5   0  0.9938176E-05  0.1738498E+04  0.7818609E-02  0.8739707E-01
       -2   -1    0    0    0  501  0.00000000000E+00  0.00000000000E+00  0.12268962706E+04  0.12268962706E+04  0.25500000920E-02 0. -1.
        2   -1    0    0  501    0  0.00000000000E+00  0.00000000000E+00 -0.61585772405E+03  0.61585772406E+03  0.25500000920E-02 0.  1.
    10030    2    1    2    0    0  0.00000000000E+00  0.00000000000E+00  0.61103854654E+03  0.18427539947E+04  0.17384976789E+04 0.  0.
        5    1    3    3  502    0  0.70984601310E+03  0.24935472186E+03  0.76695579476E+03  0.10743846707E+04  0.46999998093E+01 0.  1.
       -5    1    3    3    0  502 -0.70984601310E+03 -0.24935472186E+03 -0.15591724822E+03  0.76836932391E+03  0.46999998093E+01 0. -1.
</event>
<event>
 5   0  0.9442578E-05  0.2213701E+04  0.7818609E-02  0.8512747E-01
       -2   -1    0    0    0  501  0.00000000000E+00  0.00000000000E+00  0.54741830495E+03  0.54741830496E+03  0.25500000920E-02 0.  1.
        2   -1    0    0  501    0  0.00000000000E+00  0.00000000000E+00 -0.22379924126E+04  0.22379924126E+04  0.25500000920E-02 0. -1.
    10030    2    1    2    0    0  0.00000000000E+00  0.00000000000E+00 -0.16905741076E+04  0.27854107175E+04  0.22137009852E+04 0.  0.
        4    1    3    3  502    0  0.66953909121E+03  0.67256083822E+03 -0.12852538270E+03  0.95767482094E+03  0.12699999809E+01 0.  1.
       -4    1    3    3    0  502 -0.66953909121E+03 -0.67256083822E+03 -0.15620487249E+04  0.18277358966E+04  0.12699999809E+01 0. -1.
</event>
<event>
 5   0  0.9442578E-05  0.2298839E+04  0.7818609E-02  0.8478379E-01
       -2   -1    0    0    0  501  0.00000000000E+00  0.00000000000E+00  0.52863269506E+03  0.52863269507E+03  0.25500000920E-02 0. -1.
        2   -1    0    0  501    0  0.00000000000E+00  0.00000000000E+00 -0.24992112112E+04  0.24992112112E+04  0.25500000920E-02 0.  1.
    10030    2    1    2    0    0  0.00000000000E+00  0.00000000000E+00 -0.19705785161E+04  0.30278439062E+04  0.22988386269E+04 0.  0.
        4    1    3    3  502    0 -0.11479543810E+04 -0.44689991338E+01 -0.90912478593E+03  0.14643526632E+04  0.12699999809E+01 0.  1.
       -4    1    3    3    0  502  0.11479543810E+04  0.44689991338E+01 -0.10614537302E+04  0.15634912430E+04  0.12699999809E+01 0. -1.
</event>
<event>
 5   0  0.4174075E-05  0.2197304E+04  0.7818609E-02  0.8519551E-01
       -1   -1    0    0    0  501  0.00000000000E+00  0.00000000000E+00  0.11010378674E+04  0.11010378674E+04  0.50400001928E-02 0.  1.
        1   -1    0    0  501    0  0.00000000000E+00  0.00000000000E+00 -0.10962714435E+04  0.10962714435E+04  0.50400001928E-02 0. -1.
    10030    2    1    2    0    0  0.00000000000E+00  0.00000000000E+00  0.47664238493E+01  0.21973093109E+04  0.21973041412E+04 0.  0.
        5    1    3    3  502    0  0.37368365168E+03  0.22623344820E+03 -0.10056832637E+04  0.10964679482E+04  0.46999998093E+01 0. -1.
       -5    1    3    3    0  502 -0.37368365168E+03 -0.22623344820E+03  0.10104496876E+04  0.11008413626E+04  0.46999998093E+01 0.  1.
</event>
<event>
 5   0  0.4174075E-05  0.2211673E+04  0.7818609E-02  0.8513585E-01
        1   -1    0    0  501    0  0.00000000000E+00  0.00000000000E+00  0.19335837850E+04  0.19335837850E+04  0.50400001928E-02 0. -1.
       -1   -1    0    0    0  501  0.00000000000E+00  0.00000000000E+00 -0.63243918101E+03  0.63243918103E+03  0.50400001928E-02 0.  1.
    10030    2    1    2    0    0  0.00000000000E+00  0.00000000000E+00  0.13011446040E+04  0.25660229661E+04  0.22116728017E+04 0.  0.
        5    1    3    3  502    0 -0.17698879076E+03 -0.35536968568E+03 -0.54689392765E+03  0.67581632390E+03  0.46999998093E+01 0.  1.
       -5    1    3    3    0  502  0.17698879076E+03  0.35536968568E+03  0.18480385317E+04  0.18902066422E+04  0.46999998093E+01 0. -1.
</event>
<event>
 5   0  0.4174075E-05  0.2164637E+04  0.7818609E-02  0.8533293E-01
       -1   -1    0    0    0  501  0.00000000000E+00  0.00000000000E+00  0.15183836486E+04  0.15183836486E+04  0.50400001928E-02 0.  1.
        1   -1    0    0  501    0  0.00000000000E+00  0.00000000000E+00 -0.77148723496E+03  0.77148723498E+03  0.50400001928E-02 0. -1.
    10030    2    1    2    0    0  0.00000000000E+00  0.00000000000E+00  0.74689641364E+03  0.22898708836E+04  0.21646372469E+04 0.  0.
        5    1    3    3  502    0  0.17009311545E+03  0.62673685523E+03 -0.54247330041E+03  0.84618563287E+03  0.46999998093E+01 0. -1.
       -5    1    3    3    0  502 -0.17009311545E+03 -0.62673685523E+03  0.12893697141E+04  0.14436852507E+04  0.46999998093E+01 0.  1.
</event>
<event>
 5   0  0.9442578E-05  0.2183142E+04  0.7818609E-02  0.8525478E-01
        2   -1    0    0  501    0  0.00000000000E+00  0.00000000000E+00  0.12858576551E+04  0.12858576551E+04  0.25500000920E-02 0.  1.
       -2   -1    0    0    0  501  0.00000000000E+00  0.00000000000E+00 -0.92664015207E+03  0.92664015208E+03  0.25500000920E-02 0. -1.
    10030    2    1    2    0    0  0.00000000000E+00  0.00000000000E+00  0.35921750307E+03  0.22124978072E+04  0.21831420779E+04 0.  0.
        4    1    3    3  502    0 -0.19789910341E+03 -0.34509318468E+03  0.12097772240E+04  0.12735053615E+04  0.12699999809E+01 0.  1.
       -4    1    3    3    0  502  0.19789910341E+03  0.34509318468E+03 -0.85055972095E+03  0.93899244568E+03  0.12699999809E+01 0. -1.
</event>
<event>
 5   0  0.9938176E-05  0.2199476E+04  0.7818609E-02  0.8518646E-01
        2   -1    0    0  501    0  0.00000000000E+00  0.00000000000E+00  0.46935946836E+03  0.46935946837E+03  0.25500000920E-02 0.  1.
       -2   -1    0    0    0  501  0.00000000000E+00  0.00000000000E+00 -0.25767528021E+04  0.25767528021E+04  0.25500000920E-02 0. -1.
    10030    2    1    2    0    0  0.00000000000E+00  0.00000000000E+00 -0.21073933338E+04  0.30461122705E+04  0.21994756878E+04 0.  0.
        5    1    3    3  502    0 -0.63021261207E+03 -0.48266333538E+03 -0.21077607990E+04  0.22522898365E+04  0.46999998093E+01 0. -1.
       -5    1    3    3    0  502  0.63021261207E+03  0.48266333538E+03  0.36746521372E+00  0.79382243403E+03  0.46999998093E+01 0.  1.
</event>
<event>
 5   0  0.4188865E-05  0.2190277E+04  0.7818609E-02  0.8522486E-01
       -1   -1    0    0    0  501  0.00000000000E+00  0.00000000000E+00  0.68828473579E+03  0.68828473581E+03  0.50400001928E-02 0. -1.
        1   -1    0    0  501    0  0.00000000000E+00  0.00000000000E+00 -0.17424884146E+04  0.17424884146E+04  0.50400001928E-02 0.  1.
    10030    2    1    2    0    0  0.00000000000E+00  0.00000000000E+00 -0.10542036788E+04  0.24307731504E+04  0.21902768574E+04 0.  0.
        3    1    3    3  502    0  0.19679202668E+03  0.53912556641E+03  0.50801944071E+03  0.76646411557E+03  0.10100000352E+00 0. -1.
       -3    1    3    3    0  502 -0.19679202668E+03 -0.53912556641E+03 -0.15622231195E+04  0.16643090348E+04  0.10100000352E+00 0.  1.
</event>
<event>
 5   0  0.9442578E-05  0.2181251E+04  0.7818609E-02  0.8526273E-01
        2   -1    0    0  501    0  0.00000000000E+00  0.00000000000E+00  0.13354257280E+04  0.13354257280E+04  0.25500000920E-02 0.  1.
       -2   -1    0    0    0  501  0.00000000000E+00  0.00000000000E+00 -0.89070017863E+03  0.89070017863E+03  0.25500000920E-02 0. -1.
    10030    2    1    2    0    0  0.00000000000E+00  0.00000000000E+00  0.44472554940E+03  0.22261259067E+04  0.21812509571E+04 0.  0.
        4    1    3    3  502    0  0.42116091484E+02 -0.27592368515E+03  0.12983559184E+04  0.13280200861E+04  0.12699999809E+01 0.  1.
       -4    1    3    3    0  502 -0.42116091484E+02  0.27592368515E+03 -0.85363036902E+03  0.89810582060E+03  0.12699999809E+01 0. -1.
</event>
<event>
 5   0  0.9457742E-05  0.2222359E+04  0.7818609E-02  0.8509179E-01
        2   -1    0    0  501    0  0.00000000000E+00  0.00000000000E+00  0.20782704188E+04  0.20782704188E+04  0.25500000920E-02 0. -1.
       -2   -1    0    0    0  501  0.00000000000E+00  0.00000000000E+00 -0.59410944077E+03  0.59410944078E+03  0.25500000920E-02 0.  1.
    10030    2    1    2    0    0  0.00000000000E+00  0.00000000000E+00  0.14841609781E+04  0.26723798596E+04  0.22223591756E+04 0.  0.
        1    1    3    3  502    0 -0.56505246389E+02 -0.10111979846E+04  0.19233309339E+03  0.10308764357E+04  0.50400001928E-02 0.  1.
       -1    1    3    3    0  502  0.56505246389E+02  0.10111979846E+04  0.12918278847E+04  0.16415034239E+04  0.50400001928E-02 0. -1.
</event>
<event>
 5   0  0.4188865E-05  0.2176942E+04  0.7818609E-02  0.8528087E-01
       -1   -1    0    0    0  501  0.00000000000E+00  0.00000000000E+00  0.79242669376E+03  0.79242669377E+03  0.50400001928E-02 0. -1.
        1   -1    0    0  501    0  0.00000000000E+00  0.00000000000E+00 -0.14951146716E+04  0.14951146716E+04  0.50400001928E-02 0.  1.
    10030    2    1    2    0    0  0.00000000000E+00  0.00000000000E+00 -0.70268797785E+03  0.22875413654E+04  0.21769416860E+04 0.  0.
        3    1    3    3  502    0  0.69674178808E+03 -0.80307432454E+03 -0.59641208877E+03  0.12190508110E+04  0.10100000352E+00 0. -1.
       -3    1    3    3    0  502 -0.69674178808E+03  0.80307432454E+03 -0.10627588909E+03  0.10684905544E+04  0.10100000352E+00 0.  1.
</event>
<event>
 5   0  0.9179618E-05  0.2216605E+04  0.7818609E-02  0.8511548E-01
       -2   -1    0    0    0  501  0.00000000000E+00  0.00000000000E+00  0.12209964155E+04  0.12209964155E+04  0.25500000920E-02 0.  1.
        2   -1    0    0  501    0  0.00000000000E+00  0.00000000000E+00 -0.10060103005E+04  0.10060103005E+04  0.25500000920E-02 0. -1.
    10030    2    1    2    0    0  0.00000000000E+00  0.00000000000E+00  0.21498611501E+03  0.22270067160E+04  0.22166054867E+04 0.  0.
        3    1    3    3  502    0 -0.37926030945E+03  0.17953510664E+03  0.11381055968E+04  0.12129944751E+04  0.10100000352E+00 0.  1.
       -3    1    3    3    0  502  0.37926030945E+03 -0.17953510664E+03 -0.92311948184E+03  0.10140122409E+04  0.10100000352E+00 0. -1.
</event>
<event>
 5   0  0.4188865E-05  0.2765070E+04  0.7818609E-02  0.8314195E-01
        1   -1    0    0  501    0  0.00000000000E+00  0.00000000000E+00  0.71191552569E+03  0.71191552571E+03  0.50400001928E-02 0.  1.
       -1   -1    0    0    0  501  0.00000000000E+00  0.00000000000E+00 -0.26848735457E+04  0.26848735457E+04  0.50400001928E-02 0. -1.
    10030    2    1    2    0    0  0.00000000000E+00  0.00000000000E+00 -0.19729580200E+04  0.33967890714E+04  0.27650700980E+04 0.  0.
        3    1    3    3  502    0  0.57445713686E+03 -0.12575236476E+04 -0.99389320153E+03  0.17027009228E+04  0.10100000352E+00 0. -1.
       -3    1    3    3    0  502 -0.57445713686E+03  0.12575236476E+04 -0.97906481846E+03  0.16940881486E+04  0.10100000352E+00 0.  1.
</event>
<event>
 5   0  0.4174075E-05  0.2205937E+04  0.7818609E-02  0.8515961E-01
        1   -1    0    0  501    0  0.00000000000E+00  0.00000000000E+00  0.25463131046E+04  0.25463131046E+04  0.50400001928E-02 0.  1.
       -1   -1    0    0    0  501  0.00000000000E+00  0.00000000000E+00 -0.47776529812E+03  0.47776529814E+03  0.50400001928E-02 0. -1.
    10030    2    1    2    0    0  0.00000000000E+00  0.00000000000E+00  0.20685478065E+04  0.30240784028E+04  0.22059374783E+04 0.  0.
        5    1    3    3  502    0 -0.71080468947E+03 -0.84144788720E+03  0.95624081494E+03  0.14586625517E+04  0.46999998093E+01 0. -1.
       -5    1    3    3    0  502  0.71080468947E+03  0.84144788720E+03  0.11123069915E+04  0.15654158511E+04  0.46999998093E+01 0.  1.
</event>
<event>
 5   0  0.4063293E-05  0.2216054E+04  0.7818609E-02  0.8511775E-01
       -1   -1    0    0    0  501  0.00000000000E+00  0.00000000000E+00  0.95341601919E+03  0.95341601921E+03  0.50400001928E-02 0.  1.
        1   -1    0    0  501    0  0.00000000000E+00  0.00000000000E+00 -0.12877109905E+04  0.12877109905E+04  0.50400001928E-02 0. -1.
    10030    2    1    2    0    0  0.00000000000E+00  0.00000000000E+00 -0.33429497132E+03  0.22411270097E+04  0.22160544095E+04 0.  0.
        1    1    3    3  502    0 -0.59004239793E+02 -0.69647686735E+03  0.70232549286E+03  0.99086963069E+03  0.50400001928E-02 0.  1.
       -1    1    3    3    0  502  0.59004239793E+02  0.69647686735E+03 -0.10366204642E+04  0.12502573790E+04  0.50400001928E-02 0. -1.
</event>
<event>
 5   0  0.4063293E-05  0.2100017E+04  0.7818609E-02  0.8561236E-01
        1   -1    0    0  501    0  0.00000000000E+00  0.00000000000E+00  0.18142620105E+04  0.18142620105E+04  0.50400001928E-02 0.  1.
       -1   -1    0    0    0  501  0.00000000000E+00  0.00000000000E+00 -0.60769496257E+03  0.60769496259E+03  0.50400001928E-02 0. -1.
    10030    2    1    2    0    0  0.00000000000E+00  0.00000000000E+00  0.12065670480E+04  0.24219569731E+04  0.21000170329E+04 0.  0.
        1    1    3    3  502    0 -0.67916336738E+03  0.77018414271E+03  0.85614749405E+03  0.13369498962E+04  0.50400001928E-02 0.  1.
       -1    1    3    3    0  502  0.67916336738E+03 -0.77018414271E+03  0.35041955392E+03  0.10850070770E+04  0.50400001928E-02 0. -1.
</event>
<event>
 5   0  0.9179618E-05  0.2181074E+04  0.7818609E-02  0.8526347E-01
       -2   -1    0    0    0  501  0.00000000000E+00  0.00000000000E+00  0.64107868759E+03  0.64107868760E+03  0.25500000920E-02 0.  1.
        2   -1    0    0  501    0  0.00000000000E+00  0.00000000000E+00 -0.18551099724E+04  0.18551099724E+04  0.25500000920E-02 0. -1.
    10030    2    1    2    0    0  0.00000000000E+00  0.00000000000E+00 -0.12140312848E+04  0.24961886600E+04  0.21810744751E+04 0.  0.
        3    1    3    3  502    0 -0.45166751053E+03  0.25026216709E+03  0.49229969831E+03  0.71343794089E+03  0.10100000352E+00 0.  1.
       -3    1    3    3    0  502  0.45166751053E+03 -0.25026216709E+03 -0.17063309831E+04  0.17827507191E+04  0.10100000352E+00 0. -1.
</event>
<event>
 5   0  0.4063293E-05  0.2257614E+04  0.7818609E-02  0.8494824E-01
       -1   -1    0    0    0  501  0.00000000000E+00  0.00000000000E+00  0.80784766561E+03  0.80784766562E+03  0.50400001928E-02 0. -1.
        1   -1    0    0  501    0  0.00000000000E+00  0.00000000000E+00 -0.15772833683E+04  0.15772833683E+04  0.50400001928E-02 0.  1.
    10030    2    1    2    0    0  0.00000000000E+00  0.00000000000E+00 -0.76943570267E+03  0.23851310339E+04  0.22576135073E+04 0.  0.
        1    1    3    3  502    0 -0.63830644325E+03 -0.86546929486E+03 -0.74722016140E+03  0.13095076118E+04  0.50400001928E-02 0.  1.
       -1    1    3    3    0  502  0.63830644325E+03  0.86546929486E+03 -0.22215541279E+02  0.10756234221E+04  0.50400001928E-02 0. -1.
</event>
<event>
 5   0  0.4174030E-05  0.2198432E+04  0.7818609E-02  0.8519081E-01
        1   -1    0    0  501    0  0.00000000000E+00  0.00000000000E+00  0.15101996347E+04  0.15101996347E+04  0.50400001928E-02 0.  1.
       -1   -1    0    0    0  501  0.00000000000E+00  0.00000000000E+00 -0.80007709696E+03  0.80007709698E+03  0.50400001928E-02 0. -1.
    10030    2    1    2    0    0  0.00000000000E+00  0.00000000000E+00  0.71012253772E+03  0.23102767317E+04  0.21984322956E+04 0.  0.
        2    1    3    3  502    0 -0.38555847563E+03  0.81776574143E+03  0.10120722525E+04  0.13570874660E+04  0.25500000920E-02 0.  1.
       -2    1    3    3    0  502  0.38555847563E+03 -0.81776574143E+03 -0.30194971478E+03  0.95318926570E+03  0.25500000920E-02 0. -1.
</event>
<event>
 5   0  0.4174075E-05  0.2178543E+04  0.7818609E-02  0.8527412E-01
        1   -1    0    0  501    0  0.00000000000E+00  0.00000000000E+00  0.12215609138E+04  0.12215609138E+04  0.50400001928E-02 0.  1.
       -1   -1    0    0    0  501  0.00000000000E+00  0.00000000000E+00 -0.97130847194E+03  0.97130847196E+03  0.50400001928E-02 0. -1.
    10030    2    1    2    0    0  0.00000000000E+00  0.00000000000E+00  0.25025244186E+03  0.21928693858E+04  0.21785430587E+04 0.  0.
        5    1    3    3  502    0 -0.11940222996E+03  0.15909998834E+03  0.12031126843E+04  0.12194555835E+04  0.46999998093E+01 0.  1.
       -5    1    3    3    0  502  0.11940222996E+03 -0.15909998834E+03 -0.95286024249E+03  0.97341380231E+03  0.46999998093E+01 0. -1.
</event>
<event>
 5   0  0.9457742E-05  0.2262010E+04  0.7818609E-02  0.8493052E-01
        2   -1    0    0  501    0  0.00000000000E+00  0.00000000000E+00  0.18532504054E+04  0.18532504054E+04  0.25500000920E-02 0.  1.
       -2   -1    0    0    0  501  0.00000000000E+00  0.00000000000E+00 -0.69023193055E+03  0.69023193055E+03  0.25500000920E-02 0. -1.
    10030    2    1    2    0    0  0.00000000000E+00  0.00000000000E+00  0.11630184749E+04  0.25434823360E+04  0.22620102609E+04 0.  0.
        1    1    3    3  502    0  0.57093096890E+03 -0.58731338720E+03  0.14584768902E+04  0.16727384808E+04  0.50400001928E-02 0.  1.
       -1    1    3    3    0  502 -0.57093096890E+03  0.58731338720E+03 -0.29545841532E+03  0.87074385513E+03  0.50400001928E-02 0. -1.
</event>
<event>
 5   0  0.9179618E-05  0.2198888E+04  0.7818609E-02  0.8518891E-01
       -2   -1    0    0    0  501  0.00000000000E+00  0.00000000000E+00  0.11525594980E+04  0.11525594980E+04  0.25500000920E-02 0.  1.
        2   -1    0    0  501    0  0.00000000000E+00  0.00000000000E+00 -0.10487762522E+04  0.10487762522E+04  0.25500000920E-02 0. -1.
    10030    2    1    2    0    0  0.00000000000E+00  0.00000000000E+00  0.10378324586E+03  0.22013357502E+04  0.21988879287E+04 0.  0.
        3    1    3    3  502    0  0.39927066180E+03  0.32244931342E+03  0.10252838337E+04  0.11465590133E+04  0.10100000352E+00 0.  1.
       -3    1    3    3    0  502 -0.39927066180E+03 -0.32244931342E+03 -0.92150058786E+03  0.10547767369E+04  0.10100000352E+00 0. -1.
</event>
<event>
 5   0  0.4133418E-05  0.2213615E+04  0.7818609E-02  0.8512782E-01
        1   -1    0    0  501    0  0.00000000000E+00  0.00000000000E+00  0.18805759161E+04  0.18805759162E+04  0.50400001928E-02 0.  1.
       -1   -1    0    0    0  501  0.00000000000E+00  0.00000000000E+00 -0.65140861186E+03  0.65140861188E+03  0.50400001928E-02 0. -1.
    10030    2    1    2    0    0  0.00000000000E+00  0.00000000000E+00  0.12291673043E+04  0.25319845280E+04  0.22136154563E+04 0.  0.
        4    1    3    3  502    0  0.40757458839E+03  0.99933179012E+03  0.33384401254E+03  0.11297054968E+04  0.12699999809E+01 0.  1.
       -4    1    3    3    0  502 -0.40757458839E+03 -0.99933179012E+03  0.89532329175E+03  0.14022790313E+04  0.12699999809E+01 0. -1.
</event>
<event>
 5   0  0.4174030E-05  0.2206987E+04  0.7818609E-02  0.8515526E-01
        1   -1    0    0  501    0  0.00000000000E+00  0.00000000000E+00  0.22220674623E+04  0.22220674623E+04  0.50400001928E-02 0. -1.
       -1   -1    0    0    0  501  0.00000000000E+00  0.00000000000E+00 -0.54800212465E+03  0.54800212468E+03  0.50400001928E-02 0.  1.
    10030    2    1    2    0    0  0.00000000000E+00  0.00000000000E+00  0.16740653376E+04  0.27700695870E+04  0.22069868060E+04 0.  0.
        2    1    3    3  502    0  0.34432664995E+03 -0.95543018701E+03  0.29529913323E+03  0.10576432585E+04  0.25500000920E-02 0.  1.
       -2    1    3    3    0  502 -0.34432664995E+03  0.95543018701E+03  0.13787662044E+04  0.17124263285E+04  0.25500000920E-02 0. -1.
</event>
<event>
 5   0  0.4133418E-05  0.2178122E+04  0.7818609E-02  0.8527590E-01
       -1   -1    0    0    0  501  0.00000000000E+00  0.00000000000E+00  0.18688030957E+04  0.18688030957E+04  0.50400001928E-02 0.  1.
        1   -1    0    0  501    0  0.00000000000E+00  0.00000000000E+00 -0.63465990535E+03  0.63465990537E+03  0.50400001928E-02 0. -1.
    10030    2    1    2    0    0  0.00000000000E+00  0.00000000000E+00  0.12341431904E+04  0.25034630011E+04  0.21781224905E+04 0.  0.
        4    1    3    3  502    0 -0.80581324179E+03  0.72665569537E+03  0.50993166922E+03  0.11989142590E+04  0.12699999809E+01 0. -1.
       -4    1    3    3    0  502  0.80581324179E+03 -0.72665569537E+03  0.72421152118E+03  0.13045487421E+04  0.12699999809E+01 0.  1.
</event>
<event>
 5   0  0.4063293E-05  0.2253257E+04  0.7818609E-02  0.8496583E-01
        1   -1    0    0  501    0  0.00000000000E+00  0.00000000000E+00  0.10144366089E+04  0.10144366089E+04  0.50400001928E-02 0. -1.
       -1   -1    0    0    0  501  0.00000000000E+00  0.00000000000E+00 -0.12512281769E+04  0.12512281770E+04  0.50400001928E-02 0.  1.
    10030    2    1    2    0    0  0.00000000000E+00  0.00000000000E+00 -0.23679156806E+03  0.22656647859E+04  0.22532569039E+04 0.  0.
        1    1    3    3  502    0 -0.37391828240E+02  0.65823783029E+03 -0.10369999737E+04  0.12288385311E+04  0.50400001928E-02 0.  1.
       -1    1    3    3    0  502  0.37391828240E+02 -0.65823783029E+03  0.80020840565E+03  0.10368262547E+04  0.50400001928E-02 0. -1.
</event>
<event>
 5   0  0.3283125E-05  0.2208347E+04  0.7818609E-02  0.8514962E-01
        3   -1    0    0  501    0  0.00000000000E+00  0.00000000000E+00  0.17010110594E+04  0.17010110624E+04  0.10100000352E+00 0. -1.
       -3   -1    0    0    0  501  0.00000000000E+00  0.00000000000E+00 -0.71674944952E+03  0.71674945664E+03  0.10100000352E+00 0.  1.
    10030    2    1    2    0    0  0.00000000000E+00  0.00000000000E+00  0.98426160992E+03  0.24177605191E+04  0.22083466691E+04 0.  0.
        1    1    3    3  502    0  0.46239294523E+03  0.49859499081E+03 -0.46030349992E+03  0.82114768021E+03  0.50400001928E-02 0.  1.
       -1    1    3    3    0  502 -0.46239294523E+03 -0.49859499081E+03  0.14445651098E+04  0.15966128389E+04  0.50400001928E-02 0. -1.
</event>
<event>
 5   0  0.4063293E-05  0.2218106E+04  0.7818609E-02  0.8510930E-01
        1   -1    0    0  501    0  0.00000000000E+00  0.00000000000E+00  0.94528528438E+03  0.94528528440E+03  0.50400001928E-02 0.  1.
       -1   -1    0    0    0  501  0.00000000000E+00  0.00000000000E+00 -0.13011930239E+04  0.13011930239E+04  0.50400001928E-02 0. -1.
    10030    2    1    2    0    0  0.00000000000E+00  0.00000000000E+00 -0.35590773952E+03  0.22464783083E+04  0.22181060549E+04 0.  0.
        1    1    3    3  502    0  0.78586152092E+03  0.46206786365E+03  0.46172106126E+03  0.10218959727E+04  0.50400001928E-02 0. -1.
       -1    1    3    3    0  502 -0.78586152092E+03 -0.46206786365E+03 -0.81762880079E+03  0.12245823356E+04  0.50400001928E-02 0.  1.
</event>
<event>
 5   0  0.9442578E-05  0.2217682E+04  0.7818609E-02  0.8511104E-01
       -2   -1    0    0    0  501  0.00000000000E+00  0.00000000000E+00  0.53164961711E+03  0.53164961711E+03  0.25500000920E-02 0. -1.
        2   -1    0    0  501    0  0.00000000000E+00  0.00000000000E+00 -0.23126675595E+04  0.23126675595E+04  0.25500000920E-02 0.  1.
    10030    2    1    2    0    0  0.00000000000E+00  0.00000000000E+00 -0.17810179424E+04  0.28443171766E+04  0.22176824142E+04 0.  0.
        4    1    3    3  502    0  0.71562724523E+02  0.10914820418E+04 -0.65726250980E+03  0.12761073194E+04  0.12699999809E+01 0. -1.
       -4    1    3    3    0  502 -0.71562724523E+02 -0.10914820418E+04 -0.11237554326E+04  0.15682098572E+04  0.12699999809E+01 0.  1.
</event>
<event>
 5   0  0.9442578E-05  0.2184075E+04  0.7818609E-02  0.8525086E-01
        2   -1    0    0  501    0  0.00000000000E+00  0.00000000000E+00  0.71009155905E+03  0.71009155905E+03  0.25500000920E-02 0. -1.
       -2   -1    0    0    0  501  0.00000000000E+00  0.00000000000E+00 -0.16794257402E+04  0.16794257402E+04  0.25500000920E-02 0.  1.
    10030    2    1    2    0    0  0.00000000000E+00  0.00000000000E+00 -0.96933418112E+03  0.23895172992E+04  0.21840751289E+04 0.  0.
        4    1    3    3  502    0 -0.95048475572E+03  0.92694321391E+02 -0.10641397828E+04  0.14298281709E+04  0.12699999809E+01 0.  1.
       -4    1    3    3    0  502  0.95048475572E+03 -0.92694321391E+02  0.94805601642E+02  0.95968912835E+03  0.12699999809E+01 0. -1.
</event>
<event>
 5   0  0.4063293E-05  0.2236188E+04  0.7818609E-02  0.8503515E-01
       -1   -1    0    0    0  501  0.00000000000E+00  0.00000000000E+00  0.13186163469E+04  0.13186163469E+04  0.50400001928E-02 0.  1.
        1   -1    0    0  501    0  0.00000000000E+00  0.00000000000E+00 -0.94806552106E+03  0.94806552108E+03  0.50400001928E-02 0. -1.
    10030    2    1    2    0    0  0.00000000000E+00  0.00000000000E+00  0.37055082586E+03  0.22666818680E+04  0.22361884483E+04 0.  0.
        1    1    3    3  502    0 -0.93243083655E+02 -0.93088710023E+03 -0.43535618583E+03  0.10318818123E+04  0.50400001928E-02 0. -1.
       -1    1    3    3    0  502  0.93243083655E+02  0.93088710023E+03  0.80590701169E+03  0.12348000557E+04  0.50400001928E-02 0.  1.
</event>
<event>
 5   0  0.4133418E-05  0.2200138E+04  0.7818609E-02  0.8518371E-01
        1   -1    0    0  501    0  0.00000000000E+00  0.00000000000E+00  0.11104520078E+04  0.11104520078E+04  0.50400001928E-02 0. -1.
       -1   -1    0    0    0  501  0.00000000000E+00  0.00000000000E+00 -0.10897830533E+04  0.10897830533E+04  0.50400001928E-02 0.  1.
    10030    2    1    2    0    0  0.00000000000E+00  0.00000000000E+00  0.20668954541E+02  0.22002350611E+04  0.22001379772E+04 0.  0.
        4    1    3    3  502    0  0.91491563225E+03 -0.21174073860E+03 -0.56261786051E+03  0.10947352303E+04  0.12699999809E+01 0.  1.
       -4    1    3    3    0  502 -0.91491563225E+03  0.21174073860E+03  0.58328681505E+03  0.11054998309E+04  0.12699999809E+01 0. -1.
</event>
<event>
 5   0  0.9442578E-05  0.2191553E+04  0.7818609E-02  0.8521952E-01
       -2   -1    0    0    0  501  0.00000000000E+00  0.00000000000E+00  0.10866968468E+04  0.10866968468E+04  0.25500000920E-02 0.  1.
        2   -1    0    0  501    0  0.00000000000E+00  0.00000000000E+00 -0.11049315768E+04  0.11049315768E+04  0.25500000920E-02 0. -1.
    10030    2    1    2    0    0  0.00000000000E+00  0.00000000000E+00 -0.18234729999E+02  0.21916284235E+04  0.21915525642E+04 0.  0.
        4    1    3    3  502    0 -0.26833971003E+03 -0.56136725709E+03 -0.91113786071E+03  0.11033191793E+04  0.12699999809E+01 0. -1.
       -4    1    3    3    0  502  0.26833971003E+03  0.56136725709E+03  0.89290313072E+03  0.10883092442E+04  0.12699999809E+01 0.  1.
</event>
<event>
 5   0  0.9442578E-05  0.2193667E+04  0.7818609E-02  0.8521069E-01
       -2   -1    0    0    0  501  0.00000000000E+00  0.00000000000E+00  0.50732961897E+03  0.50732961898E+03  0.25500000920E-02 0.  1.
        2   -1    0    0  501    0  0.00000000000E+00  0.00000000000E+00 -0.23713247249E+04  0.23713247249E+04  0.25500000920E-02 0. -1.
    10030    2    1    2    0    0  0.00000000000E+00  0.00000000000E+00 -0.18639951060E+04  0.28786543439E+04  0.21936665828E+04 0.  0.
        4    1    3    3  502    0  0.62448775987E+03 -0.85606233097E+02  0.24591540764E+03  0.67660135234E+03  0.12699999809E+01 0.  1.
       -4    1    3    3    0  502 -0.62448775987E+03  0.85606233097E+02 -0.21099105136E+04  0.22020529916E+04  0.12699999809E+01 0. -1.
</event>
<event>
 5   0  0.9938176E-05  0.2233849E+04  0.7818609E-02  0.8504470E-01
        2   -1    0    0  501    0  0.00000000000E+00  0.00000000000E+00  0.13518643829E+04  0.13518643829E+04  0.25500000920E-02 0.  1.
       -2   -1    0    0    0  501  0.00000000000E+00  0.00000000000E+00 -0.92281498476E+03  0.92281498476E+03  0.25500000920E-02 0. -1.
    10030    2    1    2    0    0  0.00000000000E+00  0.00000000000E+00  0.42904939810E+03  0.22746793676E+04  0.22338493323E+04 0.  0.
        5    1    3    3  502    0 -0.90797819280E+02 -0.25933740574E+02 -0.91873295440E+03  0.92358493621E+03  0.46999998093E+01 0. -1.
       -5    1    3    3    0  502  0.90797819280E+02  0.25933740574E+02  0.13477823525E+04  0.13510944314E+04  0.46999998093E+01 0.  1.
</event>
<event>
 5   0  0.9457742E-05  0.2185309E+04  0.7818609E-02  0.8524568E-01
       -2   -1    0    0    0  501  0.00000000000E+00  0.00000000000E+00  0.10904656971E+04  0.10904656971E+04  0.25500000920E-02 0. -1.
        2   -1    0    0  501    0  0.00000000000E+00  0.00000000000E+00 -0.10948472039E+04  0.10948472039E+04  0.25500000920E-02 0.  1.
    10030    2    1    2    0    0  0.00000000000E+00  0.00000000000E+00 -0.43815068324E+01  0.21853129010E+04  0.21853085086E+04 0.  0.
        1    1    3    3  502    0 -0.49774109621E+03 -0.73143045805E+03 -0.64340698719E+03  0.10939420757E+04  0.50400001928E-02 0.  1.
       -1    1    3    3    0  502  0.49774109621E+03  0.73143045805E+03  0.63902548036E+03  0.10913708253E+04  0.50400001928E-02 0. -1.
</event>
<event>
 5   0  0.4174075E-05  0.2206046E+04  0.7818609E-02  0.8515916E-01
        1   -1    0    0  501    0  0.00000000000E+00  0.00000000000E+00  0.10822115771E+04  0.10822115771E+04  0.50400001928E-02 0.  1.
       -1   -1    0    0    0  501  0.00000000000E+00  0.00000000000E+00 -0.11242343207E+04  0.11242343207E+04  0.50400001928E-02 0. -1.
    10030    2    1    2    0    0  0.00000000000E+00  0.00000000000E+00 -0.42022743625E+02  0.22064458979E+04  0.22060456906E+04 0.  0.
        5    1    3    3  502    0 -0.32457577775E+03 -0.70706972196E+03 -0.80303573932E+03  0.11181169509E+04  0.46999998093E+01 0. -1.
       -5    1    3    3    0  502  0.32457577775E+03  0.70706972196E+03  0.76101299570E+03  0.10883289470E+04  0.46999998093E+01 0.  1.
</event>
<event>
 5   0  0.9938176E-05  0.2250630E+04  0.7818609E-02  0.8497645E-01
       -2   -1    0    0    0  501  0.00000000000E+00  0.00000000000E+00  0.24340047143E+04  0.24340047143E+04  0.25500000920E-02 0.  1.
        2   -1    0    0  501    0  0.00000000000E+00  0.00000000000E+00 -0.52026784810E+03  0.52026784811E+03  0.25500000920E-02 0. -1.
    10030    2    1    2    0    0  0.00000000000E+00  0.00000000000E+00  0.19137368662E+04  0.29542725624E+04  0.22506304850E+04 0.  0.
        5    1    3    3  502    0 -0.10458572618E+04 -0.38146965648E+03  0.74127601549E+03  0.13374784978E+04  0.46999998093E+01 0. -1.
       -5    1    3    3    0  502  0.10458572618E+04  0.38146965648E+03  0.11724608507E+04  0.16167940646E+04  0.46999998093E+01 0.  1.
</event>
<event>
 5   0  0.4174030E-05  0.2234179E+04  0.7818609E-02  0.8504335E-01
       -1   -1    0    0    0  501  0.00000000000E+00  0.00000000000E+00  0.14814349990E+04  0.14814349990E+04  0.50400001928E-02 0. -1.
        1   -1    0    0  501    0  0.00000000000E+00  0.00000000000E+00 -0.84235184686E+03  0.84235184688E+03  0.50400001928E-02 0.  1.
    10030    2    1    2    0    0  0.00000000000E+00  0.00000000000E+00  0.63908315209E+03  0.23237868458E+04  0.22341794981E+04 0.  0.
        2    1    3    3  502    0 -0.68877598855E+03  0.42071447368E+03  0.11228362496E+04  0.13828138972E+04  0.25500000920E-02 0. -1.
       -2    1    3    3    0  502  0.68877598855E+03 -0.42071447368E+03 -0.48375309751E+03  0.94097294867E+03  0.25500000920E-02 0.  1.
</event>
<event>
 5   0  0.9938176E-05  0.2187605E+04  0.7818609E-02  0.8523605E-01
        2   -1    0    0  501    0  0.00000000000E+00  0.00000000000E+00  0.19129658847E+04  0.19129658847E+04  0.25500000920E-02 0.  1.
       -2   -1    0    0    0  501  0.00000000000E+00  0.00000000000E+00 -0.62541829989E+03  0.62541829990E+03  0.25500000920E-02 0. -1.
    10030    2    1    2    0    0  0.00000000000E+00  0.00000000000E+00  0.12875475848E+04  0.25383841846E+04  0.21876049656E+04 0.  0.
        5    1    3    3  502    0 -0.12227398108E+03  0.47253408320E+03  0.17795780209E+04  0.18453074022E+04  0.46999998093E+01 0.  1.
       -5    1    3    3    0  502  0.12227398108E+03 -0.47253408320E+03 -0.49203043609E+03  0.69307678238E+03  0.46999998093E+01 0. -1.
</event>
<event>
 5   0  0.4188865E-05  0.2094631E+04  0.7818609E-02  0.8563612E-01
       -1   -1    0    0    0  501  0.00000000000E+00  0.00000000000E+00  0.80046794571E+03  0.80046794572E+03  0.50400001928E-02 0.  1.
        1   -1    0    0  501    0  0.00000000000E+00  0.00000000000E+00 -0.13702851983E+04  0.13702851983E+04  0.50400001928E-02 0. -1.
    10030    2    1    2    0    0  0.00000000000E+00  0.00000000000E+00 -0.56981725260E+03  0.21707531440E+04  0.20946306383E+04 0.  0.
        3    1    3    3  502    0 -0.93782822641E+03 -0.32164196132E+03 -0.63465520494E+03  0.11771841712E+04  0.10100000352E+00 0. -1.
       -3    1    3    3    0  502  0.93782822641E+03  0.32164196132E+03  0.64837952344E+02  0.99356897285E+03  0.10100000352E+00 0.  1.
</event>
<event>
 5   0  0.4133418E-05  0.2217822E+04  0.7818609E-02  0.8511047E-01
       -1   -1    0    0    0  501  0.00000000000E+00  0.00000000000E+00  0.49001244262E+03  0.49001244264E+03  0.50400001928E-02 0.  1.
        1   -1    0    0  501    0  0.00000000000E+00  0.00000000000E+00 -0.25094951467E+04  0.25094951467E+04  0.50400001928E-02 0. -1.
    10030    2    1    2    0    0  0.00000000000E+00  0.00000000000E+00 -0.20194827040E+04  0.29995075893E+04  0.22178222170E+04 0.  0.
        4    1    3    3  502    0 -0.72590905178E+03  0.20918566913E+02  0.12366276213E+03  0.73666520859E+03  0.12699999809E+01 0.  1.
       -4    1    3    3    0  502  0.72590905178E+03 -0.20918566913E+02 -0.21431454662E+04  0.22628423807E+04  0.12699999809E+01 0. -1.
</event>
<event>
 5   0  0.4188865E-05  0.2154343E+04  0.7818609E-02  0.8537675E-01
       -1   -1    0    0    0  501  0.00000000000E+00  0.00000000000E+00  0.69372974162E+03  0.69372974164E+03  0.50400001928E-02 0.  1.
        1   -1    0    0  501    0  0.00000000000E+00  0.00000000000E+00 -0.16725516715E+04  0.16725516715E+04  0.50400001928E-02 0. -1.
    10030    2    1    2    0    0  0.00000000000E+00  0.00000000000E+00 -0.97882192992E+03  0.23662814132E+04  0.21543433700E+04 0.  0.
        3    1    3    3  502    0 -0.28714944873E+02 -0.10432956466E+04 -0.78210007161E+03  0.13042127459E+04  0.10100000352E+00 0. -1.
       -3    1    3    3    0  502  0.28714944873E+02  0.10432956466E+04 -0.19672185831E+03  0.10620686673E+04  0.10100000352E+00 0.  1.
</event>
<event>
 5   0  0.4188865E-05  0.2184956E+04  0.7818609E-02  0.8524716E-01
       -1   -1    0    0    0  501  0.00000000000E+00  0.00000000000E+00  0.10944452129E+04  0.10944452129E+04  0.50400001928E-02 0.  1.
        1   -1    0    0  501    0  0.00000000000E+00  0.00000000000E+00 -0.10905142857E+04  0.10905142857E+04  0.50400001928E-02 0. -1.
    10030    2    1    2    0    0  0.00000000000E+00  0.00000000000E+00  0.39309272296E+01  0.21849594987E+04  0.21849559626E+04 0.  0.
        3    1    3    3  502    0 -0.45266470926E+03 -0.98673696358E+03  0.12424793799E+03  0.10926997459E+04  0.10100000352E+00 0.  1.
       -3    1    3    3    0  502  0.45266470926E+03  0.98673696358E+03 -0.12031701076E+03  0.10922597528E+04  0.10100000352E+00 0. -1.
</event>
<event>
 5   0  0.9254673E-05  0.2019493E+04  0.7818609E-02  0.8597561E-01
       -2   -1    0    0    0  501  0.00000000000E+00  0.00000000000E+00  0.90665121581E+03  0.90665121581E+03  0.25500000920E-02 0. -1.
        2   -1    0    0  501    0  0.00000000000E+00  0.00000000000E+00 -0.11245650133E+04  0.11245650133E+04  0.25500000920E-02 0.  1.
    10030    2    1    2    0    0  0.00000000000E+00  0.00000000000E+00 -0.21791379744E+03  0.20312162291E+04  0.20194932399E+04 0.  0.
        2    1    3    3  502    0 -0.21479338503E+03  0.98490621920E+03 -0.50207406967E+02  0.10093053267E+04  0.25500000920E-02 0. -1.
       -2    1    3    3    0  502  0.21479338503E+03 -0.98490621920E+03 -0.16770639047E+03  0.10219109023E+04  0.25500000920E-02 0.  1.
</event>
<event>
 5   0  0.4174075E-05  0.2200312E+04  0.7818609E-02  0.8518298E-01
        1   -1    0    0  501    0  0.00000000000E+00  0.00000000000E+00  0.10853577649E+04  0.10853577649E+04  0.50400001928E-02 0. -1.
       -1   -1    0    0    0  501  0.00000000000E+00  0.00000000000E+00 -0.11151555142E+04  0.11151555142E+04  0.50400001928E-02 0.  1.
    10030    2    1    2    0    0  0.00000000000E+00  0.00000000000E+00 -0.29797749313E+02  0.22005132792E+04  0.22003115202E+04 0.  0.
        5    1    3    3  502    0 -0.42952908283E+03  0.90869215723E+03  0.43247192888E+03  0.10941986698E+04  0.46999998093E+01 0.  1.
       -5    1    3    3    0  502  0.42952908283E+03 -0.90869215723E+03 -0.46226967820E+03  0.11063146094E+04  0.46999998093E+01 0. -1.
</event>
<event>
 5   0  0.4174030E-05  0.2159150E+04  0.7818609E-02  0.8535626E-01
       -1   -1    0    0    0  501  0.00000000000E+00  0.00000000000E+00  0.14939197769E+04  0.14939197769E+04  0.50400001928E-02 0. -1.
        1   -1    0    0  501    0  0.00000000000E+00  0.00000000000E+00 -0.78015065324E+03  0.78015065325E+03  0.50400001928E-02 0.  1.
    10030    2    1    2    0    0  0.00000000000E+00  0.00000000000E+00  0.71376912361E+03  0.22740704301E+04  0.21591502864E+04 0.  0.
        2    1    3    3  502    0  0.76294748168E+03 -0.51210872539E+03  0.95373714749E+03  0.13243710783E+04  0.25500000920E-02 0. -1.
       -2    1    3    3    0  502 -0.76294748168E+03  0.51210872539E+03 -0.23996802387E+03  0.94969935186E+03  0.25500000920E-02 0.  1.
</event>
<event>
 5   0  0.4188865E-05  0.2081952E+04  0.7818609E-02  0.8569235E-01
       -1   -1    0    0    0  501  0.00000000000E+00  0.00000000000E+00  0.51812068990E+03  0.51812068992E+03  0.50400001928E-02 0.  1.
        1   -1    0    0  501    0  0.00000000000E+00  0.00000000000E+00 -0.20914653208E+04  0.20914653208E+04  0.50400001928E-02 0. -1.
    10030    2    1    2    0    0  0.00000000000E+00  0.00000000000E+00 -0.15733446309E+04  0.26095860107E+04  0.20819524057E+04 0.  0.
        3    1    3    3  502    0  0.12876932754E+03 -0.69597935375E+03 -0.17434464060E+04  0.18816413530E+04  0.10100000352E+00 0. -1.
       -3    1    3    3    0  502 -0.12876932754E+03  0.69597935375E+03  0.17010177512E+03  0.72794465770E+03  0.10100000352E+00 0.  1.
</event>
<event>
 5   0  0.9457742E-05  0.2198995E+04  0.7818609E-02  0.8518846E-01
        2   -1    0    0  501    0  0.00000000000E+00  0.00000000000E+00  0.18430189345E+04  0.18430189345E+04  0.25500000920E-02 0. -1.
       -2   -1    0    0    0  501  0.00000000000E+00  0.00000000000E+00 -0.65593187714E+03  0.65593187715E+03  0.25500000920E-02 0.  1.
    10030    2    1    2    0    0  0.00000000000E+00  0.00000000000E+00  0.11870870574E+04  0.24989508117E+04  0.21989951063E+04 0.  0.
        1    1    3    3  502    0  0.10980312983E+04 -0.54675025488E+02  0.57620528098E+03  0.12412391455E+04  0.50400001928E-02 0.  1.
       -1    1    3    3    0  502 -0.10980312983E+04  0.54675025488E+02  0.61088177643E+03  0.12577116662E+04  0.50400001928E-02 0. -1.
</event>
<event>
 5   0  0.9254673E-05  0.2312333E+04  0.7818609E-02  0.8473074E-01
       -2   -1    0    0    0  501  0.00000000000E+00  0.00000000000E+00  0.81307600627E+03  0.81307600627E+03  0.25500000920E-02 0.  1.
        2   -1    0    0  501    0  0.00000000000E+00  0.00000000000E+00 -0.16440298125E+04  0.16440298125E+04  0.25500000920E-02 0. -1.
    10030    2    1    2    0    0  0.00000000000E+00  0.00000000000E+00 -0.83095380627E+03  0.24571058188E+04  0.23123331889E+04 0.  0.
        2    1    3    3  502    0  0.97721286321E+02 -0.93046569614E+03 -0.11372733710E+04  0.14726529061E+04  0.25500000920E-02 0. -1.
       -2    1    3    3    0  502 -0.97721286321E+02  0.93046569614E+03  0.30631956477E+03  0.98445291267E+03  0.25500000920E-02 0.  1.
</event>
<event>
 5   0  0.4188865E-05  0.2067638E+04  0.7818609E-02  0.8575635E-01
        1   -1    0    0  501    0  0.00000000000E+00  0.00000000000E+00  0.19000536186E+04  0.19000536186E+04  0.50400001928E-02 0.  1.
       -1   -1    0    0    0  501  0.00000000000E+00  0.00000000000E+00 -0.56250057498E+03  0.56250057501E+03  0.50400001928E-02 0. -1.
    10030    2    1    2    0    0  0.00000000000E+00  0.00000000000E+00  0.13375530436E+04  0.24625541936E+04  0.20676375437E+04 0.  0.
        3    1    3    3  502    0  0.26543417286E+03  0.90897044896E+03  0.17469326287E+03  0.96291241736E+03  0.10100000352E+00 0.  1.
       -3    1    3    3    0  502 -0.26543417286E+03 -0.90897044896E+03  0.11628597808E+04  0.14996417763E+04  0.10100000352E+00 0. -1.
</event>
<event>
 5   0  0.9457742E-05  0.2140357E+04  0.7818609E-02  0.8543671E-01
       -2   -1    0    0    0  501  0.00000000000E+00  0.00000000000E+00  0.46887307650E+03  0.46887307651E+03  0.25500000920E-02 0. -1.
        2   -1    0    0  501    0  0.00000000000E+00  0.00000000000E+00 -0.24426280202E+04  0.24426280202E+04  0.25500000920E-02 0.  1.
    10030    2    1    2    0    0  0.00000000000E+00  0.00000000000E+00 -0.19737549436E+04  0.29115010967E+04  0.21403574604E+04 0.  0.
        1    1    3    3  502    0  0.30604649567E+03 -0.51290661295E+03 -0.21948132663E+04  0.22746302831E+04  0.50400001928E-02 0.  1.
       -1    1    3    3    0  502 -0.30604649567E+03  0.51290661295E+03  0.22105832261E+03  0.63687081354E+03  0.50400001928E-02 0. -1.
</event>
<event>
 5   0  0.4063293E-05  0.2220091E+04  0.7818609E-02  0.8510112E-01
        1   -1    0    0  501    0  0.00000000000E+00  0.00000000000E+00  0.10586878272E+04  0.10586878272E+04  0.50400001928E-02 0.  1.
       -1   -1    0    0    0  501  0.00000000000E+00  0.00000000000E+00 -0.11638946103E+04  0.11638946103E+04  0.50400001928E-02 0. -1.
    10030    2    1    2    0    0  0.00000000000E+00  0.00000000000E+00 -0.10520678307E+03  0.22225824375E+04  0.22200910396E+04 0.  0.
        1    1    3    3  502    0  0.23594075923E+03  0.86501408057E+03 -0.70777164342E+03  0.11423038566E+04  0.50400001928E-02 0. -1.
       -1    1    3    3    0  502 -0.23594075923E+03 -0.86501408057E+03  0.60256486035E+03  0.10802785809E+04  0.50400001928E-02 0.  1.
</event>
<event>
 5   0  0.4188865E-05  0.2195891E+04  0.7818609E-02  0.8520140E-01
        1   -1    0    0  501    0  0.00000000000E+00  0.00000000000E+00  0.72097768861E+03  0.72097768862E+03  0.50400001928E-02 0.  1.
       -1   -1    0    0    0  501  0.00000000000E+00  0.00000000000E+00 -0.16720128346E+04  0.16720128346E+04  0.50400001928E-02 0. -1.
    10030    2    1    2    0    0  0.00000000000E+00  0.00000000000E+00 -0.95103514603E+03  0.23929905233E+04  0.21958906611E+04 0.  0.
        3    1    3    3  502    0 -0.79275342767E+03 -0.52012537146E+03 -0.10788301046E+04  0.14362669682E+04  0.10100000352E+00 0. -1.
       -3    1    3    3    0  502  0.79275342767E+03  0.52012537146E+03  0.12779495862E+03  0.95672355504E+03  0.10100000352E+00 0.  1.
</event>
<event>
 5   0  0.9442578E-05  0.2184545E+04  0.7818609E-02  0.8524889E-01
       -2   -1    0    0    0  501  0.00000000000E+00  0.00000000000E+00  0.57163688495E+03  0.57163688496E+03  0.25500000920E-02 0. -1.
        2   -1    0    0  501    0  0.00000000000E+00  0.00000000000E+00 -0.20870925928E+04  0.20870925928E+04  0.25500000920E-02 0.  1.
    10030    2    1    2    0    0  0.00000000000E+00  0.00000000000E+00 -0.15154557078E+04  0.26587294777E+04  0.21845449030E+04 0.  0.
        4    1    3    3  502    0  0.18870913843E+03 -0.32169999659E+03  0.49173775116E+03  0.61717878735E+03  0.12699999809E+01 0. -1.
       -4    1    3    3    0  502 -0.18870913843E+03  0.32169999659E+03 -0.20071934590E+04  0.20415506904E+04  0.12699999809E+01 0.  1.
</event>
<event>
 5   0  0.3283125E-05  0.2007220E+04  0.7818609E-02  0.8603252E-01
        4   -1    0    0  501    0  0.00000000000E+00  0.00000000000E+00  0.82908552892E+03  0.82908650162E+03  0.12699999809E+01 0.  1.
       -4   -1    0    0    0  501  0.00000000000E+00  0.00000000000E+00 -0.12148707425E+04  0.12148714063E+04  0.12699999809E+01 0. -1.
    10030    2    1    2    0    0  0.00000000000E+00  0.00000000000E+00 -0.38578521359E+03  0.20439579079E+04  0.20072203911E+04 0.  0.
        5    1    3    3  502    0  0.13292967982E+03  0.73989916273E+03 -0.86996072301E+03  0.11497716384E+04  0.46999998093E+01 0. -1.
       -5    1    3    3    0  502 -0.13292967982E+03 -0.73989916273E+03  0.48417550943E+03  0.89418626958E+03  0.46999998093E+01 0.  1.
</event>
<event>
 5   0  0.3283125E-05  0.2145425E+04  0.7818609E-02  0.8541493E-01
       -3   -1    0    0    0  501  0.00000000000E+00  0.00000000000E+00  0.17744725201E+04  0.17744725230E+04  0.10100000352E+00 0.  1.
        3   -1    0    0  501    0  0.00000000000E+00  0.00000000000E+00 -0.64848137581E+03  0.64848138367E+03  0.10100000352E+00 0. -1.
    10030    2    1    2    0    0  0.00000000000E+00  0.00000000000E+00  0.11259911443E+04  0.24229539066E+04  0.21454252671E+04 0.  0.
        5    1    3    3  502    0 -0.27919522487E+03 -0.59684449237E+03 -0.39297606080E+03  0.76721939236E+03  0.46999998093E+01 0. -1.
       -5    1    3    3    0  502  0.27919522487E+03  0.59684449237E+03  0.15189672051E+04  0.16557345143E+04  0.46999998093E+01 0.  1.
</event>
<event>
 5   0  0.9457742E-05  0.2181920E+04  0.7818609E-02  0.8525991E-01
       -2   -1    0    0    0  501  0.00000000000E+00  0.00000000000E+00  0.11823005850E+04  0.11823005850E+04  0.25500000920E-02 0.  1.
        2   -1    0    0  501    0  0.00000000000E+00  0.00000000000E+00 -0.10066759905E+04  0.10066759905E+04  0.25500000920E-02 0. -1.
    10030    2    1    2    0    0  0.00000000000E+00  0.00000000000E+00  0.17562459445E+03  0.21889765755E+04  0.21819199000E+04 0.  0.
        1    1    3    3  502    0 -0.74914357603E+03 -0.78587318222E+03  0.19483841749E+03  0.11030751402E+04  0.50400001928E-02 0.  1.
       -1    1    3    3    0  502  0.74914357603E+03  0.78587318222E+03 -0.19213823037E+02  0.10859014352E+04  0.50400001928E-02 0. -1.
</event>
<event>
 5   0  0.9938176E-05  0.2221239E+04  0.7818609E-02  0.8509640E-01
       -2   -1    0    0    0  501  0.00000000000E+00  0.00000000000E+00  0.74825440322E+03  0.74825440323E+03  0.25500000920E-02 0.  1.
        2   -1    0    0  501    0  0.00000000000E+00  0.00000000000E+00 -0.16484706042E+04  0.16484706042E+04  0.25500000920E-02 0. -1.
    10030    2    1    2    0    0  0.00000000000E+00  0.00000000000E+00 -0.90021620096E+03  0.23967250074E+04  0.22212387428E+04 0.  0.
        5    1    3    3  502    0  0.66583954289E+03  0.59975497047E+03 -0.11579913073E+04  0.14642452934E+04  0.46999998093E+01 0. -1.
       -5    1    3    3    0  502 -0.66583954289E+03 -0.59975497047E+03  0.25777510638E+03  0.93247971397E+03  0.46999998093E+01 0.  1.
</event>
<event>
 5   0  0.9442578E-05  0.2182642E+04  0.7818609E-02  0.8525688E-01
       -2   -1    0    0    0  501  0.00000000000E+00  0.00000000000E+00  0.12358218197E+04  0.12358218197E+04  0.25500000920E-02 0. -1.
        2   -1    0    0  501    0  0.00000000000E+00  0.00000000000E+00 -0.96371663693E+03  0.96371663693E+03  0.25500000920E-02 0.  1.
    10030    2    1    2    0    0  0.00000000000E+00  0.00000000000E+00  0.27210518280E+03  0.21995384567E+04  0.21826424792E+04 0.  0.
        4    1    3    3  502    0  0.76400234296E+03 -0.69374416974E+02  0.91824926509E+03  0.11965348785E+04  0.12699999809E+01 0. -1.
       -4    1    3    3    0  502 -0.76400234296E+03  0.69374416974E+02 -0.64614408229E+03  0.10030035781E+04  0.12699999809E+01 0.  1.
</event>
<event>
 5   0  0.4188865E-05  0.2189312E+04  0.7818609E-02  0.8522890E-01
        1   -1    0    0  501    0  0.00000000000E+00  0.00000000000E+00  0.98980779945E+03  0.98980779947E+03  0.50400001928E-02 0.  1.
       -1   -1    0    0    0  501  0.00000000000E+00  0.00000000000E+00 -0.12106104413E+04  0.12106104413E+04  0.50400001928E-02 0. -1.
    10030    2    1    2    0    0  0.00000000000E+00  0.00000000000E+00 -0.22080264184E+03  0.22004182408E+04  0.21893119074E+04 0.  0.
        3    1    3    3  502    0 -0.84039056214E+03  0.66897428927E+03  0.10159225446E+03  0.10789364638E+04  0.10100000352E+00 0.  1.
       -3    1    3    3    0  502  0.84039056214E+03 -0.66897428927E+03 -0.32239489630E+03  0.11214817769E+04  0.10100000352E+00 0. -1.
</event>
<event>
 5   0  0.4188865E-05  0.2203394E+04  0.7818609E-02  0.8517017E-01
        1   -1    0    0  501    0  0.00000000000E+00  0.00000000000E+00  0.14607476957E+04  0.14607476957E+04  0.50400001928E-02 0.  1.
       -1   -1    0    0    0  501  0.00000000000E+00  0.00000000000E+00 -0.83090080052E+03  0.83090080053E+03  0.50400001928E-02 0. -1.
    10030    2    1    2    0    0  0.00000000000E+00  0.00000000000E+00  0.62984689514E+03  0.22916484962E+04  0.22033941361E+04 0.  0.
        3    1    3    3  502    0  0.22421374477E+03 -0.29691606683E+02 -0.80649527783E+03  0.83760852325E+03  0.10100000352E+00 0. -1.
       -3    1    3    3    0  502 -0.22421374477E+03  0.29691606683E+02  0.14363421730E+04  0.14540399729E+04  0.10100000352E+00 0.  1.
</event>
<event>
 5   0  0.9179618E-05  0.2193246E+04  0.7818609E-02  0.8521245E-01
       -2   -1    0    0    0  501  0.00000000000E+00  0.00000000000E+00  0.11354134468E+04  0.11354134468E+04  0.25500000920E-02 0.  1.
        2   -1    0    0  501    0  0.00000000000E+00  0.00000000000E+00 -0.10591575859E+04  0.10591575859E+04  0.25500000920E-02 0. -1.
    10030    2    1    2    0    0  0.00000000000E+00  0.00000000000E+00  0.76255860890E+02  0.21945710327E+04  0.21932457822E+04 0.  0.
        3    1    3    3  502    0  0.10791294054E+04 -0.13986430034E+03  0.17422283092E+03  0.11020144741E+04  0.10100000352E+00 0. -1.
       -3    1    3    3    0  502 -0.10791294054E+04  0.13986430034E+03 -0.97966970027E+02  0.10925565585E+04  0.10100000352E+00 0.  1.
</event>
<event>
 5   0  0.9442578E-05  0.2184634E+04  0.7818609E-02  0.8524851E-01
       -2   -1    0    0    0  501  0.00000000000E+00  0.00000000000E+00  0.15898199972E+04  0.15898199972E+04  0.25500000920E-02 0.  1.
        2   -1    0    0  501    0  0.00000000000E+00  0.00000000000E+00 -0.75049795758E+03  0.75049795758E+03  0.25500000920E-02 0. -1.
    10030    2    1    2    0    0  0.00000000000E+00  0.00000000000E+00  0.83932203963E+03  0.23403179548E+04  0.21846342127E+04 0.  0.
        4    1    3    3  502    0 -0.10126728279E+04  0.36249403806E+03  0.62361460923E+03  0.12433040568E+04  0.12699999809E+01 0. -1.
       -4    1    3    3    0  502  0.10126728279E+04 -0.36249403806E+03  0.21570743040E+03  0.10970138980E+04  0.12699999809E+01 0.  1.
</event>
<event>
 5   0  0.4174030E-05  0.2198996E+04  0.7818609E-02  0.8518846E-01
       -1   -1    0    0    0  501  0.00000000000E+00  0.00000000000E+00  0.96678284412E+03  0.96678284413E+03  0.50400001928E-02 0.  1.
        1   -1    0    0  501    0  0.00000000000E+00  0.00000000000E+00 -0.12504318900E+04  0.12504318901E+04  0.50400001928E-02 0. -1.
    10030    2    1    2    0    0  0.00000000000E+00  0.00000000000E+00 -0.28364904593E+03  0.22172147342E+04  0.21989962247E+04 0.  0.
        2    1    3    3  502    0 -0.37439638163E+03 -0.92666832406E+03  0.32023986749E+03  0.10494953102E+04  0.25500000920E-02 0.  1.
       -2    1    3    3    0  502  0.37439638163E+03  0.92666832406E+03 -0.60388891343E+03  0.11677194240E+04  0.25500000920E-02 0. -1.
</event>
<event>
 5   0  0.4063293E-05  0.2061926E+04  0.7818609E-02  0.8578203E-01
       -1   -1    0    0    0  501  0.00000000000E+00  0.00000000000E+00  0.11581167397E+04  0.11581167397E+04  0.50400001928E-02 0. -1.
        1   -1    0    0  501    0  0.00000000000E+00  0.00000000000E+00 -0.91776962975E+03  0.91776962976E+03  0.50400001928E-02 0.  1.
    10030    2    1    2    0    0  0.00000000000E+00  0.00000000000E+00  0.24034710991E+03  0.20758863694E+04  0.20619256741E+04 0.  0.
        1    1    3    3  502    0 -0.16345299525E+03  0.46883603301E+03 -0.78947052969E+03  0.93262416051E+03  0.50400001928E-02 0.  1.
       -1    1    3    3    0  502  0.16345299525E+03 -0.46883603301E+03  0.10298176396E+04  0.11432622089E+04  0.50400001928E-02 0. -1.
</event>
<event>
 5   0  0.4174030E-05  0.2211597E+04  0.7818609E-02  0.8513617E-01
        1   -1    0    0  501    0  0.00000000000E+00  0.00000000000E+00  0.58511288422E+03  0.58511288424E+03  0.50400001928E-02 0.  1.
       -1   -1    0    0    0  501  0.00000000000E+00  0.00000000000E+00 -0.20898363990E+04  0.20898363990E+04  0.50400001928E-02 0. -1.
    10030    2    1    2    0    0  0.00000000000E+00  0.00000000000E+00 -0.15047235148E+04  0.26749492833E+04  0.22115968919E+04 0.  0.
        2    1    3    3  502    0  0.29370001400E+03 -0.53346955074E+03 -0.18687474848E+04  0.19654685502E+04  0.25500000920E-02 0. -1.
       -2    1    3    3    0  502 -0.29370001400E+03  0.53346955074E+03  0.36402397005E+03  0.70948073305E+03  0.25500000920E-02 0.  1.
</event>
<event>
 5   0  0.9442578E-05  0.2220544E+04  0.7818609E-02  0.8509925E-01
       -2   -1    0    0    0  501  0.00000000000E+00  0.00000000000E+00  0.59737395373E+03  0.59737395373E+03  0.25500000920E-02 0. -1.
        2   -1    0    0  501    0  0.00000000000E+00  0.00000000000E+00 -0.20635388594E+04  0.20635388594E+04  0.25500000920E-02 0.  1.
    10030    2    1    2    0    0  0.00000000000E+00  0.00000000000E+00 -0.14661649057E+04  0.26609128132E+04  0.22205444082E+04 0.  0.
        4    1    3    3  502    0  0.64413327389E+03 -0.38108204503E+03 -0.17158265177E+04  0.18719491049E+04  0.12699999809E+01 0.  1.
       -4    1    3    3    0  502 -0.64413327389E+03  0.38108204503E+03  0.24966161199E+03  0.78896370828E+03  0.12699999809E+01 0. -1.
</event>
<event>
 5   0  0.9442578E-05  0.2157322E+04  0.7818609E-02  0.8536405E-01
       -2   -1    0    0    0  501  0.00000000000E+00  0.00000000000E+00  0.88219233505E+03  0.88219233505E+03  0.25500000920E-02 0.  1.
        2   -1    0    0  501    0  0.00000000000E+00  0.00000000000E+00 -0.13188841966E+04  0.13188841966E+04  0.25500000920E-02 0. -1.
    10030    2    1    2    0    0  0.00000000000E+00  0.00000000000E+00 -0.43669186151E+03  0.22010765316E+04  0.21573219778E+04 0.  0.
        4    1    3    3  502    0  0.44971331108E+03 -0.42805493064E+02 -0.12177189596E+04  0.12988130927E+04  0.12699999809E+01 0. -1.
       -4    1    3    3    0  502 -0.44971331108E+03  0.42805493064E+02  0.78102709805E+03  0.90226343891E+03  0.12699999809E+01 0.  1.
</event>
<event>
 5   0  0.9938176E-05  0.2224134E+04  0.7818609E-02  0.8508450E-01
        2   -1    0    0  501    0  0.00000000000E+00  0.00000000000E+00  0.17978089495E+04  0.17978089495E+04  0.25500000920E-02 0. -1.
       -2   -1    0    0    0  501  0.00000000000E+00  0.00000000000E+00 -0.68788897459E+03  0.68788897460E+03  0.25500000920E-02 0.  1.
    10030    2    1    2    0    0  0.00000000000E+00  0.00000000000E+00  0.11099199749E+04  0.24856979241E+04  0.22241339481E+04 0.  0.
        5    1    3    3  502    0  0.63574833847E+03  0.15055143390E+03  0.15606962784E+04  0.16919328141E+04  0.46999998093E+01 0. -1.
       -5    1    3    3    0  502 -0.63574833847E+03 -0.15055143390E+03 -0.45077630345E+03  0.79376511001E+03  0.46999998093E+01 0.  1.
</event>
<event>
 5   0  0.4188865E-05  0.2173054E+04  0.7818609E-02  0.8529728E-01
        1   -1    0    0  501    0  0.00000000000E+00  0.00000000000E+00  0.13336670096E+04  0.13336670096E+04  0.50400001928E-02 0. -1.
       -1   -1    0    0    0  501  0.00000000000E+00  0.00000000000E+00 -0.88518382074E+03  0.88518382076E+03  0.50400001928E-02 0.  1.
    10030    2    1    2    0    0  0.00000000000E+00  0.00000000000E+00  0.44848318889E+03  0.22188508304E+04  0.21730535743E+04 0.  0.
        3    1    3    3  502    0  0.27004119971E+03 -0.75363335952E+03  0.97433571073E+03  0.12610375004E+04  0.10100000352E+00 0. -1.
       -3    1    3    3    0  502 -0.27004119971E+03  0.75363335952E+03 -0.52585252184E+03  0.95781332996E+03  0.10100000352E+00 0.  1.
</event>
<event>
 5   0  0.4174030E-05  0.2200996E+04  0.7818609E-02  0.8518014E-01
        1   -1    0    0  501    0  0.00000000000E+00  0.00000000000E+00  0.19318976346E+04  0.19318976346E+04  0.50400001928E-02 0.  1.
       -1   -1    0    0    0  501  0.00000000000E+00  0.00000000000E+00 -0.62689422573E+03  0.62689422575E+03  0.50400001928E-02 0. -1.
    10030    2    1    2    0    0  0.00000000000E+00  0.00000000000E+00  0.13050034089E+04  0.25587918604E+04  0.22009956582E+04 0.  0.
        2    1    3    3  502    0 -0.73567539967E+03  0.78849377950E+03  0.90761628842E+03  0.14095063182E+04  0.25500000920E-02 0.  1.
       -2    1    3    3    0  502  0.73567539967E+03 -0.78849377950E+03  0.39738712047E+03  0.11492855422E+04  0.25500000920E-02 0. -1.
</event>
<event>
 5   0  0.9457742E-05  0.2175859E+04  0.7818609E-02  0.8528544E-01
        2   -1    0    0  501    0  0.00000000000E+00  0.00000000000E+00  0.76607033393E+03  0.76607033393E+03  0.25500000920E-02 0. -1.
       -2   -1    0    0    0  501  0.00000000000E+00  0.00000000000E+00 -0.15450160138E+04  0.15450160138E+04  0.25500000920E-02 0.  1.
    10030    2    1    2    0    0  0.00000000000E+00  0.00000000000E+00 -0.77894567984E+03  0.23110863477E+04  0.21758593094E+04 0.  0.
        1    1    3    3  502    0  0.10430990983E+04  0.30896405641E+03 -0.39875777284E+03  0.11586726365E+04  0.50400001928E-02 0.  1.
       -1    1    3    3    0  502 -0.10430990983E+04 -0.30896405641E+03 -0.38018790700E+03  0.11524137112E+04  0.50400001928E-02 0. -1.
</event>
<event>
 5   0  0.4133418E-05  0.2218946E+04  0.7818609E-02  0.8510583E-01
        1   -1    0    0  501    0  0.00000000000E+00  0.00000000000E+00  0.23598406856E+04  0.23598406856E+04  0.50400001928E-02 0. -1.
       -1   -1    0    0    0  501  0.00000000000E+00  0.00000000000E+00 -0.52161599644E+03  0.52161599646E+03  0.50400001928E-02 0.  1.
    10030    2    1    2    0    0  0.00000000000E+00  0.00000000000E+00  0.18382246892E+04  0.28814566821E+04  0.22189462821E+04 0.  0.
        4    1    3    3  502    0 -0.55790137119E+03 -0.26007687208E+03 -0.27954224933E+03  0.67604689292E+03  0.12699999809E+01 0.  1.
       -4    1    3    3    0  502  0.55790137119E+03  0.26007687208E+03  0.21177669385E+04  0.22054097892E+04  0.12699999809E+01 0. -1.
</event>
<event>
 5   0  0.9442578E-05  0.2131778E+04  0.7818609E-02  0.8547373E-01
        2   -1    0    0  501    0  0.00000000000E+00  0.00000000000E+00  0.11437460063E+04  0.11437460063E+04  0.25500000920E-02 0.  1.
       -2   -1    0    0    0  501  0.00000000000E+00  0.00000000000E+00 -0.99333181299E+03  0.99333181299E+03  0.25500000920E-02 0. -1.
    10030    2    1    2    0    0  0.00000000000E+00  0.00000000000E+00  0.15041419329E+03  0.21370778193E+04  0.21317779378E+04 0.  0.
        4    1    3    3  502    0  0.98155051501E+03  0.25146469732E+03 -0.25643521589E+03  0.10451968907E+04  0.12699999809E+01 0. -1.
       -4    1    3    3    0  502 -0.98155051501E+03 -0.25146469732E+03  0.40684940918E+03  0.10918809286E+04  0.12699999809E+01 0.  1.
</event>
<event>
 5   0  0.3283125E-05  0.2186009E+04  0.7818609E-02  0.8524274E-01
       -3   -1    0    0    0  501  0.00000000000E+00  0.00000000000E+00  0.12763694792E+04  0.12763694832E+04  0.10100000352E+00 0. -1.
        3   -1    0    0  501    0  0.00000000000E+00  0.00000000000E+00 -0.93598157101E+03  0.93598157646E+03  0.10100000352E+00 0.  1.
    10030    2    1    2    0    0  0.00000000000E+00  0.00000000000E+00  0.34038790822E+03  0.22123510597E+04  0.21860085277E+04 0.  0.
        3    1    3    3  502    0  0.37522942669E+03 -0.28496105600E+03 -0.82792512746E+03  0.95260692470E+03  0.10100000352E+00 0.  1.
       -3    1    3    3    0  502 -0.37522942669E+03  0.28496105600E+03  0.11683130357E+04  0.12597441350E+04  0.10100000352E+00 0. -1.
</event>
<event>
 5   0  0.9254673E-05  0.2204913E+04  0.7818609E-02  0.8516386E-01
        2   -1    0    0  501    0  0.00000000000E+00  0.00000000000E+00  0.80432868497E+03  0.80432868498E+03  0.25500000920E-02 0. -1.
       -2   -1    0    0    0  501  0.00000000000E+00  0.00000000000E+00 -0.15110865998E+04  0.15110865998E+04  0.25500000920E-02 0.  1.
    10030    2    1    2    0    0  0.00000000000E+00  0.00000000000E+00 -0.70675791487E+03  0.23154152848E+04  0.22049129668E+04 0.  0.
        2    1    3    3  502    0 -0.61387373628E+03  0.29073337362E+03  0.55849671010E+03  0.87936649574E+03  0.25500000920E-02 0. -1.
       -2    1    3    3    0  502  0.61387373628E+03 -0.29073337362E+03 -0.12652546250E+04  0.14360487891E+04  0.25500000920E-02 0.  1.
</event>
<event>
 5   0  0.4133418E-05  0.2230103E+04  0.7818609E-02  0.8506002E-01
        1   -1    0    0  501    0  0.00000000000E+00  0.00000000000E+00  0.22471759628E+04  0.22471759628E+04  0.50400001928E-02 0.  1.
       -1   -1    0    0    0  501  0.00000000000E+00  0.00000000000E+00 -0.55328994807E+03  0.55328994809E+03  0.50400001928E-02 0. -1.
    10030    2    1    2    0    0  0.00000000000E+00  0.00000000000E+00  0.16938860147E+04  0.28004659109E+04  0.22301030217E+04 0.  0.
        4    1    3    3  502    0  0.26959387147E+03  0.15856214567E+02  0.22054867646E+04  0.22219598909E+04  0.12699999809E+01 0.  1.
       -4    1    3    3    0  502 -0.26959387147E+03 -0.15856214567E+02 -0.51160074983E+03  0.57850602002E+03  0.12699999809E+01 0. -1.
</event>
<event>
 5   0  0.9442578E-05  0.2234540E+04  0.7818609E-02  0.8504188E-01
        2   -1    0    0  501    0  0.00000000000E+00  0.00000000000E+00  0.13140935264E+04  0.13140935265E+04  0.25500000920E-02 0. -1.
       -2   -1    0    0    0  501  0.00000000000E+00  0.00000000000E+00 -0.94992647830E+03  0.94992647830E+03  0.25500000920E-02 0.  1.
    10030    2    1    2    0    0  0.00000000000E+00  0.00000000000E+00  0.36416704815E+03  0.22640200048E+04  0.22345399846E+04 0.  0.
        4    1    3    3  502    0  0.69618232340E+02 -0.38542625078E+03 -0.87809128166E+03  0.96148115161E+03  0.12699999809E+01 0.  1.
       -4    1    3    3    0  502 -0.69618232340E+02  0.38542625078E+03  0.12422583298E+04  0.13025388531E+04  0.12699999809E+01 0. -1.
</event>
<event>
 5   0  0.4188865E-05  0.2250316E+04  0.7818609E-02  0.8497772E-01
        1   -1    0    0  501    0  0.00000000000E+00  0.00000000000E+00  0.10309552898E+04  0.10309552898E+04  0.50400001928E-02 0. -1.
       -1   -1    0    0    0  501  0.00000000000E+00  0.00000000000E+00 -0.12279687789E+04  0.12279687789E+04  0.50400001928E-02 0.  1.
    10030    2    1    2    0    0  0.00000000000E+00  0.00000000000E+00 -0.19701348909E+03  0.22589240686E+04  0.22503163407E+04 0.  0.
        3    1    3    3  502    0  0.36338111171E+03  0.87201563549E+03 -0.71201045962E+03  0.11829691482E+04  0.10100000352E+00 0.  1.
       -3    1    3    3    0  502 -0.36338111171E+03 -0.87201563549E+03  0.51499697053E+03  0.10759549204E+04  0.10100000352E+00 0. -1.
</event>
<event>
 5   0  0.9938176E-05  0.2212773E+04  0.7818609E-02  0.8513130E-01
        2   -1    0    0  501    0  0.00000000000E+00  0.00000000000E+00  0.14114877341E+04  0.14114877341E+04  0.25500000920E-02 0. -1.
       -2   -1    0    0    0  501  0.00000000000E+00  0.00000000000E+00 -0.86723500785E+03  0.86723500786E+03  0.25500000920E-02 0.  1.
    10030    2    1    2    0    0  0.00000000000E+00  0.00000000000E+00  0.54425272625E+03  0.22787227420E+04  0.22127734418E+04 0.  0.
        5    1    3    3  502    0 -0.49492796214E+03 -0.64934353725E+03  0.10410174162E+04  0.13230041829E+04  0.46999998093E+01 0. -1.
       -5    1    3    3    0  502  0.49492796214E+03  0.64934353725E+03 -0.49676468992E+03  0.95571855911E+03  0.46999998093E+01 0.  1.
</event>
<event>
 5   0  0.9938176E-05  0.2208321E+04  0.7818609E-02  0.8514973E-01
        2   -1    0    0  501    0  0.00000000000E+00  0.00000000000E+00  0.97762408862E+03  0.97762408862E+03  0.25500000920E-02 0.  1.
       -2   -1    0    0    0  501  0.00000000000E+00  0.00000000000E+00 -0.12470750505E+04  0.12470750505E+04  0.25500000920E-02 0. -1.
    10030    2    1    2    0    0  0.00000000000E+00  0.00000000000E+00 -0.26945096185E+03  0.22246991391E+04  0.22083211810E+04 0.  0.
        5    1    3    3  502    0 -0.44589265589E+03  0.37685306317E+02  0.88217054755E+03  0.98918522424E+03  0.46999998093E+01 0.  1.
       -5    1    3    3    0  502  0.44589265589E+03 -0.37685306317E+02 -0.11516215094E+04  0.12355139149E+04  0.46999998093E+01 0. -1.
</event>
<event>
 5   0  0.9457742E-05  0.2186481E+04  0.7818609E-02  0.8524076E-01
        2   -1    0    0  501    0  0.00000000000E+00  0.00000000000E+00  0.32954520174E+04  0.32954520174E+04  0.25500000920E-02 0.  1.
       -2   -1    0    0    0  501  0.00000000000E+00  0.00000000000E+00 -0.36267389282E+03  0.36267389283E+03  0.25500000920E-02 0. -1.
    10030    2    1    2    0    0  0.00000000000E+00  0.00000000000E+00  0.29327781246E+04  0.36581259102E+04  0.21864806533E+04 0.  0.
        1    1    3    3  502    0 -0.82843284100E+03  0.32499096517E+03  0.25288244328E+04  0.26808344058E+04  0.50400001928E-02 0.  1.
       -1    1    3    3    0  502  0.82843284100E+03 -0.32499096517E+03  0.40395369182E+03  0.97729150444E+03  0.50400001928E-02 0. -1.
</event>
<event>
 5   0  0.4133418E-05  0.2018723E+04  0.7818609E-02  0.8597917E-01
        1   -1    0    0  501    0  0.00000000000E+00  0.00000000000E+00  0.21081163295E+04  0.21081163295E+04  0.50400001928E-02 0.  1.
       -1   -1    0    0    0  501  0.00000000000E+00  0.00000000000E+00 -0.48328015145E+03  0.48328015148E+03  0.50400001928E-02 0. -1.
    10030    2    1    2    0    0  0.00000000000E+00  0.00000000000E+00  0.16248361781E+04  0.25913964810E+04  0.20187231401E+04 0.  0.
        4    1    3    3  502    0  0.71493253098E+03 -0.72336078706E+02 -0.97500887208E+02  0.72516830325E+03  0.12699999809E+01 0. -1.
       -4    1    3    3    0  502 -0.71493253098E+03  0.72336078706E+02  0.17223370653E+04  0.18662281778E+04  0.12699999809E+01 0.  1.
</event>
<event>
 5   0  0.4188865E-05  0.1648088E+04  0.7818609E-02  0.8791538E-01
       -1   -1    0    0    0  501  0.00000000000E+00  0.00000000000E+00  0.36637610347E+03  0.36637610350E+03  0.50400001928E-02 0. -1.
        1   -1    0    0  501    0  0.00000000000E+00  0.00000000000E+00 -0.18534203153E+04  0.18534203154E+04  0.50400001928E-02 0.  1.
    10030    2    1    2    0    0  0.00000000000E+00  0.00000000000E+00 -0.14870442119E+04  0.22197964189E+04  0.16480884846E+04 0.  0.
        3    1    3    3  502    0  0.88193263095E+02 -0.47003707828E+03 -0.16473816595E+04  0.17153947794E+04  0.10100000352E+00 0.  1.
       -3    1    3    3    0  502 -0.88193263095E+02  0.47003707828E+03  0.16033744767E+03  0.50440163951E+03  0.10100000352E+00 0. -1.
</event>
<event>
 5   0  0.4188865E-05  0.2178608E+04  0.7818609E-02  0.8527385E-01
       -1   -1    0    0    0  501  0.00000000000E+00  0.00000000000E+00  0.14172656170E+04  0.14172656170E+04  0.50400001928E-02 0. -1.
        1   -1    0    0  501    0  0.00000000000E+00  0.00000000000E+00 -0.83723446025E+03  0.83723446027E+03  0.50400001928E-02 0.  1.
    10030    2    1    2    0    0  0.00000000000E+00  0.00000000000E+00  0.58003115673E+03  0.22545000773E+04  0.21786083759E+04 0.  0.
        3    1    3    3  502    0  0.40935467561E+02  0.30473846160E+03  0.13714266913E+04  0.14054723128E+04  0.10100000352E+00 0. -1.
       -3    1    3    3    0  502 -0.40935467561E+02 -0.30473846160E+03 -0.79139553453E+03  0.84902776442E+03  0.10100000352E+00 0.  1.
</event>
<event>
 5   0  0.9442578E-05  0.2208839E+04  0.7818609E-02  0.8514758E-01
        2   -1    0    0  501    0  0.00000000000E+00  0.00000000000E+00  0.78589897905E+03  0.78589897905E+03  0.25500000920E-02 0.  1.
       -2   -1    0    0    0  501  0.00000000000E+00  0.00000000000E+00 -0.15520351713E+04  0.15520351713E+04  0.25500000920E-02 0. -1.
    10030    2    1    2    0    0  0.00000000000E+00  0.00000000000E+00 -0.76613619227E+03  0.23379341504E+04  0.22088393845E+04 0.  0.
        4    1    3    3  502    0  0.71494063664E+03 -0.15852687313E+03 -0.12581082455E+04  0.14557159248E+04  0.12699999809E+01 0. -1.
       -4    1    3    3    0  502 -0.71494063664E+03  0.15852687313E+03  0.49197205325E+03  0.88221822555E+03  0.12699999809E+01 0.  1.
</event>
<event>
 5   0  0.4174075E-05  0.2226256E+04  0.7818609E-02  0.8507579E-01
       -1   -1    0    0    0  501  0.00000000000E+00  0.00000000000E+00  0.79456036370E+03  0.79456036372E+03  0.50400001928E-02 0.  1.
        1   -1    0    0  501    0  0.00000000000E+00  0.00000000000E+00 -0.15594202338E+04  0.15594202338E+04  0.50400001928E-02 0. -1.
    10030    2    1    2    0    0  0.00000000000E+00  0.00000000000E+00 -0.76485987008E+03  0.23539805975E+04  0.22262556081E+04 0.  0.
        5    1    3    3  502    0 -0.64943106106E+03  0.88575710524E+03 -0.19120903205E+03  0.11148584379E+04  0.46999998093E+01 0.  1.
       -5    1    3    3    0  502  0.64943106106E+03 -0.88575710524E+03 -0.57365083803E+03  0.12391221596E+04  0.46999998093E+01 0. -1.
</event>
<event>
 5   0  0.4133418E-05  0.2463057E+04  0.7818609E-02  0.8416266E-01
        1   -1    0    0  501    0  0.00000000000E+00  0.00000000000E+00  0.11656183223E+04  0.11656183223E+04  0.50400001928E-02 0. -1.
       -1   -1    0    0    0  501  0.00000000000E+00  0.00000000000E+00 -0.13011660526E+04  0.13011660526E+04  0.50400001928E-02 0.  1.
    10030    2    1    2    0    0  0.00000000000E+00  0.00000000000E+00 -0.13554773031E+03  0.24667843749E+04  0.24630574425E+04 0.  0.
        4    1    3    3  502    0 -0.85375046906E+03  0.39167761166E+01 -0.95667314878E+03  0.12822364568E+04  0.12699999809E+01 0.  1.
       -4    1    3    3    0  502  0.85375046906E+03 -0.39167761166E+01  0.82112541846E+03  0.11845479181E+04  0.12699999809E+01 0. -1.
</event>
<event>
 5   0  0.4174030E-05  0.2190921E+04  0.7818609E-02  0.8522217E-01
       -1   -1    0    0    0  501  0.00000000000E+00  0.00000000000E+00  0.11326194720E+04  0.11326194720E+04  0.50400001928E-02 0.  1.
        1   -1    0    0  501    0  0.00000000000E+00  0.00000000000E+00 -0.10595205829E+04  0.10595205829E+04  0.50400001928E-02 0. -1.
    10030    2    1    2    0    0  0.00000000000E+00  0.00000000000E+00  0.73098889087E+02  0.21921400549E+04  0.21909209417E+04 0.  0.
        2    1    3    3  502    0 -0.61683292765E+02 -0.68399066077E+03 -0.81738054082E+03  0.10675949612E+04  0.25500000920E-02 0. -1.
       -2    1    3    3    0  502  0.61683292765E+02  0.68399066077E+03  0.89047942991E+03  0.11245450937E+04  0.25500000920E-02 0.  1.
</event>
<event>
 5   0  0.9179618E-05  0.2189246E+04  0.7818609E-02  0.8522918E-01
        2   -1    0    0  501    0  0.00000000000E+00  0.00000000000E+00  0.69193933401E+03  0.69193933402E+03  0.25500000920E-02 0. -1.
       -2   -1    0    0    0  501  0.00000000000E+00  0.00000000000E+00 -0.17316532131E+04  0.17316532131E+04  0.25500000920E-02 0.  1.
    10030    2    1    2    0    0  0.00000000000E+00  0.00000000000E+00 -0.10397138791E+04  0.24235925471E+04  0.21892455057E+04 0.  0.
        3    1    3    3  502    0 -0.43672259533E+03 -0.13936735975E+03 -0.16202666126E+04  0.16838686981E+04  0.10100000352E+00 0.  1.
       -3    1    3    3    0  502  0.43672259533E+03  0.13936735975E+03  0.58055273352E+03  0.73972384904E+03  0.10100000352E+00 0. -1.
</event>
<event>
 5   0  0.9442578E-05  0.2196271E+04  0.7818609E-02  0.8519982E-01
       -2   -1    0    0    0  501  0.00000000000E+00  0.00000000000E+00  0.79551535555E+03  0.79551535555E+03  0.25500000920E-02 0.  1.
        2   -1    0    0  501    0  0.00000000000E+00  0.00000000000E+00 -0.15158749702E+04  0.15158749702E+04  0.25500000920E-02 0. -1.
    10030    2    1    2    0    0  0.00000000000E+00  0.00000000000E+00 -0.72035961466E+03  0.23113903258E+04  0.21962712181E+04 0.  0.
        4    1    3    3  502    0 -0.97806966862E+03  0.40379007438E+03 -0.66922737729E+03  0.12520118195E+04  0.12699999809E+01 0. -1.
       -4    1    3    3    0  502  0.97806966862E+03 -0.40379007438E+03 -0.51132237375E+02  0.10593785062E+04  0.12699999809E+01 0.  1.
</event>
<event>
 5   0  0.9457742E-05  0.2197170E+04  0.7818609E-02  0.8519607E-01
        2   -1    0    0  501    0  0.00000000000E+00  0.00000000000E+00  0.26955441183E+04  0.26955441183E+04  0.25500000920E-02 0. -1.
       -2   -1    0    0    0  501  0.00000000000E+00  0.00000000000E+00 -0.44773479627E+03  0.44773479627E+03  0.25500000920E-02 0.  1.
    10030    2    1    2    0    0  0.00000000000E+00  0.00000000000E+00  0.22478093221E+04  0.31432789146E+04  0.21971699039E+04 0.  0.
        1    1    3    3  502    0 -0.25603404680E+03 -0.14559663049E+03 -0.39019640624E+03  0.48888142468E+03  0.50400001928E-02 0.  1.
       -1    1    3    3    0  502  0.25603404680E+03  0.14559663049E+03  0.26380057283E+04  0.26543974899E+04  0.50400001928E-02 0. -1.
</event>
<event>
 5   0  0.9179618E-05  0.2226613E+04  0.7818609E-02  0.8507432E-01
       -2   -1    0    0    0  501  0.00000000000E+00  0.00000000000E+00  0.83078200652E+03  0.83078200653E+03  0.25500000920E-02 0. -1.
        2   -1    0    0  501    0  0.00000000000E+00  0.00000000000E+00 -0.14919093188E+04  0.14919093188E+04  0.25500000920E-02 0.  1.
    10030    2    1    2    0    0  0.00000000000E+00  0.00000000000E+00 -0.66112731225E+03  0.23226913253E+04  0.22266130489E+04 0.  0.
        3    1    3    3  502    0  0.21539213778E+02  0.94776868019E+03  0.27833755118E+03  0.98802895276E+03  0.10100000352E+00 0. -1.
       -3    1    3    3    0  502 -0.21539213778E+02 -0.94776868019E+03 -0.93946486342E+03  0.13346623725E+04  0.10100000352E+00 0.  1.
</event>
<event>
 5   0  0.4174075E-05  0.2078540E+04  0.7818609E-02  0.8570756E-01
       -1   -1    0    0    0  501  0.00000000000E+00  0.00000000000E+00  0.67197490347E+03  0.67197490348E+03  0.50400001928E-02 0.  1.
        1   -1    0    0  501    0  0.00000000000E+00  0.00000000000E+00 -0.16073254436E+04  0.16073254436E+04  0.50400001928E-02 0. -1.
    10030    2    1    2    0    0  0.00000000000E+00  0.00000000000E+00 -0.93535054015E+03  0.22793003471E+04  0.20785402184E+04 0.  0.
        5    1    3    3  502    0  0.51623553771E+03 -0.29857123618E+03 -0.14010096168E+04  0.15226601558E+04  0.46999998093E+01 0. -1.
       -5    1    3    3    0  502 -0.51623553771E+03  0.29857123618E+03  0.46565907669E+03  0.75664019135E+03  0.46999998093E+01 0.  1.
</event>
<event>
 5   0  0.4133418E-05  0.2157038E+04  0.7818609E-02  0.8536526E-01
       -1   -1    0    0    0  501  0.00000000000E+00  0.00000000000E+00  0.13072958199E+04  0.13072958199E+04  0.50400001928E-02 0.  1.
        1   -1    0    0  501    0  0.00000000000E+00  0.00000000000E+00 -0.88977821418E+03  0.88977821419E+03  0.50400001928E-02 0. -1.
    10030    2    1    2    0    0  0.00000000000E+00  0.00000000000E+00  0.41751760574E+03  0.21970740341E+04  0.21570380989E+04 0.  0.
        4    1    3    3  502    0 -0.59804721401E+03  0.31186738323E+03  0.10659730143E+04  0.12614364094E+04  0.12699999809E+01 0.  1.
       -4    1    3    3    0  502  0.59804721401E+03 -0.31186738323E+03 -0.64845540857E+03  0.93563762468E+03  0.12699999809E+01 0. -1.
</event>
<event>
 5   0  0.4174075E-05  0.2219742E+04  0.7818609E-02  0.8510256E-01
        1   -1    0    0  501    0  0.00000000000E+00  0.00000000000E+00  0.21193899074E+04  0.21193899074E+04  0.50400001928E-02 0. -1.
       -1   -1    0    0    0  501  0.00000000000E+00  0.00000000000E+00 -0.58121142450E+03  0.58121142452E+03  0.50400001928E-02 0.  1.
    10030    2    1    2    0    0  0.00000000000E+00  0.00000000000E+00  0.15381784829E+04  0.27006013319E+04  0.22197419915E+04 0.  0.
        5    1    3    3  502    0  0.60602324046E+03  0.39247967496E+03 -0.25641171625E+03  0.76620723141E+03  0.46999998093E+01 0.  1.
       -5    1    3    3    0  502 -0.60602324046E+03 -0.39247967496E+03  0.17945901991E+04  0.19343941005E+04  0.46999998093E+01 0. -1.
</event>
<event>
 5   0  0.4063293E-05  0.2234607E+04  0.7818609E-02  0.8504161E-01
       -1   -1    0    0    0  501  0.00000000000E+00  0.00000000000E+00  0.14679878365E+04  0.14679878366E+04  0.50400001928E-02 0. -1.
        1   -1    0    0  501    0  0.00000000000E+00  0.00000000000E+00 -0.85039320422E+03  0.85039320423E+03  0.50400001928E-02 0.  1.
    10030    2    1    2    0    0  0.00000000000E+00  0.00000000000E+00  0.61759463233E+03  0.23183810408E+04  0.22346067932E+04 0.  0.
        1    1    3    3  502    0  0.35033994407E+03 -0.10480507336E+04  0.13763210332E+03  0.11135937376E+04  0.50400001928E-02 0.  1.
       -1    1    3    3    0  502 -0.35033994407E+03  0.10480507336E+04  0.47996252901E+03  0.12047873032E+04  0.50400001928E-02 0. -1.
</event>
<event>
 5   0  0.9442578E-05  0.2191474E+04  0.7818609E-02  0.8521985E-01
        2   -1    0    0  501    0  0.00000000000E+00  0.00000000000E+00  0.15416720651E+04  0.15416720651E+04  0.25500000920E-02 0. -1.
       -2   -1    0    0    0  501  0.00000000000E+00  0.00000000000E+00 -0.77879085302E+03  0.77879085302E+03  0.25500000920E-02 0.  1.
    10030    2    1    2    0    0  0.00000000000E+00  0.00000000000E+00  0.76288121212E+03  0.23204629182E+04  0.21914744833E+04 0.  0.
        4    1    3    3  502    0 -0.20249923220E+03  0.62796935860E+03 -0.54485668170E+03  0.85569963824E+03  0.12699999809E+01 0.  1.
       -4    1    3    3    0  502  0.20249923220E+03 -0.62796935860E+03  0.13077378938E+04  0.14647632799E+04  0.12699999809E+01 0. -1.
</event>
<event>
 5   0  0.9457742E-05  0.2259358E+04  0.7818609E-02  0.8494120E-01
       -2   -1    0    0    0  501  0.00000000000E+00  0.00000000000E+00  0.91227013458E+03  0.91227013458E+03  0.25500000920E-02 0.  1.
        2   -1    0    0  501    0  0.00000000000E+00  0.00000000000E+00 -0.13988997690E+04  0.13988997690E+04  0.25500000920E-02 0. -1.
    10030    2    1    2    0    0  0.00000000000E+00  0.00000000000E+00 -0.48662963446E+03  0.23111699036E+04  0.22593578562E+04 0.  0.
        1    1    3    3  502    0 -0.81453020679E+03  0.41658840451E+03  0.43458068036E+03  0.10128502971E+04  0.50400001928E-02 0.  1.
       -1    1    3    3    0  502  0.81453020679E+03 -0.41658840451E+03 -0.92121031482E+03  0.12983196065E+04  0.50400001928E-02 0. -1.
</event>
<event>
 5   0  0.9254673E-05  0.2179471E+04  0.7818609E-02  0.8527022E-01
       -2   -1    0    0    0  501  0.00000000000E+00  0.00000000000E+00  0.71541446178E+03  0.71541446178E+03  0.25500000920E-02 0.  1.
        2   -1    0    0  501    0  0.00000000000E+00  0.00000000000E+00 -0.16599096629E+04  0.16599096629E+04  0.25500000920E-02 0. -1.
    10030    2    1    2    0    0  0.00000000000E+00  0.00000000000E+00 -0.94449520116E+03  0.23753241247E+04  0.21794709249E+04 0.  0.
        2    1    3    3  502    0 -0.78604256370E+02  0.89455560520E+03 -0.11450690549E+04  0.14551946606E+04  0.25500000920E-02 0. -1.
       -2    1    3    3    0  502  0.78604256370E+02 -0.89455560520E+03  0.20057385369E+03  0.92012946410E+03  0.25500000920E-02 0.  1.
</event>
<event>
 5   0  0.4188865E-05  0.2208788E+04  0.7818609E-02  0.8514779E-01
        1   -1    0    0  501    0  0.00000000000E+00  0.00000000000E+00  0.78960190367E+03  0.78960190368E+03  0.50400001928E-02 0. -1.
       -1   -1    0    0    0  501  0.00000000000E+00  0.00000000000E+00 -0.15446848050E+04  0.15446848050E+04  0.50400001928E-02 0.  1.
    10030    2    1    2    0    0  0.00000000000E+00  0.00000000000E+00 -0.75508290132E+03  0.23342867087E+04  0.22087879596E+04 0.  0.
        3    1    3    3  502    0  0.80720301910E+03 -0.45997912797E+03 -0.10085675490E+04  0.13712643886E+04  0.10100000352E+00 0.  1.
       -3    1    3    3    0  502 -0.80720301910E+03  0.45997912797E+03  0.25348464770E+03  0.96302232011E+03  0.10100000352E+00 0. -1.
</event>
<event>
 5   0  0.9179618E-05  0.2141665E+04  0.7818609E-02  0.8543109E-01
       -2   -1    0    0    0  501  0.00000000000E+00  0.00000000000E+00  0.60351267617E+03  0.60351267618E+03  0.25500000920E-02 0. -1.
        2   -1    0    0  501    0  0.00000000000E+00  0.00000000000E+00 -0.19000130844E+04  0.19000130844E+04  0.25500000920E-02 0.  1.
    10030    2    1    2    0    0  0.00000000000E+00  0.00000000000E+00 -0.12965004083E+04  0.25035257606E+04  0.21416647556E+04 0.  0.
        3    1    3    3  502    0  0.21502263827E+03  0.26991029674E+03  0.53673166959E+03  0.63809654332E+03  0.10100000352E+00 0. -1.
       -3    1    3    3    0  502 -0.21502263827E+03 -0.26991029674E+03 -0.18332320779E+04  0.18654292173E+04  0.10100000352E+00 0.  1.
</event>
<event>
 5   0  0.9938176E-05  0.2183210E+04  0.7818609E-02  0.8525449E-01
       -2   -1    0    0    0  501  0.00000000000E+00  0.00000000000E+00  0.10993086093E+04  0.10993086093E+04  0.25500000920E-02 0.  1.
        2   -1    0    0  501    0  0.00000000000E+00  0.00000000000E+00 -0.10839556268E+04  0.10839556268E+04  0.25500000920E-02 0. -1.
    10030    2    1    2    0    0  0.00000000000E+00  0.00000000000E+00  0.15352982519E+02  0.21832642360E+04  0.21832102534E+04 0.  0.
        5    1    3    3  502    0 -0.12582563119E+01  0.27516736430E+03  0.10640458319E+04  0.10990606371E+04  0.46999998093E+01 0.  1.
       -5    1    3    3    0  502  0.12582563119E+01 -0.27516736430E+03 -0.10486928494E+04  0.10842035990E+04  0.46999998093E+01 0. -1.
</event>
<event>
 5   0  0.9457742E-05  0.2223407E+04  0.7818609E-02  0.8508748E-01
       -2   -1    0    0    0  501  0.00000000000E+00  0.00000000000E+00  0.93179553260E+03  0.93179553260E+03  0.25500000920E-02 0. -1.
        2   -1    0    0  501    0  0.00000000000E+00  0.00000000000E+00 -0.13263474289E+04  0.13263474289E+04  0.25500000920E-02 0.  1.
    10030    2    1    2    0    0  0.00000000000E+00  0.00000000000E+00 -0.39455189630E+03  0.22581429615E+04  0.22234069433E+04 0.  0.
        1    1    3    3  502    0 -0.70765243425E+02  0.10986666146E+04 -0.40565110537E+02  0.11016903277E+04  0.50400001928E-02 0.  1.
       -1    1    3    3    0  502  0.70765243425E+02 -0.10986666146E+04 -0.35398678576E+03  0.11564526339E+04  0.50400001928E-02 0. -1.
</event>
<event>
 5   0  0.4188865E-05  0.2181924E+04  0.7818609E-02  0.8525989E-01
       -1   -1    0    0    0  501  0.00000000000E+00  0.00000000000E+00  0.93557641175E+03  0.93557641177E+03  0.50400001928E-02 0.  1.
        1   -1    0    0  501    0  0.00000000000E+00  0.00000000000E+00 -0.12721552926E+04  0.12721552927E+04  0.50400001928E-02 0. -1.
    10030    2    1    2    0    0  0.00000000000E+00  0.00000000000E+00 -0.33657888089E+03  0.22077317044E+04  0.21819243652E+04 0.  0.
        3    1    3    3  502    0  0.10631208129E+04 -0.22926475812E+03 -0.81188276575E+02  0.10905868780E+04  0.10100000352E+00 0.  1.
       -3    1    3    3    0  502 -0.10631208129E+04  0.22926475812E+03 -0.25539060431E+03  0.11171448264E+04  0.10100000352E+00 0. -1.
</event>
<event>
 5   0  0.4133418E-05  0.2239622E+04  0.7818609E-02  0.8502115E-01
        1   -1    0    0  501    0  0.00000000000E+00  0.00000000000E+00  0.21599752495E+04  0.21599752495E+04  0.50400001928E-02 0. -1.
       -1   -1    0    0    0  501  0.00000000000E+00  0.00000000000E+00 -0.58055157560E+03  0.58055157562E+03  0.50400001928E-02 0.  1.
    10030    2    1    2    0    0  0.00000000000E+00  0.00000000000E+00  0.15794236739E+04  0.27405268251E+04  0.22396223203E+04 0.  0.
        4    1    3    3  502    0  0.64977707527E+03  0.65446922907E+03  0.12487903586E+02  0.92233279242E+03  0.12699999809E+01 0. -1.
       -4    1    3    3    0  502 -0.64977707527E+03 -0.65446922907E+03  0.15669357703E+04  0.18181940327E+04  0.12699999809E+01 0.  1.
</event>
<event>
 5   0  0.4188865E-05  0.1900013E+04  0.7818609E-02  0.8654850E-01
        1   -1    0    0  501    0  0.00000000000E+00  0.00000000000E+00  0.79681200956E+03  0.79681200957E+03  0.50400001928E-02 0. -1.
       -1   -1    0    0    0  501  0.00000000000E+00  0.00000000000E+00 -0.11326541757E+04  0.11326541757E+04  0.50400001928E-02 0.  1.
    10030    2    1    2    0    0  0.00000000000E+00  0.00000000000E+00 -0.33584216617E+03  0.19294661853E+04  0.19000131051E+04 0.  0.
        3    1    3    3  502    0  0.21262166298E+03  0.42038551079E+03 -0.10056824382E+04  0.11105535224E+04  0.10100000352E+00 0.  1.
       -3    1    3    3    0  502 -0.21262166298E+03 -0.42038551079E+03  0.66984027207E+03  0.81891266295E+03  0.10100000352E+00 0. -1.
</event>
<event>
 5   0  0.9442578E-05  0.2166023E+04  0.7818609E-02  0.8532705E-01
       -2   -1    0    0    0  501  0.00000000000E+00  0.00000000000E+00  0.70232676080E+03  0.70232676081E+03  0.25500000920E-02 0.  1.
        2   -1    0    0  501    0  0.00000000000E+00  0.00000000000E+00 -0.16700395197E+04  0.16700395197E+04  0.25500000920E-02 0. -1.
    10030    2    1    2    0    0  0.00000000000E+00  0.00000000000E+00 -0.96771275894E+03  0.23723662806E+04  0.21660225727E+04 0.  0.
        4    1    3    3  502    0 -0.74999869276E+03 -0.60244596303E+03  0.61000418779E+02  0.96393041321E+03  0.12699999809E+01 0.  1.
       -4    1    3    3    0  502  0.74999869276E+03  0.60244596303E+03 -0.10287131777E+04  0.14084358673E+04  0.12699999809E+01 0. -1.
</event>
<event>
 5   0  0.9938176E-05  0.2187375E+04  0.7818609E-02  0.8523701E-01
        2   -1    0    0  501    0  0.00000000000E+00  0.00000000000E+00  0.17518367978E+04  0.17518367978E+04  0.25500000920E-02 0.  1.
       -2   -1    0    0    0  501  0.00000000000E+00  0.00000000000E+00 -0.68279914890E+03  0.68279914890E+03  0.25500000920E-02 0. -1.
    10030    2    1    2    0    0  0.00000000000E+00  0.00000000000E+00  0.10690376489E+04  0.24346359467E+04  0.21873752989E+04 0.  0.
        5    1    3    3  502    0  0.56534355092E+03  0.39983734036E+03 -0.40772538611E+03  0.80358279585E+03  0.46999998093E+01 0. -1.
       -5    1    3    3    0  502 -0.56534355092E+03 -0.39983734036E+03  0.14767630350E+04  0.16310531508E+04  0.46999998093E+01 0.  1.
</event>
<event>
 5   0  0.9254673E-05  0.2205067E+04  0.7818609E-02  0.8516322E-01
       -2   -1    0    0    0  501  0.00000000000E+00  0.00000000000E+00  0.87218418448E+03  0.87218418448E+03  0.25500000920E-02 0.  1.
        2   -1    0    0  501    0  0.00000000000E+00  0.00000000000E+00 -0.13937199630E+04  0.13937199630E+04  0.25500000920E-02 0. -1.
    10030    2    1    2    0    0  0.00000000000E+00  0.00000000000E+00 -0.52153577851E+03  0.22659041475E+04  0.22050673544E+04 0.  0.
        2    1    3    3  502    0  0.30945379864E+03  0.10133787144E+04 -0.57394244902E+03  0.12050344423E+04  0.25500000920E-02 0.  1.
       -2    1    3    3    0  502 -0.30945379864E+03 -0.10133787144E+04  0.52406670504E+02  0.10608697052E+04  0.25500000920E-02 0. -1.
</event>
<event>
 5   0  0.9179618E-05  0.2237200E+04  0.7818609E-02  0.8503102E-01
        2   -1    0    0  501    0  0.00000000000E+00  0.00000000000E+00  0.20850967926E+04  0.20850967926E+04  0.25500000920E-02 0. -1.
       -2   -1    0    0    0  501  0.00000000000E+00  0.00000000000E+00 -0.60009986692E+03  0.60009986692E+03  0.25500000920E-02 0.  1.
    10030    2    1    2    0    0  0.00000000000E+00  0.00000000000E+00  0.14849969257E+04  0.26851966595E+04  0.22372003109E+04 0.  0.
        3    1    3    3  502    0 -0.93072450369E+03  0.50923371521E+03  0.31696127714E+03  0.11072630852E+04  0.10100000352E+00 0.  1.
       -3    1    3    3    0  502  0.93072450369E+03 -0.50923371521E+03  0.11680356486E+04  0.15779335743E+04  0.10100000352E+00 0. -1.
</event>
<event>
 5   0  0.9254673E-05  0.2187462E+04  0.7818609E-02  0.8523665E-01
       -2   -1    0    0    0  501  0.00000000000E+00  0.00000000000E+00  0.78710648371E+03  0.78710648371E+03  0.25500000920E-02 0. -1.
        2   -1    0    0  501    0  0.00000000000E+00  0.00000000000E+00 -0.15198032829E+04  0.15198032829E+04  0.25500000920E-02 0.  1.
    10030    2    1    2    0    0  0.00000000000E+00  0.00000000000E+00 -0.73269679920E+03  0.23069097666E+04  0.21874615589E+04 0.  0.
        2    1    3    3  502    0  0.41208263493E+03 -0.93685806889E+02 -0.14302245665E+04  0.14913522183E+04  0.25500000920E-02 0.  1.
       -2    1    3    3    0  502 -0.41208263493E+03  0.93685806889E+02  0.69752776731E+03  0.81555754830E+03  0.25500000920E-02 0. -1.
</event>
<event>
 5   0  0.9179618E-05  0.1786476E+04  0.7818609E-02  0.8713524E-01
        2   -1    0    0  501    0  0.00000000000E+00  0.00000000000E+00  0.21249040161E+04  0.21249040161E+04  0.25500000920E-02 0.  1.
       -2   -1    0    0    0  501  0.00000000000E+00  0.00000000000E+00 -0.37548729668E+03  0.37548729669E+03  0.25500000920E-02 0. -1.
    10030    2    1    2    0    0  0.00000000000E+00  0.00000000000E+00  0.17494167194E+04  0.25003913128E+04  0.17864763807E+04 0.  0.
        3    1    3    3  502    0 -0.53287964068E+02  0.18228464463E+03 -0.34690346118E+03  0.39548618226E+03  0.10100000352E+00 0. -1.
       -3    1    3    3    0  502  0.53287964068E+02 -0.18228464463E+03  0.20963201806E+04  0.21049051305E+04  0.10100000352E+00 0.  1.
</event>
<event>
 5   0  0.9179618E-05  0.2162738E+04  0.7818609E-02  0.8534099E-01
       -2   -1    0    0    0  501  0.00000000000E+00  0.00000000000E+00  0.73172905395E+03  0.73172905396E+03  0.25500000920E-02 0. -1.
        2   -1    0    0  501    0  0.00000000000E+00  0.00000000000E+00 -0.15980763167E+04  0.15980763167E+04  0.25500000920E-02 0.  1.
    10030    2    1    2    0    0  0.00000000000E+00  0.00000000000E+00 -0.86634726272E+03  0.23298053706E+04  0.21627379604E+04 0.  0.
        3    1    3    3  502    0  0.15127549847E+03  0.10207904697E+04 -0.85001774716E+02  0.10354336152E+04  0.10100000352E+00 0. -1.
       -3    1    3    3    0  502 -0.15127549847E+03 -0.10207904697E+04 -0.78134548800E+03  0.12943717555E+04  0.10100000352E+00 0.  1.
</event>
<event>
 5   0  0.9442578E-05  0.2201063E+04  0.7818609E-02  0.8517986E-01
        2   -1    0    0  501    0  0.00000000000E+00  0.00000000000E+00  0.12063798433E+04  0.12063798433E+04  0.25500000920E-02 0. -1.
       -2   -1    0    0    0  501  0.00000000000E+00  0.00000000000E+00 -0.10039700787E+04  0.10039700787E+04  0.25500000920E-02 0.  1.
    10030    2    1    2    0    0  0.00000000000E+00  0.00000000000E+00  0.20240976457E+03  0.22103499220E+04  0.22010627127E+04 0.  0.
        4    1    3    3  502    0 -0.91023541022E+03  0.61797568082E+03  0.73791177048E+02  0.11026645885E+04  0.12699999809E+01 0. -1.
       -4    1    3    3    0  502  0.91023541022E+03 -0.61797568082E+03  0.12861858752E+03  0.11076853335E+04  0.12699999809E+01 0.  1.
</event>
<event>
 5   0  0.4188865E-05  0.2209131E+04  0.7818609E-02  0.8514637E-01
        1   -1    0    0  501    0  0.00000000000E+00  0.00000000000E+00  0.13839232514E+04  0.13839232514E+04  0.50400001928E-02 0. -1.
       -1   -1    0    0    0  501  0.00000000000E+00  0.00000000000E+00 -0.88159848103E+03  0.88159848105E+03  0.50400001928E-02 0.  1.
    10030    2    1    2    0    0  0.00000000000E+00  0.00000000000E+00  0.50232477035E+03  0.22655217324E+04  0.22091307216E+04 0.  0.
        3    1    3    3  502    0  0.17138721969E+03 -0.42505834057E+03  0.12818119916E+04  0.13612825438E+04  0.10100000352E+00 0. -1.
       -3    1    3    3    0  502 -0.17138721969E+03  0.42505834057E+03 -0.77948722127E+03  0.90423918865E+03  0.10100000352E+00 0.  1.
</event>
<event>
 5   0  0.4174030E-05  0.2192720E+04  0.7818609E-02  0.8521464E-01
       -1   -1    0    0    0  501  0.00000000000E+00  0.00000000000E+00  0.12312232037E+04  0.12312232038E+04  0.50400001928E-02 0.  1.
        1   -1    0    0  501    0  0.00000000000E+00  0.00000000000E+00 -0.97626940500E+03  0.97626940501E+03  0.50400001928E-02 0. -1.
    10030    2    1    2    0    0  0.00000000000E+00  0.00000000000E+00  0.25495379875E+03  0.22074926088E+04  0.21927202690E+04 0.  0.
        2    1    3    3  502    0  0.75950836979E+03  0.75019393058E+03 -0.12392862478E+03  0.10747102872E+04  0.25500000920E-02 0. -1.
       -2    1    3    3    0  502 -0.75950836979E+03 -0.75019393058E+03  0.37888242353E+03  0.11327823216E+04  0.25500000920E-02 0.  1.
</event>
<event>
 5   0  0.4174030E-05  0.2368666E+04  0.7818609E-02  0.8451328E-01
        1   -1    0    0  501    0  0.00000000000E+00  0.00000000000E+00  0.16880150536E+04  0.16880150536E+04  0.50400001928E-02 0.  1.
       -1   -1    0    0    0  501  0.00000000000E+00  0.00000000000E+00 -0.83094339591E+03  0.83094339592E+03  0.50400001928E-02 0. -1.
    10030    2    1    2    0    0  0.00000000000E+00  0.00000000000E+00  0.85707165767E+03  0.25189584495E+04  0.23686662585E+04 0.  0.
        2    1    3    3  502    0 -0.96448318325E+03  0.10013605558E+02  0.11593952721E+04  0.15081530029E+04  0.25500000920E-02 0.  1.
       -2    1    3    3    0  502  0.96448318325E+03 -0.10013605558E+02 -0.30232361445E+03  0.10108054466E+04  0.25500000920E-02 0. -1.
</event>
<event>
 5   0  0.4188865E-05  0.2176602E+04  0.7818609E-02  0.8528230E-01
        1   -1    0    0  501    0  0.00000000000E+00  0.00000000000E+00  0.10928506914E+04  0.10928506914E+04  0.50400001928E-02 0. -1.
       -1   -1    0    0    0  501  0.00000000000E+00  0.00000000000E+00 -0.10837703287E+04  0.10837703287E+04  0.50400001928E-02 0.  1.
    10030    2    1    2    0    0  0.00000000000E+00  0.00000000000E+00  0.90803626698E+01  0.21766210201E+04  0.21766020794E+04 0.  0.
        3    1    3    3  502    0  0.44782027663E+02 -0.35871488550E+03 -0.10219761033E+04  0.10840281200E+04  0.10100000352E+00 0.  1.
       -3    1    3    3    0  502 -0.44782027663E+02  0.35871488550E+03  0.10310564660E+04  0.10925929001E+04  0.10100000352E+00 0. -1.
</event>
<event>
 5   0  0.9457742E-05  0.2137186E+04  0.7818609E-02  0.8545037E-01
       -2   -1    0    0    0  501  0.00000000000E+00  0.00000000000E+00  0.14277703506E+04  0.14277703506E+04  0.25500000920E-02 0. -1.
        2   -1    0    0  501    0  0.00000000000E+00  0.00000000000E+00 -0.79977180839E+03  0.79977180840E+03  0.25500000920E-02 0.  1.
    10030    2    1    2    0    0  0.00000000000E+00  0.00000000000E+00  0.62799854219E+03  0.22275421590E+04  0.21371855093E+04 0.  0.
        1    1    3    3  502    0  0.57148036738E+02 -0.61295957719E+03 -0.59637291415E+03  0.85711492469E+03  0.50400001928E-02 0.  1.
       -1    1    3    3    0  502 -0.57148036738E+02  0.61295957719E+03  0.12243714563E+04  0.13704272343E+04  0.50400001928E-02 0. -1.
</event>
<event>
 5   0  0.4188865E-05  0.1707946E+04  0.7818609E-02  0.8756846E-01
        1   -1    0    0  501    0  0.00000000000E+00  0.00000000000E+00  0.17864506309E+04  0.17864506309E+04  0.50400001928E-02 0. -1.
       -1   -1    0    0    0  501  0.00000000000E+00  0.00000000000E+00 -0.40822257231E+03  0.40822257234E+03  0.50400001928E-02 0.  1.
    10030    2    1    2    0    0  0.00000000000E+00  0.00000000000E+00  0.13782280586E+04  0.21946732033E+04  0.17079455166E+04 0.  0.
        3    1    3    3  502    0 -0.32421598928E+03 -0.13675065935E+03  0.16889665884E+04  0.17252318388E+04  0.10100000352E+00 0. -1.
       -3    1    3    3    0  502  0.32421598928E+03  0.13675065935E+03 -0.31073852984E+03  0.46944136446E+03  0.10100000352E+00 0.  1.
</event>
<event>
 5   0  0.9179618E-05  0.2202671E+04  0.7818609E-02  0.8517317E-01
        2   -1    0    0  501    0  0.00000000000E+00  0.00000000000E+00  0.17037899275E+04  0.17037899275E+04  0.25500000920E-02 0.  1.
       -2   -1    0    0    0  501  0.00000000000E+00  0.00000000000E+00 -0.71190725202E+03  0.71190725202E+03  0.25500000920E-02 0. -1.
    10030    2    1    2    0    0  0.00000000000E+00  0.00000000000E+00  0.99188267550E+03  0.24156971795E+04  0.22026714738E+04 0.  0.
        3    1    3    3  502    0  0.13945564010E+03  0.38945952379E+03 -0.62346514466E+03  0.74822148661E+03  0.10100000352E+00 0. -1.
       -3    1    3    3    0  502 -0.13945564010E+03 -0.38945952379E+03  0.16153478202E+04  0.16674756929E+04  0.10100000352E+00 0.  1.
</event>
<event>
 5   0  0.4063293E-05  0.2124707E+04  0.7818609E-02  0.8550437E-01
        1   -1    0    0  501    0  0.00000000000E+00  0.00000000000E+00  0.15121528177E+04  0.15121528177E+04  0.50400001928E-02 0. -1.
       -1   -1    0    0    0  501  0.00000000000E+00  0.00000000000E+00 -0.74634953986E+03  0.74634953988E+03  0.50400001928E-02 0.  1.
    10030    2    1    2    0    0  0.00000000000E+00  0.00000000000E+00  0.76580327786E+03  0.22585023576E+04  0.21247066242E+04 0.  0.
        1    1    3    3  502    0 -0.78978691718E+03 -0.30666169621E+03 -0.29838739157E+03  0.89824262087E+03  0.50400001928E-02 0.  1.
       -1    1    3    3    0  502  0.78978691718E+03  0.30666169621E+03  0.10641906694E+04  0.13602597367E+04  0.50400001928E-02 0. -1.
</event>
<event>
 5   0  0.9442578E-05  0.2006327E+04  0.7818609E-02  0.8603668E-01
        2   -1    0    0  501    0  0.00000000000E+00  0.00000000000E+00  0.98226101237E+03  0.98226101237E+03  0.25500000920E-02 0. -1.
       -2   -1    0    0    0  501  0.00000000000E+00  0.00000000000E+00 -0.10245110080E+04  0.10245110080E+04  0.25500000920E-02 0.  1.
    10030    2    1    2    0    0  0.00000000000E+00  0.00000000000E+00 -0.42249995635E+02  0.20067720204E+04  0.20063272115E+04 0.  0.
        4    1    3    3  502    0  0.62285596204E+03  0.26555272145E+03 -0.76147002857E+03  0.10189730196E+04  0.12699999809E+01 0. -1.
       -4    1    3    3    0  502 -0.62285596204E+03 -0.26555272145E+03  0.71922003294E+03  0.98779900081E+03  0.12699999809E+01 0.  1.
</event>
<event>
 5   0  0.9442578E-05  0.2135184E+04  0.7818609E-02  0.8545901E-01
       -2   -1    0    0    0  501  0.00000000000E+00  0.00000000000E+00  0.97110822358E+03  0.97110822358E+03  0.25500000920E-02 0.  1.
        2   -1    0    0  501    0  0.00000000000E+00  0.00000000000E+00 -0.11736621040E+04  0.11736621040E+04  0.25500000920E-02 0. -1.
    10030    2    1    2    0    0  0.00000000000E+00  0.00000000000E+00 -0.20255388042E+03  0.21447703276E+04  0.21351842271E+04 0.  0.
        4    1    3    3  502    0 -0.36766526308E+03 -0.12615085727E+03 -0.11000545942E+04  0.11667105500E+04  0.12699999809E+01 0. -1.
       -4    1    3    3    0  502  0.36766526308E+03  0.12615085727E+03  0.89750071374E+03  0.97805977758E+03  0.12699999809E+01 0.  1.
</event>
<event>
 5   0  0.4174075E-05  0.2226333E+04  0.7818609E-02  0.8507547E-01
       -1   -1    0    0    0  501  0.00000000000E+00  0.00000000000E+00  0.16662610367E+04  0.16662610367E+04  0.50400001928E-02 0. -1.
        1   -1    0    0  501    0  0.00000000000E+00  0.00000000000E+00 -0.74366494263E+03  0.74366494265E+03  0.50400001928E-02 0.  1.
    10030    2    1    2    0    0  0.00000000000E+00  0.00000000000E+00  0.92259609409E+03  0.24099259794E+04  0.22263332350E+04 0.  0.
        5    1    3    3  502    0 -0.10598535397E+04 -0.24272191158E+03  0.71953864864E+03  0.13038256819E+04  0.46999998093E+01 0.  1.
       -5    1    3    3    0  502  0.10598535397E+04  0.24272191158E+03  0.20305744545E+03  0.11061002975E+04  0.46999998093E+01 0. -1.
</event>
<event>
 5   0  0.4188865E-05  0.2201094E+04  0.7818609E-02  0.8517973E-01
        1   -1    0    0  501    0  0.00000000000E+00  0.00000000000E+00  0.10768455145E+04  0.10768455145E+04  0.50400001928E-02 0.  1.
       -1   -1    0    0    0  501  0.00000000000E+00  0.00000000000E+00 -0.11247706615E+04  0.11247706615E+04  0.50400001928E-02 0. -1.
    10030    2    1    2    0    0  0.00000000000E+00  0.00000000000E+00 -0.47925146950E+02  0.22016161760E+04  0.22010944929E+04 0.  0.
        3    1    3    3  502    0 -0.70723423199E+03  0.47628112921E+03 -0.71995811771E+03  0.11159586347E+04  0.10100000352E+00 0. -1.
       -3    1    3    3    0  502  0.70723423199E+03 -0.47628112921E+03  0.67203297076E+03  0.10856575413E+04  0.10100000352E+00 0.  1.
</event>
<event>
 5   0  0.4174030E-05  0.2131367E+04  0.7818609E-02  0.8547550E-01
        1   -1    0    0  501    0  0.00000000000E+00  0.00000000000E+00  0.22543407458E+04  0.22543407458E+04  0.50400001928E-02 0.  1.
       -1   -1    0    0    0  501  0.00000000000E+00  0.00000000000E+00 -0.50377542281E+03  0.50377542283E+03  0.50400001928E-02 0. -1.
    10030    2    1    2    0    0  0.00000000000E+00  0.00000000000E+00  0.17505653230E+04  0.27581161686E+04  0.21313671316E+04 0.  0.
        2    1    3    3  502    0 -0.80726223118E+03 -0.44942310595E+03  0.18805533113E+03  0.94287764085E+03  0.25500000920E-02 0. -1.
       -2    1    3    3    0  502  0.80726223118E+03  0.44942310595E+03  0.15625099918E+04  0.18152385278E+04  0.25500000920E-02 0.  1.
</event>
<event>
 5   0  0.9442578E-05  0.2197333E+04  0.7818609E-02  0.8519539E-01
        2   -1    0    0  501    0  0.00000000000E+00  0.00000000000E+00  0.12366309272E+04  0.12366309272E+04  0.25500000920E-02 0.  1.
       -2   -1    0    0    0  501  0.00000000000E+00  0.00000000000E+00 -0.97609392373E+03  0.97609392374E+03  0.25500000920E-02 0. -1.
    10030    2    1    2    0    0  0.00000000000E+00  0.00000000000E+00  0.26053700346E+03  0.22127248509E+04  0.21973328687E+04 0.  0.
        4    1    3    3  502    0  0.71342523951E+03 -0.77075297274E+03  0.45506558504E+03  0.11446056163E+04  0.12699999809E+01 0.  1.
       -4    1    3    3    0  502 -0.71342523951E+03  0.77075297274E+03 -0.19452858158E+03  0.10681192346E+04  0.12699999809E+01 0. -1.
</event>
<event>
 5   0  0.4188865E-05  0.2198960E+04  0.7818609E-02  0.8518861E-01
       -1   -1    0    0    0  501  0.00000000000E+00  0.00000000000E+00  0.76428717861E+03  0.76428717863E+03  0.50400001928E-02 0. -1.
        1   -1    0    0  501    0  0.00000000000E+00  0.00000000000E+00 -0.15816776793E+04  0.15816776793E+04  0.50400001928E-02 0.  1.
    10030    2    1    2    0    0  0.00000000000E+00  0.00000000000E+00 -0.81739050069E+03  0.23459648579E+04  0.21989597277E+04 0.  0.
        3    1    3    3  502    0 -0.28020233812E+03 -0.44361792962E+03 -0.14394895969E+04  0.15321359364E+04  0.10100000352E+00 0.  1.
       -3    1    3    3    0  502  0.28020233812E+03  0.44361792962E+03  0.62209909624E+03  0.81382892153E+03  0.10100000352E+00 0. -1.
</event>
<event>
 5   0  0.9254673E-05  0.2200463E+04  0.7818609E-02  0.8518235E-01
        2   -1    0    0  501    0  0.00000000000E+00  0.00000000000E+00  0.12264072090E+04  0.12264072090E+04  0.25500000920E-02 0.  1.
       -2   -1    0    0    0  501  0.00000000000E+00  0.00000000000E+00 -0.98703700400E+03  0.98703700400E+03  0.25500000920E-02 0. -1.
    10030    2    1    2    0    0  0.00000000000E+00  0.00000000000E+00  0.23937020501E+03  0.22134442130E+04  0.22004629488E+04 0.  0.
        2    1    3    3  502    0  0.96207300007E+03  0.50104405367E+03 -0.65465134854E+02  0.10866992616E+04  0.25500000920E-02 0. -1.
       -2    1    3    3    0  502 -0.96207300007E+03 -0.50104405367E+03  0.30483533986E+03  0.11267449514E+04  0.25500000920E-02 0.  1.
</event>
<event>
 5   0  0.9442578E-05  0.2210592E+04  0.7818609E-02  0.8514032E-01
        2   -1    0    0  501    0  0.00000000000E+00  0.00000000000E+00  0.14680812629E+04  0.14680812629E+04  0.25500000920E-02 0. -1.
       -2   -1    0    0    0  501  0.00000000000E+00  0.00000000000E+00 -0.83216070402E+03  0.83216070402E+03  0.25500000920E-02 0.  1.
    10030    2    1    2    0    0  0.00000000000E+00  0.00000000000E+00  0.63592055888E+03  0.23002419669E+04  0.22105922621E+04 0.  0.
        4    1    3    3  502    0  0.50169297263E+03  0.27370635220E+03  0.13024079375E+04  0.14222795276E+04  0.12699999809E+01 0. -1.
       -4    1    3    3    0  502 -0.50169297263E+03 -0.27370635220E+03 -0.66648737866E+03  0.87796243931E+03  0.12699999809E+01 0.  1.
</event>
<event>
 5   0  0.4174075E-05  0.2197712E+04  0.7818609E-02  0.8519381E-01
       -1   -1    0    0    0  501  0.00000000000E+00  0.00000000000E+00  0.13334653434E+04  0.13334653434E+04  0.50400001928E-02 0.  1.
        1   -1    0    0  501    0  0.00000000000E+00  0.00000000000E+00 -0.90552382181E+03  0.90552382182E+03  0.50400001928E-02 0. -1.
    10030    2    1    2    0    0  0.00000000000E+00  0.00000000000E+00  0.42794152157E+03  0.22389891652E+04  0.21977121140E+04 0.  0.
        5    1    3    3  502    0  0.48851953374E+03 -0.94902495936E+03  0.47995445564E+03  0.11703324647E+04  0.46999998093E+01 0. -1.
       -5    1    3    3    0  502 -0.48851953374E+03  0.94902495936E+03 -0.52012934066E+02  0.10686567006E+04  0.46999998093E+01 0.  1.
</event>
<event>
 5   0  0.4174030E-05  0.2202415E+04  0.7818609E-02  0.8517424E-01
        1   -1    0    0  501    0  0.00000000000E+00  0.00000000000E+00  0.72862889663E+03  0.72862889665E+03  0.50400001928E-02 0. -1.
       -1   -1    0    0    0  501  0.00000000000E+00  0.00000000000E+00 -0.16643012239E+04  0.16643012239E+04  0.50400001928E-02 0.  1.
    10030    2    1    2    0    0  0.00000000000E+00  0.00000000000E+00 -0.93567232724E+03  0.23929301205E+04  0.22024150058E+04 0.  0.
        2    1    3    3  502    0  0.26158176589E+03 -0.10686829352E+04 -0.41746028559E+03  0.11767673204E+04  0.25500000920E-02 0.  1.
       -2    1    3    3    0  502 -0.26158176589E+03  0.10686829352E+04 -0.51821204165E+03  0.12161628001E+04  0.25500000920E-02 0. -1.
</event>
<event>
 5   0  0.9254673E-05  0.2171470E+04  0.7818609E-02  0.8530398E-01
        2   -1    0    0  501    0  0.00000000000E+00  0.00000000000E+00  0.16642661433E+04  0.16642661433E+04  0.25500000920E-02 0.  1.
       -2   -1    0    0    0  501  0.00000000000E+00  0.00000000000E+00 -0.70831227385E+03  0.70831227386E+03  0.25500000920E-02 0. -1.
    10030    2    1    2    0    0  0.00000000000E+00  0.00000000000E+00  0.95595386946E+03  0.23725784172E+04  0.21714696740E+04 0.  0.
        2    1    3    3  502    0 -0.10688076271E+04 -0.13054257310E+03  0.63027428787E+03  0.12476525098E+04  0.25500000920E-02 0. -1.
       -2    1    3    3    0  502  0.10688076271E+04  0.13054257310E+03  0.32567958159E+03  0.11249259074E+04  0.25500000920E-02 0.  1.
</event>
<event>
 5   0  0.9179618E-05  0.2178836E+04  0.7818609E-02  0.8527289E-01
        2   -1    0    0  501    0  0.00000000000E+00  0.00000000000E+00  0.65601884750E+03  0.65601884750E+03  0.25500000920E-02 0. -1.
       -2   -1    0    0    0  501  0.00000000000E+00  0.00000000000E+00 -0.18091423865E+04  0.18091423865E+04  0.25500000920E-02 0.  1.
    10030    2    1    2    0    0  0.00000000000E+00  0.00000000000E+00 -0.11531235390E+04  0.24651612340E+04  0.21788359308E+04 0.  0.
        3    1    3    3  502    0  0.54283997787E+03  0.46658852462E+03 -0.15057338064E+04  0.16672175619E+04  0.10100000352E+00 0.  1.
       -3    1    3    3    0  502 -0.54283997787E+03 -0.46658852462E+03  0.35261026742E+03  0.79794367205E+03  0.10100000352E+00 0. -1.
</event>
<event>
 5   0  0.9938176E-05  0.2228671E+04  0.7818609E-02  0.8506589E-01
       -2   -1    0    0    0  501  0.00000000000E+00  0.00000000000E+00  0.96830459520E+03  0.96830459520E+03  0.25500000920E-02 0.  1.
        2   -1    0    0  501    0  0.00000000000E+00  0.00000000000E+00 -0.12823890559E+04  0.12823890559E+04  0.25500000920E-02 0. -1.
    10030    2    1    2    0    0  0.00000000000E+00  0.00000000000E+00 -0.31408446071E+03  0.22506936511E+04  0.22286706492E+04 0.  0.
        5    1    3    3  502    0  0.10314537926E+04 -0.27816102246E+03  0.16302916058E+03  0.10806808400E+04  0.46999998093E+01 0. -1.
       -5    1    3    3    0  502 -0.10314537926E+04  0.27816102246E+03 -0.47711362129E+03  0.11700128112E+04  0.46999998093E+01 0.  1.
</event>
<event>
 5   0  0.4174030E-05  0.2232541E+04  0.7818609E-02  0.8505005E-01
       -1   -1    0    0    0  501  0.00000000000E+00  0.00000000000E+00  0.88456693053E+03  0.88456693055E+03  0.50400001928E-02 0.  1.
        1   -1    0    0  501    0  0.00000000000E+00  0.00000000000E+00 -0.14086667314E+04  0.14086667314E+04  0.50400001928E-02 0. -1.
    10030    2    1    2    0    0  0.00000000000E+00  0.00000000000E+00 -0.52409980089E+03  0.22932336620E+04  0.22325411591E+04 0.  0.
        2    1    3    3  502    0 -0.41049751619E+03  0.54660159321E+02  0.80274261533E+03  0.90326720868E+03  0.25500000920E-02 0.  1.
       -2    1    3    3    0  502  0.41049751619E+03 -0.54660159321E+02 -0.13268424162E+04  0.13899664533E+04  0.25500000920E-02 0. -1.
</event>
<event>
 5   0  0.9254673E-05  0.2217803E+04  0.7818609E-02  0.8511054E-01
        2   -1    0    0  501    0  0.00000000000E+00  0.00000000000E+00  0.16004336585E+04  0.16004336585E+04  0.25500000920E-02 0. -1.
       -2   -1    0    0    0  501  0.00000000000E+00  0.00000000000E+00 -0.76833088732E+03  0.76833088732E+03  0.25500000920E-02 0.  1.
    10030    2    1    2    0    0  0.00000000000E+00  0.00000000000E+00  0.83210277116E+03  0.23687645458E+04  0.22178030687E+04 0.  0.
        2    1    3    3  502    0  0.55526994463E+03  0.29707161425E+03 -0.55881237301E+03  0.84193083067E+03  0.25500000920E-02 0.  1.
       -2    1    3    3    0  502 -0.55526994463E+03 -0.29707161425E+03  0.13909151442E+04  0.15268337151E+04  0.25500000920E-02 0. -1.
</event>
<event>
 5   0  0.4174030E-05  0.2168967E+04  0.7818609E-02  0.8531457E-01
        1   -1    0    0  501    0  0.00000000000E+00  0.00000000000E+00  0.14941719447E+04  0.14941719447E+04  0.50400001928E-02 0.  1.
       -1   -1    0    0    0  501  0.00000000000E+00  0.00000000000E+00 -0.78712772336E+03  0.78712772338E+03  0.50400001928E-02 0. -1.
    10030    2    1    2    0    0  0.00000000000E+00  0.00000000000E+00  0.70704422137E+03  0.22812996681E+04  0.21689667228E+04 0.  0.
        2    1    3    3  502    0 -0.98647992558E+03 -0.40280207689E+03  0.14129996991E+03  0.10748757315E+04  0.25500000920E-02 0. -1.
       -2    1    3    3    0  502  0.98647992558E+03  0.40280207689E+03  0.56574425146E+03  0.12064239366E+04  0.25500000920E-02 0.  1.
</event>
<event>
 5   0  0.9938176E-05  0.2194434E+04  0.7818609E-02  0.8520748E-01
        2   -1    0    0  501    0  0.00000000000E+00  0.00000000000E+00  0.17168167111E+04  0.17168167111E+04  0.25500000920E-02 0. -1.
       -2   -1    0    0    0  501  0.00000000000E+00  0.00000000000E+00 -0.70123100414E+03  0.70123100414E+03  0.25500000920E-02 0.  1.
    10030    2    1    2    0    0  0.00000000000E+00  0.00000000000E+00  0.10155857069E+04  0.24180477152E+04  0.21944339646E+04 0.  0.
        5    1    3    3  502    0 -0.22521556231E+03 -0.10234498523E+04  0.86602298015E+03  0.13594813503E+04  0.46999998093E+01 0. -1.
       -5    1    3    3    0  502  0.22521556231E+03  0.10234498523E+04  0.14956272677E+03  0.10585663649E+04  0.46999998093E+01 0.  1.
</event>
<event>
 5   0  0.4063293E-05  0.2202311E+04  0.7818609E-02  0.8517467E-01
        1   -1    0    0  501    0  0.00000000000E+00  0.00000000000E+00  0.11183479759E+04  0.11183479759E+04  0.50400001928E-02 0.  1.
       -1   -1    0    0    0  501  0.00000000000E+00  0.00000000000E+00 -0.10842275583E+04  0.10842275584E+04  0.50400001928E-02 0. -1.
    10030    2    1    2    0    0  0.00000000000E+00  0.00000000000E+00  0.34120417516E+02  0.22025755342E+04  0.22023112362E+04 0.  0.
        1    1    3    3  502    0  0.10292626036E+03  0.10893306502E+04  0.14080304387E+03  0.11032046853E+04  0.50400001928E-02 0.  1.
       -1    1    3    3    0  502 -0.10292626036E+03 -0.10893306502E+04 -0.10668262635E+03  0.10993708489E+04  0.50400001928E-02 0. -1.
</event>
<event>
 5   0  0.4133418E-05  0.2183323E+04  0.7818609E-02  0.8525402E-01
        1   -1    0    0  501    0  0.00000000000E+00  0.00000000000E+00  0.89731250479E+03  0.89731250480E+03  0.50400001928E-02 0.  1.
       -1   -1    0    0    0  501  0.00000000000E+00  0.00000000000E+00 -0.13281045987E+04  0.13281045987E+04  0.50400001928E-02 0. -1.
    10030    2    1    2    0    0  0.00000000000E+00  0.00000000000E+00 -0.43079209387E+03  0.22254171035E+04  0.21833230307E+04 0.  0.
        4    1    3    3  502    0  0.41972320347E+03  0.26448778905E+03 -0.12065647766E+04  0.13045771465E+04  0.12699999809E+01 0. -1.
       -4    1    3    3    0  502 -0.41972320347E+03 -0.26448778905E+03  0.77577268277E+03  0.92083995695E+03  0.12699999809E+01 0.  1.
</event>
<event>
 5   0  0.4063293E-05  0.2281272E+04  0.7818609E-02  0.8485342E-01
       -1   -1    0    0    0  501  0.00000000000E+00  0.00000000000E+00  0.86129681177E+03  0.86129681179E+03  0.50400001928E-02 0. -1.
        1   -1    0    0  501    0  0.00000000000E+00  0.00000000000E+00 -0.15105719543E+04  0.15105719543E+04  0.50400001928E-02 0.  1.
    10030    2    1    2    0    0  0.00000000000E+00  0.00000000000E+00 -0.64927514256E+03  0.23718687661E+04  0.22812722838E+04 0.  0.
        1    1    3    3  502    0  0.25790968831E+03  0.81521713204E+03 -0.11095723973E+04  0.14008023717E+04  0.50400001928E-02 0.  1.
       -1    1    3    3    0  502 -0.25790968831E+03 -0.81521713204E+03  0.46029725471E+03  0.97106639445E+03  0.50400001928E-02 0. -1.
</event>
<event>
 5   0  0.9938176E-05  0.2206471E+04  0.7818609E-02  0.8515740E-01
        2   -1    0    0  501    0  0.00000000000E+00  0.00000000000E+00  0.18033479664E+04  0.18033479664E+04  0.25500000920E-02 0.  1.
       -2   -1    0    0    0  501  0.00000000000E+00  0.00000000000E+00 -0.67492709552E+03  0.67492709553E+03  0.25500000920E-02 0. -1.
    10030    2    1    2    0    0  0.00000000000E+00  0.00000000000E+00  0.11284208709E+04  0.24782750620E+04  0.22064708520E+04 0.  0.
        5    1    3    3  502    0  0.47798695574E+03 -0.37992263490E+03 -0.46783318758E+03  0.76922215242E+03  0.46999998093E+01 0. -1.
       -5    1    3    3    0  502 -0.47798695574E+03  0.37992263490E+03  0.15962540585E+04  0.17090529095E+04  0.46999998093E+01 0.  1.
</event>
<event>
 5   0  0.4174075E-05  0.2148477E+04  0.7818609E-02  0.8540184E-01
        1   -1    0    0  501    0  0.00000000000E+00  0.00000000000E+00  0.11078139285E+04  0.11078139286E+04  0.50400001928E-02 0.  1.
       -1   -1    0    0    0  501  0.00000000000E+00  0.00000000000E+00 -0.10416807588E+04  0.10416807588E+04  0.50400001928E-02 0. -1.
    10030    2    1    2    0    0  0.00000000000E+00  0.00000000000E+00  0.66133169762E+02  0.21494946873E+04  0.21484770920E+04 0.  0.
        5    1    3    3  502    0  0.53658545366E+03 -0.92600064176E+03 -0.59525755953E+02  0.10718985695E+04  0.46999998093E+01 0.  1.
       -5    1    3    3    0  502 -0.53658545366E+03  0.92600064176E+03  0.12565892572E+03  0.10775961179E+04  0.46999998093E+01 0. -1.
</event>
<event>
 5   0  0.4188865E-05  0.2053707E+04  0.7818609E-02  0.8581914E-01
        1   -1    0    0  501    0  0.00000000000E+00  0.00000000000E+00  0.63067006634E+03  0.63067006636E+03  0.50400001928E-02 0. -1.
       -1   -1    0    0    0  501  0.00000000000E+00  0.00000000000E+00 -0.16719176635E+04  0.16719176635E+04  0.50400001928E-02 0.  1.
    10030    2    1    2    0    0  0.00000000000E+00  0.00000000000E+00 -0.10412475972E+04  0.23025877299E+04  0.20537073052E+04 0.  0.
        3    1    3    3  502    0 -0.86207718581E+03  0.47183299345E+03 -0.85440023835E+03  0.13022300970E+04  0.10100000352E+00 0. -1.
       -3    1    3    3    0  502  0.86207718581E+03 -0.47183299345E+03 -0.18684735884E+03  0.10003576329E+04  0.10100000352E+00 0.  1.
</event>
<event>
 5   0  0.9457742E-05  0.2191060E+04  0.7818609E-02  0.8522158E-01
        2   -1    0    0  501    0  0.00000000000E+00  0.00000000000E+00  0.11729555861E+04  0.11729555861E+04  0.25500000920E-02 0.  1.
       -2   -1    0    0    0  501  0.00000000000E+00  0.00000000000E+00 -0.10232149471E+04  0.10232149471E+04  0.25500000920E-02 0. -1.
    10030    2    1    2    0    0  0.00000000000E+00  0.00000000000E+00  0.14974063894E+03  0.21961705332E+04  0.21910597326E+04 0.  0.
        1    1    3    3  502    0  0.13515504618E+03 -0.73418913884E+03  0.87854174300E+03  0.11528816818E+04  0.50400001928E-02 0.  1.
       -1    1    3    3    0  502 -0.13515504618E+03  0.73418913884E+03 -0.72880110405E+03  0.10432888514E+04  0.50400001928E-02 0. -1.
</event>
<event>
 5   0  0.4188865E-05  0.2163312E+04  0.7818609E-02  0.8533856E-01
        1   -1    0    0  501    0  0.00000000000E+00  0.00000000000E+00  0.18366523474E+04  0.18366523474E+04  0.50400001928E-02 0.  1.
       -1   -1    0    0    0  501  0.00000000000E+00  0.00000000000E+00 -0.63701728549E+03  0.63701728551E+03  0.50400001928E-02 0. -1.
    10030    2    1    2    0    0  0.00000000000E+00  0.00000000000E+00  0.11996350619E+04  0.24736696329E+04  0.21633116213E+04 0.  0.
        3    1    3    3  502    0  0.10320962470E+02  0.69936907722E+03  0.15432661277E+04  0.16943712638E+04  0.10100000352E+00 0.  1.
       -3    1    3    3    0  502 -0.10320962470E+02 -0.69936907722E+03 -0.34363106584E+03  0.77929836908E+03  0.10100000352E+00 0. -1.
</event>
<event>
 5   0  0.9179618E-05  0.1903747E+04  0.7818609E-02  0.8652993E-01
       -2   -1    0    0    0  501  0.00000000000E+00  0.00000000000E+00  0.54206310372E+03  0.54206310372E+03  0.25500000920E-02 0. -1.
        2   -1    0    0  501    0  0.00000000000E+00  0.00000000000E+00 -0.16715090371E+04  0.16715090371E+04  0.25500000920E-02 0.  1.
    10030    2    1    2    0    0  0.00000000000E+00  0.00000000000E+00 -0.11294459334E+04  0.22135721408E+04  0.19037472275E+04 0.  0.
        3    1    3    3  502    0  0.12377213571E+03  0.87688122216E+03 -0.97055778430E+03  0.13138579231E+04  0.10100000352E+00 0.  1.
       -3    1    3    3    0  502 -0.12377213571E+03 -0.87688122216E+03 -0.15888814907E+03  0.89971421767E+03  0.10100000352E+00 0. -1.
</event>
<event>
 5   0  0.4063293E-05  0.2198873E+04  0.7818609E-02  0.8518897E-01
        1   -1    0    0  501    0  0.00000000000E+00  0.00000000000E+00  0.14781419729E+04  0.14781419729E+04  0.50400001928E-02 0.  1.
       -1   -1    0    0    0  501  0.00000000000E+00  0.00000000000E+00 -0.81775711875E+03  0.81775711876E+03  0.50400001928E-02 0. -1.
    10030    2    1    2    0    0  0.00000000000E+00  0.00000000000E+00  0.66038485413E+03  0.22958990917E+04  0.21988734578E+04 0.  0.
        1    1    3    3  502    0  0.82310301931E+03 -0.36734190368E+03  0.98751251564E+03  0.13370189315E+04  0.50400001928E-02 0.  1.
       -1    1    3    3    0  502 -0.82310301931E+03  0.36734190368E+03 -0.32712766150E+03  0.95888016016E+03  0.50400001928E-02 0. -1.
</event>
<event>
 5   0  0.4063293E-05  0.2196913E+04  0.7818609E-02  0.8519714E-01
        1   -1    0    0  501    0  0.00000000000E+00  0.00000000000E+00  0.71659064565E+03  0.71659064567E+03  0.50400001928E-02 0.  1.
       -1   -1    0    0    0  501  0.00000000000E+00  0.00000000000E+00 -0.16838159813E+04  0.16838159814E+04  0.50400001928E-02 0. -1.
    10030    2    1    2    0    0  0.00000000000E+00  0.00000000000E+00 -0.96722533570E+03  0.24004066270E+04  0.21969130900E+04 0.  0.
        1    1    3    3  502    0  0.71035776115E+03 -0.20820841265E+03 -0.13703573502E+04  0.15575102437E+04  0.50400001928E-02 0. -1.
       -1    1    3    3    0  502 -0.71035776115E+03  0.20820841265E+03  0.40313201449E+03  0.84289638334E+03  0.50400001928E-02 0.  1.
</event>
<event>
 5   0  0.9457742E-05  0.2155294E+04  0.7818609E-02  0.8537270E-01
       -2   -1    0    0    0  501  0.00000000000E+00  0.00000000000E+00  0.79447821983E+03  0.79447821983E+03  0.25500000920E-02 0. -1.
        2   -1    0    0  501    0  0.00000000000E+00  0.00000000000E+00 -0.14617431960E+04  0.14617431960E+04  0.25500000920E-02 0.  1.
    10030    2    1    2    0    0  0.00000000000E+00  0.00000000000E+00 -0.66726497613E+03  0.22562214158E+04  0.21552940701E+04 0.  0.
        1    1    3    3  502    0 -0.45236690365E+03 -0.66772408892E+03  0.41456142403E+03  0.90683650608E+03  0.50400001928E-02 0. -1.
       -1    1    3    3    0  502  0.45236690365E+03  0.66772408892E+03 -0.10818264002E+04  0.13493849097E+04  0.50400001928E-02 0.  1.
</event>
<event>
 5   0  0.4063293E-05  0.2223626E+04  0.7818609E-02  0.8508658E-01
        1   -1    0    0  501    0  0.00000000000E+00  0.00000000000E+00  0.17041869447E+04  0.17041869447E+04  0.50400001928E-02 0.  1.
       -1   -1    0    0    0  501  0.00000000000E+00  0.00000000000E+00 -0.72534787832E+03  0.72534787834E+03  0.50400001928E-02 0. -1.
    10030    2    1    2    0    0  0.00000000000E+00  0.00000000000E+00  0.97883906639E+03  0.24295348231E+04  0.22236262138E+04 0.  0.
        1    1    3    3  502    0 -0.74611531798E+03  0.61308215668E+02 -0.40869638860E+03  0.85292408989E+03  0.50400001928E-02 0. -1.
       -1    1    3    3    0  502  0.74611531798E+03 -0.61308215668E+02  0.13875354550E+04  0.15766107332E+04  0.50400001928E-02 0.  1.
</event>
<event>
 5   0  0.4063293E-05  0.2162315E+04  0.7818609E-02  0.8534279E-01
       -1   -1    0    0    0  501  0.00000000000E+00  0.00000000000E+00  0.11969817759E+04  0.11969817760E+04  0.50400001928E-02 0. -1.
        1   -1    0    0  501    0  0.00000000000E+00  0.00000000000E+00 -0.97654102877E+03  0.97654102878E+03  0.50400001928E-02 0.  1.
    10030    2    1    2    0    0  0.00000000000E+00  0.00000000000E+00  0.22044074718E+03  0.21735228047E+04  0.21623152545E+04 0.  0.
        1    1    3    3  502    0 -0.64632208780E+03  0.64766232386E+03  0.68914223036E+03  0.11454762069E+04  0.50400001928E-02 0. -1.
       -1    1    3    3    0  502  0.64632208780E+03 -0.64766232386E+03 -0.46870148319E+03  0.10280465978E+04  0.50400001928E-02 0.  1.
</event>
<event>
 5   0  0.9179618E-05  0.2224844E+04  0.7818609E-02  0.8508158E-01
       -2   -1    0    0    0  501  0.00000000000E+00  0.00000000000E+00  0.63549945746E+03  0.63549945747E+03  0.25500000920E-02 0. -1.
        2   -1    0    0  501    0  0.00000000000E+00  0.00000000000E+00 -0.19472602187E+04  0.19472602187E+04  0.25500000920E-02 0.  1.
    10030    2    1    2    0    0  0.00000000000E+00  0.00000000000E+00 -0.13117607612E+04  0.25827596762E+04  0.22248440957E+04 0.  0.
        3    1    3    3  502    0  0.75578358676E+03  0.39842474120E+03  0.17113959482E+03  0.87134371837E+03  0.10100000352E+00 0. -1.
       -3    1    3    3    0  502 -0.75578358676E+03 -0.39842474120E+03 -0.14829003561E+04  0.17114159578E+04  0.10100000352E+00 0.  1.
</event>
<event>
 5   0  0.9938176E-05  0.2200121E+04  0.7818609E-02  0.8518378E-01
       -2   -1    0    0    0  501  0.00000000000E+00  0.00000000000E+00  0.84875040856E+03  0.84875040857E+03  0.25500000920E-02 0. -1.
        2   -1    0    0  501    0  0.00000000000E+00  0.00000000000E+00 -0.14257826017E+04  0.14257826017E+04  0.25500000920E-02 0.  1.
    10030    2    1    2    0    0  0.00000000000E+00  0.00000000000E+00 -0.57703219310E+03  0.22745330102E+04  0.22001214200E+04 0.  0.
        5    1    3    3  502    0 -0.90295877300E+03  0.16369615945E+03  0.33861450887E+03  0.97816811130E+03  0.46999998093E+01 0.  1.
       -5    1    3    3    0  502  0.90295877300E+03 -0.16369615945E+03 -0.91564670196E+03  0.12963648989E+04  0.46999998093E+01 0. -1.
</event>
<event>
 5   0  0.9254673E-05  0.2194447E+04  0.7818609E-02  0.8520743E-01
       -2   -1    0    0    0  501  0.00000000000E+00  0.00000000000E+00  0.98146404089E+03  0.98146404090E+03  0.25500000920E-02 0. -1.
        2   -1    0    0  501    0  0.00000000000E+00  0.00000000000E+00 -0.12266367065E+04  0.12266367065E+04  0.25500000920E-02 0.  1.
    10030    2    1    2    0    0  0.00000000000E+00  0.00000000000E+00 -0.24517266556E+03  0.22081007474E+04  0.21944473734E+04 0.  0.
        2    1    3    3  502    0 -0.56435366799E+03  0.36444593378E+03 -0.99549977469E+03  0.12009728151E+04  0.25500000920E-02 0.  1.
       -2    1    3    3    0  502  0.56435366799E+03 -0.36444593378E+03  0.75032710912E+03  0.10071279322E+04  0.25500000920E-02 0. -1.
</event>
<event>
 5   0  0.9254673E-05  0.2206728E+04  0.7818609E-02  0.8515633E-01
        2   -1    0    0  501    0  0.00000000000E+00  0.00000000000E+00  0.77591401577E+03  0.77591401578E+03  0.25500000920E-02 0.  1.
       -2   -1    0    0    0  501  0.00000000000E+00  0.00000000000E+00 -0.15690045056E+04  0.15690045056E+04  0.25500000920E-02 0. -1.
    10030    2    1    2    0    0  0.00000000000E+00  0.00000000000E+00 -0.79309048986E+03  0.23449185214E+04  0.22067284262E+04 0.  0.
        2    1    3    3  502    0 -0.85015134671E+03  0.70331503338E+03 -0.39463304189E+03  0.11718125218E+04  0.25500000920E-02 0. -1.
       -2    1    3    3    0  502  0.85015134671E+03 -0.70331503338E+03 -0.39845744797E+03  0.11731059996E+04  0.25500000920E-02 0.  1.
</event>
<event>
 5   0  0.9179618E-05  0.2208202E+04  0.7818609E-02  0.8515022E-01
        2   -1    0    0  501    0  0.00000000000E+00  0.00000000000E+00  0.20232934940E+04  0.20232934940E+04  0.25500000920E-02 0. -1.
       -2   -1    0    0    0  501  0.00000000000E+00  0.00000000000E+00 -0.60250231469E+03  0.60250231470E+03  0.25500000920E-02 0.  1.
    10030    2    1    2    0    0  0.00000000000E+00  0.00000000000E+00  0.14207911793E+04  0.26257958087E+04  0.22082019957E+04 0.  0.
        3    1    3    3  502    0  0.41915862865E+03 -0.96736899137E+03  0.11003481500E+04  0.15238972350E+04  0.10100000352E+00 0. -1.
       -3    1    3    3    0  502 -0.41915862865E+03  0.96736899137E+03  0.32044302926E+03  0.11018985737E+04  0.10100000352E+00 0.  1.
</event>
<event>
 5   0  0.4174030E-05  0.2182343E+04  0.7818609E-02  0.8525814E-01
        1   -1    0    0  501    0  0.00000000000E+00  0.00000000000E+00  0.19160526174E+04  0.19160526174E+04  0.50400001928E-02 0. -1.
       -1   -1    0    0    0  501  0.00000000000E+00  0.00000000000E+00 -0.62141035056E+03  0.62141035058E+03  0.50400001928E-02 0.  1.
    10030    2    1    2    0    0  0.00000000000E+00  0.00000000000E+00  0.12946422668E+04  0.25374629680E+04  0.21823427125E+04 0.  0.
        2    1    3    3  502    0  0.52290377038E+03 -0.12581694307E+03  0.17512338478E+04  0.18319602195E+04  0.25500000920E-02 0. -1.
       -2    1    3    3    0  502 -0.52290377038E+03  0.12581694307E+03 -0.45659158097E+03  0.70550274844E+03  0.25500000920E-02 0.  1.
</event>
<event>
 5   0  0.9457742E-05  0.1992323E+04  0.7818609E-02  0.8610218E-01
       -2   -1    0    0    0  501  0.00000000000E+00  0.00000000000E+00  0.56477400702E+03  0.56477400702E+03  0.25500000920E-02 0.  1.
        2   -1    0    0  501    0  0.00000000000E+00  0.00000000000E+00 -0.17570524881E+04  0.17570524881E+04  0.25500000920E-02 0. -1.
    10030    2    1    2    0    0  0.00000000000E+00  0.00000000000E+00 -0.11922784811E+04  0.23218264952E+04  0.19923228396E+04 0.  0.
        1    1    3    3  502    0  0.83745473951E+03 -0.40668024987E+03 -0.18309504960E+03  0.94881139516E+03  0.50400001928E-02 0. -1.
       -1    1    3    3    0  502 -0.83745473951E+03  0.40668024987E+03 -0.10091834315E+04  0.13730151000E+04  0.50400001928E-02 0.  1.
</event>
<event>
 5   0  0.4188865E-05  0.1671807E+04  0.7818609E-02  0.8777609E-01
       -1   -1    0    0    0  501  0.00000000000E+00  0.00000000000E+00  0.76089794171E+03  0.76089794172E+03  0.50400001928E-02 0.  1.
        1   -1    0    0  501    0  0.00000000000E+00  0.00000000000E+00 -0.91830244669E+03  0.91830244671E+03  0.50400001928E-02 0. -1.
    10030    2    1    2    0    0  0.00000000000E+00  0.00000000000E+00 -0.15740450499E+03  0.16792003884E+04  0.16718067371E+04 0.  0.
        3    1    3    3  502    0 -0.14567534913E+03 -0.80691232057E+03 -0.24191900390E+03  0.85489976902E+03  0.10100000352E+00 0. -1.
       -3    1    3    3    0  502  0.14567534913E+03  0.80691232057E+03  0.84514498911E+02  0.82430061941E+03  0.10100000352E+00 0.  1.
</event>
<event>
 5   0  0.4188865E-05  0.2092193E+04  0.7818609E-02  0.8564690E-01
       -1   -1    0    0    0  501  0.00000000000E+00  0.00000000000E+00  0.48919975319E+03  0.48919975321E+03  0.50400001928E-02 0.  1.
        1   -1    0    0  501    0  0.00000000000E+00  0.00000000000E+00 -0.22369546190E+04  0.22369546190E+04  0.50400001928E-02 0. -1.
    10030    2    1    2    0    0  0.00000000000E+00  0.00000000000E+00 -0.17477548658E+04  0.27261543722E+04  0.20921927708E+04 0.  0.
        3    1    3    3  502    0 -0.26811254455E+03  0.69647101536E+03 -0.18290503308E+04  0.19754445916E+04  0.10100000352E+00 0. -1.
       -3    1    3    3    0  502  0.26811254455E+03 -0.69647101536E+03  0.81295465028E+02  0.75070978055E+03  0.10100000352E+00 0.  1.
</event>
<event>
 5   0  0.4133418E-05  0.2159719E+04  0.7818609E-02  0.8535383E-01
        1   -1    0    0  501    0  0.00000000000E+00  0.00000000000E+00  0.24881026076E+04  0.24881026076E+04  0.50400001928E-02 0. -1.
       -1   -1    0    0    0  501  0.00000000000E+00  0.00000000000E+00 -0.46866910281E+03  0.46866910284E+03  0.50400001928E-02 0.  1.
    10030    2    1    2    0    0  0.00000000000E+00  0.00000000000E+00  0.20194335048E+04  0.29567717104E+04  0.21597192566E+04 0.  0.
        4    1    3    3  502    0 -0.12258563073E+03 -0.52034912294E+03  0.22942253580E+04  0.23556871721E+04  0.12699999809E+01 0. -1.
       -4    1    3    3    0  502  0.12258563073E+03  0.52034912294E+03 -0.27479185329E+03  0.60108453827E+03  0.12699999809E+01 0.  1.
</event>
<event>
 5   0  0.9442578E-05  0.2213107E+04  0.7818609E-02  0.8512993E-01
       -2   -1    0    0    0  501  0.00000000000E+00  0.00000000000E+00  0.89350632495E+03  0.89350632495E+03  0.25500000920E-02 0.  1.
        2   -1    0    0  501    0  0.00000000000E+00  0.00000000000E+00 -0.13703993167E+04  0.13703993167E+04  0.25500000920E-02 0. -1.
    10030    2    1    2    0    0  0.00000000000E+00  0.00000000000E+00 -0.47689299178E+03  0.22639056417E+04  0.22131068273E+04 0.  0.
        4    1    3    3  502    0  0.25705118540E+03 -0.38700170456E+03 -0.12657961296E+04  0.13483645967E+04  0.12699999809E+01 0. -1.
       -4    1    3    3    0  502 -0.25705118540E+03  0.38700170456E+03  0.78890313779E+03  0.91554104493E+03  0.12699999809E+01 0.  1.
</event>
<event>
 5   0  0.4188865E-05  0.2177674E+04  0.7818609E-02  0.8527779E-01
       -1   -1    0    0    0  501  0.00000000000E+00  0.00000000000E+00  0.98649413859E+03  0.98649413861E+03  0.50400001928E-02 0.  1.
        1   -1    0    0  501    0  0.00000000000E+00  0.00000000000E+00 -0.12017971481E+04  0.12017971481E+04  0.50400001928E-02 0. -1.
    10030    2    1    2    0    0  0.00000000000E+00  0.00000000000E+00 -0.21530300952E+03  0.21882912867E+04  0.21776738437E+04 0.  0.
        3    1    3    3  502    0  0.12756756550E+03  0.10756558099E+04  0.35992836339E+01  0.10831998293E+04  0.10100000352E+00 0.  1.
       -3    1    3    3    0  502 -0.12756756550E+03 -0.10756558099E+04 -0.21890229315E+03  0.11050914574E+04  0.10100000352E+00 0. -1.
</event>
<event>
 5   0  0.9938176E-05  0.2280241E+04  0.7818609E-02  0.8485753E-01
        2   -1    0    0  501    0  0.00000000000E+00  0.00000000000E+00  0.30553104640E+04  0.30553104640E+04  0.25500000920E-02 0.  1.
       -2   -1    0    0    0  501  0.00000000000E+00  0.00000000000E+00 -0.42544751787E+03  0.42544751787E+03  0.25500000920E-02 0. -1.
    10030    2    1    2    0    0  0.00000000000E+00  0.00000000000E+00  0.26298629461E+04  0.34807579818E+04  0.22802405603E+04 0.  0.
        5    1    3    3  502    0 -0.54217111377E+03  0.61732632763E+03  0.10832002049E+03  0.82873193991E+03  0.46999998093E+01 0. -1.
       -5    1    3    3    0  502  0.54217111377E+03 -0.61732632763E+03  0.25215429256E+04  0.26520260419E+04  0.46999998093E+01 0.  1.
</event>
<event>
 5   0  0.4188865E-05  0.2163922E+04  0.7818609E-02  0.8533596E-01
        1   -1    0    0  501    0  0.00000000000E+00  0.00000000000E+00  0.11021268430E+04  0.11021268430E+04  0.50400001928E-02 0. -1.
       -1   -1    0    0    0  501  0.00000000000E+00  0.00000000000E+00 -0.10621644879E+04  0.10621644879E+04  0.50400001928E-02 0.  1.
    10030    2    1    2    0    0  0.00000000000E+00  0.00000000000E+00  0.39962355079E+02  0.21642913309E+04  0.21639223588E+04 0.  0.
        3    1    3    3  502    0 -0.39683643663E+03  0.37022563707E+03 -0.91617724714E+03  0.10648600557E+04  0.10100000352E+00 0.  1.
       -3    1    3    3    0  502  0.39683643663E+03 -0.37022563707E+03  0.95613960222E+03  0.10994312752E+04  0.10100000352E+00 0. -1.
</event>
<event>
 5   0  0.9457742E-05  0.2211447E+04  0.7818609E-02  0.8513679E-01
        2   -1    0    0  501    0  0.00000000000E+00  0.00000000000E+00  0.77074140804E+03  0.77074140804E+03  0.25500000920E-02 0.  1.
       -2   -1    0    0    0  501  0.00000000000E+00  0.00000000000E+00 -0.15862967417E+04  0.15862967417E+04  0.25500000920E-02 0. -1.
    10030    2    1    2    0    0  0.00000000000E+00  0.00000000000E+00 -0.81555533369E+03  0.23570381498E+04  0.22114471138E+04 0.  0.
        1    1    3    3  502    0  0.29183816217E+03  0.88258882669E+03  0.23038267126E+03  0.95771014673E+03  0.50400001928E-02 0.  1.
       -1    1    3    3    0  502 -0.29183816217E+03 -0.88258882669E+03 -0.10459380050E+04  0.13993280031E+04  0.50400001928E-02 0. -1.
</event>
<event>
 5   0  0.4188865E-05  0.2194762E+04  0.7818609E-02  0.8520611E-01
        1   -1    0    0  501    0  0.00000000000E+00  0.00000000000E+00  0.11490747411E+04  0.11490747411E+04  0.50400001928E-02 0. -1.
       -1   -1    0    0    0  501  0.00000000000E+00  0.00000000000E+00 -0.10480127317E+04  0.10480127317E+04  0.50400001928E-02 0.  1.
    10030    2    1    2    0    0  0.00000000000E+00  0.00000000000E+00  0.10106200938E+03  0.21970874729E+04  0.21947619082E+04 0.  0.
        3    1    3    3  502    0  0.53915092939E+03 -0.36886337946E+03  0.93322550472E+03  0.11391460706E+04  0.10100000352E+00 0. -1.
       -3    1    3    3    0  502 -0.53915092939E+03  0.36886337946E+03 -0.83216349534E+03  0.10579414022E+04  0.10100000352E+00 0.  1.
</event>
<event>
 5   0  0.9938176E-05  0.2191258E+04  0.7818609E-02  0.8522076E-01
        2   -1    0    0  501    0  0.00000000000E+00  0.00000000000E+00  0.10330984854E+04  0.10330984854E+04  0.25500000920E-02 0. -1.
       -2   -1    0    0    0  501  0.00000000000E+00  0.00000000000E+00 -0.11619442595E+04  0.11619442595E+04  0.25500000920E-02 0.  1.
    10030    2    1    2    0    0  0.00000000000E+00  0.00000000000E+00 -0.12884577411E+03  0.21950427449E+04  0.21912579534E+04 0.  0.
        5    1    3    3  502    0 -0.14961152481E+03  0.10707016606E+04 -0.24248003537E+03  0.11079730646E+04  0.46999998093E+01 0.  1.
       -5    1    3    3    0  502  0.14961152481E+03 -0.10707016606E+04  0.11363426126E+03  0.10870696802E+04  0.46999998093E+01 0. -1.
</event>
<event>
 5   0  0.9179618E-05  0.2174278E+04  0.7818609E-02  0.8529211E-01
       -2   -1    0    0    0  501  0.00000000000E+00  0.00000000000E+00  0.83027851591E+03  0.83027851591E+03  0.25500000920E-02 0.  1.
        2   -1    0    0  501    0  0.00000000000E+00  0.00000000000E+00 -0.14234635708E+04  0.14234635708E+04  0.25500000920E-02 0. -1.
    10030    2    1    2    0    0  0.00000000000E+00  0.00000000000E+00 -0.59318505485E+03  0.22537420867E+04  0.21742780144E+04 0.  0.
        3    1    3    3  502    0 -0.59066007390E+03  0.11072459440E+02 -0.12425629648E+04  0.13758505202E+04  0.10100000352E+00 0. -1.
       -3    1    3    3    0  502  0.59066007390E+03 -0.11072459440E+02  0.64937790999E+03  0.87789156644E+03  0.10100000352E+00 0.  1.
</event>
<event>
 5   0  0.9179618E-05  0.2209229E+04  0.7818609E-02  0.8514596E-01
        2   -1    0    0  501    0  0.00000000000E+00  0.00000000000E+00  0.24088296570E+04  0.24088296570E+04  0.25500000920E-02 0. -1.
       -2   -1    0    0    0  501  0.00000000000E+00  0.00000000000E+00 -0.50654209292E+03  0.50654209292E+03  0.25500000920E-02 0.  1.
    10030    2    1    2    0    0  0.00000000000E+00  0.00000000000E+00  0.19022875641E+04  0.29153717500E+04  0.22092293824E+04 0.  0.
        3    1    3    3  502    0  0.25789645845E+03  0.27021292438E+02  0.23680957916E+04  0.23822507051E+04  0.10100000352E+00 0. -1.
       -3    1    3    3    0  502 -0.25789645845E+03 -0.27021292438E+02 -0.46580822746E+03  0.53312104488E+03  0.10100000352E+00 0.  1.
</event>
<event>
 5   0  0.4063293E-05  0.2213506E+04  0.7818609E-02  0.8512827E-01
        1   -1    0    0  501    0  0.00000000000E+00  0.00000000000E+00  0.97916044847E+03  0.97916044848E+03  0.50400001928E-02 0. -1.
       -1   -1    0    0    0  501  0.00000000000E+00  0.00000000000E+00 -0.12509721932E+04  0.12509721932E+04  0.50400001928E-02 0.  1.
    10030    2    1    2    0    0  0.00000000000E+00  0.00000000000E+00 -0.27181174468E+03  0.22301326416E+04  0.22135062626E+04 0.  0.
        1    1    3    3  502    0 -0.82784563965E+03 -0.50990067617E+03  0.39681462802E+03  0.10501375870E+04  0.50400001928E-02 0. -1.
       -1    1    3    3    0  502  0.82784563965E+03  0.50990067617E+03 -0.66862637270E+03  0.11799950546E+04  0.50400001928E-02 0.  1.
</event>
<event>
 5   0  0.4133418E-05  0.2248730E+04  0.7818609E-02  0.8498415E-01
       -1   -1    0    0    0  501  0.00000000000E+00  0.00000000000E+00  0.93824647321E+03  0.93824647323E+03  0.50400001928E-02 0.  1.
        1   -1    0    0  501    0  0.00000000000E+00  0.00000000000E+00 -0.13474032258E+04  0.13474032258E+04  0.50400001928E-02 0. -1.
    10030    2    1    2    0    0  0.00000000000E+00  0.00000000000E+00 -0.40915675256E+03  0.22856496990E+04  0.22487297077E+04 0.  0.
        4    1    3    3  502    0 -0.43659260503E+02  0.39643266056E+03  0.86393273790E+03  0.95154945952E+03  0.12699999809E+01 0.  1.
       -4    1    3    3    0  502  0.43659260503E+02 -0.39643266056E+03 -0.12730894905E+04  0.13341002395E+04  0.12699999809E+01 0. -1.
</event>
<event>
 5   0  0.4063293E-05  0.2036476E+04  0.7818609E-02  0.8589754E-01
        1   -1    0    0  501    0  0.00000000000E+00  0.00000000000E+00  0.16387952691E+04  0.16387952691E+04  0.50400001928E-02 0. -1.
       -1   -1    0    0    0  501  0.00000000000E+00  0.00000000000E+00 -0.63266494029E+03  0.63266494031E+03  0.50400001928E-02 0.  1.
    10030    2    1    2    0    0  0.00000000000E+00  0.00000000000E+00  0.10061303288E+04  0.22714602095E+04  0.20364756921E+04 0.  0.
        1    1    3    3  502    0 -0.55952171662E+02  0.67246392779E+03 -0.34746463378E+03  0.75899278748E+03  0.50400001928E-02 0.  1.
       -1    1    3    3    0  502  0.55952171662E+02 -0.67246392779E+03  0.13535949626E+04  0.15124674220E+04  0.50400001928E-02 0. -1.
</event>
<event>
 5   0  0.4174075E-05  0.2198436E+04  0.7818609E-02  0.8519079E-01
        1   -1    0    0  501    0  0.00000000000E+00  0.00000000000E+00  0.55252496856E+03  0.55252496858E+03  0.50400001928E-02 0. -1.
       -1   -1    0    0    0  501  0.00000000000E+00  0.00000000000E+00 -0.21868346472E+04  0.21868346472E+04  0.50400001928E-02 0.  1.
    10030    2    1    2    0    0  0.00000000000E+00  0.00000000000E+00 -0.16343096786E+04  0.27393596157E+04  0.21984364851E+04 0.  0.
        5    1    3    3  502    0 -0.17302721124E+03 -0.14803869072E+03 -0.21571093841E+04  0.21691004713E+04  0.46999998093E+01 0.  1.
       -5    1    3    3    0  502  0.17302721124E+03  0.14803869072E+03  0.52279970547E+03  0.57025914444E+03  0.46999998093E+01 0. -1.
</event>
<event>
 5   0  0.4188865E-05  0.2209288E+04  0.7818609E-02  0.8514572E-01
       -1   -1    0    0    0  501  0.00000000000E+00  0.00000000000E+00  0.97979136088E+03  0.97979136089E+03  0.50400001928E-02 0.  1.
        1   -1    0    0  501    0  0.00000000000E+00  0.00000000000E+00 -0.12454064231E+04  0.12454064231E+04  0.50400001928E-02 0. -1.
    10030    2    1    2    0    0  0.00000000000E+00  0.00000000000E+00 -0.26561506219E+03  0.22251977840E+04  0.22092880791E+04 0.  0.
        3    1    3    3  502    0  0.33900779479E+03 -0.12009388033E+03  0.91917050893E+03  0.98702748681E+03  0.10100000352E+00 0.  1.
       -3    1    3    3    0  502 -0.33900779479E+03  0.12009388033E+03 -0.11847855711E+04  0.12381702972E+04  0.10100000352E+00 0. -1.
</event>
<event>
 5   0  0.4133418E-05  0.2367449E+04  0.7818609E-02  0.8451792E-01
        1   -1    0    0  501    0  0.00000000000E+00  0.00000000000E+00  0.24058902935E+04  0.24058902935E+04  0.50400001928E-02 0. -1.
       -1   -1    0    0    0  501  0.00000000000E+00  0.00000000000E+00 -0.58240540261E+03  0.58240540263E+03  0.50400001928E-02 0.  1.
    10030    2    1    2    0    0  0.00000000000E+00  0.00000000000E+00  0.18234848909E+04  0.29882956961E+04  0.23674488422E+04 0.  0.
        4    1    3    3  502    0 -0.73671845447E+03  0.74768482854E+03  0.22105765268E+03  0.10726857800E+04  0.12699999809E+01 0. -1.
       -4    1    3    3    0  502  0.73671845447E+03 -0.74768482854E+03  0.16024272382E+04  0.19156099161E+04  0.12699999809E+01 0.  1.
</event>
<event>
 5   0  0.4174030E-05  0.2190450E+04  0.7818609E-02  0.8522414E-01
        1   -1    0    0  501    0  0.00000000000E+00  0.00000000000E+00  0.85045959326E+03  0.85045959328E+03  0.50400001928E-02 0. -1.
       -1   -1    0    0    0  501  0.00000000000E+00  0.00000000000E+00 -0.14104343128E+04  0.14104343128E+04  0.50400001928E-02 0.  1.
    10030    2    1    2    0    0  0.00000000000E+00  0.00000000000E+00 -0.55997471954E+03  0.22608939061E+04  0.21904496269E+04 0.  0.
        2    1    3    3  502    0  0.49807458651E+03  0.76353983818E+03 -0.90650577990E+03  0.12856220701E+04  0.25500000920E-02 0.  1.
       -2    1    3    3    0  502 -0.49807458651E+03 -0.76353983818E+03  0.34653106035E+03  0.97527183596E+03  0.25500000920E-02 0. -1.
</event>
<event>
 5   0  0.9254673E-05  0.2201148E+04  0.7818609E-02  0.8517951E-01
        2   -1    0    0  501    0  0.00000000000E+00  0.00000000000E+00  0.23491292592E+04  0.23491292592E+04  0.25500000920E-02 0. -1.
       -2   -1    0    0    0  501  0.00000000000E+00  0.00000000000E+00 -0.51562195553E+03  0.51562195554E+03  0.25500000920E-02 0.  1.
    10030    2    1    2    0    0  0.00000000000E+00  0.00000000000E+00  0.18335073037E+04  0.28647512148E+04  0.22011475393E+04 0.  0.
        2    1    3    3  502    0  0.31265132723E+03 -0.56569589435E+03  0.20760946754E+04  0.21743807851E+04  0.25500000920E-02 0. -1.
       -2    1    3    3    0  502 -0.31265132723E+03  0.56569589435E+03 -0.24258737168E+03  0.69037042971E+03  0.25500000920E-02 0.  1.
</event>
<event>
 5   0  0.4174075E-05  0.2218344E+04  0.7818609E-02  0.8510831E-01
       -1   -1    0    0    0  501  0.00000000000E+00  0.00000000000E+00  0.79196905698E+03  0.79196905700E+03  0.50400001928E-02 0. -1.
        1   -1    0    0  501    0  0.00000000000E+00  0.00000000000E+00 -0.15534225680E+04  0.15534225680E+04  0.50400001928E-02 0.  1.
    10030    2    1    2    0    0  0.00000000000E+00  0.00000000000E+00 -0.76145351104E+03  0.23453916250E+04  0.22183440728E+04 0.  0.
        5    1    3    3  502    0  0.17642612059E+03 -0.18846831858E+03  0.75975201423E+03  0.80242862377E+03  0.46999998093E+01 0. -1.
       -5    1    3    3    0  502 -0.17642612059E+03  0.18846831858E+03 -0.15212055253E+04  0.15429630013E+04  0.46999998093E+01 0.  1.
</event>
<event>
 5   0  0.4188865E-05  0.2205700E+04  0.7818609E-02  0.8516059E-01
        1   -1    0    0  501    0  0.00000000000E+00  0.00000000000E+00  0.16389933662E+04  0.16389933662E+04  0.50400001928E-02 0.  1.
       -1   -1    0    0    0  501  0.00000000000E+00  0.00000000000E+00 -0.74208873765E+03  0.74208873767E+03  0.50400001928E-02 0. -1.
    10030    2    1    2    0    0  0.00000000000E+00  0.00000000000E+00  0.89690462852E+03  0.23810821039E+04  0.22057003588E+04 0.  0.
        3    1    3    3  502    0  0.11957920476E+03  0.68578341749E+03  0.13718495615E+04  0.15383657925E+04  0.10100000352E+00 0.  1.
       -3    1    3    3    0  502 -0.11957920476E+03 -0.68578341749E+03 -0.47494493296E+03  0.84271631138E+03  0.10100000352E+00 0. -1.
</event>
<event>
 5   0  0.9254673E-05  0.2169728E+04  0.7818609E-02  0.8531135E-01
        2   -1    0    0  501    0  0.00000000000E+00  0.00000000000E+00  0.13631260703E+04  0.13631260703E+04  0.25500000920E-02 0. -1.
       -2   -1    0    0    0  501  0.00000000000E+00  0.00000000000E+00 -0.86340480110E+03  0.86340480111E+03  0.25500000920E-02 0.  1.
    10030    2    1    2    0    0  0.00000000000E+00  0.00000000000E+00  0.49972126917E+03  0.22265308714E+04  0.21697277189E+04 0.  0.
        2    1    3    3  502    0 -0.30198988199E+03  0.38464807720E+03 -0.74388080916E+03  0.89023069502E+03  0.25500000920E-02 0.  1.
       -2    1    3    3    0  502  0.30198988199E+03 -0.38464807720E+03  0.12436020783E+04  0.13363001764E+04  0.25500000920E-02 0. -1.
</event>
<event>
 5   0  0.4174030E-05  0.2330191E+04  0.7818609E-02  0.8466112E-01
        1   -1    0    0  501    0  0.00000000000E+00  0.00000000000E+00  0.17876260626E+04  0.17876260626E+04  0.50400001928E-02 0.  1.
       -1   -1    0    0    0  501  0.00000000000E+00  0.00000000000E+00 -0.75935755074E+03  0.75935755076E+03  0.50400001928E-02 0. -1.
    10030    2    1    2    0    0  0.00000000000E+00  0.00000000000E+00  0.10282685119E+04  0.25469836134E+04  0.23301908493E+04 0.  0.
        2    1    3    3  502    0 -0.91224328886E+03 -0.45562971754E+03  0.11301852603E+04  0.15222039877E+04  0.25500000920E-02 0.  1.
       -2    1    3    3    0  502  0.91224328886E+03  0.45562971754E+03 -0.10191674844E+03  0.10247796257E+04  0.25500000920E-02 0. -1.
</event>
<event>
 5   0  0.4174075E-05  0.2208378E+04  0.7818609E-02  0.8514949E-01
       -1   -1    0    0    0  501  0.00000000000E+00  0.00000000000E+00  0.17677202525E+04  0.17677202526E+04  0.50400001928E-02 0. -1.
        1   -1    0    0  501    0  0.00000000000E+00  0.00000000000E+00 -0.68972044765E+03  0.68972044767E+03  0.50400001928E-02 0.  1.
    10030    2    1    2    0    0  0.00000000000E+00  0.00000000000E+00  0.10779998049E+04  0.24574407002E+04  0.22083775075E+04 0.  0.
        5    1    3    3  502    0  0.31855972152E+03  0.75533911640E+03 -0.28415220078E+03  0.86763012865E+03  0.46999998093E+01 0.  1.
       -5    1    3    3    0  502 -0.31855972152E+03 -0.75533911640E+03  0.13621520057E+04  0.15898105716E+04  0.46999998093E+01 0. -1.
</event>
<event>
 5   0  0.9457742E-05  0.2036449E+04  0.7818609E-02  0.8589767E-01
        2   -1    0    0  501    0  0.00000000000E+00  0.00000000000E+00  0.95437569563E+03  0.95437569563E+03  0.25500000920E-02 0. -1.
       -2   -1    0    0    0  501  0.00000000000E+00  0.00000000000E+00 -0.10863443315E+04  0.10863443315E+04  0.25500000920E-02 0.  1.
    10030    2    1    2    0    0  0.00000000000E+00  0.00000000000E+00 -0.13196863584E+03  0.20407200271E+04  0.20364485037E+04 0.  0.
        1    1    3    3  502    0 -0.48800256398E+03  0.69386306324E+03  0.49839161759E+03  0.98386312945E+03  0.50400001928E-02 0. -1.
       -1    1    3    3    0  502  0.48800256398E+03 -0.69386306324E+03 -0.63036025343E+03  0.10568568977E+04  0.50400001928E-02 0.  1.
</event>
<event>
 5   0  0.9254673E-05  0.2205333E+04  0.7818609E-02  0.8516212E-01
       -2   -1    0    0    0  501  0.00000000000E+00  0.00000000000E+00  0.51796771569E+03  0.51796771570E+03  0.25500000920E-02 0.  1.
        2   -1    0    0  501    0  0.00000000000E+00  0.00000000000E+00 -0.23473920160E+04  0.23473920160E+04  0.25500000920E-02 0. -1.
    10030    2    1    2    0    0  0.00000000000E+00  0.00000000000E+00 -0.18294243003E+04  0.28653597317E+04  0.22053328823E+04 0.  0.
        2    1    3    3  502    0 -0.35154677926E+03  0.73297953571E+03  0.53260070164E+02  0.81466604989E+03  0.25500000920E-02 0.  1.
       -2    1    3    3    0  502  0.35154677926E+03 -0.73297953571E+03 -0.18826843705E+04  0.20506936818E+04  0.25500000920E-02 0. -1.
</event>
<event>
 5   0  0.9442578E-05  0.2211524E+04  0.7818609E-02  0.8513647E-01
        2   -1    0    0  501    0  0.00000000000E+00  0.00000000000E+00  0.17024599318E+04  0.17024599318E+04  0.25500000920E-02 0. -1.
       -2   -1    0    0    0  501  0.00000000000E+00  0.00000000000E+00 -0.71820176950E+03  0.71820176951E+03  0.25500000920E-02 0.  1.
    10030    2    1    2    0    0  0.00000000000E+00  0.00000000000E+00  0.98425816228E+03  0.24206617013E+04  0.22115241220E+04 0.  0.
        4    1    3    3  502    0  0.55787963186E+03  0.48381425129E+03  0.13930065445E+04  0.15766339966E+04  0.12699999809E+01 0. -1.
       -4    1    3    3    0  502 -0.55787963186E+03 -0.48381425129E+03 -0.40874838221E+03  0.84402770467E+03  0.12699999809E+01 0.  1.
</event>
<event>
 5   0  0.9938176E-05  0.1961286E+04  0.7818609E-02  0.8624938E-01
       -2   -1    0    0    0  501  0.00000000000E+00  0.00000000000E+00  0.63459871836E+03  0.63459871836E+03  0.25500000920E-02 0.  1.
        2   -1    0    0  501    0  0.00000000000E+00  0.00000000000E+00 -0.15153833201E+04  0.15153833201E+04  0.25500000920E-02 0. -1.
    10030    2    1    2    0    0  0.00000000000E+00  0.00000000000E+00 -0.88078460172E+03  0.21499820384E+04  0.19612856118E+04 0.  0.
        5    1    3    3  502    0 -0.26581255694E+03  0.14732905348E+03  0.58165936013E+03  0.65628642120E+03  0.46999998093E+01 0.  1.
       -5    1    3    3    0  502  0.26581255694E+03 -0.14732905348E+03 -0.14624439618E+04  0.14936956172E+04  0.46999998093E+01 0. -1.
</event>
<event>
 5   0  0.9442578E-05  0.2222296E+04  0.7818609E-02  0.8509205E-01
       -2   -1    0    0    0  501  0.00000000000E+00  0.00000000000E+00  0.12607384878E+04  0.12607384878E+04  0.25500000920E-02 0.  1.
        2   -1    0    0  501    0  0.00000000000E+00  0.00000000000E+00 -0.97930652620E+03  0.97930652620E+03  0.25500000920E-02 0. -1.
    10030    2    1    2    0    0  0.00000000000E+00  0.00000000000E+00  0.28143196157E+03  0.22400450140E+04  0.22222955959E+04 0.  0.
        4    1    3    3  502    0  0.10241371723E+04  0.28926659481E+03  0.46282374323E+03  0.11604910774E+04  0.12699999809E+01 0.  1.
       -4    1    3    3    0  502 -0.10241371723E+04 -0.28926659481E+03 -0.18139178166E+03  0.10795539366E+04  0.12699999809E+01 0. -1.
</event>
<event>
 5   0  0.9457742E-05  0.2213312E+04  0.7818609E-02  0.8512908E-01
        2   -1    0    0  501    0  0.00000000000E+00  0.00000000000E+00  0.16879237068E+04  0.16879237068E+04  0.25500000920E-02 0.  1.
       -2   -1    0    0    0  501  0.00000000000E+00  0.00000000000E+00 -0.72555835107E+03  0.72555835107E+03  0.25500000920E-02 0. -1.
    10030    2    1    2    0    0  0.00000000000E+00  0.00000000000E+00  0.96236535571E+03  0.24134820579E+04  0.22133116739E+04 0.  0.
        1    1    3    3  502    0 -0.50462858427E+03  0.75207754618E+03  0.11746339224E+04  0.14832516628E+04  0.50400001928E-02 0.  1.
       -1    1    3    3    0  502  0.50462858427E+03 -0.75207754618E+03 -0.21226856665E+03  0.93023039509E+03  0.50400001928E-02 0. -1.
</event>
<event>
 5   0  0.4133418E-05  0.2199354E+04  0.7818609E-02  0.8518697E-01
       -1   -1    0    0    0  501  0.00000000000E+00  0.00000000000E+00  0.64077361277E+03  0.64077361279E+03  0.50400001928E-02 0. -1.
        1   -1    0    0  501    0  0.00000000000E+00  0.00000000000E+00 -0.18872339021E+04  0.18872339021E+04  0.50400001928E-02 0.  1.
    10030    2    1    2    0    0  0.00000000000E+00  0.00000000000E+00 -0.12464602893E+04  0.25280075149E+04  0.21993541649E+04 0.  0.
        4    1    3    3  502    0 -0.47981593636E+03  0.50987976891E+03 -0.15979369952E+04  0.17445930657E+04  0.12699999809E+01 0.  1.
       -4    1    3    3    0  502  0.47981593636E+03 -0.50987976891E+03  0.35147670585E+03  0.78341444918E+03  0.12699999809E+01 0. -1.
</event>
<event>
 5   0  0.9254673E-05  0.2202876E+04  0.7818609E-02  0.8517232E-01
       -2   -1    0    0    0  501  0.00000000000E+00  0.00000000000E+00  0.93284670359E+03  0.93284670360E+03  0.25500000920E-02 0.  1.
        2   -1    0    0  501    0  0.00000000000E+00  0.00000000000E+00 -0.13004984888E+04  0.13004984888E+04  0.25500000920E-02 0. -1.
    10030    2    1    2    0    0  0.00000000000E+00  0.00000000000E+00 -0.36765178520E+03  0.22333451924E+04  0.22028760549E+04 0.  0.
        2    1    3    3  502    0 -0.10563848860E+04  0.77370506329E+02  0.12239571549E+03  0.10662626008E+04  0.25500000920E-02 0.  1.
       -2    1    3    3    0  502  0.10563848860E+04 -0.77370506329E+02 -0.49004750069E+03  0.11670825916E+04  0.25500000920E-02 0. -1.
</event>
<event>
 5   0  0.9179618E-05  0.2174805E+04  0.7818609E-02  0.8528989E-01
        2   -1    0    0  501    0  0.00000000000E+00  0.00000000000E+00  0.50224147722E+03  0.50224147723E+03  0.25500000920E-02 0. -1.
       -2   -1    0    0    0  501  0.00000000000E+00  0.00000000000E+00 -0.23543334333E+04  0.23543334333E+04  0.25500000920E-02 0.  1.
    10030    2    1    2    0    0  0.00000000000E+00  0.00000000000E+00 -0.18520919561E+04  0.28565749106E+04  0.21748047282E+04 0.  0.
        3    1    3    3  502    0  0.10091676293E+04 -0.38668398276E+03 -0.76788089374E+03  0.13257393725E+04  0.10100000352E+00 0. -1.
       -3    1    3    3    0  502 -0.10091676293E+04  0.38668398276E+03 -0.10842110624E+04  0.15308355381E+04  0.10100000352E+00 0.  1.
</event>
<event>
 5   0  0.3283125E-05  0.2198192E+04  0.7818609E-02  0.8519181E-01
       -4   -1    0    0    0  501  0.00000000000E+00  0.00000000000E+00  0.13025665700E+04  0.13025671891E+04  0.12699999809E+01 0. -1.
        4   -1    0    0  501    0  0.00000000000E+00  0.00000000000E+00 -0.92740802796E+03  0.92740889753E+03  0.12699999809E+01 0.  1.
    10030    2    1    2    0    0  0.00000000000E+00  0.00000000000E+00  0.37515854205E+03  0.22299760867E+04  0.21981923063E+04 0.  0.
        1    1    3    3  502    0 -0.35321427919E+03  0.93860102171E+03  0.64383796674E+03  0.11917464212E+04  0.50400001928E-02 0. -1.
       -1    1    3    3    0  502  0.35321427919E+03 -0.93860102171E+03 -0.26867942469E+03  0.10382296655E+04  0.50400001928E-02 0.  1.
</event>
<event>
 5   0  0.9457742E-05  0.2169807E+04  0.7818609E-02  0.8531101E-01
       -2   -1    0    0    0  501  0.00000000000E+00  0.00000000000E+00  0.98039222539E+03  0.98039222539E+03  0.25500000920E-02 0.  1.
        2   -1    0    0  501    0  0.00000000000E+00  0.00000000000E+00 -0.12005555226E+04  0.12005555226E+04  0.25500000920E-02 0. -1.
    10030    2    1    2    0    0  0.00000000000E+00  0.00000000000E+00 -0.22016329720E+03  0.21809477480E+04  0.21698067200E+04 0.  0.
        1    1    3    3  502    0  0.35181126205E+03  0.70731381860E+03 -0.85750670329E+03  0.11659252756E+04  0.50400001928E-02 0. -1.
       -1    1    3    3    0  502 -0.35181126205E+03 -0.70731381860E+03  0.63734340609E+03  0.10150224724E+04  0.50400001928E-02 0.  1.
</event>
<event>
 5   0  0.4063293E-05  0.2269502E+04  0.7818609E-02  0.8490044E-01
        1   -1    0    0  501    0  0.00000000000E+00  0.00000000000E+00  0.20064171446E+04  0.20064171446E+04  0.50400001928E-02 0. -1.
       -1   -1    0    0    0  501  0.00000000000E+00  0.00000000000E+00 -0.64177102564E+03  0.64177102566E+03  0.50400001928E-02 0.  1.
    10030    2    1    2    0    0  0.00000000000E+00  0.00000000000E+00  0.13646461189E+04  0.26481881702E+04  0.22695024906E+04 0.  0.
        1    1    3    3  502    0  0.14876794925E+03  0.10430872695E+04  0.19072040715E+03  0.10707647866E+04  0.50400001928E-02 0.  1.
       -1    1    3    3    0  502 -0.14876794925E+03 -0.10430872695E+04  0.11739257118E+04  0.15774233836E+04  0.50400001928E-02 0. -1.
</event>
<event>
 5   0  0.9254673E-05  0.2202343E+04  0.7818609E-02  0.8517453E-01
       -2   -1    0    0    0  501  0.00000000000E+00  0.00000000000E+00  0.88974014060E+03  0.88974014060E+03  0.25500000920E-02 0.  1.
        2   -1    0    0  501    0  0.00000000000E+00  0.00000000000E+00 -0.13628460248E+04  0.13628460248E+04  0.25500000920E-02 0. -1.
    10030    2    1    2    0    0  0.00000000000E+00  0.00000000000E+00 -0.47310588419E+03  0.22525861654E+04  0.22023431283E+04 0.  0.
        2    1    3    3  502    0 -0.79557774199E+03  0.76118319796E+03 -0.22087319881E+03  0.11229998995E+04  0.25500000920E-02 0.  1.
       -2    1    3    3    0  502  0.79557774199E+03 -0.76118319796E+03 -0.25223268538E+03  0.11295862659E+04  0.25500000920E-02 0. -1.
</event>
<event>
 5   0  0.4188865E-05  0.2200174E+04  0.7818609E-02  0.8518356E-01
        1   -1    0    0  501    0  0.00000000000E+00  0.00000000000E+00  0.79651575950E+03  0.79651575952E+03  0.50400001928E-02 0. -1.
       -1   -1    0    0    0  501  0.00000000000E+00  0.00000000000E+00 -0.15193566257E+04  0.15193566257E+04  0.50400001928E-02 0.  1.
    10030    2    1    2    0    0  0.00000000000E+00  0.00000000000E+00 -0.72284086616E+03  0.23158723852E+04  0.22001740810E+04 0.  0.
        3    1    3    3  502    0 -0.97761822632E+03 -0.27100384978E+03  0.86406354279E+02  0.10181584117E+04  0.10100000352E+00 0. -1.
       -3    1    3    3    0  502  0.97761822632E+03  0.27100384978E+03 -0.80924722044E+03  0.12977139735E+04  0.10100000352E+00 0.  1.
</event>
<event>
 5   0  0.9938176E-05  0.2363574E+04  0.7818609E-02  0.8453268E-01
        2   -1    0    0  501    0  0.00000000000E+00  0.00000000000E+00  0.12194607006E+04  0.12194607006E+04  0.25500000920E-02 0.  1.
       -2   -1    0    0    0  501  0.00000000000E+00  0.00000000000E+00 -0.11452774909E+04  0.11452774909E+04  0.25500000920E-02 0. -1.
    10030    2    1    2    0    0  0.00000000000E+00  0.00000000000E+00  0.74183209788E+02  0.23647381915E+04  0.23635743199E+04 0.  0.
        5    1    3    3  502    0 -0.33691677575E+03 -0.79102703139E+03  0.84826956278E+03  0.12078162192E+04  0.46999998093E+01 0.  1.
       -5    1    3    3    0  502  0.33691677575E+03  0.79102703139E+03 -0.77408635299E+03  0.11569219723E+04  0.46999998093E+01 0. -1.
</event>
<event>
 5   0  0.4133418E-05  0.2228220E+04  0.7818609E-02  0.8506773E-01
        1   -1    0    0  501    0  0.00000000000E+00  0.00000000000E+00  0.12342025744E+04  0.12342025744E+04  0.50400001928E-02 0.  1.
       -1   -1    0    0    0  501  0.00000000000E+00  0.00000000000E+00 -0.10057026412E+04  0.10057026412E+04  0.50400001928E-02 0. -1.
    10030    2    1    2    0    0  0.00000000000E+00  0.00000000000E+00  0.22849993320E+03  0.22399052156E+04  0.22282197278E+04 0.  0.
        4    1    3    3  502    0 -0.71249384659E+02 -0.88179397962E+03 -0.56650314556E+03  0.10505067940E+04  0.12699999809E+01 0. -1.
       -4    1    3    3    0  502  0.71249384659E+02  0.88179397962E+03  0.79500307877E+03  0.11893984217E+04  0.12699999809E+01 0.  1.
</event>
<event>
 5   0  0.9442578E-05  0.2157901E+04  0.7818609E-02  0.8536158E-01
        2   -1    0    0  501    0  0.00000000000E+00  0.00000000000E+00  0.16610183979E+04  0.16610183979E+04  0.25500000920E-02 0.  1.
       -2   -1    0    0    0  501  0.00000000000E+00  0.00000000000E+00 -0.70085573612E+03  0.70085573612E+03  0.25500000920E-02 0. -1.
    10030    2    1    2    0    0  0.00000000000E+00  0.00000000000E+00  0.96016266176E+03  0.23618741340E+04  0.21579010839E+04 0.  0.
        4    1    3    3  502    0  0.29774309119E+03  0.83854057890E+03  0.11479484359E+04  0.14524422450E+04  0.12699999809E+01 0.  1.
       -4    1    3    3    0  502 -0.29774309119E+03 -0.83854057890E+03 -0.18778577413E+03  0.90943188897E+03  0.12699999809E+01 0. -1.
</event>
<event>
 5   0  0.4063293E-05  0.2226372E+04  0.7818609E-02  0.8507531E-01
       -1   -1    0    0    0  501  0.00000000000E+00  0.00000000000E+00  0.13264799591E+04  0.13264799591E+04  0.50400001928E-02 0. -1.
        1   -1    0    0  501    0  0.00000000000E+00  0.00000000000E+00 -0.93418899027E+03  0.93418899029E+03  0.50400001928E-02 0.  1.
    10030    2    1    2    0    0  0.00000000000E+00  0.00000000000E+00  0.39229096883E+03  0.22606689494E+04  0.22263719129E+04 0.  0.
        1    1    3    3  502    0 -0.84302118851E+03  0.12665682818E+03  0.92303377338E+03  0.12564704625E+04  0.50400001928E-02 0. -1.
       -1    1    3    3    0  502  0.84302118851E+03 -0.12665682818E+03 -0.53074280455E+03  0.10041984869E+04  0.50400001928E-02 0.  1.
</event>
<event>
 5   0  0.9457742E-05  0.2197974E+04  0.7818609E-02  0.8519272E-01
        2   -1    0    0  501    0  0.00000000000E+00  0.00000000000E+00  0.99211228155E+03  0.99211228156E+03  0.25500000920E-02 0.  1.
       -2   -1    0    0    0  501  0.00000000000E+00  0.00000000000E+00 -0.12173743514E+04  0.12173743514E+04  0.25500000920E-02 0. -1.
    10030    2    1    2    0    0  0.00000000000E+00  0.00000000000E+00 -0.22526206980E+03  0.22094866329E+04  0.21979736534E+04 0.  0.
        1    1    3    3  502    0  0.38567833770E+03 -0.70568631651E+03  0.64031241510E+03  0.10279790593E+04  0.50400001928E-02 0.  1.
       -1    1    3    3    0  502 -0.38567833770E+03  0.70568631651E+03 -0.86557448490E+03  0.11815075736E+04  0.50400001928E-02 0. -1.
</event>
<event>
 5   0  0.4133418E-05  0.1873455E+04  0.7818609E-02  0.8668184E-01
       -1   -1    0    0    0  501  0.00000000000E+00  0.00000000000E+00  0.58913007570E+03  0.58913007572E+03  0.50400001928E-02 0. -1.
        1   -1    0    0  501    0  0.00000000000E+00  0.00000000000E+00 -0.14894135685E+04  0.14894135685E+04  0.50400001928E-02 0.  1.
    10030    2    1    2    0    0  0.00000000000E+00  0.00000000000E+00 -0.90028349280E+03  0.20785436442E+04  0.18734549137E+04 0.  0.
        4    1    3    3  502    0 -0.37288109624E+03 -0.51432848306E+03  0.31360837161E+03  0.70846730628E+03  0.12699999809E+01 0. -1.
       -4    1    3    3    0  502  0.37288109624E+03  0.51432848306E+03 -0.12138918644E+04  0.13700763379E+04  0.12699999809E+01 0.  1.
</event>
<event>
 5   0  0.9179618E-05  0.2199274E+04  0.7818609E-02  0.8518730E-01
        2   -1    0    0  501    0  0.00000000000E+00  0.00000000000E+00  0.17152650113E+04  0.17152650113E+04  0.25500000920E-02 0.  1.
       -2   -1    0    0    0  501  0.00000000000E+00  0.00000000000E+00 -0.70496513083E+03  0.70496513084E+03  0.25500000920E-02 0. -1.
    10030    2    1    2    0    0  0.00000000000E+00  0.00000000000E+00  0.10102998805E+04  0.24202301422E+04  0.21992744468E+04 0.  0.
        3    1    3    3  502    0  0.95122020202E+03 -0.33550128411E+03  0.98712586459E+03  0.14113109038E+04  0.10100000352E+00 0.  1.
       -3    1    3    3    0  502 -0.95122020202E+03  0.33550128411E+03  0.23174015901E+02  0.10089192384E+04  0.10100000352E+00 0. -1.
</event>
<event>
 5   0  0.4188865E-05  0.2114785E+04  0.7818609E-02  0.8554758E-01
        1   -1    0    0  501    0  0.00000000000E+00  0.00000000000E+00  0.14720554473E+04  0.14720554473E+04  0.50400001928E-02 0.  1.
       -1   -1    0    0    0  501  0.00000000000E+00  0.00000000000E+00 -0.75953600115E+03  0.75953600116E+03  0.50400001928E-02 0. -1.
    10030    2    1    2    0    0  0.00000000000E+00  0.00000000000E+00  0.71251944612E+03  0.22315914484E+04  0.21147851975E+04 0.  0.
        3    1    3    3  502    0 -0.61198738899E+03 -0.67513620422E+03 -0.20978374516E+03  0.93506507178E+03  0.10100000352E+00 0. -1.
       -3    1    3    3    0  502  0.61198738899E+03  0.67513620422E+03  0.92230319128E+03  0.12965263767E+04  0.10100000352E+00 0.  1.
</event>
<event>
 5   0  0.9457742E-05  0.2237492E+04  0.7818609E-02  0.8502983E-01
        2   -1    0    0  501    0  0.00000000000E+00  0.00000000000E+00  0.14789204882E+04  0.14789204882E+04  0.25500000920E-02 0. -1.
       -2   -1    0    0    0  501  0.00000000000E+00  0.00000000000E+00 -0.84628803099E+03  0.84628803099E+03  0.25500000920E-02 0.  1.
    10030    2    1    2    0    0  0.00000000000E+00  0.00000000000E+00  0.63263245725E+03  0.23252085192E+04  0.22374920853E+04 0.  0.
        1    1    3    3  502    0  0.33612927709E+02  0.45961551891E+03  0.13757002174E+04  0.14508367732E+04  0.50400001928E-02 0. -1.
       -1    1    3    3    0  502 -0.33612927709E+02 -0.45961551891E+03 -0.74306776016E+03  0.87437174608E+03  0.50400001928E-02 0.  1.
</event>
<event>
 5   0  0.4133418E-05  0.2198564E+04  0.7818609E-02  0.8519026E-01
        1   -1    0    0  501    0  0.00000000000E+00  0.00000000000E+00  0.84371446156E+03  0.84371446157E+03  0.50400001928E-02 0.  1.
       -1   -1    0    0    0  501  0.00000000000E+00  0.00000000000E+00 -0.14322627665E+04  0.14322627665E+04  0.50400001928E-02 0. -1.
    10030    2    1    2    0    0  0.00000000000E+00  0.00000000000E+00 -0.58854830491E+03  0.22759772280E+04  0.21985639030E+04 0.  0.
        4    1    3    3  502    0 -0.39252001121E+03 -0.92549403950E+03 -0.75469053330E+03  0.12570483643E+04  0.12699999809E+01 0.  1.
       -4    1    3    3    0  502  0.39252001121E+03  0.92549403950E+03  0.16614222838E+03  0.10189288637E+04  0.12699999809E+01 0. -1.
</event>
<event>
 5   0  0.9179618E-05  0.2190562E+04  0.7818609E-02  0.8522367E-01
        2   -1    0    0  501    0  0.00000000000E+00  0.00000000000E+00  0.82107150845E+03  0.82107150845E+03  0.25500000920E-02 0.  1.
       -2   -1    0    0    0  501  0.00000000000E+00  0.00000000000E+00 -0.14610667427E+04  0.14610667427E+04  0.25500000920E-02 0. -1.
    10030    2    1    2    0    0  0.00000000000E+00  0.00000000000E+00 -0.63999523421E+03  0.22821382511E+04  0.21905618223E+04 0.  0.
        3    1    3    3  502    0  0.35874338226E+03 -0.84014585278E+03  0.30949609777E+03  0.96453600917E+03  0.10100000352E+00 0.  1.
       -3    1    3    3    0  502 -0.35874338226E+03  0.84014585278E+03 -0.94949133198E+03  0.13176022419E+04  0.10100000352E+00 0. -1.
</event>
<event>
 5   0  0.4133418E-05  0.2198725E+04  0.7818609E-02  0.8518959E-01
       -1   -1    0    0    0  501  0.00000000000E+00  0.00000000000E+00  0.11907580468E+04  0.11907580468E+04  0.50400001928E-02 0. -1.
        1   -1    0    0  501    0  0.00000000000E+00  0.00000000000E+00 -0.10149821202E+04  0.10149821202E+04  0.50400001928E-02 0.  1.
    10030    2    1    2    0    0  0.00000000000E+00  0.00000000000E+00  0.17577592668E+03  0.22057401670E+04  0.21987252007E+04 0.  0.
        4    1    3    3  502    0 -0.89813616775E+02 -0.10153518027E+03 -0.10065650858E+04  0.10156528755E+04  0.12699999809E+01 0.  1.
       -4    1    3    3    0  502  0.89813616775E+02  0.10153518027E+03  0.11823410125E+04  0.11900872915E+04  0.12699999809E+01 0. -1.
</event>
<event>
 5   0  0.3283125E-05  0.2228464E+04  0.7818609E-02  0.8506673E-01
        3   -1    0    0  501    0  0.00000000000E+00  0.00000000000E+00  0.10232095217E+04  0.10232095267E+04  0.10100000352E+00 0. -1.
       -3   -1    0    0    0  501  0.00000000000E+00  0.00000000000E+00 -0.12133516238E+04  0.12133516280E+04  0.10100000352E+00 0.  1.
    10030    2    1    2    0    0  0.00000000000E+00  0.00000000000E+00 -0.19014210210E+03  0.22365611546E+04  0.22284639955E+04 0.  0.
        2    1    3    3  502    0 -0.98875764390E+03  0.23968544217E+03  0.36091684010E+03  0.10795145923E+04  0.25500000920E-02 0. -1.
       -2    1    3    3    0  502  0.98875764390E+03 -0.23968544217E+03 -0.55105894220E+03  0.11570465623E+04  0.25500000920E-02 0.  1.
</event>
<event>
 5   0  0.4133418E-05  0.2194480E+04  0.7818609E-02  0.8520729E-01
       -1   -1    0    0    0  501  0.00000000000E+00  0.00000000000E+00  0.85917573363E+03  0.85917573365E+03  0.50400001928E-02 0. -1.
        1   -1    0    0  501    0  0.00000000000E+00  0.00000000000E+00 -0.14012686861E+04  0.14012686861E+04  0.50400001928E-02 0.  1.
    10030    2    1    2    0    0  0.00000000000E+00  0.00000000000E+00 -0.54209295245E+03  0.22604444197E+04  0.21944803954E+04 0.  0.
        4    1    3    3  502    0  0.40210815427E+03 -0.13798213517E+03  0.77089500281E+03  0.88034695184E+03  0.12699999809E+01 0. -1.
       -4    1    3    3    0  502 -0.40210815427E+03  0.13798213517E+03 -0.13129879553E+04  0.13800974679E+04  0.12699999809E+01 0.  1.
</event>
<event>
 5   0  0.4174075E-05  0.2232795E+04  0.7818609E-02  0.8504901E-01
       -1   -1    0    0    0  501  0.00000000000E+00  0.00000000000E+00  0.12980780033E+04  0.12980780033E+04  0.50400001928E-02 0. -1.
        1   -1    0    0  501    0  0.00000000000E+00  0.00000000000E+00 -0.96014493572E+03  0.96014493573E+03  0.50400001928E-02 0.  1.
    10030    2    1    2    0    0  0.00000000000E+00  0.00000000000E+00  0.33793306759E+03  0.22582229390E+04  0.22327946803E+04 0.  0.
        5    1    3    3  502    0  0.75805310178E+03  0.40351410220E+03 -0.55249654069E+03  0.10211477137E+04  0.46999998093E+01 0.  1.
       -5    1    3    3    0  502 -0.75805310178E+03 -0.40351410220E+03  0.89042960828E+03  0.12370752253E+04  0.46999998093E+01 0. -1.
</event>
<event>
 5   0  0.9254673E-05  0.2204672E+04  0.7818609E-02  0.8516486E-01
       -2   -1    0    0    0  501  0.00000000000E+00  0.00000000000E+00  0.52887117133E+03  0.52887117134E+03  0.25500000920E-02 0.  1.
        2   -1    0    0  501    0  0.00000000000E+00  0.00000000000E+00 -0.22976192212E+04  0.22976192212E+04  0.25500000920E-02 0. -1.
    10030    2    1    2    0    0  0.00000000000E+00  0.00000000000E+00 -0.17687480499E+04  0.28264903925E+04  0.22046719201E+04 0.  0.
        2    1    3    3  502    0  0.63501202527E+03  0.29878802014E+03  0.20546295776E+03  0.73125206341E+03  0.25500000920E-02 0.  1.
       -2    1    3    3    0  502 -0.63501202527E+03 -0.29878802014E+03 -0.19742110076E+04  0.20952383291E+04  0.25500000920E-02 0. -1.
</event>
<event>
 5   0  0.9442578E-05  0.2193982E+04  0.7818609E-02  0.8520937E-01
       -2   -1    0    0    0  501  0.00000000000E+00  0.00000000000E+00  0.86648449806E+03  0.86648449806E+03  0.25500000920E-02 0.  1.
        2   -1    0    0  501    0  0.00000000000E+00  0.00000000000E+00 -0.13888181433E+04  0.13888181433E+04  0.25500000920E-02 0. -1.
    10030    2    1    2    0    0  0.00000000000E+00  0.00000000000E+00 -0.52233364525E+03  0.22553026414E+04  0.21939821255E+04 0.  0.
        4    1    3    3  502    0  0.10863543281E+04  0.57810942159E+02 -0.40610385425E+03  0.11612190941E+04  0.12699999809E+01 0.  1.
       -4    1    3    3    0  502 -0.10863543281E+04 -0.57810942159E+02 -0.11622979100E+03  0.10940835473E+04  0.12699999809E+01 0. -1.
</event>
<event>
 5   0  0.9938176E-05  0.2479077E+04  0.7818609E-02  0.8410478E-01
        2   -1    0    0  501    0  0.00000000000E+00  0.00000000000E+00  0.21846566263E+04  0.21846566263E+04  0.25500000920E-02 0.  1.
       -2   -1    0    0    0  501  0.00000000000E+00  0.00000000000E+00 -0.70329372265E+03  0.70329372266E+03  0.25500000920E-02 0. -1.
    10030    2    1    2    0    0  0.00000000000E+00  0.00000000000E+00  0.14813629037E+04  0.28879503490E+04  0.24790766761E+04 0.  0.
        5    1    3    3  502    0 -0.57991200937E+02 -0.12220123350E+04  0.97295594185E+03  0.15631194711E+04  0.46999998093E+01 0. -1.
       -5    1    3    3    0  502  0.57991200937E+02  0.12220123350E+04  0.50840696183E+03  0.13248308779E+04  0.46999998093E+01 0.  1.
</event>
<event>
 5   0  0.3283125E-05  0.2256068E+04  0.7818609E-02  0.8495447E-01
        4   -1    0    0  501    0  0.00000000000E+00  0.00000000000E+00  0.20546979314E+04  0.20546983239E+04  0.12699999809E+01 0.  1.
       -4   -1    0    0    0  501  0.00000000000E+00  0.00000000000E+00 -0.61929232039E+03  0.61929362260E+03  0.12699999809E+01 0. -1.
    10030    2    1    2    0    0  0.00000000000E+00  0.00000000000E+00  0.14354056110E+04  0.26739919465E+04  0.22560681864E+04 0.  0.
        4    1    3    3  502    0 -0.67740393659E+03 -0.71678509685E+03  0.13666739372E+04  0.16853653111E+04  0.12699999809E+01 0.  1.
       -4    1    3    3    0  502  0.67740393659E+03  0.71678509685E+03  0.68731673856E+02  0.98862663543E+03  0.12699999809E+01 0. -1.
</event>
<event>
 5   0  0.4133418E-05  0.2187189E+04  0.7818609E-02  0.8523779E-01
       -1   -1    0    0    0  501  0.00000000000E+00  0.00000000000E+00  0.65410253966E+03  0.65410253968E+03  0.50400001928E-02 0.  1.
        1   -1    0    0  501    0  0.00000000000E+00  0.00000000000E+00 -0.18283822219E+04  0.18283822219E+04  0.50400001928E-02 0. -1.
    10030    2    1    2    0    0  0.00000000000E+00  0.00000000000E+00 -0.11742796823E+04  0.24824847616E+04  0.21871894795E+04 0.  0.
        4    1    3    3  502    0 -0.37578902865E+03 -0.42412390525E+03  0.47447461200E+03  0.73907120860E+03  0.12699999809E+01 0.  1.
       -4    1    3    3    0  502  0.37578902865E+03  0.42412390525E+03 -0.16487542943E+04  0.17434135530E+04  0.12699999809E+01 0. -1.
</event>
<event>
 5   0  0.4063293E-05  0.2190291E+04  0.7818609E-02  0.8522480E-01
       -1   -1    0    0    0  501  0.00000000000E+00  0.00000000000E+00  0.73444386430E+03  0.73444386431E+03  0.50400001928E-02 0. -1.
        1   -1    0    0  501    0  0.00000000000E+00  0.00000000000E+00 -0.16329962967E+04  0.16329962967E+04  0.50400001928E-02 0.  1.
    10030    2    1    2    0    0  0.00000000000E+00  0.00000000000E+00 -0.89855243244E+03  0.23674401611E+04  0.21902914058E+04 0.  0.
        1    1    3    3  502    0  0.79311071909E+03  0.36380992650E+03  0.26603534610E+03  0.91222644160E+03  0.50400001928E-02 0. -1.
       -1    1    3    3    0  502 -0.79311071909E+03 -0.36380992650E+03 -0.11645877785E+04  0.14552137195E+04  0.50400001928E-02 0.  1.
</event>
<event>
 5   0  0.9179618E-05  0.2207893E+04  0.7818609E-02  0.8515150E-01
       -2   -1    0    0    0  501  0.00000000000E+00  0.00000000000E+00  0.11889394040E+04  0.11889394040E+04  0.25500000920E-02 0. -1.
        2   -1    0    0  501    0  0.00000000000E+00  0.00000000000E+00 -0.10250293522E+04  0.10250293522E+04  0.25500000920E-02 0.  1.
    10030    2    1    2    0    0  0.00000000000E+00  0.00000000000E+00  0.16391005175E+03  0.22139687562E+04  0.22078929205E+04 0.  0.
        3    1    3    3  502    0 -0.97221885413E+03 -0.42447801661E+03  0.38825705395E+03  0.11296612931E+04  0.10100000352E+00 0. -1.
       -3    1    3    3    0  502  0.97221885413E+03  0.42447801661E+03 -0.22434700220E+03  0.10843074631E+04  0.10100000352E+00 0.  1.
</event>
<event>
 5   0  0.9457742E-05  0.2217983E+04  0.7818609E-02  0.8510980E-01
       -2   -1    0    0    0  501  0.00000000000E+00  0.00000000000E+00  0.11383646931E+04  0.11383646931E+04  0.25500000920E-02 0. -1.
        2   -1    0    0  501    0  0.00000000000E+00  0.00000000000E+00 -0.10803758842E+04  0.10803758842E+04  0.25500000920E-02 0.  1.
    10030    2    1    2    0    0  0.00000000000E+00  0.00000000000E+00  0.57988808821E+02  0.22187405773E+04  0.22179826526E+04 0.  0.
        1    1    3    3  502    0  0.54150400197E+03 -0.39271078336E+03 -0.85584921975E+03  0.10862440934E+04  0.50400001928E-02 0.  1.
       -1    1    3    3    0  502 -0.54150400197E+03  0.39271078336E+03  0.91383802857E+03  0.11324964839E+04  0.50400001928E-02 0. -1.
</event>
<event>
 5   0  0.3283125E-05  0.2226756E+04  0.7818609E-02  0.8507373E-01
        3   -1    0    0  501    0  0.00000000000E+00  0.00000000000E+00  0.66346428657E+03  0.66346429426E+03  0.10100000352E+00 0.  1.
       -3   -1    0    0    0  501  0.00000000000E+00  0.00000000000E+00 -0.18683908919E+04  0.18683908947E+04  0.10100000352E+00 0. -1.
    10030    2    1    2    0    0  0.00000000000E+00  0.00000000000E+00 -0.12049266054E+04  0.25318551889E+04  0.22267560651E+04 0.  0.
        5    1    3    3  502    0  0.72230785747E+03  0.56368561101E+03  0.11675462475E+03  0.92364703292E+03  0.46999998093E+01 0.  1.
       -5    1    3    3    0  502 -0.72230785747E+03 -0.56368561101E+03 -0.13216812301E+04  0.16082081560E+04  0.46999998093E+01 0. -1.
</event>
<event>
 5   0  0.9938176E-05  0.2201300E+04  0.7818609E-02  0.8517887E-01
       -2   -1    0    0    0  501  0.00000000000E+00  0.00000000000E+00  0.11518035210E+04  0.11518035210E+04  0.25500000920E-02 0. -1.
        2   -1    0    0  501    0  0.00000000000E+00  0.00000000000E+00 -0.10517685550E+04  0.10517685550E+04  0.25500000920E-02 0.  1.
    10030    2    1    2    0    0  0.00000000000E+00  0.00000000000E+00  0.10003496597E+03  0.22035720760E+04  0.22013002748E+04 0.  0.
        5    1    3    3  502    0  0.65272600707E+02  0.17792954060E+03  0.11353362040E+04  0.11510559587E+04  0.46999998093E+01 0. -1.
       -5    1    3    3    0  502 -0.65272600707E+02 -0.17792954060E+03 -0.10353012380E+04  0.10525161174E+04  0.46999998093E+01 0.  1.
</event>
<event>
 5   0  0.4188865E-05  0.2167642E+04  0.7818609E-02  0.8532018E-01
       -1   -1    0    0    0  501  0.00000000000E+00  0.00000000000E+00  0.62616033795E+03  0.62616033797E+03  0.50400001928E-02 0.  1.
        1   -1    0    0  501    0  0.00000000000E+00  0.00000000000E+00 -0.18759863275E+04  0.18759863275E+04  0.50400001928E-02 0. -1.
    10030    2    1    2    0    0  0.00000000000E+00  0.00000000000E+00 -0.12498259895E+04  0.25021466654E+04  0.21676422517E+04 0.  0.
        3    1    3    3  502    0  0.84822066944E+03 -0.54720975371E+03 -0.10804683330E+04  0.14786239033E+04  0.10100000352E+00 0. -1.
       -3    1    3    3    0  502 -0.84822066944E+03  0.54720975371E+03 -0.16935765655E+03  0.10235227622E+04  0.10100000352E+00 0.  1.
</event>
<event>
 5   0  0.9254673E-05  0.2196548E+04  0.7818609E-02  0.8519866E-01
        2   -1    0    0  501    0  0.00000000000E+00  0.00000000000E+00  0.11464318685E+04  0.11464318685E+04  0.25500000920E-02 0. -1.
       -2   -1    0    0    0  501  0.00000000000E+00  0.00000000000E+00 -0.10521390612E+04  0.10521390612E+04  0.25500000920E-02 0.  1.
    10030    2    1    2    0    0  0.00000000000E+00  0.00000000000E+00  0.94292807334E+02  0.21985709298E+04  0.21965479735E+04 0.  0.
        2    1    3    3  502    0  0.68171873494E+03  0.48937934842E+03 -0.66200675370E+03  0.10688711439E+04  0.25500000920E-02 0.  1.
       -2    1    3    3    0  502 -0.68171873494E+03 -0.48937934842E+03  0.75629956104E+03  0.11296997859E+04  0.25500000920E-02 0. -1.
</event>
<event>
 5   0  0.4063293E-05  0.2075041E+04  0.7818609E-02  0.8572318E-01
        1   -1    0    0  501    0  0.00000000000E+00  0.00000000000E+00  0.91213619028E+03  0.91213619030E+03  0.50400001928E-02 0.  1.
       -1   -1    0    0    0  501  0.00000000000E+00  0.00000000000E+00 -0.11801403282E+04  0.11801403282E+04  0.50400001928E-02 0. -1.
    10030    2    1    2    0    0  0.00000000000E+00  0.00000000000E+00 -0.26800413787E+03  0.20922765185E+04  0.20750409181E+04 0.  0.
        1    1    3    3  502    0  0.45885110352E+03  0.15149160330E+01 -0.10722698546E+04  0.11663229704E+04  0.50400001928E-02 0. -1.
       -1    1    3    3    0  502 -0.45885110352E+03 -0.15149160330E+01  0.80426571669E+03  0.92595354810E+03  0.50400001928E-02 0.  1.
</event>
<event>
 5   0  0.9179618E-05  0.2380184E+04  0.7818609E-02  0.8446960E-01
       -2   -1    0    0    0  501  0.00000000000E+00  0.00000000000E+00  0.11343714408E+04  0.11343714408E+04  0.25500000920E-02 0. -1.
        2   -1    0    0  501    0  0.00000000000E+00  0.00000000000E+00 -0.12485498978E+04  0.12485498978E+04  0.25500000920E-02 0.  1.
    10030    2    1    2    0    0  0.00000000000E+00  0.00000000000E+00 -0.11417845700E+03  0.23829213386E+04  0.23801843176E+04 0.  0.
        3    1    3    3  502    0 -0.30410448698E+03  0.32317010052E+02 -0.12085402150E+04  0.12466328207E+04  0.10100000352E+00 0.  1.
       -3    1    3    3    0  502  0.30410448698E+03 -0.32317010052E+02  0.10943617580E+04  0.11362885178E+04  0.10100000352E+00 0. -1.
</event>
<event>
 5   0  0.9254673E-05  0.2274046E+04  0.7818609E-02  0.8488225E-01
       -2   -1    0    0    0  501  0.00000000000E+00  0.00000000000E+00  0.13187795037E+04  0.13187795037E+04  0.25500000920E-02 0. -1.
        2   -1    0    0  501    0  0.00000000000E+00  0.00000000000E+00 -0.98031653768E+03  0.98031653768E+03  0.25500000920E-02 0.  1.
    10030    2    1    2    0    0  0.00000000000E+00  0.00000000000E+00  0.33846296601E+03  0.22990960414E+04  0.22740460479E+04 0.  0.
        2    1    3    3  502    0  0.65064973200E+03  0.67938031360E+03  0.81495209840E+03  0.12446082142E+04  0.25500000920E-02 0. -1.
       -2    1    3    3    0  502 -0.65064973200E+03 -0.67938031360E+03 -0.47648913240E+03  0.10544878271E+04  0.25500000920E-02 0.  1.
</event>
<event>
 5   0  0.4063293E-05  0.2184976E+04  0.7818609E-02  0.8524708E-01
        1   -1    0    0  501    0  0.00000000000E+00  0.00000000000E+00  0.19059182594E+04  0.19059182594E+04  0.50400001928E-02 0. -1.
       -1   -1    0    0    0  501  0.00000000000E+00  0.00000000000E+00 -0.62622298229E+03  0.62622298231E+03  0.50400001928E-02 0.  1.
    10030    2    1    2    0    0  0.00000000000E+00  0.00000000000E+00  0.12796952771E+04  0.25321412417E+04  0.21849758044E+04 0.  0.
        1    1    3    3  502    0 -0.83144928690E+03 -0.13411734824E+03 -0.16658691958E+03  0.85851417087E+03  0.50400001928E-02 0.  1.
       -1    1    3    3    0  502  0.83144928690E+03  0.13411734824E+03  0.14462821967E+04  0.16736270708E+04  0.50400001928E-02 0. -1.
</event>
<event>
 5   0  0.9938176E-05  0.2149376E+04  0.7818609E-02  0.8539799E-01
       -2   -1    0    0    0  501  0.00000000000E+00  0.00000000000E+00  0.44531335250E+03  0.44531335250E+03  0.25500000920E-02 0.  1.
        2   -1    0    0  501    0  0.00000000000E+00  0.00000000000E+00 -0.25935776558E+04  0.25935776558E+04  0.25500000920E-02 0. -1.
    10030    2    1    2    0    0  0.00000000000E+00  0.00000000000E+00 -0.21482643033E+04  0.30388910083E+04  0.21493764313E+04 0.  0.
        5    1    3    3  502    0  0.27657192931E+03  0.32088984908E+03 -0.24705316270E+04  0.25065934926E+04  0.46999998093E+01 0. -1.
       -5    1    3    3    0  502 -0.27657192931E+03 -0.32088984908E+03  0.32226732366E+03  0.53229751570E+03  0.46999998093E+01 0.  1.
</event>
<event>
 5   0  0.9254673E-05  0.2183631E+04  0.7818609E-02  0.8525272E-01
        2   -1    0    0  501    0  0.00000000000E+00  0.00000000000E+00  0.13064297341E+04  0.13064297341E+04  0.25500000920E-02 0.  1.
       -2   -1    0    0    0  501  0.00000000000E+00  0.00000000000E+00 -0.91245703203E+03  0.91245703204E+03  0.25500000920E-02 0. -1.
    10030    2    1    2    0    0  0.00000000000E+00  0.00000000000E+00  0.39397270206E+03  0.22188867661E+04  0.21836309191E+04 0.  0.
        2    1    3    3  502    0  0.13795540145E+03  0.10183656978E+04  0.57166803024E+03  0.11759696952E+04  0.25500000920E-02 0.  1.
       -2    1    3    3    0  502 -0.13795540145E+03 -0.10183656978E+04 -0.17769532818E+03  0.10429170709E+04  0.25500000920E-02 0. -1.
</event>
<event>
 5   0  0.9938176E-05  0.2178039E+04  0.7818609E-02  0.8527625E-01
       -2   -1    0    0    0  501  0.00000000000E+00  0.00000000000E+00  0.91418103651E+03  0.91418103652E+03  0.25500000920E-02 0. -1.
        2   -1    0    0  501    0  0.00000000000E+00  0.00000000000E+00 -0.12972960152E+04  0.12972960152E+04  0.25500000920E-02 0.  1.
    10030    2    1    2    0    0  0.00000000000E+00  0.00000000000E+00 -0.38311497865E+03  0.22114770517E+04  0.21780389490E+04 0.  0.
        5    1    3    3  502    0 -0.74348154617E+03 -0.33281050375E+03 -0.92543582570E+03  0.12328751755E+04  0.46999998093E+01 0.  1.
       -5    1    3    3    0  502  0.74348154617E+03  0.33281050375E+03  0.54232084706E+03  0.97860187617E+03  0.46999998093E+01 0. -1.
</event>
<event>
 5   0  0.4063293E-05  0.2176417E+04  0.7818609E-02  0.8528308E-01
        1   -1    0    0  501    0  0.00000000000E+00  0.00000000000E+00  0.15175588625E+04  0.15175588625E+04  0.50400001928E-02 0. -1.
       -1   -1    0    0    0  501  0.00000000000E+00  0.00000000000E+00 -0.78033064880E+03  0.78033064882E+03  0.50400001928E-02 0.  1.
    10030    2    1    2    0    0  0.00000000000E+00  0.00000000000E+00  0.73722821368E+03  0.22978895113E+04  0.21764169562E+04 0.  0.
        1    1    3    3  502    0  0.98481767433E+02 -0.10837410464E+04  0.36640504776E+03  0.11482360268E+04  0.50400001928E-02 0. -1.
       -1    1    3    3    0  502 -0.98481767433E+02  0.10837410464E+04  0.37082316592E+03  0.11496534845E+04  0.50400001928E-02 0.  1.
</event>
<event>
 5   0  0.9442578E-05  0.2193567E+04  0.7818609E-02  0.8521111E-01
       -2   -1    0    0    0  501  0.00000000000E+00  0.00000000000E+00  0.80069360588E+03  0.80069360589E+03  0.25500000920E-02 0.  1.
        2   -1    0    0  501    0  0.00000000000E+00  0.00000000000E+00 -0.15023644037E+04  0.15023644037E+04  0.25500000920E-02 0. -1.
    10030    2    1    2    0    0  0.00000000000E+00  0.00000000000E+00 -0.70167079781E+03  0.23030580096E+04  0.21935665677E+04 0.  0.
        4    1    3    3  502    0 -0.88058574225E+03 -0.60325134799E+03 -0.61558994076E+03  0.12321915542E+04  0.12699999809E+01 0. -1.
       -4    1    3    3    0  502  0.88058574225E+03  0.60325134799E+03 -0.86080857051E+02  0.10708664553E+04  0.12699999809E+01 0.  1.
</event>
<event>
 5   0  0.9179618E-05  0.2233637E+04  0.7818609E-02  0.8504557E-01
        2   -1    0    0  501    0  0.00000000000E+00  0.00000000000E+00  0.11028390562E+04  0.11028390562E+04  0.25500000920E-02 0. -1.
       -2   -1    0    0    0  501  0.00000000000E+00  0.00000000000E+00 -0.11309753093E+04  0.11309753093E+04  0.25500000920E-02 0.  1.
    10030    2    1    2    0    0  0.00000000000E+00  0.00000000000E+00 -0.28136253124E+02  0.22338143656E+04  0.22336371619E+04 0.  0.
        3    1    3    3  502    0 -0.27545339786E+03  0.10389715573E+04  0.28918399774E+03  0.11130875375E+04  0.10100000352E+00 0.  1.
       -3    1    3    3    0  502  0.27545339786E+03 -0.10389715573E+04 -0.31732025086E+03  0.11207268281E+04  0.10100000352E+00 0. -1.
</event>
<event>
 5   0  0.3283125E-05  0.2178272E+04  0.7818609E-02  0.8527527E-01
       -4   -1    0    0    0  501  0.00000000000E+00  0.00000000000E+00  0.10001746330E+04  0.10001754393E+04  0.12699999809E+01 0.  1.
        4   -1    0    0  501    0  0.00000000000E+00  0.00000000000E+00 -0.11860083680E+04  0.11860090480E+04  0.12699999809E+01 0. -1.
    10030    2    1    2    0    0  0.00000000000E+00  0.00000000000E+00 -0.18583373499E+03  0.21861844873E+04  0.21782718920E+04 0.  0.
        2    1    3    3  502    0  0.14667115567E+03 -0.75919223405E+03 -0.86273102613E+03  0.11585292830E+04  0.25500000920E-02 0. -1.
       -2    1    3    3    0  502 -0.14667115567E+03  0.75919223405E+03  0.67689729114E+03  0.10276552043E+04  0.25500000920E-02 0.  1.
</event>
<event>
 5   0  0.9179618E-05  0.2226381E+04  0.7818609E-02  0.8507527E-01
       -2   -1    0    0    0  501  0.00000000000E+00  0.00000000000E+00  0.92003637956E+03  0.92003637956E+03  0.25500000920E-02 0. -1.
        2   -1    0    0  501    0  0.00000000000E+00  0.00000000000E+00 -0.13468962427E+04  0.13468962427E+04  0.25500000920E-02 0.  1.
    10030    2    1    2    0    0  0.00000000000E+00  0.00000000000E+00 -0.42685986312E+03  0.22669326222E+04  0.22263814074E+04 0.  0.
        3    1    3    3  502    0 -0.31295526577E+03 -0.92100349011E+03 -0.76458859655E+03  0.12372486247E+04  0.10100000352E+00 0.  1.
       -3    1    3    3    0  502  0.31295526577E+03  0.92100349011E+03  0.33772873344E+03  0.10296839975E+04  0.10100000352E+00 0. -1.
</event>
<event>
 5   0  0.4188865E-05  0.2192240E+04  0.7818609E-02  0.8521665E-01
       -1   -1    0    0    0  501  0.00000000000E+00  0.00000000000E+00  0.89098248185E+03  0.89098248186E+03  0.50400001928E-02 0. -1.
        1   -1    0    0  501    0  0.00000000000E+00  0.00000000000E+00 -0.13484872645E+04  0.13484872645E+04  0.50400001928E-02 0.  1.
    10030    2    1    2    0    0  0.00000000000E+00  0.00000000000E+00 -0.45750478268E+03  0.22394697464E+04  0.21922395213E+04 0.  0.
        3    1    3    3  502    0 -0.11645435027E+03 -0.68518676569E+03 -0.10946194949E+04  0.12966242202E+04  0.10100000352E+00 0.  1.
       -3    1    3    3    0  502  0.11645435027E+03  0.68518676569E+03  0.63711471222E+03  0.94284552621E+03  0.10100000352E+00 0. -1.
</event>
<event>
 5   0  0.4188865E-05  0.1906024E+04  0.7818609E-02  0.8651864E-01
        1   -1    0    0  501    0  0.00000000000E+00  0.00000000000E+00  0.15387606739E+04  0.15387606739E+04  0.50400001928E-02 0. -1.
       -1   -1    0    0    0  501  0.00000000000E+00  0.00000000000E+00 -0.59023601006E+03  0.59023601008E+03  0.50400001928E-02 0.  1.
    10030    2    1    2    0    0  0.00000000000E+00  0.00000000000E+00  0.94852466383E+03  0.21289966840E+04  0.19060240928E+04 0.  0.
        3    1    3    3  502    0 -0.77122981158E+03  0.11294690982E+03 -0.13822699590E+03  0.79161805141E+03  0.10100000352E+00 0.  1.
       -3    1    3    3    0  502  0.77122981158E+03 -0.11294690982E+03  0.10867516597E+04  0.13373786326E+04  0.10100000352E+00 0. -1.
</event>
<event>
 5   0  0.9442578E-05  0.2225696E+04  0.7818609E-02  0.8507808E-01
       -2   -1    0    0    0  501  0.00000000000E+00  0.00000000000E+00  0.11824922332E+04  0.11824922332E+04  0.25500000920E-02 0.  1.
        2   -1    0    0  501    0  0.00000000000E+00  0.00000000000E+00 -0.10473054825E+04  0.10473054825E+04  0.25500000920E-02 0. -1.
    10030    2    1    2    0    0  0.00000000000E+00  0.00000000000E+00  0.13518675070E+03  0.22297977157E+04  0.22256959351E+04 0.  0.
        4    1    3    3  502    0  0.10791114343E+04  0.52246934223E+02 -0.19976498973E+03  0.10986896258E+04  0.12699999809E+01 0. -1.
       -4    1    3    3    0  502 -0.10791114343E+04 -0.52246934223E+02  0.33495174043E+03  0.11311080899E+04  0.12699999809E+01 0.  1.
</event>
<event>
 5   0  0.4174075E-05  0.2162487E+04  0.7818609E-02  0.8534206E-01
       -1   -1    0    0    0  501  0.00000000000E+00  0.00000000000E+00  0.66181449025E+03  0.66181449027E+03  0.50400001928E-02 0. -1.
        1   -1    0    0  501    0  0.00000000000E+00  0.00000000000E+00 -0.17664889278E+04  0.17664889278E+04  0.50400001928E-02 0.  1.
    10030    2    1    2    0    0  0.00000000000E+00  0.00000000000E+00 -0.11046744375E+04  0.24283034181E+04  0.21624874282E+04 0.  0.
        5    1    3    3  502    0 -0.73223422425E+03  0.43528689609E+03  0.19541734809E+03  0.87398608170E+03  0.46999998093E+01 0. -1.
       -5    1    3    3    0  502  0.73223422425E+03 -0.43528689609E+03 -0.13000917856E+04  0.15543173364E+04  0.46999998093E+01 0.  1.
</event>
<event>
 5   0  0.3283125E-05  0.2131823E+04  0.7818609E-02  0.8547353E-01
       -3   -1    0    0    0  501  0.00000000000E+00  0.00000000000E+00  0.57282850794E+03  0.57282851684E+03  0.10100000352E+00 0. -1.
        3   -1    0    0  501    0  0.00000000000E+00  0.00000000000E+00 -0.19834344506E+04  0.19834344531E+04  0.10100000352E+00 0.  1.
    10030    2    1    2    0    0  0.00000000000E+00  0.00000000000E+00 -0.14106059426E+04  0.25562629700E+04  0.21318234557E+04 0.  0.
        3    1    3    3  502    0 -0.99912382750E+03 -0.31053962866E+03 -0.94953201866E+03  0.14129028092E+04  0.10100000352E+00 0.  1.
       -3    1    3    3    0  502  0.99912382750E+03  0.31053962866E+03 -0.46107392398E+03  0.11433601608E+04  0.10100000352E+00 0. -1.
</event>
<event>
 5   0  0.4188865E-05  0.2127256E+04  0.7818609E-02  0.8549331E-01
       -1   -1    0    0    0  501  0.00000000000E+00  0.00000000000E+00  0.54262221470E+03  0.54262221472E+03  0.50400001928E-02 0.  1.
        1   -1    0    0  501    0  0.00000000000E+00  0.00000000000E+00 -0.20848851849E+04  0.20848851849E+04  0.50400001928E-02 0. -1.
    10030    2    1    2    0    0  0.00000000000E+00  0.00000000000E+00 -0.15422629702E+04  0.26275073997E+04  0.21272564645E+04 0.  0.
        3    1    3    3  502    0 -0.15721802342E+03  0.92810520211E+03 -0.13827654857E+04  0.16727633340E+04  0.10100000352E+00 0. -1.
       -3    1    3    3    0  502  0.15721802342E+03 -0.92810520211E+03 -0.15949748454E+03  0.95474406563E+03  0.10100000352E+00 0.  1.
</event>
<event>
 5   0  0.3283125E-05  0.2191493E+04  0.7818609E-02  0.8521977E-01
       -3   -1    0    0    0  501  0.00000000000E+00  0.00000000000E+00  0.11411342617E+04  0.11411342661E+04  0.10100000352E+00 0. -1.
        3   -1    0    0  501    0  0.00000000000E+00  0.00000000000E+00 -0.10521640993E+04  0.10521641041E+04  0.10100000352E+00 0.  1.
    10030    2    1    2    0    0  0.00000000000E+00  0.00000000000E+00  0.88970162385E+02  0.21932983702E+04  0.21914931100E+04 0.  0.
        4    1    3    3  502    0 -0.42418288835E+03 -0.16681190245E+03  0.10417503726E+04  0.11371028033E+04  0.12699999809E+01 0. -1.
       -4    1    3    3    0  502  0.42418288835E+03  0.16681190245E+03 -0.95278021026E+03  0.10561955669E+04  0.12699999809E+01 0.  1.
</event>
<event>
 5   0  0.4188865E-05  0.2222758E+04  0.7818609E-02  0.8509015E-01
       -1   -1    0    0    0  501  0.00000000000E+00  0.00000000000E+00  0.93043642923E+03  0.93043642924E+03  0.50400001928E-02 0.  1.
        1   -1    0    0  501    0  0.00000000000E+00  0.00000000000E+00 -0.13275096232E+04  0.13275096232E+04  0.50400001928E-02 0. -1.
    10030    2    1    2    0    0  0.00000000000E+00  0.00000000000E+00 -0.39707319398E+03  0.22579460525E+04  0.22227580288E+04 0.  0.
        3    1    3    3  502    0 -0.88653306221E+03  0.66645648655E+03 -0.27078341251E+03  0.11416780569E+04  0.10100000352E+00 0.  1.
       -3    1    3    3    0  502  0.88653306221E+03 -0.66645648655E+03 -0.12628978147E+03  0.11162679956E+04  0.10100000352E+00 0. -1.
</event>
<event>
 5   0  0.9457742E-05  0.2213986E+04  0.7818609E-02  0.8512629E-01
        2   -1    0    0  501    0  0.00000000000E+00  0.00000000000E+00  0.21936799490E+04  0.21936799490E+04  0.25500000920E-02 0.  1.
       -2   -1    0    0    0  501  0.00000000000E+00  0.00000000000E+00 -0.55861979262E+03  0.55861979263E+03  0.25500000920E-02 0. -1.
    10030    2    1    2    0    0  0.00000000000E+00  0.00000000000E+00  0.16350601564E+04  0.27522997417E+04  0.22139855810E+04 0.  0.
        1    1    3    3  502    0 -0.16375743896E+03  0.76675911332E+03 -0.15394985674E+03  0.79902227447E+03  0.50400001928E-02 0. -1.
       -1    1    3    3    0  502  0.16375743896E+03 -0.76675911332E+03  0.17890100131E+04  0.19532774672E+04  0.50400001928E-02 0.  1.
</event>
<event>
 5   0  0.4174030E-05  0.1700640E+04  0.7818609E-02  0.8760999E-01
        1   -1    0    0  501    0  0.00000000000E+00  0.00000000000E+00  0.66478605072E+03  0.66478605074E+03  0.50400001928E-02 0.  1.
       -1   -1    0    0    0  501  0.00000000000E+00  0.00000000000E+00 -0.10876346907E+04  0.10876346907E+04  0.50400001928E-02 0. -1.
    10030    2    1    2    0    0  0.00000000000E+00  0.00000000000E+00 -0.42284863995E+03  0.17524207414E+04  0.17006403155E+04 0.  0.
        2    1    3    3  502    0 -0.55492730069E+03 -0.39323491456E+03 -0.73732258485E+03  0.10031064755E+04  0.25500000920E-02 0. -1.
       -2    1    3    3    0  502  0.55492730069E+03  0.39323491456E+03  0.31447394490E+03  0.74931426591E+03  0.25500000920E-02 0.  1.
</event>
<event>
 5   0  0.4188865E-05  0.2152466E+04  0.7818609E-02  0.8538478E-01
        1   -1    0    0  501    0  0.00000000000E+00  0.00000000000E+00  0.12086880456E+04  0.12086880456E+04  0.50400001928E-02 0.  1.
       -1   -1    0    0    0  501  0.00000000000E+00  0.00000000000E+00 -0.95829282525E+03  0.95829282527E+03  0.50400001928E-02 0. -1.
    10030    2    1    2    0    0  0.00000000000E+00  0.00000000000E+00  0.25039522033E+03  0.21669808709E+04  0.21524656393E+04 0.  0.
        3    1    3    3  502    0 -0.66042886109E+03  0.76687489620E+03 -0.24334985173E+03  0.10409046774E+04  0.10100000352E+00 0. -1.
       -3    1    3    3    0  502  0.66042886109E+03 -0.76687489620E+03  0.49374507206E+03  0.11260761934E+04  0.10100000352E+00 0.  1.
</event>
<event>
 5   0  0.4174030E-05  0.2195289E+04  0.7818609E-02  0.8520391E-01
       -1   -1    0    0    0  501  0.00000000000E+00  0.00000000000E+00  0.92174207516E+03  0.92174207517E+03  0.50400001928E-02 0.  1.
        1   -1    0    0  501    0  0.00000000000E+00  0.00000000000E+00 -0.13071160441E+04  0.13071160441E+04  0.50400001928E-02 0. -1.
    10030    2    1    2    0    0  0.00000000000E+00  0.00000000000E+00 -0.38537396897E+03  0.22288581193E+04  0.21952893705E+04 0.  0.
        2    1    3    3  502    0 -0.82941644087E+03  0.65369389027E+03  0.11118295791E+03  0.10618893467E+04  0.25500000920E-02 0. -1.
       -2    1    3    3    0  502  0.82941644087E+03 -0.65369389027E+03 -0.49655692689E+03  0.11669687726E+04  0.25500000920E-02 0.  1.
</event>
<event>
 5   0  0.4188865E-05  0.2205351E+04  0.7818609E-02  0.8516204E-01
        1   -1    0    0  501    0  0.00000000000E+00  0.00000000000E+00  0.15468991663E+04  0.15468991663E+04  0.50400001928E-02 0. -1.
       -1   -1    0    0    0  501  0.00000000000E+00  0.00000000000E+00 -0.78601945018E+03  0.78601945020E+03  0.50400001928E-02 0.  1.
    10030    2    1    2    0    0  0.00000000000E+00  0.00000000000E+00  0.76087971614E+03  0.23329186165E+04  0.22053506136E+04 0.  0.
        3    1    3    3  502    0  0.54542862493E+03  0.81959968933E+03 -0.14493402345E+03  0.99510899754E+03  0.10100000352E+00 0.  1.
       -3    1    3    3    0  502 -0.54542862493E+03 -0.81959968933E+03  0.90581373959E+03  0.13378096190E+04  0.10100000352E+00 0. -1.
</event>
<event>
 5   0  0.9938176E-05  0.2269240E+04  0.7818609E-02  0.8490149E-01
        2   -1    0    0  501    0  0.00000000000E+00  0.00000000000E+00  0.11622303802E+04  0.11622303802E+04  0.25500000920E-02 0.  1.
       -2   -1    0    0    0  501  0.00000000000E+00  0.00000000000E+00 -0.11076651160E+04  0.11076651160E+04  0.25500000920E-02 0. -1.
    10030    2    1    2    0    0  0.00000000000E+00  0.00000000000E+00  0.54565264201E+02  0.22698954961E+04  0.22692395632E+04 0.  0.
        5    1    3    3  502    0  0.98602173851E+03 -0.35538663121E+03  0.46192109772E+03  0.11453958778E+04  0.46999998093E+01 0.  1.
       -5    1    3    3    0  502 -0.98602173851E+03  0.35538663121E+03 -0.40735583352E+03  0.11244996183E+04  0.46999998093E+01 0. -1.
</event>
<event>
 5   0  0.9457742E-05  0.2201721E+04  0.7818609E-02  0.8517712E-01
        2   -1    0    0  501    0  0.00000000000E+00  0.00000000000E+00  0.13926736502E+04  0.13926736502E+04  0.25500000920E-02 0. -1.
       -2   -1    0    0    0  501  0.00000000000E+00  0.00000000000E+00 -0.87019211502E+03  0.87019211502E+03  0.25500000920E-02 0.  1.
    10030    2    1    2    0    0  0.00000000000E+00  0.00000000000E+00  0.52248153513E+03  0.22628657652E+04  0.22017208081E+04 0.  0.
        1    1    3    3  502    0  0.64442639851E+03 -0.60691015013E+03 -0.41135560060E+03  0.97613459297E+03  0.50400001928E-02 0.  1.
       -1    1    3    3    0  502 -0.64442639851E+03  0.60691015013E+03  0.93383713573E+03  0.12867311722E+04  0.50400001928E-02 0. -1.
</event>
<event>
 5   0  0.4063293E-05  0.2216790E+04  0.7818609E-02  0.8511472E-01
       -1   -1    0    0    0  501  0.00000000000E+00  0.00000000000E+00  0.11250800011E+04  0.11250800011E+04  0.50400001928E-02 0. -1.
        1   -1    0    0  501    0  0.00000000000E+00  0.00000000000E+00 -0.10919578370E+04  0.10919578370E+04  0.50400001928E-02 0.  1.
    10030    2    1    2    0    0  0.00000000000E+00  0.00000000000E+00  0.33122164081E+02  0.22170378380E+04  0.22167904045E+04 0.  0.
        1    1    3    3  502    0  0.83958029416E+03  0.33358771821E+03 -0.62566640714E+03  0.10989241508E+04  0.50400001928E-02 0.  1.
       -1    1    3    3    0  502 -0.83958029416E+03 -0.33358771821E+03  0.65878857122E+03  0.11181136873E+04  0.50400001928E-02 0. -1.
</event>
<event>
 5   0  0.9254673E-05  0.2189977E+04  0.7818609E-02  0.8522612E-01
       -2   -1    0    0    0  501  0.00000000000E+00  0.00000000000E+00  0.53410691177E+03  0.53410691177E+03  0.25500000920E-02 0.  1.
        2   -1    0    0  501    0  0.00000000000E+00  0.00000000000E+00 -0.22448675391E+04  0.22448675391E+04  0.25500000920E-02 0. -1.
    10030    2    1    2    0    0  0.00000000000E+00  0.00000000000E+00 -0.17107606273E+04  0.27789744509E+04  0.21899765009E+04 0.  0.
        2    1    3    3  502    0 -0.73901130438E+00  0.38233472624E+03  0.44665250599E+03  0.58794459785E+03  0.25500000920E-02 0.  1.
       -2    1    3    3    0  502  0.73901130438E+00 -0.38233472624E+03 -0.21574131333E+04  0.21910298530E+04  0.25500000920E-02 0. -1.
</event>
<event>
 5   0  0.9938176E-05  0.2204920E+04  0.7818609E-02  0.8516383E-01
       -2   -1    0    0    0  501  0.00000000000E+00  0.00000000000E+00  0.56530095139E+03  0.56530095140E+03  0.25500000920E-02 0.  1.
        2   -1    0    0  501    0  0.00000000000E+00  0.00000000000E+00 -0.21500377658E+04  0.21500377658E+04  0.25500000920E-02 0. -1.
    10030    2    1    2    0    0  0.00000000000E+00  0.00000000000E+00 -0.15847368144E+04  0.27153387172E+04  0.22049203111E+04 0.  0.
        5    1    3    3  502    0  0.99009860974E+03 -0.39354518148E+03 -0.11411722064E+04  0.15612396234E+04  0.46999998093E+01 0. -1.
       -5    1    3    3    0  502 -0.99009860974E+03  0.39354518148E+03 -0.44356460794E+03  0.11540990938E+04  0.46999998093E+01 0.  1.
</event>
<event>
 5   0  0.4174030E-05  0.2192645E+04  0.7818609E-02  0.8521496E-01
        1   -1    0    0  501    0  0.00000000000E+00  0.00000000000E+00  0.78513284958E+03  0.78513284960E+03  0.50400001928E-02 0.  1.
       -1   -1    0    0    0  501  0.00000000000E+00  0.00000000000E+00 -0.15308528022E+04  0.15308528022E+04  0.50400001928E-02 0. -1.
    10030    2    1    2    0    0  0.00000000000E+00  0.00000000000E+00 -0.74571995259E+03  0.23159856518E+04  0.21926448166E+04 0.  0.
        2    1    3    3  502    0  0.28413859412E+03  0.65023091502E+03 -0.12555656380E+04  0.14422135954E+04  0.25500000920E-02 0. -1.
       -2    1    3    3    0  502 -0.28413859412E+03 -0.65023091502E+03  0.50984568541E+03  0.87377205635E+03  0.25500000920E-02 0.  1.
</event>
<event>
 5   0  0.9254673E-05  0.2252340E+04  0.7818609E-02  0.8496954E-01
        2   -1    0    0  501    0  0.00000000000E+00  0.00000000000E+00  0.11376973009E+04  0.11376973009E+04  0.25500000920E-02 0. -1.
       -2   -1    0    0    0  501  0.00000000000E+00  0.00000000000E+00 -0.11147590025E+04  0.11147590025E+04  0.25500000920E-02 0.  1.
    10030    2    1    2    0    0  0.00000000000E+00  0.00000000000E+00  0.22938298407E+02  0.22524563033E+04  0.22523395021E+04 0.  0.
        2    1    3    3  502    0  0.19657241666E+02 -0.41669415921E+03  0.10575816532E+04  0.11368814286E+04  0.25500000920E-02 0. -1.
       -2    1    3    3    0  502 -0.19657241666E+02  0.41669415921E+03 -0.10346433548E+04  0.11155748747E+04  0.25500000920E-02 0.  1.
</event>
<event>
 5   0  0.9179618E-05  0.2214080E+04  0.7818609E-02  0.8512590E-01
       -2   -1    0    0    0  501  0.00000000000E+00  0.00000000000E+00  0.10612326457E+04  0.10612326457E+04  0.25500000920E-02 0.  1.
        2   -1    0    0  501    0  0.00000000000E+00  0.00000000000E+00 -0.11548250978E+04  0.11548250978E+04  0.25500000920E-02 0. -1.
    10030    2    1    2    0    0  0.00000000000E+00  0.00000000000E+00 -0.93592452072E+02  0.22160577435E+04  0.22140804808E+04 0.  0.
        3    1    3    3  502    0  0.46837356260E+03 -0.96003261790E+03 -0.33774752134E+03  0.11203168391E+04  0.10100000352E+00 0.  1.
       -3    1    3    3    0  502 -0.46837356260E+03  0.96003261790E+03  0.24415506927E+03  0.10957409044E+04  0.10100000352E+00 0. -1.
</event>
<event>
 5   0  0.4174075E-05  0.2202491E+04  0.7818609E-02  0.8517392E-01
        1   -1    0    0  501    0  0.00000000000E+00  0.00000000000E+00  0.82036998256E+03  0.82036998258E+03  0.50400001928E-02 0.  1.
       -1   -1    0    0    0  501  0.00000000000E+00  0.00000000000E+00 -0.14782856587E+04  0.14782856587E+04  0.50400001928E-02 0. -1.
    10030    2    1    2    0    0  0.00000000000E+00  0.00000000000E+00 -0.65791567611E+03  0.22986556413E+04  0.22024905721E+04 0.  0.
        5    1    3    3  502    0 -0.10287503053E+04 -0.32275375578E+03 -0.56284505204E+03  0.12162704552E+04  0.46999998093E+01 0.  1.
       -5    1    3    3    0  502  0.10287503053E+04  0.32275375578E+03 -0.95070624070E+02  0.10823851861E+04  0.46999998093E+01 0. -1.
</event>
<event>
 5   0  0.4174075E-05  0.2201906E+04  0.7818609E-02  0.8517635E-01
        1   -1    0    0  501    0  0.00000000000E+00  0.00000000000E+00  0.94766138777E+03  0.94766138779E+03  0.50400001928E-02 0. -1.
       -1   -1    0    0    0  501  0.00000000000E+00  0.00000000000E+00 -0.12790405911E+04  0.12790405911E+04  0.50400001928E-02 0.  1.
    10030    2    1    2    0    0  0.00000000000E+00  0.00000000000E+00 -0.33137920331E+03  0.22267019789E+04  0.22019058850E+04 0.  0.
        5    1    3    3  502    0  0.71163497896E+03  0.34650676494E+03  0.60816246653E+03  0.99818583296E+03  0.46999998093E+01 0. -1.
       -5    1    3    3    0  502 -0.71163497896E+03 -0.34650676494E+03 -0.93954166984E+03  0.12285161459E+04  0.46999998093E+01 0.  1.
</event>
<event>
 5   0  0.9457742E-05  0.1964714E+04  0.7818609E-02  0.8623298E-01
       -2   -1    0    0    0  501  0.00000000000E+00  0.00000000000E+00  0.60061137666E+03  0.60061137667E+03  0.25500000920E-02 0.  1.
        2   -1    0    0  501    0  0.00000000000E+00  0.00000000000E+00 -0.16067385191E+04  0.16067385191E+04  0.25500000920E-02 0. -1.
    10030    2    1    2    0    0  0.00000000000E+00  0.00000000000E+00 -0.10061271424E+04  0.22073498958E+04  0.19647141613E+04 0.  0.
        1    1    3    3  502    0  0.31560498572E+03  0.83545906338E+02 -0.15440055596E+04  0.15781443513E+04  0.50400001928E-02 0. -1.
       -1    1    3    3    0  502 -0.31560498572E+03 -0.83545906338E+02  0.53787841718E+03  0.62920554445E+03  0.50400001928E-02 0.  1.
</event>
<event>
 5   0  0.4133418E-05  0.2200581E+04  0.7818609E-02  0.8518186E-01
       -1   -1    0    0    0  501  0.00000000000E+00  0.00000000000E+00  0.15460022379E+04  0.15460022379E+04  0.50400001928E-02 0.  1.
        1   -1    0    0  501    0  0.00000000000E+00  0.00000000000E+00 -0.78307757693E+03  0.78307757694E+03  0.50400001928E-02 0. -1.
    10030    2    1    2    0    0  0.00000000000E+00  0.00000000000E+00  0.76292466096E+03  0.23290798148E+04  0.22005814563E+04 0.  0.
        4    1    3    3  502    0  0.22253203273E+03  0.45269041706E+03 -0.65348627534E+03  0.82552713114E+03  0.12699999809E+01 0. -1.
       -4    1    3    3    0  502 -0.22253203273E+03 -0.45269041706E+03  0.14164109363E+04  0.15035526837E+04  0.12699999809E+01 0.  1.
</event>
<event>
 5   0  0.4174030E-05  0.2179022E+04  0.7818609E-02  0.8527211E-01
        1   -1    0    0  501    0  0.00000000000E+00  0.00000000000E+00  0.65394874658E+03  0.65394874660E+03  0.50400001928E-02 0.  1.
       -1   -1    0    0    0  501  0.00000000000E+00  0.00000000000E+00 -0.18151790397E+04  0.18151790397E+04  0.50400001928E-02 0. -1.
    10030    2    1    2    0    0  0.00000000000E+00  0.00000000000E+00 -0.11612302932E+04  0.24691277863E+04  0.21790218520E+04 0.  0.
        2    1    3    3  502    0  0.88390149042E+02  0.61768176218E+02 -0.18091172951E+04  0.18123282025E+04  0.25500000920E-02 0. -1.
       -2    1    3    3    0  502 -0.88390149042E+02 -0.61768176218E+02  0.64788700196E+03  0.65679958386E+03  0.25500000920E-02 0.  1.
</event>
<event>
 5   0  0.9442578E-05  0.2168804E+04  0.7818609E-02  0.8531526E-01
        2   -1    0    0  501    0  0.00000000000E+00  0.00000000000E+00  0.14727161749E+04  0.14727161749E+04  0.25500000920E-02 0.  1.
       -2   -1    0    0    0  501  0.00000000000E+00  0.00000000000E+00 -0.79847544097E+03  0.79847544098E+03  0.25500000920E-02 0. -1.
    10030    2    1    2    0    0  0.00000000000E+00  0.00000000000E+00  0.67424073396E+03  0.22711916159E+04  0.21688039996E+04 0.  0.
        4    1    3    3  502    0  0.30815867587E+02 -0.94762837403E+03 -0.21401117951E+03  0.97198330789E+03  0.12699999809E+01 0. -1.
       -4    1    3    3    0  502 -0.30815867587E+02  0.94762837403E+03  0.88825191347E+03  0.12992083080E+04  0.12699999809E+01 0.  1.
</event>
<event>
 5   0  0.9254673E-05  0.2135469E+04  0.7818609E-02  0.8545778E-01
       -2   -1    0    0    0  501  0.00000000000E+00  0.00000000000E+00  0.12352155961E+04  0.12352155961E+04  0.25500000920E-02 0.  1.
        2   -1    0    0  501    0  0.00000000000E+00  0.00000000000E+00 -0.92296218861E+03  0.92296218862E+03  0.25500000920E-02 0. -1.
    10030    2    1    2    0    0  0.00000000000E+00  0.00000000000E+00  0.31225340749E+03  0.21581777847E+04  0.21354693067E+04 0.  0.
        2    1    3    3  502    0  0.34774618404E+03 -0.99862501351E+02 -0.85912407343E+03  0.93219853102E+03  0.25500000920E-02 0. -1.
       -2    1    3    3    0  502 -0.34774618404E+03  0.99862501351E+02  0.11713774809E+04  0.12259792537E+04  0.25500000920E-02 0.  1.
</event>
<event>
 5   0  0.9179618E-05  0.2105448E+04  0.7818609E-02  0.8558847E-01
       -2   -1    0    0    0  501  0.00000000000E+00  0.00000000000E+00  0.68548868481E+03  0.68548868481E+03  0.25500000920E-02 0. -1.
        2   -1    0    0  501    0  0.00000000000E+00  0.00000000000E+00 -0.16166974857E+04  0.16166974857E+04  0.25500000920E-02 0.  1.
    10030    2    1    2    0    0  0.00000000000E+00  0.00000000000E+00 -0.93120880089E+03  0.23021861705E+04  0.21054480124E+04 0.  0.
        3    1    3    3  502    0  0.48254491593E+03  0.59315909202E+03  0.32556788909E+03  0.83107265925E+03  0.10100000352E+00 0.  1.
       -3    1    3    3    0  502 -0.48254491593E+03 -0.59315909202E+03 -0.12567766900E+04  0.14711135113E+04  0.10100000352E+00 0. -1.
</event>
<event>
 5   0  0.4174030E-05  0.2226387E+04  0.7818609E-02  0.8507525E-01
       -1   -1    0    0    0  501  0.00000000000E+00  0.00000000000E+00  0.99945034011E+03  0.99945034012E+03  0.50400001928E-02 0. -1.
        1   -1    0    0  501    0  0.00000000000E+00  0.00000000000E+00 -0.12398808559E+04  0.12398808559E+04  0.50400001928E-02 0.  1.
    10030    2    1    2    0    0  0.00000000000E+00  0.00000000000E+00 -0.24043051582E+03  0.22393311961E+04  0.22263866180E+04 0.  0.
        2    1    3    3  502    0  0.91659233532E+03 -0.49991570548E+03  0.26821933988E+03  0.10779604984E+04  0.25500000920E-02 0. -1.
       -2    1    3    3    0  502 -0.91659233532E+03  0.49991570548E+03 -0.50864985569E+03  0.11613706977E+04  0.25500000920E-02 0.  1.
</event>
<event>
 5   0  0.9442578E-05  0.2186111E+04  0.7818609E-02  0.8524231E-01
        2   -1    0    0  501    0  0.00000000000E+00  0.00000000000E+00  0.15003570650E+04  0.15003570650E+04  0.25500000920E-02 0.  1.
       -2   -1    0    0    0  501  0.00000000000E+00  0.00000000000E+00 -0.79632384115E+03  0.79632384115E+03  0.25500000920E-02 0. -1.
    10030    2    1    2    0    0  0.00000000000E+00  0.00000000000E+00  0.70403322388E+03  0.22966809062E+04  0.21861107942E+04 0.  0.
        4    1    3    3  502    0 -0.82592714124E+03  0.35988249640E+03 -0.29823750865E+03  0.94900910339E+03  0.12699999809E+01 0. -1.
       -4    1    3    3    0  502  0.82592714124E+03 -0.35988249640E+03  0.10022707325E+04  0.13476718028E+04  0.12699999809E+01 0.  1.
</event>
<event>
 5   0  0.9179618E-05  0.2274593E+04  0.7818609E-02  0.8488007E-01
       -2   -1    0    0    0  501  0.00000000000E+00  0.00000000000E+00  0.69292963574E+03  0.69292963575E+03  0.25500000920E-02 0. -1.
        2   -1    0    0  501    0  0.00000000000E+00  0.00000000000E+00 -0.18666297482E+04  0.18666297482E+04  0.25500000920E-02 0.  1.
    10030    2    1    2    0    0  0.00000000000E+00  0.00000000000E+00 -0.11737001124E+04  0.25595593839E+04  0.22745927736E+04 0.  0.
        3    1    3    3  502    0 -0.29301315460E+03  0.38076512595E+03  0.57312148295E+03  0.74786832687E+03  0.10100000352E+00 0. -1.
       -3    1    3    3    0  502  0.29301315460E+03 -0.38076512595E+03 -0.17468215954E+04  0.18116910570E+04  0.10100000352E+00 0.  1.
</event>
<event>
 5   0  0.4188865E-05  0.2109431E+04  0.7818609E-02  0.8557100E-01
       -1   -1    0    0    0  501  0.00000000000E+00  0.00000000000E+00  0.63561292217E+03  0.63561292219E+03  0.50400001928E-02 0.  1.
        1   -1    0    0  501    0  0.00000000000E+00  0.00000000000E+00 -0.17501611577E+04  0.17501611577E+04  0.50400001928E-02 0. -1.
    10030    2    1    2    0    0  0.00000000000E+00  0.00000000000E+00 -0.11145482356E+04  0.23857740799E+04  0.21094312482E+04 0.  0.
        3    1    3    3  502    0  0.56171487167E+02 -0.10726427500E+03  0.62772620311E+03  0.63929731498E+03  0.10100000352E+00 0.  1.
       -3    1    3    3    0  502 -0.56171487167E+02  0.10726427500E+03 -0.17422744387E+04  0.17464767649E+04  0.10100000352E+00 0. -1.
</event>
<event>
 5   0  0.9179618E-05  0.2232020E+04  0.7818609E-02  0.8505218E-01
       -2   -1    0    0    0  501  0.00000000000E+00  0.00000000000E+00  0.13716407889E+04  0.13716407889E+04  0.25500000920E-02 0.  1.
        2   -1    0    0  501    0  0.00000000000E+00  0.00000000000E+00 -0.90802052990E+03  0.90802052990E+03  0.25500000920E-02 0. -1.
    10030    2    1    2    0    0  0.00000000000E+00  0.00000000000E+00  0.46362025897E+03  0.22796613188E+04  0.22320197095E+04 0.  0.
        3    1    3    3  502    0 -0.11370325347E+03  0.10511376314E+04  0.59673076695E+03  0.12140454557E+04  0.10100000352E+00 0. -1.
       -3    1    3    3    0  502  0.11370325347E+03 -0.10511376314E+04 -0.13311050798E+03  0.10656158631E+04  0.10100000352E+00 0.  1.
</event>
<event>
 5   0  0.4174030E-05  0.2195536E+04  0.7818609E-02  0.8520288E-01
        1   -1    0    0  501    0  0.00000000000E+00  0.00000000000E+00  0.16279166362E+04  0.16279166362E+04  0.50400001928E-02 0. -1.
       -1   -1    0    0    0  501  0.00000000000E+00  0.00000000000E+00 -0.74026803370E+03  0.74026803372E+03  0.50400001928E-02 0.  1.
    10030    2    1    2    0    0  0.00000000000E+00  0.00000000000E+00  0.88764860253E+03  0.23681846700E+04  0.21955360597E+04 0.  0.
        2    1    3    3  502    0  0.76498737488E+03  0.58267147897E+02 -0.40308983905E+03  0.86664996545E+03  0.25500000920E-02 0.  1.
       -2    1    3    3    0  502 -0.76498737488E+03 -0.58267147897E+02  0.12907384416E+04  0.15015347045E+04  0.25500000920E-02 0. -1.
</event>
<event>
 5   0  0.4063293E-05  0.2139784E+04  0.7818609E-02  0.8543918E-01
        1   -1    0    0  501    0  0.00000000000E+00  0.00000000000E+00  0.13677899967E+04  0.13677899967E+04  0.50400001928E-02 0.  1.
       -1   -1    0    0    0  501  0.00000000000E+00  0.00000000000E+00 -0.83687473436E+03  0.83687473438E+03  0.50400001928E-02 0. -1.
    10030    2    1    2    0    0  0.00000000000E+00  0.00000000000E+00  0.53091526230E+03  0.22046647310E+04  0.21397839986E+04 0.  0.
        1    1    3    3  502    0 -0.97987398192E+01  0.61923336425E+03  0.11643341133E+04  0.13187948673E+04  0.50400001928E-02 0.  1.
       -1    1    3    3    0  502  0.97987398192E+01 -0.61923336425E+03 -0.63341885097E+03  0.88586986374E+03  0.50400001928E-02 0. -1.
</event>
<event>
 5   0  0.9442578E-05  0.2173472E+04  0.7818609E-02  0.8529552E-01
        2   -1    0    0  501    0  0.00000000000E+00  0.00000000000E+00  0.85760370308E+03  0.85760370309E+03  0.25500000920E-02 0. -1.
       -2   -1    0    0    0  501  0.00000000000E+00  0.00000000000E+00 -0.13770868521E+04  0.13770868521E+04  0.25500000920E-02 0.  1.
    10030    2    1    2    0    0  0.00000000000E+00  0.00000000000E+00 -0.51948314902E+03  0.22346905552E+04  0.21734716781E+04 0.  0.
        4    1    3    3  502    0  0.31684264818E+03 -0.14240122373E+03  0.79898319126E+03  0.87123081043E+03  0.12699999809E+01 0. -1.
       -4    1    3    3    0  502 -0.31684264818E+03  0.14240122373E+03 -0.13184663403E+04  0.13634597448E+04  0.12699999809E+01 0.  1.
</event>
<event>
 5   0  0.9442578E-05  0.2206353E+04  0.7818609E-02  0.8515789E-01
        2   -1    0    0  501    0  0.00000000000E+00  0.00000000000E+00  0.10748390017E+04  0.10748390017E+04  0.25500000920E-02 0.  1.
       -2   -1    0    0    0  501  0.00000000000E+00  0.00000000000E+00 -0.11322606775E+04  0.11322606775E+04  0.25500000920E-02 0. -1.
    10030    2    1    2    0    0  0.00000000000E+00  0.00000000000E+00 -0.57421675857E+02  0.22070996792E+04  0.22063525885E+04 0.  0.
        4    1    3    3  502    0  0.10006630220E+04  0.45612621183E+03 -0.11602566517E+03  0.11058214922E+04  0.12699999809E+01 0. -1.
       -4    1    3    3    0  502 -0.10006630220E+04 -0.45612621183E+03  0.58603989312E+02  0.11012781870E+04  0.12699999809E+01 0.  1.
</event>
<event>
 5   0  0.9442578E-05  0.2194984E+04  0.7818609E-02  0.8520519E-01
       -2   -1    0    0    0  501  0.00000000000E+00  0.00000000000E+00  0.12299094505E+04  0.12299094505E+04  0.25500000920E-02 0.  1.
        2   -1    0    0  501    0  0.00000000000E+00  0.00000000000E+00 -0.97933089983E+03  0.97933089983E+03  0.25500000920E-02 0. -1.
    10030    2    1    2    0    0  0.00000000000E+00  0.00000000000E+00  0.25057855067E+03  0.22092403503E+04  0.21949836709E+04 0.  0.
        4    1    3    3  502    0  0.18005620466E+03 -0.10724841650E+04  0.27404705768E+03  0.11214927212E+04  0.12699999809E+01 0.  1.
       -4    1    3    3    0  502 -0.18005620466E+03  0.10724841650E+04 -0.23468507008E+02  0.10877476291E+04  0.12699999809E+01 0. -1.
</event>
<event>
 5   0  0.3283125E-05  0.2198126E+04  0.7818609E-02  0.8519208E-01
       -3   -1    0    0    0  501  0.00000000000E+00  0.00000000000E+00  0.56944990626E+03  0.56944991522E+03  0.10100000352E+00 0. -1.
        3   -1    0    0  501    0  0.00000000000E+00  0.00000000000E+00 -0.21212400686E+04  0.21212400710E+04  0.10100000352E+00 0.  1.
    10030    2    1    2    0    0  0.00000000000E+00  0.00000000000E+00 -0.15517901623E+04  0.26906899862E+04  0.21981264509E+04 0.  0.
        5    1    3    3  502    0 -0.43675816916E+03 -0.30366994763E+03 -0.19531455864E+04  0.20242956571E+04  0.46999998093E+01 0.  1.
       -5    1    3    3    0  502  0.43675816916E+03  0.30366994763E+03  0.40135542412E+03  0.66639432913E+03  0.46999998093E+01 0. -1.
</event>
<event>
 5   0  0.4063293E-05  0.2195333E+04  0.7818609E-02  0.8520373E-01
        1   -1    0    0  501    0  0.00000000000E+00  0.00000000000E+00  0.17521316541E+04  0.17521316541E+04  0.50400001928E-02 0. -1.
       -1   -1    0    0    0  501  0.00000000000E+00  0.00000000000E+00 -0.68766069452E+03  0.68766069453E+03  0.50400001928E-02 0.  1.
    10030    2    1    2    0    0  0.00000000000E+00  0.00000000000E+00  0.10644709596E+04  0.24397923486E+04  0.21953332960E+04 0.  0.
        1    1    3    3  502    0  0.18662113592E+03  0.84416259521E+03  0.12838872514E+04  0.15478386252E+04  0.50400001928E-02 0. -1.
       -1    1    3    3    0  502 -0.18662113592E+03 -0.84416259521E+03 -0.21941629180E+03  0.89195372338E+03  0.50400001928E-02 0.  1.
</event>
<event>
 5   0  0.9179618E-05  0.2048475E+04  0.7818609E-02  0.8584286E-01
        2   -1    0    0  501    0  0.00000000000E+00  0.00000000000E+00  0.10613592479E+04  0.10613592479E+04  0.25500000920E-02 0.  1.
       -2   -1    0    0    0  501  0.00000000000E+00  0.00000000000E+00 -0.98841429801E+03  0.98841429801E+03  0.25500000920E-02 0. -1.
    10030    2    1    2    0    0  0.00000000000E+00  0.00000000000E+00  0.72944949872E+02  0.20497735459E+04  0.20484751948E+04 0.  0.
        3    1    3    3  502    0  0.34598045158E+03 -0.35169612324E+03  0.93463260673E+03  0.10568494480E+04  0.10100000352E+00 0.  1.
       -3    1    3    3    0  502 -0.34598045158E+03  0.35169612324E+03 -0.86168765686E+03  0.99292409789E+03  0.10100000352E+00 0. -1.
</event>
<event>
 5   0  0.9457742E-05  0.2183488E+04  0.7818609E-02  0.8525332E-01
       -2   -1    0    0    0  501  0.00000000000E+00  0.00000000000E+00  0.72918082808E+03  0.72918082808E+03  0.25500000920E-02 0.  1.
        2   -1    0    0  501    0  0.00000000000E+00  0.00000000000E+00 -0.16345814728E+04  0.16345814728E+04  0.25500000920E-02 0. -1.
    10030    2    1    2    0    0  0.00000000000E+00  0.00000000000E+00 -0.90540064474E+03  0.23637623009E+04  0.21834884675E+04 0.  0.
        1    1    3    3  502    0 -0.10676783388E+03 -0.10733264995E+04 -0.63538195557E+03  0.12518543743E+04  0.50400001928E-02 0.  1.
       -1    1    3    3    0  502  0.10676783388E+03  0.10733264995E+04 -0.27001868917E+03  0.11119079267E+04  0.50400001928E-02 0. -1.
</event>
<event>
 5   0  0.4174030E-05  0.1849553E+04  0.7818609E-02  0.8680383E-01
        1   -1    0    0  501    0  0.00000000000E+00  0.00000000000E+00  0.21617826335E+04  0.21617826335E+04  0.50400001928E-02 0.  1.
       -1   -1    0    0    0  501  0.00000000000E+00  0.00000000000E+00 -0.39560490839E+03  0.39560490843E+03  0.50400001928E-02 0. -1.
    10030    2    1    2    0    0  0.00000000000E+00  0.00000000000E+00  0.17661777251E+04  0.25573875419E+04  0.18495532658E+04 0.  0.
        2    1    3    3  502    0  0.45542699271E+03 -0.51397778196E+03  0.26676151686E+02  0.68723978574E+03  0.25500000920E-02 0. -1.
       -2    1    3    3    0  502 -0.45542699271E+03  0.51397778196E+03  0.17395015734E+04  0.18701477562E+04  0.25500000920E-02 0.  1.
</event>
<event>
 5   0  0.4063293E-05  0.2190987E+04  0.7818609E-02  0.8522189E-01
       -1   -1    0    0    0  501  0.00000000000E+00  0.00000000000E+00  0.66950515910E+03  0.66950515911E+03  0.50400001928E-02 0. -1.
        1   -1    0    0  501    0  0.00000000000E+00  0.00000000000E+00 -0.17925276277E+04  0.17925276277E+04  0.50400001928E-02 0.  1.
    10030    2    1    2    0    0  0.00000000000E+00  0.00000000000E+00 -0.11230224686E+04  0.24620327868E+04  0.21909874437E+04 0.  0.
        1    1    3    3  502    0 -0.10533212664E+03 -0.92836555787E+03  0.81216086328E+02  0.93784514641E+03  0.50400001928E-02 0. -1.
       -1    1    3    3    0  502  0.10533212664E+03  0.92836555787E+03 -0.12042385549E+04  0.15241876404E+04  0.50400001928E-02 0.  1.
</event>
<event>
 5   0  0.4174030E-05  0.2255589E+04  0.7818609E-02  0.8495640E-01
       -1   -1    0    0    0  501  0.00000000000E+00  0.00000000000E+00  0.14272629412E+04  0.14272629412E+04  0.50400001928E-02 0.  1.
        1   -1    0    0  501    0  0.00000000000E+00  0.00000000000E+00 -0.89116072965E+03  0.89116072966E+03  0.50400001928E-02 0. -1.
    10030    2    1    2    0    0  0.00000000000E+00  0.00000000000E+00  0.53610221156E+03  0.23184236709E+04  0.22555892216E+04 0.  0.
        2    1    3    3  502    0  0.57584323145E+03  0.88886179553E+03 -0.13036783990E+03  0.10670831704E+04  0.25500000920E-02 0.  1.
       -2    1    3    3    0  502 -0.57584323145E+03 -0.88886179553E+03  0.66647005146E+03  0.12513405005E+04  0.25500000920E-02 0. -1.
</event>
<event>
 5   0  0.9179618E-05  0.2210140E+04  0.7818609E-02  0.8514220E-01
        2   -1    0    0  501    0  0.00000000000E+00  0.00000000000E+00  0.16382992160E+04  0.16382992160E+04  0.25500000920E-02 0.  1.
       -2   -1    0    0    0  501  0.00000000000E+00  0.00000000000E+00 -0.74539465888E+03  0.74539465888E+03  0.25500000920E-02 0. -1.
    10030    2    1    2    0    0  0.00000000000E+00  0.00000000000E+00  0.89290455714E+03  0.23836938749E+04  0.22101398013E+04 0.  0.
        3    1    3    3  502    0 -0.59854291227E+03  0.87937852896E+03  0.12357951440E+03  0.10709024800E+04  0.10100000352E+00 0. -1.
       -3    1    3    3    0  502  0.59854291227E+03 -0.87937852896E+03  0.76932504274E+03  0.13127913949E+04  0.10100000352E+00 0.  1.
</event>
<event>
 5   0  0.4174030E-05  0.2208401E+04  0.7818609E-02  0.8514940E-01
       -1   -1    0    0    0  501  0.00000000000E+00  0.00000000000E+00  0.11458677278E+04  0.11458677278E+04  0.50400001928E-02 0.  1.
        1   -1    0    0  501    0  0.00000000000E+00  0.00000000000E+00 -0.10640482594E+04  0.10640482594E+04  0.50400001928E-02 0. -1.
    10030    2    1    2    0    0  0.00000000000E+00  0.00000000000E+00  0.81819468401E+02  0.22099159873E+04  0.22084008344E+04 0.  0.
        2    1    3    3  502    0  0.89995719823E+03  0.12155658115E+03 -0.58766101728E+03  0.10816859213E+04  0.25500000920E-02 0. -1.
       -2    1    3    3    0  502 -0.89995719823E+03 -0.12155658115E+03  0.66948048568E+03  0.11282300660E+04  0.25500000920E-02 0.  1.
</event>
<event>
 5   0  0.9254673E-05  0.2200145E+04  0.7818609E-02  0.8518368E-01
        2   -1    0    0  501    0  0.00000000000E+00  0.00000000000E+00  0.69239570435E+03  0.69239570436E+03  0.25500000920E-02 0.  1.
       -2   -1    0    0    0  501  0.00000000000E+00  0.00000000000E+00 -0.17477867726E+04  0.17477867726E+04  0.25500000920E-02 0. -1.
    10030    2    1    2    0    0  0.00000000000E+00  0.00000000000E+00 -0.10553910683E+04  0.24401824770E+04  0.22001454984E+04 0.  0.
        2    1    3    3  502    0 -0.97900665188E+03 -0.38011153878E+03 -0.16452439428E+03  0.10630179127E+04  0.25500000920E-02 0.  1.
       -2    1    3    3    0  502  0.97900665188E+03  0.38011153878E+03 -0.89086667399E+03  0.13771645643E+04  0.25500000920E-02 0. -1.
</event>
<event>
 5   0  0.4188865E-05  0.2211036E+04  0.7818609E-02  0.8513849E-01
        1   -1    0    0  501    0  0.00000000000E+00  0.00000000000E+00  0.80162856359E+03  0.80162856361E+03  0.50400001928E-02 0.  1.
       -1   -1    0    0    0  501  0.00000000000E+00  0.00000000000E+00 -0.15246085163E+04  0.15246085163E+04  0.50400001928E-02 0. -1.
    10030    2    1    2    0    0  0.00000000000E+00  0.00000000000E+00 -0.72297995275E+03  0.23262370800E+04  0.22110357166E+04 0.  0.
        3    1    3    3  502    0 -0.96411052756E+03  0.48265413151E+03 -0.10441147065E+03  0.10832201463E+04  0.10100000352E+00 0.  1.
       -3    1    3    3    0  502  0.96411052756E+03 -0.48265413151E+03 -0.61856848210E+03  0.12430169336E+04  0.10100000352E+00 0. -1.
</event>
<event>
 5   0  0.4063293E-05  0.2176421E+04  0.7818609E-02  0.8528307E-01
        1   -1    0    0  501    0  0.00000000000E+00  0.00000000000E+00  0.14478210854E+04  0.14478210854E+04  0.50400001928E-02 0. -1.
       -1   -1    0    0    0  501  0.00000000000E+00  0.00000000000E+00 -0.81791991681E+03  0.81791991682E+03  0.50400001928E-02 0.  1.
    10030    2    1    2    0    0  0.00000000000E+00  0.00000000000E+00  0.62990116856E+03  0.22657410022E+04  0.21764206411E+04 0.  0.
        1    1    3    3  502    0 -0.37821173637E+03 -0.99920266800E+03  0.53020084072E+03  0.11927124636E+04  0.50400001928E-02 0. -1.
       -1    1    3    3    0  502  0.37821173637E+03  0.99920266800E+03  0.99700327836E+02  0.10730285386E+04  0.50400001928E-02 0.  1.
</event>
<event>
 5   0  0.9442578E-05  0.2184884E+04  0.7818609E-02  0.8524746E-01
        2   -1    0    0  501    0  0.00000000000E+00  0.00000000000E+00  0.14125427318E+04  0.14125427318E+04  0.25500000920E-02 0.  1.
       -2   -1    0    0    0  501  0.00000000000E+00  0.00000000000E+00 -0.84488016400E+03  0.84488016400E+03  0.25500000920E-02 0. -1.
    10030    2    1    2    0    0  0.00000000000E+00  0.00000000000E+00  0.56766256778E+03  0.22574228958E+04  0.21848838275E+04 0.  0.
        4    1    3    3  502    0 -0.67763572062E+03  0.66610930405E+03 -0.27307807019E+03  0.98866830642E+03  0.12699999809E+01 0. -1.
       -4    1    3    3    0  502  0.67763572062E+03 -0.66610930405E+03  0.84074063797E+03  0.12687545894E+04  0.12699999809E+01 0.  1.
</event>
<event>
 5   0  0.9938176E-05  0.2208943E+04  0.7818609E-02  0.8514715E-01
       -2   -1    0    0    0  501  0.00000000000E+00  0.00000000000E+00  0.11449682671E+04  0.11449682671E+04  0.25500000920E-02 0.  1.
        2   -1    0    0  501    0  0.00000000000E+00  0.00000000000E+00 -0.10654072827E+04  0.10654072827E+04  0.25500000920E-02 0. -1.
    10030    2    1    2    0    0  0.00000000000E+00  0.00000000000E+00  0.79560984327E+02  0.22103755498E+04  0.22089432136E+04 0.  0.
        5    1    3    3  502    0 -0.89525684997E+03  0.46691367594E+03  0.48766678408E+03  0.11213091414E+04  0.46999998093E+01 0.  1.
       -5    1    3    3    0  502  0.89525684997E+03 -0.46691367594E+03 -0.40810579975E+03  0.10890664084E+04  0.46999998093E+01 0. -1.
</event>
<event>
 5   0  0.4174030E-05  0.2195534E+04  0.7818609E-02  0.8520289E-01
        1   -1    0    0  501    0  0.00000000000E+00  0.00000000000E+00  0.23520745843E+04  0.23520745843E+04  0.50400001928E-02 0.  1.
       -1   -1    0    0    0  501  0.00000000000E+00  0.00000000000E+00 -0.51235274866E+03  0.51235274869E+03  0.50400001928E-02 0. -1.
    10030    2    1    2    0    0  0.00000000000E+00  0.00000000000E+00  0.18397218356E+04  0.28644273330E+04  0.21955335373E+04 0.  0.
        2    1    3    3  502    0 -0.92331097957E+03 -0.19478024174E+03  0.16516925338E+04  0.19022436052E+04  0.25500000920E-02 0.  1.
       -2    1    3    3    0  502  0.92331097957E+03  0.19478024174E+03  0.18802930186E+03  0.96218372774E+03  0.25500000920E-02 0. -1.
</event>
<event>
 5   0  0.4133418E-05  0.2149965E+04  0.7818609E-02  0.8539547E-01
        1   -1    0    0  501    0  0.00000000000E+00  0.00000000000E+00  0.13749566632E+04  0.13749566632E+04  0.50400001928E-02 0. -1.
       -1   -1    0    0    0  501  0.00000000000E+00  0.00000000000E+00 -0.84045351896E+03  0.84045351897E+03  0.50400001928E-02 0.  1.
    10030    2    1    2    0    0  0.00000000000E+00  0.00000000000E+00  0.53450314428E+03  0.22154101822E+04  0.21499648053E+04 0.  0.
        4    1    3    3  502    0  0.16079184483E+03  0.36629979690E+03 -0.76089644593E+03  0.85964793544E+03  0.12699999809E+01 0.  1.
       -4    1    3    3    0  502 -0.16079184483E+03 -0.36629979690E+03  0.12953995902E+04  0.13557622468E+04  0.12699999809E+01 0. -1.
</event>
<event>
 5   0  0.4063293E-05  0.2215088E+04  0.7818609E-02  0.8512174E-01
        1   -1    0    0  501    0  0.00000000000E+00  0.00000000000E+00  0.14511363000E+04  0.14511363000E+04  0.50400001928E-02 0.  1.
       -1   -1    0    0    0  501  0.00000000000E+00  0.00000000000E+00 -0.84530595758E+03  0.84530595759E+03  0.50400001928E-02 0. -1.
    10030    2    1    2    0    0  0.00000000000E+00  0.00000000000E+00  0.60583034246E+03  0.22964422576E+04  0.22150884043E+04 0.  0.
        1    1    3    3  502    0  0.91712992888E+03 -0.41771964205E+03 -0.17334463052E+03  0.10225778047E+04  0.50400001928E-02 0. -1.
       -1    1    3    3    0  502 -0.91712992888E+03  0.41771964205E+03  0.77917497298E+03  0.12738644529E+04  0.50400001928E-02 0.  1.
</event>
<event>
 5   0  0.4174075E-05  0.2192437E+04  0.7818609E-02  0.8521583E-01
        1   -1    0    0  501    0  0.00000000000E+00  0.00000000000E+00  0.15051887108E+04  0.15051887108E+04  0.50400001928E-02 0.  1.
       -1   -1    0    0    0  501  0.00000000000E+00  0.00000000000E+00 -0.79836807652E+03  0.79836807653E+03  0.50400001928E-02 0. -1.
    10030    2    1    2    0    0  0.00000000000E+00  0.00000000000E+00  0.70682063427E+03  0.23035567873E+04  0.21924366498E+04 0.  0.
        5    1    3    3  502    0 -0.24143218886E+03 -0.48121173114E+03  0.13566992468E+04  0.14596263797E+04  0.46999998093E+01 0.  1.
       -5    1    3    3    0  502  0.24143218886E+03  0.48121173114E+03 -0.64987861250E+03  0.84393040767E+03  0.46999998093E+01 0. -1.
</event>
<event>
 5   0  0.4188865E-05  0.2247943E+04  0.7818609E-02  0.8498734E-01
        1   -1    0    0  501    0  0.00000000000E+00  0.00000000000E+00  0.27442029691E+04  0.27442029691E+04  0.50400001928E-02 0.  1.
       -1   -1    0    0    0  501  0.00000000000E+00  0.00000000000E+00 -0.46035659836E+03  0.46035659839E+03  0.50400001928E-02 0. -1.
    10030    2    1    2    0    0  0.00000000000E+00  0.00000000000E+00  0.22838463707E+04  0.32045595675E+04  0.22479430101E+04 0.  0.
        3    1    3    3  502    0  0.75611980067E+03  0.16524858598E+03 -0.19956485232E+02  0.77422381754E+03  0.10100000352E+00 0. -1.
       -3    1    3    3    0  502 -0.75611980067E+03 -0.16524858598E+03  0.23038028560E+04  0.24303357499E+04  0.10100000352E+00 0.  1.
</event>
<event>
 5   0  0.9457742E-05  0.2181258E+04  0.7818609E-02  0.8526270E-01
        2   -1    0    0  501    0  0.00000000000E+00  0.00000000000E+00  0.16874562389E+04  0.16874562389E+04  0.25500000920E-02 0. -1.
       -2   -1    0    0    0  501  0.00000000000E+00  0.00000000000E+00 -0.70489016863E+03  0.70489016864E+03  0.25500000920E-02 0.  1.
    10030    2    1    2    0    0  0.00000000000E+00  0.00000000000E+00  0.98256607022E+03  0.23923464075E+04  0.21812577223E+04 0.  0.
        1    1    3    3  502    0  0.52724203283E+03  0.47295602326E+03 -0.41831201943E+03  0.82259133641E+03  0.50400001928E-02 0.  1.
       -1    1    3    3    0  502 -0.52724203283E+03 -0.47295602326E+03  0.14008780896E+04  0.15697550711E+04  0.50400001928E-02 0. -1.
</event>
<event>
 5   0  0.4174075E-05  0.2209308E+04  0.7818609E-02  0.8514564E-01
        1   -1    0    0  501    0  0.00000000000E+00  0.00000000000E+00  0.23673866439E+04  0.23673866439E+04  0.50400001928E-02 0.  1.
       -1   -1    0    0    0  501  0.00000000000E+00  0.00000000000E+00 -0.51544610135E+03  0.51544610138E+03  0.50400001928E-02 0. -1.
    10030    2    1    2    0    0  0.00000000000E+00  0.00000000000E+00  0.18519405426E+04  0.28828327453E+04  0.22093077794E+04 0.  0.
        5    1    3    3  502    0  0.82679281858E+03 -0.49142903877E+03  0.21707174294E+03  0.98601779729E+03  0.46999998093E+01 0. -1.
       -5    1    3    3    0  502 -0.82679281858E+03  0.49142903877E+03  0.16348687996E+04  0.18968149480E+04  0.46999998093E+01 0.  1.
</event>
<event>
 5   0  0.4063293E-05  0.2529292E+04  0.7818609E-02  0.8392624E-01
        1   -1    0    0  501    0  0.00000000000E+00  0.00000000000E+00  0.12553774331E+04  0.12553774331E+04  0.50400001928E-02 0.  1.
       -1   -1    0    0    0  501  0.00000000000E+00  0.00000000000E+00 -0.12739833372E+04  0.12739833372E+04  0.50400001928E-02 0. -1.
    10030    2    1    2    0    0  0.00000000000E+00  0.00000000000E+00 -0.18605904115E+02  0.25293607703E+04  0.25292923371E+04 0.  0.
        1    1    3    3  502    0  0.46886454056E+02 -0.12637760058E+04 -0.79615397664E+01  0.12646705177E+04  0.50400001928E-02 0.  1.
       -1    1    3    3    0  502 -0.46886454056E+02  0.12637760058E+04 -0.10644364348E+02  0.12646902525E+04  0.50400001928E-02 0. -1.
</event>
<event>
 5   0  0.4063293E-05  0.2188936E+04  0.7818609E-02  0.8523047E-01
        1   -1    0    0  501    0  0.00000000000E+00  0.00000000000E+00  0.15988808642E+04  0.15988808642E+04  0.50400001928E-02 0. -1.
       -1   -1    0    0    0  501  0.00000000000E+00  0.00000000000E+00 -0.74918688825E+03  0.74918688826E+03  0.50400001928E-02 0.  1.
    10030    2    1    2    0    0  0.00000000000E+00  0.00000000000E+00  0.84969397598E+03  0.23480677525E+04  0.21889363439E+04 0.  0.
        1    1    3    3  502    0  0.49498145292E+03 -0.88322947969E+03 -0.21013123888E+02  0.10126907247E+04  0.50400001928E-02 0.  1.
       -1    1    3    3    0  502 -0.49498145292E+03  0.88322947969E+03  0.87070709986E+03  0.13353770278E+04  0.50400001928E-02 0. -1.
</event>
<event>
 5   0  0.4133418E-05  0.2212276E+04  0.7818609E-02  0.8513336E-01
       -1   -1    0    0    0  501  0.00000000000E+00  0.00000000000E+00  0.92188306560E+03  0.92188306561E+03  0.50400001928E-02 0. -1.
        1   -1    0    0  501    0  0.00000000000E+00  0.00000000000E+00 -0.13272193712E+04  0.13272193712E+04  0.50400001928E-02 0.  1.
    10030    2    1    2    0    0  0.00000000000E+00  0.00000000000E+00 -0.40533630563E+03  0.22491024368E+04  0.22122758080E+04 0.  0.
        4    1    3    3  502    0 -0.78059860516E+03 -0.71230015835E+03 -0.53496345851E+03  0.11844379312E+04  0.12699999809E+01 0. -1.
       -4    1    3    3    0  502  0.78059860516E+03  0.71230015835E+03  0.12962715288E+03  0.10646645057E+04  0.12699999809E+01 0.  1.
</event>
<event>
 5   0  0.4188865E-05  0.2008548E+04  0.7818609E-02  0.8602634E-01
       -1   -1    0    0    0  501  0.00000000000E+00  0.00000000000E+00  0.45412352717E+03  0.45412352720E+03  0.50400001928E-02 0.  1.
        1   -1    0    0  501    0  0.00000000000E+00  0.00000000000E+00 -0.22209083046E+04  0.22209083046E+04  0.50400001928E-02 0. -1.
    10030    2    1    2    0    0  0.00000000000E+00  0.00000000000E+00 -0.17667847774E+04  0.26750318318E+04  0.20085484439E+04 0.  0.
        3    1    3    3  502    0  0.79111099287E+03  0.61772922080E+03 -0.83880693982E+03  0.13080684561E+04  0.10100000352E+00 0. -1.
       -3    1    3    3    0  502 -0.79111099287E+03 -0.61772922080E+03 -0.92797783756E+03  0.13669633757E+04  0.10100000352E+00 0.  1.
</event>
<event>
 5   0  0.9457742E-05  0.2209853E+04  0.7818609E-02  0.8514338E-01
       -2   -1    0    0    0  501  0.00000000000E+00  0.00000000000E+00  0.88617798664E+03  0.88617798664E+03  0.25500000920E-02 0.  1.
        2   -1    0    0  501    0  0.00000000000E+00  0.00000000000E+00 -0.13776722252E+04  0.13776722252E+04  0.25500000920E-02 0. -1.
    10030    2    1    2    0    0  0.00000000000E+00  0.00000000000E+00 -0.49149423853E+03  0.22638502118E+04  0.22098532067E+04 0.  0.
        1    1    3    3  502    0  0.71363252534E+03  0.84717277536E+02 -0.11055489693E+04  0.13185927809E+04  0.50400001928E-02 0. -1.
       -1    1    3    3    0  502 -0.71363252534E+03 -0.84717277536E+02  0.61405473074E+03  0.94525743092E+03  0.50400001928E-02 0.  1.
</event>
<event>
 5   0  0.9179618E-05  0.2185798E+04  0.7818609E-02  0.8524363E-01
        2   -1    0    0  501    0  0.00000000000E+00  0.00000000000E+00  0.14005888340E+04  0.14005888340E+04  0.25500000920E-02 0. -1.
       -2   -1    0    0    0  501  0.00000000000E+00  0.00000000000E+00 -0.85280414608E+03  0.85280414608E+03  0.25500000920E-02 0.  1.
    10030    2    1    2    0    0  0.00000000000E+00  0.00000000000E+00  0.54778468789E+03  0.22533929801E+04  0.21857977624E+04 0.  0.
        3    1    3    3  502    0 -0.44474986420E+03 -0.88825354807E+03 -0.19586460323E+03  0.10125017335E+04  0.10100000352E+00 0.  1.
       -3    1    3    3    0  502  0.44474986420E+03  0.88825354807E+03  0.74364929112E+03  0.12408912465E+04  0.10100000352E+00 0. -1.
</event>
<event>
 5   0  0.4188865E-05  0.2205241E+04  0.7818609E-02  0.8516250E-01
       -1   -1    0    0    0  501  0.00000000000E+00  0.00000000000E+00  0.81511987667E+03  0.81511987669E+03  0.50400001928E-02 0. -1.
        1   -1    0    0  501    0  0.00000000000E+00  0.00000000000E+00 -0.14915249282E+04  0.14915249283E+04  0.50400001928E-02 0.  1.
    10030    2    1    2    0    0  0.00000000000E+00  0.00000000000E+00 -0.67640505157E+03  0.23066448049E+04  0.22052406813E+04 0.  0.
        3    1    3    3  502    0 -0.29167105945E+03 -0.69241869167E+03  0.50591045994E+03  0.90579305317E+03  0.10100000352E+00 0. -1.
       -3    1    3    3    0  502  0.29167105945E+03  0.69241869167E+03 -0.11823155115E+04  0.14008517518E+04  0.10100000352E+00 0.  1.
</event>
<event>
 5   0  0.3283125E-05  0.2215005E+04  0.7818609E-02  0.8512209E-01
       -4   -1    0    0    0  501  0.00000000000E+00  0.00000000000E+00  0.15074490884E+04  0.15074496233E+04  0.12699999809E+01 0.  1.
        4   -1    0    0  501    0  0.00000000000E+00  0.00000000000E+00 -0.81366596627E+03  0.81366695740E+03  0.12699999809E+01 0. -1.
    10030    2    1    2    0    0  0.00000000000E+00  0.00000000000E+00  0.69378312209E+03  0.23211165807E+04  0.22150050025E+04 0.  0.
        5    1    3    3  502    0  0.33153396525E+03 -0.55648506091E+03 -0.59444595861E+03  0.87919194766E+03  0.46999998093E+01 0. -1.
       -5    1    3    3    0  502 -0.33153396525E+03  0.55648506091E+03  0.12882290807E+04  0.14419246331E+04  0.46999998093E+01 0.  1.
</event>
<event>
 5   0  0.4133418E-05  0.2193296E+04  0.7818609E-02  0.8521224E-01
       -1   -1    0    0    0  501  0.00000000000E+00  0.00000000000E+00  0.96000702626E+03  0.96000702627E+03  0.50400001928E-02 0.  1.
        1   -1    0    0  501    0  0.00000000000E+00  0.00000000000E+00 -0.12527370011E+04  0.12527370011E+04  0.50400001928E-02 0. -1.
    10030    2    1    2    0    0  0.00000000000E+00  0.00000000000E+00 -0.29272997488E+03  0.22127440274E+04  0.21932955325E+04 0.  0.
        4    1    3    3  502    0  0.18046681856E+03  0.21635737546E+03 -0.12156005183E+04  0.12478241140E+04  0.12699999809E+01 0. -1.
       -4    1    3    3    0  502 -0.18046681856E+03 -0.21635737546E+03  0.92287054341E+03  0.96491991342E+03  0.12699999809E+01 0.  1.
</event>
<event>
 5   0  0.4174030E-05  0.2245197E+04  0.7818609E-02  0.8499848E-01
        1   -1    0    0  501    0  0.00000000000E+00  0.00000000000E+00  0.15760382713E+04  0.15760382713E+04  0.50400001928E-02 0. -1.
       -1   -1    0    0    0  501  0.00000000000E+00  0.00000000000E+00 -0.79961750432E+03  0.79961750434E+03  0.50400001928E-02 0.  1.
    10030    2    1    2    0    0  0.00000000000E+00  0.00000000000E+00  0.77642076696E+03  0.23756557756E+04  0.22451973537E+04 0.  0.
        2    1    3    3  502    0  0.10061903067E+04  0.22906941481E+03 -0.79438823577E+02  0.10349890129E+04  0.25500000920E-02 0.  1.
       -2    1    3    3    0  502 -0.10061903067E+04 -0.22906941481E+03  0.85585959053E+03  0.13406667628E+04  0.25500000920E-02 0. -1.
</event>
<event>
 5   0  0.4063293E-05  0.2298776E+04  0.7818609E-02  0.8478404E-01
       -1   -1    0    0    0  501  0.00000000000E+00  0.00000000000E+00  0.71194007751E+03  0.71194007753E+03  0.50400001928E-02 0.  1.
        1   -1    0    0  501    0  0.00000000000E+00  0.00000000000E+00 -0.18556241788E+04  0.18556241788E+04  0.50400001928E-02 0. -1.
    10030    2    1    2    0    0  0.00000000000E+00  0.00000000000E+00 -0.11436841013E+04  0.25675642563E+04  0.22987763891E+04 0.  0.
        1    1    3    3  502    0 -0.45957681336E+03 -0.79700687199E+03  0.19767282207E+03  0.94101293614E+03  0.50400001928E-02 0.  1.
       -1    1    3    3    0  502  0.45957681336E+03  0.79700687199E+03 -0.13413569234E+04  0.16265513202E+04  0.50400001928E-02 0. -1.
</event>
<event>
 5   0  0.4174075E-05  0.2244936E+04  0.7818609E-02  0.8499954E-01
       -1   -1    0    0    0  501  0.00000000000E+00  0.00000000000E+00  0.13325548020E+04  0.13325548020E+04  0.50400001928E-02 0. -1.
        1   -1    0    0  501    0  0.00000000000E+00  0.00000000000E+00 -0.94550316723E+03  0.94550316724E+03  0.50400001928E-02 0.  1.
    10030    2    1    2    0    0  0.00000000000E+00  0.00000000000E+00  0.38705163478E+03  0.22780579693E+04  0.22449363339E+04 0.  0.
        5    1    3    3  502    0 -0.31169196156E+03  0.91649443139E+03 -0.38301051456E+03  0.10410730358E+04  0.46999998093E+01 0.  1.
       -5    1    3    3    0  502  0.31169196156E+03 -0.91649443139E+03  0.77006214935E+03  0.12369849334E+04  0.46999998093E+01 0. -1.
</event>
<event>
 5   0  0.9938176E-05  0.2197249E+04  0.7818609E-02  0.8519574E-01
       -2   -1    0    0    0  501  0.00000000000E+00  0.00000000000E+00  0.11005279779E+04  0.11005279779E+04  0.25500000920E-02 0. -1.
        2   -1    0    0  501    0  0.00000000000E+00  0.00000000000E+00 -0.10967241649E+04  0.10967241649E+04  0.25500000920E-02 0.  1.
    10030    2    1    2    0    0  0.00000000000E+00  0.00000000000E+00  0.38038129871E+01  0.21972521428E+04  0.21972488503E+04 0.  0.
        5    1    3    3  502    0 -0.39495790303E+03  0.81944895213E+03  0.61791030293E+03  0.10996924856E+04  0.46999998093E+01 0. -1.
       -5    1    3    3    0  502  0.39495790303E+03 -0.81944895213E+03 -0.61410648994E+03  0.10975596573E+04  0.46999998093E+01 0.  1.
</event>
<event>
 5   0  0.9442578E-05  0.2132234E+04  0.7818609E-02  0.8547176E-01
        2   -1    0    0  501    0  0.00000000000E+00  0.00000000000E+00  0.16508166923E+04  0.16508166924E+04  0.25500000920E-02 0. -1.
       -2   -1    0    0    0  501  0.00000000000E+00  0.00000000000E+00 -0.68851092578E+03  0.68851092578E+03  0.25500000920E-02 0.  1.
    10030    2    1    2    0    0  0.00000000000E+00  0.00000000000E+00  0.96230576657E+03  0.23393276181E+04  0.21322338794E+04 0.  0.
        4    1    3    3  502    0 -0.60211188293E+03  0.87727263351E+03  0.55440374807E+03  0.11997962835E+04  0.12699999809E+01 0. -1.
       -4    1    3    3    0  502  0.60211188293E+03 -0.87727263351E+03  0.40790201850E+03  0.11395313347E+04  0.12699999809E+01 0.  1.
</event>
<event>
 5   0  0.4174075E-05  0.2200536E+04  0.7818609E-02  0.8518205E-01
        1   -1    0    0  501    0  0.00000000000E+00  0.00000000000E+00  0.10022320942E+04  0.10022320942E+04  0.50400001928E-02 0.  1.
       -1   -1    0    0    0  501  0.00000000000E+00  0.00000000000E+00 -0.12078936359E+04  0.12078936360E+04  0.50400001928E-02 0. -1.
    10030    2    1    2    0    0  0.00000000000E+00  0.00000000000E+00 -0.20566154177E+03  0.22101257301E+04  0.22005360877E+04 0.  0.
        5    1    3    3  502    0 -0.19307941054E+03  0.10371136011E+04 -0.41673622732E+03  0.11342730947E+04  0.46999998093E+01 0. -1.
       -5    1    3    3    0  502  0.19307941054E+03 -0.10371136011E+04  0.21107468556E+03  0.10758526354E+04  0.46999998093E+01 0.  1.
</event>
<event>
 5   0  0.3283125E-05  0.2250425E+04  0.7818609E-02  0.8497728E-01
       -3   -1    0    0    0  501  0.00000000000E+00  0.00000000000E+00  0.11373009692E+04  0.11373009737E+04  0.10100000352E+00 0.  1.
        3   -1    0    0  501    0  0.00000000000E+00  0.00000000000E+00 -0.11132524223E+04  0.11132524269E+04  0.10100000352E+00 0. -1.
    10030    2    1    2    0    0  0.00000000000E+00  0.00000000000E+00  0.24048546916E+02  0.22505534006E+04  0.22504249102E+04 0.  0.
        2    1    3    3  502    0 -0.56681489407E+03 -0.58751047799E+03 -0.76239412835E+03  0.11170015635E+04  0.25500000920E-02 0. -1.
       -2    1    3    3    0  502  0.56681489407E+03  0.58751047799E+03  0.78644267527E+03  0.11335518371E+04  0.25500000920E-02 0.  1.
</event>
<event>
 5   0  0.9457742E-05  0.2164228E+04  0.7818609E-02  0.8533467E-01
       -2   -1    0    0    0  501  0.00000000000E+00  0.00000000000E+00  0.63529741049E+03  0.63529741050E+03  0.25500000920E-02 0.  1.
        2   -1    0    0  501    0  0.00000000000E+00  0.00000000000E+00 -0.18431844195E+04  0.18431844195E+04  0.25500000920E-02 0. -1.
    10030    2    1    2    0    0  0.00000000000E+00  0.00000000000E+00 -0.12078870090E+04  0.24784818300E+04  0.21642276117E+04 0.  0.
        1    1    3    3  502    0  0.87617101357E+03  0.61947547418E+03 -0.44384097038E+03  0.11612150168E+04  0.50400001928E-02 0. -1.
       -1    1    3    3    0  502 -0.87617101357E+03 -0.61947547418E+03 -0.76404603866E+03  0.13172668133E+04  0.50400001928E-02 0.  1.
</event>
<event>
 5   0  0.9442578E-05  0.2196435E+04  0.7818609E-02  0.8519914E-01
        2   -1    0    0  501    0  0.00000000000E+00  0.00000000000E+00  0.17779629626E+04  0.17779629626E+04  0.25500000920E-02 0. -1.
       -2   -1    0    0    0  501  0.00000000000E+00  0.00000000000E+00 -0.67835010573E+03  0.67835010573E+03  0.25500000920E-02 0.  1.
    10030    2    1    2    0    0  0.00000000000E+00  0.00000000000E+00  0.10996128569E+04  0.24563130683E+04  0.21964347144E+04 0.  0.
        4    1    3    3  502    0 -0.71833850059E+03  0.77465152201E+03  0.88527314629E+03  0.13783342622E+04  0.12699999809E+01 0. -1.
       -4    1    3    3    0  502  0.71833850059E+03 -0.77465152201E+03  0.21433971058E+03  0.10779788061E+04  0.12699999809E+01 0.  1.
</event>
<event>
 5   0  0.9442578E-05  0.2193101E+04  0.7818609E-02  0.8521305E-01
        2   -1    0    0  501    0  0.00000000000E+00  0.00000000000E+00  0.18583857702E+04  0.18583857702E+04  0.25500000920E-02 0.  1.
       -2   -1    0    0    0  501  0.00000000000E+00  0.00000000000E+00 -0.64702542620E+03  0.64702542621E+03  0.25500000920E-02 0. -1.
    10030    2    1    2    0    0  0.00000000000E+00  0.00000000000E+00  0.12113603440E+04  0.25054111964E+04  0.21931008596E+04 0.  0.
        4    1    3    3  502    0 -0.77674886092E+03 -0.29804026020E+03  0.14217246044E+04  0.16472611370E+04  0.12699999809E+01 0.  1.
       -4    1    3    3    0  502  0.77674886092E+03  0.29804026020E+03 -0.21036426039E+03  0.85815005948E+03  0.12699999809E+01 0. -1.
</event>
<event>
 5   0  0.4063293E-05  0.2204929E+04  0.7818609E-02  0.8516380E-01
       -1   -1    0    0    0  501  0.00000000000E+00  0.00000000000E+00  0.10783684616E+04  0.10783684616E+04  0.50400001928E-02 0. -1.
        1   -1    0    0  501    0  0.00000000000E+00  0.00000000000E+00 -0.11270985678E+04  0.11270985678E+04  0.50400001928E-02 0.  1.
    10030    2    1    2    0    0  0.00000000000E+00  0.00000000000E+00 -0.48730106244E+02  0.22054670294E+04  0.22049286144E+04 0.  0.
        1    1    3    3  502    0 -0.10784339097E+04  0.20662662387E+03 -0.12294514003E+03  0.11049116557E+04  0.50400001928E-02 0. -1.
       -1    1    3    3    0  502  0.10784339097E+04 -0.20662662387E+03  0.74215033785E+02  0.11005553737E+04  0.50400001928E-02 0.  1.
</event>
<event>
 5   0  0.4188865E-05  0.2212284E+04  0.7818609E-02  0.8513333E-01
       -1   -1    0    0    0  501  0.00000000000E+00  0.00000000000E+00  0.13506782994E+04  0.13506782994E+04  0.50400001928E-02 0.  1.
        1   -1    0    0  501    0  0.00000000000E+00  0.00000000000E+00 -0.90587825108E+03  0.90587825110E+03  0.50400001928E-02 0. -1.
    10030    2    1    2    0    0  0.00000000000E+00  0.00000000000E+00  0.44480004835E+03  0.22565565505E+04  0.22122839743E+04 0.  0.
        3    1    3    3  502    0 -0.10424008229E+04  0.20373389698E+03 -0.92721187486E+02  0.10661633107E+04  0.10100000352E+00 0.  1.
       -3    1    3    3    0  502  0.10424008229E+04 -0.20373389698E+03  0.53752123583E+03  0.11903932398E+04  0.10100000352E+00 0. -1.
</event>
<event>
 5   0  0.4188865E-05  0.2232569E+04  0.7818609E-02  0.8504993E-01
       -1   -1    0    0    0  501  0.00000000000E+00  0.00000000000E+00  0.98559600739E+03  0.98559600740E+03  0.50400001928E-02 0. -1.
        1   -1    0    0  501    0  0.00000000000E+00  0.00000000000E+00 -0.12643024877E+04  0.12643024877E+04  0.50400001928E-02 0.  1.
    10030    2    1    2    0    0  0.00000000000E+00  0.00000000000E+00 -0.27870648034E+03  0.22498984951E+04  0.22325693575E+04 0.  0.
        3    1    3    3  502    0 -0.10234275416E+04  0.43683810625E+03 -0.22869808708E+03  0.11360168526E+04  0.10100000352E+00 0.  1.
       -3    1    3    3    0  502  0.10234275416E+04 -0.43683810625E+03 -0.50008393256E+02  0.11138816426E+04  0.10100000352E+00 0. -1.
</event>
<event>
 5   0  0.9442578E-05  0.2273262E+04  0.7818609E-02  0.8488539E-01
        2   -1    0    0  501    0  0.00000000000E+00  0.00000000000E+00  0.20910750085E+04  0.20910750085E+04  0.25500000920E-02 0. -1.
       -2   -1    0    0    0  501  0.00000000000E+00  0.00000000000E+00 -0.61783069564E+03  0.61783069564E+03  0.25500000920E-02 0.  1.
    10030    2    1    2    0    0  0.00000000000E+00  0.00000000000E+00  0.14732443129E+04  0.27089057041E+04  0.22732622613E+04 0.  0.
        4    1    3    3  502    0  0.45986819889E+02  0.33033240552E+03 -0.55820888520E+03  0.65025614811E+03  0.12699999809E+01 0.  1.
       -4    1    3    3    0  502 -0.45986819889E+02 -0.33033240552E+03  0.20314531981E+04  0.20586495560E+04  0.12699999809E+01 0. -1.
</event>
<event>
 5   0  0.4133418E-05  0.2199034E+04  0.7818609E-02  0.8518830E-01
       -1   -1    0    0    0  501  0.00000000000E+00  0.00000000000E+00  0.50263659169E+03  0.50263659172E+03  0.50400001928E-02 0. -1.
        1   -1    0    0  501    0  0.00000000000E+00  0.00000000000E+00 -0.24051918092E+04  0.24051918092E+04  0.50400001928E-02 0.  1.
    10030    2    1    2    0    0  0.00000000000E+00  0.00000000000E+00 -0.19025552175E+04  0.29078284009E+04  0.21990338000E+04 0.  0.
        4    1    3    3  502    0  0.13568225167E+03  0.21757809763E+03 -0.23651014428E+04  0.23789611913E+04  0.12699999809E+01 0.  1.
       -4    1    3    3    0  502 -0.13568225167E+03 -0.21757809763E+03  0.46254622530E+03  0.52886720963E+03  0.12699999809E+01 0. -1.
</event>
<event>
 5   0  0.9457742E-05  0.2232002E+04  0.7818609E-02  0.8505225E-01
        2   -1    0    0  501    0  0.00000000000E+00  0.00000000000E+00  0.92220266939E+03  0.92220266940E+03  0.25500000920E-02 0. -1.
       -2   -1    0    0    0  501  0.00000000000E+00  0.00000000000E+00 -0.13505255745E+04  0.13505255745E+04  0.25500000920E-02 0.  1.
    10030    2    1    2    0    0  0.00000000000E+00  0.00000000000E+00 -0.42832290511E+03  0.22727282439E+04  0.22320020519E+04 0.  0.
        1    1    3    3  502    0  0.10704098200E+04  0.53006197406E+02 -0.53108230863E+03  0.11960916596E+04  0.50400001928E-02 0.  1.
       -1    1    3    3    0  502 -0.10704098200E+04 -0.53006197406E+02  0.10275940352E+03  0.10766365843E+04  0.50400001928E-02 0. -1.
</event>
<event>
 5   0  0.4174075E-05  0.2221655E+04  0.7818609E-02  0.8509469E-01
       -1   -1    0    0    0  501  0.00000000000E+00  0.00000000000E+00  0.14460605312E+04  0.14460605312E+04  0.50400001928E-02 0.  1.
        1   -1    0    0  501    0  0.00000000000E+00  0.00000000000E+00 -0.85330962182E+03  0.85330962183E+03  0.50400001928E-02 0. -1.
    10030    2    1    2    0    0  0.00000000000E+00  0.00000000000E+00  0.59275090939E+03  0.22993701530E+04  0.22216546672E+04 0.  0.
        5    1    3    3  502    0 -0.22910315047E+03 -0.56418237156E+03 -0.66516874634E+03  0.90181015355E+03  0.46999998093E+01 0. -1.
       -5    1    3    3    0  502  0.22910315047E+03  0.56418237156E+03  0.12579196557E+04  0.13975599995E+04  0.46999998093E+01 0.  1.
</event>
<event>
 5   0  0.9179618E-05  0.2245985E+04  0.7818609E-02  0.8499528E-01
        2   -1    0    0  501    0  0.00000000000E+00  0.00000000000E+00  0.16038826564E+04  0.16038826564E+04  0.25500000920E-02 0.  1.
       -2   -1    0    0    0  501  0.00000000000E+00  0.00000000000E+00 -0.78628714319E+03  0.78628714319E+03  0.25500000920E-02 0. -1.
    10030    2    1    2    0    0  0.00000000000E+00  0.00000000000E+00  0.81759551319E+03  0.23901697996E+04  0.22459851397E+04 0.  0.
        3    1    3    3  502    0  0.52408853926E+03 -0.48544006161E+03 -0.51330970372E+03  0.87966340866E+03  0.10100000352E+00 0. -1.
       -3    1    3    3    0  502 -0.52408853926E+03  0.48544006161E+03  0.13309052169E+04  0.15105063909E+04  0.10100000352E+00 0.  1.
</event>
<event>
 5   0  0.9457742E-05  0.2205283E+04  0.7818609E-02  0.8516232E-01
       -2   -1    0    0    0  501  0.00000000000E+00  0.00000000000E+00  0.73658057450E+03  0.73658057451E+03  0.25500000920E-02 0.  1.
        2   -1    0    0  501    0  0.00000000000E+00  0.00000000000E+00 -0.16506252037E+04  0.16506252037E+04  0.25500000920E-02 0. -1.
    10030    2    1    2    0    0  0.00000000000E+00  0.00000000000E+00 -0.91404462921E+03  0.23872057782E+04  0.22052831663E+04 0.  0.
        1    1    3    3  502    0  0.77232506029E+02 -0.42944534905E+03  0.63914933633E+03  0.77388632367E+03  0.50400001928E-02 0.  1.
       -1    1    3    3    0  502 -0.77232506029E+02  0.42944534905E+03 -0.15531939655E+04  0.16133194546E+04  0.50400001928E-02 0. -1.
</event>
<event>
 5   0  0.4174075E-05  0.2145161E+04  0.7818609E-02  0.8541606E-01
        1   -1    0    0  501    0  0.00000000000E+00  0.00000000000E+00  0.15336657534E+04  0.15336657534E+04  0.50400001928E-02 0. -1.
       -1   -1    0    0    0  501  0.00000000000E+00  0.00000000000E+00 -0.75011707824E+03  0.75011707825E+03  0.50400001928E-02 0.  1.
    10030    2    1    2    0    0  0.00000000000E+00  0.00000000000E+00  0.78354867515E+03  0.22837828317E+04  0.21451609487E+04 0.  0.
        5    1    3    3  502    0  0.70533716524E+03 -0.67497129631E+03 -0.81137835294E+02  0.97963881397E+03  0.46999998093E+01 0. -1.
       -5    1    3    3    0  502 -0.70533716524E+03  0.67497129631E+03  0.86468651045E+03  0.13041440177E+04  0.46999998093E+01 0.  1.
</event>
<event>
 5   0  0.4174030E-05  0.2218189E+04  0.7818609E-02  0.8510896E-01
       -1   -1    0    0    0  501  0.00000000000E+00  0.00000000000E+00  0.13559691818E+04  0.13559691818E+04  0.50400001928E-02 0.  1.
        1   -1    0    0  501    0  0.00000000000E+00  0.00000000000E+00 -0.90716668612E+03  0.90716668613E+03  0.50400001928E-02 0. -1.
    10030    2    1    2    0    0  0.00000000000E+00  0.00000000000E+00  0.44880249568E+03  0.22631358679E+04  0.22181885124E+04 0.  0.
        2    1    3    3  502    0 -0.72575160721E+03 -0.80446565073E+03 -0.17488673438E+02  0.10835987414E+04  0.25500000920E-02 0. -1.
       -2    1    3    3    0  502  0.72575160721E+03  0.80446565073E+03  0.46629116912E+03  0.11795371266E+04  0.25500000920E-02 0.  1.
</event>
<event>
 5   0  0.9254673E-05  0.2221018E+04  0.7818609E-02  0.8509730E-01
        2   -1    0    0  501    0  0.00000000000E+00  0.00000000000E+00  0.11290928375E+04  0.11290928375E+04  0.25500000920E-02 0.  1.
       -2   -1    0    0    0  501  0.00000000000E+00  0.00000000000E+00 -0.10922315175E+04  0.10922315175E+04  0.25500000920E-02 0. -1.
    10030    2    1    2    0    0  0.00000000000E+00  0.00000000000E+00  0.36861319971E+02  0.22213243550E+04  0.22210184901E+04 0.  0.
        2    1    3    3  502    0  0.15212189102E+03 -0.26349283727E+03  0.10865951743E+04  0.11283876186E+04  0.25500000920E-02 0.  1.
       -2    1    3    3    0  502 -0.15212189102E+03  0.26349283727E+03 -0.10497338543E+04  0.10929367365E+04  0.25500000920E-02 0. -1.
</event>
<event>
 5   0  0.9254673E-05  0.2218329E+04  0.7818609E-02  0.8510838E-01
       -2   -1    0    0    0  501  0.00000000000E+00  0.00000000000E+00  0.87120522247E+03  0.87120522247E+03  0.25500000920E-02 0. -1.
        2   -1    0    0  501    0  0.00000000000E+00  0.00000000000E+00 -0.14121192252E+04  0.14121192252E+04  0.25500000920E-02 0.  1.
    10030    2    1    2    0    0  0.00000000000E+00  0.00000000000E+00 -0.54091400269E+03  0.22833244476E+04  0.22183287797E+04 0.  0.
        2    1    3    3  502    0  0.58631353605E+03  0.55311579113E+03 -0.10547162674E+04  0.13274513346E+04  0.25500000920E-02 0.  1.
       -2    1    3    3    0  502 -0.58631353605E+03 -0.55311579113E+03  0.51380226474E+03  0.95587311303E+03  0.25500000920E-02 0. -1.
</event>
<event>
 5   0  0.4188865E-05  0.2119278E+04  0.7818609E-02  0.8552798E-01
       -1   -1    0    0    0  501  0.00000000000E+00  0.00000000000E+00  0.25859664570E+04  0.25859664570E+04  0.50400001928E-02 0. -1.
        1   -1    0    0  501    0  0.00000000000E+00  0.00000000000E+00 -0.43420331233E+03  0.43420331236E+03  0.50400001928E-02 0.  1.
    10030    2    1    2    0    0  0.00000000000E+00  0.00000000000E+00  0.21517631446E+04  0.30201697693E+04  0.21192783689E+04 0.  0.
        3    1    3    3  502    0  0.21984595304E+03  0.82688991805E+03  0.19667143427E+04  0.21447714320E+04  0.10100000352E+00 0. -1.
       -3    1    3    3    0  502 -0.21984595304E+03 -0.82688991805E+03  0.18504880192E+03  0.87539833729E+03  0.10100000352E+00 0.  1.
</event>
<event>
 5   0  0.4174030E-05  0.2361611E+04  0.7818609E-02  0.8454017E-01
        1   -1    0    0  501    0  0.00000000000E+00  0.00000000000E+00  0.15598724053E+04  0.15598724053E+04  0.50400001928E-02 0.  1.
       -1   -1    0    0    0  501  0.00000000000E+00  0.00000000000E+00 -0.89385645547E+03  0.89385645549E+03  0.50400001928E-02 0. -1.
    10030    2    1    2    0    0  0.00000000000E+00  0.00000000000E+00  0.66601594981E+03  0.24537288608E+04  0.23616113306E+04 0.  0.
        2    1    3    3  502    0  0.94390596318E+03  0.69672523822E+03  0.19393050389E+03  0.11891146140E+04  0.25500000920E-02 0.  1.
       -2    1    3    3    0  502 -0.94390596318E+03 -0.69672523822E+03  0.47208544593E+03  0.12646142468E+04  0.25500000920E-02 0. -1.
</event>
<event>
 5   0  0.9457742E-05  0.2216325E+04  0.7818609E-02  0.8511664E-01
        2   -1    0    0  501    0  0.00000000000E+00  0.00000000000E+00  0.12175836235E+04  0.12175836235E+04  0.25500000920E-02 0.  1.
       -2   -1    0    0    0  501  0.00000000000E+00  0.00000000000E+00 -0.10085743606E+04  0.10085743606E+04  0.25500000920E-02 0. -1.
    10030    2    1    2    0    0  0.00000000000E+00  0.00000000000E+00  0.20900926289E+03  0.22261579841E+04  0.22163245471E+04 0.  0.
        1    1    3    3  502    0 -0.15645508938E+03 -0.38215585680E+03  0.11374165574E+04  0.12100569073E+04  0.50400001928E-02 0.  1.
       -1    1    3    3    0  502  0.15645508938E+03  0.38215585680E+03 -0.92840729447E+03  0.10161010768E+04  0.50400001928E-02 0. -1.
</event>
<event>
 5   0  0.4133418E-05  0.2194021E+04  0.7818609E-02  0.8520921E-01
        1   -1    0    0  501    0  0.00000000000E+00  0.00000000000E+00  0.19245423010E+04  0.19245423010E+04  0.50400001928E-02 0. -1.
       -1   -1    0    0    0  501  0.00000000000E+00  0.00000000000E+00 -0.62530804749E+03  0.62530804751E+03  0.50400001928E-02 0.  1.
    10030    2    1    2    0    0  0.00000000000E+00  0.00000000000E+00  0.12992342535E+04  0.25498503485E+04  0.21940207735E+04 0.  0.
        4    1    3    3  502    0 -0.73704585205E+03  0.42242479940E+03 -0.15703301379E+03  0.86390987927E+03  0.12699999809E+01 0. -1.
       -4    1    3    3    0  502  0.73704585205E+03 -0.42242479940E+03  0.14562672673E+04  0.16859404692E+04  0.12699999809E+01 0.  1.
</event>
<event>
 5   0  0.9457742E-05  0.1688700E+04  0.7818609E-02  0.8767835E-01
       -2   -1    0    0    0  501  0.00000000000E+00  0.00000000000E+00  0.49604260473E+03  0.49604260473E+03  0.25500000920E-02 0.  1.
        2   -1    0    0  501    0  0.00000000000E+00  0.00000000000E+00 -0.14372294605E+04  0.14372294605E+04  0.25500000920E-02 0. -1.
    10030    2    1    2    0    0  0.00000000000E+00  0.00000000000E+00 -0.94118685581E+03  0.19332720653E+04  0.16887001453E+04 0.  0.
        1    1    3    3  502    0  0.66326228568E+03 -0.45425522007E+03 -0.76617737512E+03  0.11105370029E+04  0.50400001928E-02 0. -1.
       -1    1    3    3    0  502 -0.66326228568E+03  0.45425522007E+03 -0.17500948069E+03  0.82273506241E+03  0.50400001928E-02 0.  1.
</event>
<event>
 5   0  0.4063293E-05  0.2202142E+04  0.7818609E-02  0.8517537E-01
        1   -1    0    0  501    0  0.00000000000E+00  0.00000000000E+00  0.12267010972E+04  0.12267010972E+04  0.50400001928E-02 0. -1.
       -1   -1    0    0    0  501  0.00000000000E+00  0.00000000000E+00 -0.98830672161E+03  0.98830672162E+03  0.50400001928E-02 0.  1.
    10030    2    1    2    0    0  0.00000000000E+00  0.00000000000E+00  0.23839437554E+03  0.22150078188E+04  0.22021416301E+04 0.  0.
        1    1    3    3  502    0  0.47097412524E+03 -0.19504305908E+03  0.11008596196E+04  0.12131571719E+04  0.50400001928E-02 0. -1.
       -1    1    3    3    0  502 -0.47097412524E+03  0.19504305908E+03 -0.86246524405E+03  0.10018506469E+04  0.50400001928E-02 0.  1.
</event>
<event>
 5   0  0.9442578E-05  0.2233597E+04  0.7818609E-02  0.8504573E-01
       -2   -1    0    0    0  501  0.00000000000E+00  0.00000000000E+00  0.91221125679E+03  0.91221125680E+03  0.25500000920E-02 0.  1.
        2   -1    0    0  501    0  0.00000000000E+00  0.00000000000E+00 -0.13672701230E+04  0.13672701230E+04  0.25500000920E-02 0. -1.
    10030    2    1    2    0    0  0.00000000000E+00  0.00000000000E+00 -0.45505886617E+03  0.22794813798E+04  0.22335972755E+04 0.  0.
        4    1    3    3  502    0  0.40161720868E+03  0.23461091060E+03  0.80866014686E+03  0.93288343736E+03  0.12699999809E+01 0.  1.
       -4    1    3    3    0  502 -0.40161720868E+03 -0.23461091060E+03 -0.12637190130E+04  0.13465979424E+04  0.12699999809E+01 0. -1.
</event>
<event>
 5   0  0.3283125E-05  0.2262671E+04  0.7818609E-02  0.8492787E-01
       -3   -1    0    0    0  501  0.00000000000E+00  0.00000000000E+00  0.14624335639E+04  0.14624335674E+04  0.10100000352E+00 0.  1.
        3   -1    0    0  501    0  0.00000000000E+00  0.00000000000E+00 -0.87519857347E+03  0.87519857930E+03  0.10100000352E+00 0. -1.
    10030    2    1    2    0    0  0.00000000000E+00  0.00000000000E+00  0.58723499042E+03  0.23376321467E+04  0.22626707934E+04 0.  0.
        2    1    3    3  502    0  0.18697444588E+03  0.94431111889E+03  0.90764496386E+03  0.13230654984E+04  0.25500000920E-02 0.  1.
       -2    1    3    3    0  502 -0.18697444588E+03 -0.94431111889E+03 -0.32040997344E+03  0.10145666483E+04  0.25500000920E-02 0. -1.
</event>
<event>
 5   0  0.9179618E-05  0.1958667E+04  0.7818609E-02  0.8626193E-01
        2   -1    0    0  501    0  0.00000000000E+00  0.00000000000E+00  0.15719783094E+04  0.15719783094E+04  0.25500000920E-02 0. -1.
       -2   -1    0    0    0  501  0.00000000000E+00  0.00000000000E+00 -0.61011932743E+03  0.61011932743E+03  0.25500000920E-02 0.  1.
    10030    2    1    2    0    0  0.00000000000E+00  0.00000000000E+00  0.96185898196E+03  0.21820976368E+04  0.19586672498E+04 0.  0.
        3    1    3    3  502    0 -0.17545713557E+03  0.12984313039E+03  0.15445333799E+04  0.15598807059E+04  0.10100000352E+00 0. -1.
       -3    1    3    3    0  502  0.17545713557E+03 -0.12984313039E+03 -0.58267439791E+03  0.62221693091E+03  0.10100000352E+00 0.  1.
</event>
<event>
 5   0  0.9254673E-05  0.2215336E+04  0.7818609E-02  0.8512072E-01
        2   -1    0    0  501    0  0.00000000000E+00  0.00000000000E+00  0.33709634524E+04  0.33709634524E+04  0.25500000920E-02 0. -1.
       -2   -1    0    0    0  501  0.00000000000E+00  0.00000000000E+00 -0.36396980719E+03  0.36396980720E+03  0.25500000920E-02 0.  1.
    10030    2    1    2    0    0  0.00000000000E+00  0.00000000000E+00  0.30069936452E+04  0.37349332596E+04  0.22153364691E+04 0.  0.
        2    1    3    3  502    0  0.67446221892E+02 -0.38668340127E+03 -0.24278301640E+03  0.46153725605E+03  0.25500000920E-02 0.  1.
       -2    1    3    3    0  502 -0.67446221892E+02  0.38668340127E+03  0.32497766616E+04  0.32733960035E+04  0.25500000920E-02 0. -1.
</event>
<event>
 5   0  0.9457742E-05  0.2170396E+04  0.7818609E-02  0.8530852E-01
       -2   -1    0    0    0  501  0.00000000000E+00  0.00000000000E+00  0.83327465298E+03  0.83327465299E+03  0.25500000920E-02 0. -1.
        2   -1    0    0  501    0  0.00000000000E+00  0.00000000000E+00 -0.14132853232E+04  0.14132853232E+04  0.25500000920E-02 0.  1.
    10030    2    1    2    0    0  0.00000000000E+00  0.00000000000E+00 -0.58001067025E+03  0.22465599762E+04  0.21703961272E+04 0.  0.
        1    1    3    3  502    0  0.51458783856E+03  0.20874070527E+03  0.67506559288E+03  0.87412063260E+03  0.50400001928E-02 0. -1.
       -1    1    3    3    0  502 -0.51458783856E+03 -0.20874070527E+03 -0.12550762631E+04  0.13724393436E+04  0.50400001928E-02 0.  1.
</event>
<event>
 5   0  0.4133418E-05  0.2399701E+04  0.7818609E-02  0.8439615E-01
       -1   -1    0    0    0  501  0.00000000000E+00  0.00000000000E+00  0.81829857885E+03  0.81829857886E+03  0.50400001928E-02 0. -1.
        1   -1    0    0  501    0  0.00000000000E+00  0.00000000000E+00 -0.17593106388E+04  0.17593106388E+04  0.50400001928E-02 0.  1.
    10030    2    1    2    0    0  0.00000000000E+00  0.00000000000E+00 -0.94101205995E+03  0.25776092177E+04  0.23997011443E+04 0.  0.
        4    1    3    3  502    0  0.96195734828E+03 -0.27448491643E+03  0.24113414156E+03  0.10290049545E+04  0.12699999809E+01 0. -1.
       -4    1    3    3    0  502 -0.96195734828E+03  0.27448491643E+03 -0.11821462015E+04  0.15486042632E+04  0.12699999809E+01 0.  1.
</event>
<event>
 5   0  0.9254673E-05  0.2323408E+04  0.7818609E-02  0.8468749E-01
       -2   -1    0    0    0  501  0.00000000000E+00  0.00000000000E+00  0.17438842506E+04  0.17438842506E+04  0.25500000920E-02 0.  1.
        2   -1    0    0  501    0  0.00000000000E+00  0.00000000000E+00 -0.77387935056E+03  0.77387935056E+03  0.25500000920E-02 0. -1.
    10030    2    1    2    0    0  0.00000000000E+00  0.00000000000E+00  0.97000490003E+03  0.25177636012E+04  0.23234078517E+04 0.  0.
        2    1    3    3  502    0  0.77210019598E+03 -0.79609823108E+03  0.11017049945E+03  0.11144723618E+04  0.25500000920E-02 0. -1.
       -2    1    3    3    0  502 -0.77210019598E+03  0.79609823108E+03  0.85983440057E+03  0.14032912394E+04  0.25500000920E-02 0.  1.
</event>
<event>
 5   0  0.4188865E-05  0.2264465E+04  0.7818609E-02  0.8492065E-01
       -1   -1    0    0    0  501  0.00000000000E+00  0.00000000000E+00  0.12554237722E+04  0.12554237722E+04  0.50400001928E-02 0. -1.
        1   -1    0    0  501    0  0.00000000000E+00  0.00000000000E+00 -0.10211298372E+04  0.10211298372E+04  0.50400001928E-02 0.  1.
    10030    2    1    2    0    0  0.00000000000E+00  0.00000000000E+00  0.23429393495E+03  0.22765536094E+04  0.22644652103E+04 0.  0.
        3    1    3    3  502    0  0.21235466249E+03  0.64186459010E+03  0.10302166699E+04  0.12322463438E+04  0.10100000352E+00 0. -1.
       -3    1    3    3    0  502 -0.21235466249E+03 -0.64186459010E+03 -0.79592273498E+03  0.10443072656E+04  0.10100000352E+00 0.  1.
</event>
<event>
 5   0  0.4133418E-05  0.2223137E+04  0.7818609E-02  0.8508859E-01
       -1   -1    0    0    0  501  0.00000000000E+00  0.00000000000E+00  0.96093502341E+03  0.96093502343E+03  0.50400001928E-02 0.  1.
        1   -1    0    0  501    0  0.00000000000E+00  0.00000000000E+00 -0.12858152652E+04  0.12858152652E+04  0.50400001928E-02 0. -1.
    10030    2    1    2    0    0  0.00000000000E+00  0.00000000000E+00 -0.32488024180E+03  0.22467502886E+04  0.22231373525E+04 0.  0.
        4    1    3    3  502    0 -0.72390049708E+02 -0.69398136503E+03  0.71204405636E+03  0.99692467389E+03  0.12699999809E+01 0.  1.
       -4    1    3    3    0  502  0.72390049708E+02  0.69398136503E+03 -0.10369242982E+04  0.12498256148E+04  0.12699999809E+01 0. -1.
</event>
<event>
 5   0  0.4174030E-05  0.2190445E+04  0.7818609E-02  0.8522416E-01
       -1   -1    0    0    0  501  0.00000000000E+00  0.00000000000E+00  0.17764136420E+04  0.17764136420E+04  0.50400001928E-02 0. -1.
        1   -1    0    0  501    0  0.00000000000E+00  0.00000000000E+00 -0.67524350738E+03  0.67524350740E+03  0.50400001928E-02 0.  1.
    10030    2    1    2    0    0  0.00000000000E+00  0.00000000000E+00  0.11011701346E+04  0.24516571494E+04  0.21904445012E+04 0.  0.
        2    1    3    3  502    0 -0.95889759548E+03  0.22161042492E+03  0.12743338110E+02  0.98425513548E+03  0.25500000920E-02 0.  1.
       -2    1    3    3    0  502  0.95889759548E+03 -0.22161042492E+03  0.10884267965E+04  0.14674020139E+04  0.25500000920E-02 0. -1.
</event>
<event>
 5   0  0.4174075E-05  0.2190099E+04  0.7818609E-02  0.8522561E-01
        1   -1    0    0  501    0  0.00000000000E+00  0.00000000000E+00  0.90645539757E+03  0.90645539758E+03  0.50400001928E-02 0. -1.
       -1   -1    0    0    0  501  0.00000000000E+00  0.00000000000E+00 -0.13228815207E+04  0.13228815207E+04  0.50400001928E-02 0.  1.
    10030    2    1    2    0    0  0.00000000000E+00  0.00000000000E+00 -0.41642612309E+03  0.22293369183E+04  0.21900987145E+04 0.  0.
        5    1    3    3  502    0  0.10267717375E+03  0.52852537249E+03 -0.11788319466E+04  0.12959739657E+04  0.46999998093E+01 0.  1.
       -5    1    3    3    0  502 -0.10267717375E+03 -0.52852537249E+03  0.76240582356E+03  0.93336295254E+03  0.46999998093E+01 0. -1.
</event>
<event>
 5   0  0.9179618E-05  0.2230262E+04  0.7818609E-02  0.8505937E-01
        2   -1    0    0  501    0  0.00000000000E+00  0.00000000000E+00  0.10088827348E+04  0.10088827348E+04  0.25500000920E-02 0. -1.
       -2   -1    0    0    0  501  0.00000000000E+00  0.00000000000E+00 -0.12325690005E+04  0.12325690005E+04  0.25500000920E-02 0.  1.
    10030    2    1    2    0    0  0.00000000000E+00  0.00000000000E+00 -0.22368626567E+03  0.22414517352E+04  0.22302623917E+04 0.  0.
        3    1    3    3  502    0 -0.22658236345E+01 -0.96805178859E+03 -0.66814360703E+03  0.11762420198E+04  0.10100000352E+00 0. -1.
       -3    1    3    3    0  502  0.22658236345E+01  0.96805178859E+03  0.44445734136E+03  0.10652097154E+04  0.10100000352E+00 0.  1.
</event>
<event>
 5   0  0.9442578E-05  0.2185362E+04  0.7818609E-02  0.8524546E-01
        2   -1    0    0  501    0  0.00000000000E+00  0.00000000000E+00  0.24118820357E+04  0.24118820357E+04  0.25500000920E-02 0. -1.
       -2   -1    0    0    0  501  0.00000000000E+00  0.00000000000E+00 -0.49502896952E+03  0.49502896953E+03  0.25500000920E-02 0.  1.
    10030    2    1    2    0    0  0.00000000000E+00  0.00000000000E+00  0.19168530662E+04  0.29069110052E+04  0.21853617355E+04 0.  0.
        4    1    3    3  502    0  0.12424127268E+03  0.64618076889E+03 -0.20192763713E+03  0.68830361284E+03  0.12699999809E+01 0.  1.
       -4    1    3    3    0  502 -0.12424127268E+03 -0.64618076889E+03  0.21187807033E+04  0.22186073924E+04  0.12699999809E+01 0. -1.
</event>
<event>
 5   0  0.9179618E-05  0.2196838E+04  0.7818609E-02  0.8519745E-01
       -2   -1    0    0    0  501  0.00000000000E+00  0.00000000000E+00  0.10529493206E+04  0.10529493206E+04  0.25500000920E-02 0.  1.
        2   -1    0    0  501    0  0.00000000000E+00  0.00000000000E+00 -0.11458522749E+04  0.11458522749E+04  0.25500000920E-02 0. -1.
    10030    2    1    2    0    0  0.00000000000E+00  0.00000000000E+00 -0.92902954318E+02  0.21988015956E+04  0.21968380682E+04 0.  0.
        3    1    3    3  502    0  0.80619000154E+03  0.92100719461E+01  0.70020269711E+03  0.10678534409E+04  0.10100000352E+00 0.  1.
       -3    1    3    3    0  502 -0.80619000154E+03 -0.92100719461E+01 -0.79310565143E+03  0.11309481547E+04  0.10100000352E+00 0. -1.
</event>
<event>
 5   0  0.4174030E-05  0.2389125E+04  0.7818609E-02  0.8443586E-01
        1   -1    0    0  501    0  0.00000000000E+00  0.00000000000E+00  0.13976309629E+04  0.13976309629E+04  0.50400001928E-02 0. -1.
       -1   -1    0    0    0  501  0.00000000000E+00  0.00000000000E+00 -0.10209984877E+04  0.10209984877E+04  0.50400001928E-02 0.  1.
    10030    2    1    2    0    0  0.00000000000E+00  0.00000000000E+00  0.37663247522E+03  0.24186294506E+04  0.23891246091E+04 0.  0.
        2    1    3    3  502    0 -0.62354316540E+03 -0.56814742507E+03  0.10445638918E+04  0.13426508481E+04  0.25500000920E-02 0. -1.
       -2    1    3    3    0  502  0.62354316540E+03  0.56814742507E+03 -0.66793141660E+03  0.10759786025E+04  0.25500000920E-02 0.  1.
</event>
<event>
 5   0  0.4174030E-05  0.2191499E+04  0.7818609E-02  0.8521975E-01
       -1   -1    0    0    0  501  0.00000000000E+00  0.00000000000E+00  0.14932166198E+04  0.14932166198E+04  0.50400001928E-02 0. -1.
        1   -1    0    0  501    0  0.00000000000E+00  0.00000000000E+00 -0.80408125736E+03  0.80408125738E+03  0.50400001928E-02 0.  1.
    10030    2    1    2    0    0  0.00000000000E+00  0.00000000000E+00  0.68913536242E+03  0.22972978772E+04  0.21914994841E+04 0.  0.
        2    1    3    3  502    0 -0.17320509335E+03  0.56451314157E+01  0.14787602744E+04  0.14888800560E+04  0.25500000920E-02 0. -1.
       -2    1    3    3    0  502  0.17320509335E+03 -0.56451314157E+01 -0.78962491203E+03  0.80841782116E+03  0.25500000920E-02 0.  1.
</event>
<event>
 5   0  0.3283125E-05  0.2219523E+04  0.7818609E-02  0.8510346E-01
        3   -1    0    0  501    0  0.00000000000E+00  0.00000000000E+00  0.11396700567E+04  0.11396700612E+04  0.10100000352E+00 0. -1.
       -3   -1    0    0    0  501  0.00000000000E+00  0.00000000000E+00 -0.10806374828E+04  0.10806374875E+04  0.10100000352E+00 0.  1.
    10030    2    1    2    0    0  0.00000000000E+00  0.00000000000E+00  0.59032573949E+02  0.22203075487E+04  0.22195226437E+04 0.  0.
        1    1    3    3  502    0 -0.10401264308E+04 -0.36320388988E+03  0.16294311560E+03  0.11137012690E+04  0.50400001928E-02 0. -1.
       -1    1    3    3    0  502  0.10401264308E+04  0.36320388988E+03 -0.10391054165E+03  0.11066062797E+04  0.50400001928E-02 0.  1.
</event>
<event>
 5   0  0.3283125E-05  0.2192842E+04  0.7818609E-02  0.8521413E-01
        3   -1    0    0  501    0  0.00000000000E+00  0.00000000000E+00  0.81247936216E+03  0.81247936844E+03  0.10100000352E+00 0.  1.
       -3   -1    0    0    0  501  0.00000000000E+00  0.00000000000E+00 -0.14795934011E+04  0.14795934045E+04  0.10100000352E+00 0. -1.
    10030    2    1    2    0    0  0.00000000000E+00  0.00000000000E+00 -0.66711403894E+03  0.22920727730E+04  0.21928420955E+04 0.  0.
        2    1    3    3  502    0 -0.77857421638E+03 -0.27947429461E+03 -0.10857431245E+04  0.13649622062E+04  0.25500000920E-02 0. -1.
       -2    1    3    3    0  502  0.77857421638E+03  0.27947429461E+03  0.41862908561E+03  0.92711056681E+03  0.25500000920E-02 0.  1.
</event>
<event>
 5   0  0.4133418E-05  0.2206437E+04  0.7818609E-02  0.8515754E-01
        1   -1    0    0  501    0  0.00000000000E+00  0.00000000000E+00  0.19555225728E+04  0.19555225728E+04  0.50400001928E-02 0. -1.
       -1   -1    0    0    0  501  0.00000000000E+00  0.00000000000E+00 -0.62238678133E+03  0.62238678135E+03  0.50400001928E-02 0.  1.
    10030    2    1    2    0    0  0.00000000000E+00  0.00000000000E+00  0.13331357914E+04  0.25779093541E+04  0.22064373092E+04 0.  0.
        4    1    3    3  502    0 -0.97220857176E+03 -0.21485967444E+03  0.11146169575E+03  0.10018879724E+04  0.12699999809E+01 0.  1.
       -4    1    3    3    0  502  0.97220857176E+03  0.21485967444E+03  0.12216740957E+04  0.15760213817E+04  0.12699999809E+01 0. -1.
</event>
<event>
 5   0  0.4063293E-05  0.2215073E+04  0.7818609E-02  0.8512180E-01
        1   -1    0    0  501    0  0.00000000000E+00  0.00000000000E+00  0.17215602146E+04  0.17215602146E+04  0.50400001928E-02 0.  1.
       -1   -1    0    0    0  501  0.00000000000E+00  0.00000000000E+00 -0.71251476684E+03  0.71251476685E+03  0.50400001928E-02 0. -1.
    10030    2    1    2    0    0  0.00000000000E+00  0.00000000000E+00  0.10090454478E+04  0.24340749815E+04  0.22150729784E+04 0.  0.
        1    1    3    3  502    0  0.10004802192E+04  0.30628146633E+03  0.90356208568E+03  0.13824592031E+04  0.50400001928E-02 0.  1.
       -1    1    3    3    0  502 -0.10004802192E+04 -0.30628146633E+03  0.10548336209E+03  0.10516157784E+04  0.50400001928E-02 0. -1.
</event>
<event>
 5   0  0.9442578E-05  0.2151059E+04  0.7818609E-02  0.8539079E-01
        2   -1    0    0  501    0  0.00000000000E+00  0.00000000000E+00  0.11787983716E+04  0.11787983716E+04  0.25500000920E-02 0.  1.
       -2   -1    0    0    0  501  0.00000000000E+00  0.00000000000E+00 -0.98130748490E+03  0.98130748490E+03  0.25500000920E-02 0. -1.
    10030    2    1    2    0    0  0.00000000000E+00  0.00000000000E+00  0.19749088670E+03  0.21601058565E+04  0.21510589627E+04 0.  0.
        4    1    3    3  502    0  0.71780837961E+03  0.37409198189E+03 -0.61244807616E+03  0.10150310043E+04  0.12699999809E+01 0. -1.
       -4    1    3    3    0  502 -0.71780837961E+03 -0.37409198189E+03  0.80993896285E+03  0.11450748522E+04  0.12699999809E+01 0.  1.
</event>
<event>
 5   0  0.9938176E-05  0.2190258E+04  0.7818609E-02  0.8522494E-01
       -2   -1    0    0    0  501  0.00000000000E+00  0.00000000000E+00  0.97567601427E+03  0.97567601427E+03  0.25500000920E-02 0. -1.
        2   -1    0    0  501    0  0.00000000000E+00  0.00000000000E+00 -0.12292069904E+04  0.12292069904E+04  0.25500000920E-02 0.  1.
    10030    2    1    2    0    0  0.00000000000E+00  0.00000000000E+00 -0.25353097616E+03  0.22048830047E+04  0.21902582287E+04 0.  0.
        5    1    3    3  502    0  0.12101357771E+03 -0.10811988615E+04 -0.25270246670E+03  0.11169225089E+04  0.46999998093E+01 0.  1.
       -5    1    3    3    0  502 -0.12101357771E+03  0.10811988615E+04 -0.82850945175E+00  0.10879604959E+04  0.46999998093E+01 0. -1.
</event>
<event>
 5   0  0.4174075E-05  0.2200628E+04  0.7818609E-02  0.8518167E-01
        1   -1    0    0  501    0  0.00000000000E+00  0.00000000000E+00  0.18163680763E+04  0.18163680763E+04  0.50400001928E-02 0.  1.
       -1   -1    0    0    0  501  0.00000000000E+00  0.00000000000E+00 -0.66654506294E+03  0.66654506296E+03  0.50400001928E-02 0. -1.
    10030    2    1    2    0    0  0.00000000000E+00  0.00000000000E+00  0.11498230134E+04  0.24829131393E+04  0.22006282501E+04 0.  0.
        5    1    3    3  502    0  0.95600505868E+03  0.39898703612E+03  0.99333678795E+03  0.14352269477E+04  0.46999998093E+01 0.  1.
       -5    1    3    3    0  502 -0.95600505868E+03 -0.39898703612E+03  0.15648622541E+03  0.10476861915E+04  0.46999998093E+01 0. -1.
</event>
<event>
 5   0  0.9457742E-05  0.2236264E+04  0.7818609E-02  0.8503484E-01
       -2   -1    0    0    0  501  0.00000000000E+00  0.00000000000E+00  0.75832351120E+03  0.75832351121E+03  0.25500000920E-02 0. -1.
        2   -1    0    0  501    0  0.00000000000E+00  0.00000000000E+00 -0.16486619237E+04  0.16486619237E+04  0.25500000920E-02 0.  1.
    10030    2    1    2    0    0  0.00000000000E+00  0.00000000000E+00 -0.89033841248E+03  0.24069854349E+04  0.22362639368E+04 0.  0.
        1    1    3    3  502    0  0.93698075694E+03 -0.56791348838E+03 -0.68526937348E+03  0.12923052207E+04  0.50400001928E-02 0.  1.
       -1    1    3    3    0  502 -0.93698075694E+03  0.56791348838E+03 -0.20506903900E+03  0.11146802142E+04  0.50400001928E-02 0. -1.
</event>
<event>
 5   0  0.9254673E-05  0.2211559E+04  0.7818609E-02  0.8513632E-01
        2   -1    0    0  501    0  0.00000000000E+00  0.00000000000E+00  0.12288764918E+04  0.12288764918E+04  0.25500000920E-02 0.  1.
       -2   -1    0    0    0  501  0.00000000000E+00  0.00000000000E+00 -0.99501355664E+03  0.99501355664E+03  0.25500000920E-02 0. -1.
    10030    2    1    2    0    0  0.00000000000E+00  0.00000000000E+00  0.23386293519E+03  0.22238900485E+04  0.22115594216E+04 0.  0.
        2    1    3    3  502    0 -0.31059689252E+03 -0.95642751554E+03  0.57941395320E+03  0.11605794033E+04  0.25500000920E-02 0.  1.
       -2    1    3    3    0  502  0.31059689252E+03  0.95642751554E+03 -0.34555101802E+03  0.10633106452E+04  0.25500000920E-02 0. -1.
</event>
<event>
 5   0  0.9254673E-05  0.2197384E+04  0.7818609E-02  0.8519518E-01
       -2   -1    0    0    0  501  0.00000000000E+00  0.00000000000E+00  0.64548217184E+03  0.64548217184E+03  0.25500000920E-02 0. -1.
        2   -1    0    0  501    0  0.00000000000E+00  0.00000000000E+00 -0.18701129207E+04  0.18701129207E+04  0.25500000920E-02 0.  1.
    10030    2    1    2    0    0  0.00000000000E+00  0.00000000000E+00 -0.12246307489E+04  0.25155950926E+04  0.21973843994E+04 0.  0.
        2    1    3    3  502    0 -0.52085100957E+03 -0.32702767281E+03  0.42996267446E+03  0.75040040938E+03  0.25500000920E-02 0. -1.
       -2    1    3    3    0  502  0.52085100957E+03  0.32702767281E+03 -0.16545934234E+04  0.17651946832E+04  0.25500000920E-02 0.  1.
</event>
<event>
 5   0  0.4133418E-05  0.2184696E+04  0.7818609E-02  0.8524825E-01
        1   -1    0    0  501    0  0.00000000000E+00  0.00000000000E+00  0.21913449779E+04  0.21913449779E+04  0.50400001928E-02 0.  1.
       -1   -1    0    0    0  501  0.00000000000E+00  0.00000000000E+00 -0.54451691188E+03  0.54451691190E+03  0.50400001928E-02 0. -1.
    10030    2    1    2    0    0  0.00000000000E+00  0.00000000000E+00  0.16468280661E+04  0.27358618898E+04  0.21846962263E+04 0.  0.
        4    1    3    3  502    0 -0.26129267654E+03  0.10046374773E+04  0.12492874731E+04  0.16242817265E+04  0.12699999809E+01 0.  1.
       -4    1    3    3    0  502  0.26129267654E+03 -0.10046374773E+04  0.39754059293E+03  0.11115801633E+04  0.12699999809E+01 0. -1.
</event>
<event>
 5   0  0.4063293E-05  0.2247342E+04  0.7818609E-02  0.8498978E-01
       -1   -1    0    0    0  501  0.00000000000E+00  0.00000000000E+00  0.10044698235E+04  0.10044698236E+04  0.50400001928E-02 0. -1.
        1   -1    0    0  501    0  0.00000000000E+00  0.00000000000E+00 -0.12570182364E+04  0.12570182365E+04  0.50400001928E-02 0.  1.
    10030    2    1    2    0    0  0.00000000000E+00  0.00000000000E+00 -0.25254841290E+03  0.22614880600E+04  0.22473423292E+04 0.  0.
        1    1    3    3  502    0 -0.18780886320E+03  0.97337808819E+03  0.40611148232E+03  0.10712906271E+04  0.50400001928E-02 0. -1.
       -1    1    3    3    0  502  0.18780886320E+03 -0.97337808819E+03 -0.65865989522E+03  0.11901974329E+04  0.50400001928E-02 0.  1.
</event>
<event>
 5   0  0.9938176E-05  0.2239981E+04  0.7818609E-02  0.8501969E-01
        2   -1    0    0  501    0  0.00000000000E+00  0.00000000000E+00  0.20103189252E+04  0.20103189252E+04  0.25500000920E-02 0. -1.
       -2   -1    0    0    0  501  0.00000000000E+00  0.00000000000E+00 -0.62397024508E+03  0.62397024509E+03  0.25500000920E-02 0.  1.
    10030    2    1    2    0    0  0.00000000000E+00  0.00000000000E+00  0.13863486801E+04  0.26342891703E+04  0.22399814218E+04 0.  0.
        5    1    3    3  502    0  0.36182533175E+03 -0.61857886854E+03 -0.31903288622E+03  0.78444978156E+03  0.46999998093E+01 0.  1.
       -5    1    3    3    0  502 -0.36182533175E+03  0.61857886854E+03  0.17053815663E+04  0.18498393887E+04  0.46999998093E+01 0. -1.
</event>
<event>
 5   0  0.4174075E-05  0.2048084E+04  0.7818609E-02  0.8584464E-01
       -1   -1    0    0    0  501  0.00000000000E+00  0.00000000000E+00  0.72888786224E+03  0.72888786226E+03  0.50400001928E-02 0.  1.
        1   -1    0    0  501    0  0.00000000000E+00  0.00000000000E+00 -0.14387148242E+04  0.14387148242E+04  0.50400001928E-02 0. -1.
    10030    2    1    2    0    0  0.00000000000E+00  0.00000000000E+00 -0.70982696192E+03  0.21676026864E+04  0.20480837606E+04 0.  0.
        5    1    3    3  502    0 -0.62711034696E+03  0.37409884541E+03 -0.11147384999E+04  0.13326219819E+04  0.46999998093E+01 0. -1.
       -5    1    3    3    0  502  0.62711034696E+03 -0.37409884541E+03  0.40491153798E+03  0.83498070456E+03  0.46999998093E+01 0.  1.
</event>
<event>
 5   0  0.9254673E-05  0.1613287E+04  0.7818609E-02  0.8812427E-01
        2   -1    0    0  501    0  0.00000000000E+00  0.00000000000E+00  0.14211140661E+04  0.14211140661E+04  0.25500000920E-02 0.  1.
       -2   -1    0    0    0  501  0.00000000000E+00  0.00000000000E+00 -0.45786162432E+03  0.45786162433E+03  0.25500000920E-02 0. -1.
    10030    2    1    2    0    0  0.00000000000E+00  0.00000000000E+00  0.96325244181E+03  0.18789756905E+04  0.16132868247E+04 0.  0.
        2    1    3    3  502    0  0.93419445166E+02 -0.73633713161E+03  0.11377279888E+03  0.75090865882E+03  0.25500000920E-02 0.  1.
       -2    1    3    3    0  502 -0.93419445166E+02  0.73633713161E+03  0.84947964292E+03  0.11280670316E+04  0.25500000920E-02 0. -1.
</event>
<event>
 5   0  0.9442578E-05  0.1921253E+04  0.7818609E-02  0.8644349E-01
       -2   -1    0    0    0  501  0.00000000000E+00  0.00000000000E+00  0.50453216768E+03  0.50453216769E+03  0.25500000920E-02 0.  1.
        2   -1    0    0  501    0  0.00000000000E+00  0.00000000000E+00 -0.18290277350E+04  0.18290277350E+04  0.25500000920E-02 0. -1.
    10030    2    1    2    0    0  0.00000000000E+00  0.00000000000E+00 -0.13244955673E+04  0.23335599027E+04  0.19212530577E+04 0.  0.
        4    1    3    3  502    0 -0.53483941987E+03  0.66105706110E+03 -0.11939755086E+03  0.85866584369E+03  0.12699999809E+01 0.  1.
       -4    1    3    3    0  502  0.53483941987E+03 -0.66105706110E+03 -0.12050980164E+04  0.14748940590E+04  0.12699999809E+01 0. -1.
</event>
<event>
 5   0  0.4133418E-05  0.2082361E+04  0.7818609E-02  0.8569053E-01
        1   -1    0    0  501    0  0.00000000000E+00  0.00000000000E+00  0.20305023519E+04  0.20305023519E+04  0.50400001928E-02 0. -1.
       -1   -1    0    0    0  501  0.00000000000E+00  0.00000000000E+00 -0.53388617543E+03  0.53388617546E+03  0.50400001928E-02 0.  1.
    10030    2    1    2    0    0  0.00000000000E+00  0.00000000000E+00  0.14966161764E+04  0.25643885273E+04  0.20823612894E+04 0.  0.
        4    1    3    3  502    0 -0.44663453911E+03  0.42321509700E+01 -0.40990965372E+03  0.60624076054E+03  0.12699999809E+01 0.  1.
       -4    1    3    3    0  502  0.44663453911E+03 -0.42321509700E+01  0.19065258302E+04  0.19581477668E+04  0.12699999809E+01 0. -1.
</event>
<event>
 5   0  0.9938176E-05  0.2226344E+04  0.7818609E-02  0.8507542E-01
       -2   -1    0    0    0  501  0.00000000000E+00  0.00000000000E+00  0.13568002071E+04  0.13568002071E+04  0.25500000920E-02 0. -1.
        2   -1    0    0  501    0  0.00000000000E+00  0.00000000000E+00 -0.91329015380E+03  0.91329015381E+03  0.25500000920E-02 0.  1.
    10030    2    1    2    0    0  0.00000000000E+00  0.00000000000E+00  0.44351005328E+03  0.22700903609E+04  0.22263443308E+04 0.  0.
        5    1    3    3  502    0 -0.53022243121E+03 -0.30211677475E+03 -0.72751588164E+03  0.94958507790E+03  0.46999998093E+01 0.  1.
       -5    1    3    3    0  502  0.53022243121E+03  0.30211677475E+03  0.11710259349E+04  0.13205052830E+04  0.46999998093E+01 0. -1.
</event>
<event>
 5   0  0.9179618E-05  0.2237092E+04  0.7818609E-02  0.8503146E-01
        2   -1    0    0  501    0  0.00000000000E+00  0.00000000000E+00  0.18673734044E+04  0.18673734044E+04  0.25500000920E-02 0.  1.
       -2   -1    0    0    0  501  0.00000000000E+00  0.00000000000E+00 -0.67000240231E+03  0.67000240231E+03  0.25500000920E-02 0. -1.
    10030    2    1    2    0    0  0.00000000000E+00  0.00000000000E+00  0.11973710021E+04  0.25373758067E+04  0.22370915645E+04 0.  0.
        3    1    3    3  502    0  0.69403181161E+03  0.63180371720E+02 -0.39366684235E+03  0.80040334074E+03  0.10100000352E+00 0. -1.
       -3    1    3    3    0  502 -0.69403181161E+03 -0.63180371720E+02  0.15910378444E+04  0.17369724660E+04  0.10100000352E+00 0.  1.
</event>
<event>
 5   0  0.9442578E-05  0.2161415E+04  0.7818609E-02  0.8534662E-01
       -2   -1    0    0    0  501  0.00000000000E+00  0.00000000000E+00  0.95552877282E+03  0.95552877283E+03  0.25500000920E-02 0.  1.
        2   -1    0    0  501    0  0.00000000000E+00  0.00000000000E+00 -0.12222849352E+04  0.12222849352E+04  0.25500000920E-02 0. -1.
    10030    2    1    2    0    0  0.00000000000E+00  0.00000000000E+00 -0.26675616240E+03  0.21778137081E+04  0.21614147443E+04 0.  0.
        4    1    3    3  502    0  0.71219144871E+03  0.22200233170E+03  0.65449135792E+03  0.99240225987E+03  0.12699999809E+01 0.  1.
       -4    1    3    3    0  502 -0.71219144871E+03 -0.22200233170E+03 -0.92124752032E+03  0.11854114482E+04  0.12699999809E+01 0. -1.
</event>
<event>
 5   0  0.4174030E-05  0.2171243E+04  0.7818609E-02  0.8530494E-01
        1   -1    0    0  501    0  0.00000000000E+00  0.00000000000E+00  0.14344020312E+04  0.14344020312E+04  0.50400001928E-02 0. -1.
       -1   -1    0    0    0  501  0.00000000000E+00  0.00000000000E+00 -0.82164832224E+03  0.82164832226E+03  0.50400001928E-02 0.  1.
    10030    2    1    2    0    0  0.00000000000E+00  0.00000000000E+00  0.61275370896E+03  0.22560503535E+04  0.21712429826E+04 0.  0.
        2    1    3    3  502    0 -0.10234058825E+04 -0.35834939952E+03  0.25139372647E+03  0.11130915049E+04  0.25500000920E-02 0.  1.
       -2    1    3    3    0  502  0.10234058825E+04  0.35834939952E+03  0.36135998249E+03  0.11429588486E+04  0.25500000920E-02 0. -1.
</event>
<event>
 5   0  0.9938176E-05  0.2258981E+04  0.7818609E-02  0.8494272E-01
        2   -1    0    0  501    0  0.00000000000E+00  0.00000000000E+00  0.17754087822E+04  0.17754087822E+04  0.25500000920E-02 0. -1.
       -2   -1    0    0    0  501  0.00000000000E+00  0.00000000000E+00 -0.71856592134E+03  0.71856592134E+03  0.25500000920E-02 0.  1.
    10030    2    1    2    0    0  0.00000000000E+00  0.00000000000E+00  0.10568428609E+04  0.24939747036E+04  0.22589805199E+04 0.  0.
        5    1    3    3  502    0  0.49953681197E+03  0.89155692394E+03 -0.25630346301E+01  0.10219781966E+04  0.46999998093E+01 0.  1.
       -5    1    3    3    0  502 -0.49953681197E+03 -0.89155692394E+03  0.10594058955E+04  0.14719965070E+04  0.46999998093E+01 0. -1.
</event>
<event>
 5   0  0.4188865E-05  0.1681933E+04  0.7818609E-02  0.8771736E-01
        1   -1    0    0  501    0  0.00000000000E+00  0.00000000000E+00  0.63859940982E+03  0.63859940984E+03  0.50400001928E-02 0.  1.
       -1   -1    0    0    0  501  0.00000000000E+00  0.00000000000E+00 -0.11074622751E+04  0.11074622751E+04  0.50400001928E-02 0. -1.
    10030    2    1    2    0    0  0.00000000000E+00  0.00000000000E+00 -0.46886286525E+03  0.17460616849E+04  0.16819331203E+04 0.  0.
        3    1    3    3  502    0  0.14666093939E+03  0.55902295858E+02  0.62325965865E+03  0.64271853103E+03  0.10100000352E+00 0.  1.
       -3    1    3    3    0  502 -0.14666093939E+03 -0.55902295858E+02 -0.10921225239E+04  0.11033431539E+04  0.10100000352E+00 0. -1.
</event>
<event>
 5   0  0.9442578E-05  0.2298322E+04  0.7818609E-02  0.8478583E-01
       -2   -1    0    0    0  501  0.00000000000E+00  0.00000000000E+00  0.57893371428E+03  0.57893371429E+03  0.25500000920E-02 0.  1.
        2   -1    0    0  501    0  0.00000000000E+00  0.00000000000E+00 -0.22810405838E+04  0.22810405838E+04  0.25500000920E-02 0. -1.
    10030    2    1    2    0    0  0.00000000000E+00  0.00000000000E+00 -0.17021068695E+04  0.28599742981E+04  0.22983222556E+04 0.  0.
        4    1    3    3  502    0 -0.82724996917E+03  0.10203008531E+03  0.13335402935E+03  0.84411939905E+03  0.12699999809E+01 0.  1.
       -4    1    3    3    0  502  0.82724996917E+03 -0.10203008531E+03 -0.18354608989E+04  0.20158548990E+04  0.12699999809E+01 0. -1.
</event>
<event>
 5   0  0.4063293E-05  0.2194518E+04  0.7818609E-02  0.8520713E-01
        1   -1    0    0  501    0  0.00000000000E+00  0.00000000000E+00  0.90722523646E+03  0.90722523647E+03  0.50400001928E-02 0.  1.
       -1   -1    0    0    0  501  0.00000000000E+00  0.00000000000E+00 -0.13270981330E+04  0.13270981330E+04  0.50400001928E-02 0. -1.
    10030    2    1    2    0    0  0.00000000000E+00  0.00000000000E+00 -0.41987289652E+03  0.22343233695E+04  0.21945176395E+04 0.  0.
        1    1    3    3  502    0  0.58347106470E+03  0.91757524837E+03 -0.60321673445E+02  0.10890461533E+04  0.50400001928E-02 0.  1.
       -1    1    3    3    0  502 -0.58347106470E+03 -0.91757524837E+03 -0.35955122308E+03  0.11452772161E+04  0.50400001928E-02 0. -1.
</event>
<event>
 5   0  0.9938176E-05  0.1605557E+04  0.7818609E-02  0.8817142E-01
       -2   -1    0    0    0  501  0.00000000000E+00  0.00000000000E+00  0.75008953404E+03  0.75008953404E+03  0.25500000920E-02 0.  1.
        2   -1    0    0  501    0  0.00000000000E+00  0.00000000000E+00 -0.85916805353E+03  0.85916805354E+03  0.25500000920E-02 0. -1.
    10030    2    1    2    0    0  0.00000000000E+00  0.00000000000E+00 -0.10907851950E+03  0.16092575876E+04  0.16055565576E+04 0.  0.
        5    1    3    3  502    0  0.12395260267E+03  0.70634730071E+03  0.30704170143E+03  0.78012015314E+03  0.46999998093E+01 0.  1.
       -5    1    3    3    0  502 -0.12395260267E+03 -0.70634730071E+03 -0.41612022092E+03  0.82913743444E+03  0.46999998093E+01 0. -1.
</event>
<event>
 5   0  0.4174075E-05  0.2209110E+04  0.7818609E-02  0.8514646E-01
        1   -1    0    0  501    0  0.00000000000E+00  0.00000000000E+00  0.14199316811E+04  0.14199316811E+04  0.50400001928E-02 0.  1.
       -1   -1    0    0    0  501  0.00000000000E+00  0.00000000000E+00 -0.85922537196E+03  0.85922537198E+03  0.50400001928E-02 0. -1.
    10030    2    1    2    0    0  0.00000000000E+00  0.00000000000E+00  0.56070630909E+03  0.22791570530E+04  0.22091096187E+04 0.  0.
        5    1    3    3  502    0  0.43406286397E+03 -0.53920114494E+03  0.11683843514E+04  0.13580473214E+04  0.46999998093E+01 0.  1.
       -5    1    3    3    0  502 -0.43406286397E+03  0.53920114494E+03 -0.60767804232E+03  0.92110973163E+03  0.46999998093E+01 0. -1.
</event>
<event>
 5   0  0.4174075E-05  0.2266161E+04  0.7818609E-02  0.8491384E-01
        1   -1    0    0  501    0  0.00000000000E+00  0.00000000000E+00  0.64250431902E+03  0.64250431904E+03  0.50400001928E-02 0. -1.
       -1   -1    0    0    0  501  0.00000000000E+00  0.00000000000E+00 -0.19982305136E+04  0.19982305136E+04  0.50400001928E-02 0.  1.
    10030    2    1    2    0    0  0.00000000000E+00  0.00000000000E+00 -0.13557261946E+04  0.26407348326E+04  0.22661612788E+04 0.  0.
        5    1    3    3  502    0  0.30960736374E+03 -0.39187023955E+03  0.50731786742E+03  0.71190765758E+03  0.46999998093E+01 0. -1.
       -5    1    3    3    0  502 -0.30960736374E+03  0.39187023955E+03 -0.18630440620E+04  0.19288271751E+04  0.46999998093E+01 0.  1.
</event>
<event>
 5   0  0.9938176E-05  0.2151904E+04  0.7818609E-02  0.8538718E-01
        2   -1    0    0  501    0  0.00000000000E+00  0.00000000000E+00  0.28808224695E+04  0.28808224695E+04  0.25500000920E-02 0.  1.
       -2   -1    0    0    0  501  0.00000000000E+00  0.00000000000E+00 -0.40185492471E+03  0.40185492472E+03  0.25500000920E-02 0. -1.
    10030    2    1    2    0    0  0.00000000000E+00  0.00000000000E+00  0.24789675448E+04  0.32826773942E+04  0.21519039910E+04 0.  0.
        5    1    3    3  502    0 -0.87294224384E+03 -0.18281793247E+03  0.21575617415E+04  0.23346402969E+04  0.46999998093E+01 0.  1.
       -5    1    3    3    0  502  0.87294224384E+03  0.18281793247E+03  0.32140580329E+03  0.94803709732E+03  0.46999998093E+01 0. -1.
</event>
<event>
 5   0  0.4133418E-05  0.2139953E+04  0.7818609E-02  0.8543845E-01
        1   -1    0    0  501    0  0.00000000000E+00  0.00000000000E+00  0.14500728198E+04  0.14500728198E+04  0.50400001928E-02 0.  1.
       -1   -1    0    0    0  501  0.00000000000E+00  0.00000000000E+00 -0.78951185635E+03  0.78951185637E+03  0.50400001928E-02 0. -1.
    10030    2    1    2    0    0  0.00000000000E+00  0.00000000000E+00  0.66056096348E+03  0.22395846762E+04  0.21399529751E+04 0.  0.
        4    1    3    3  502    0  0.94421260791E+02  0.51265833544E+03  0.13081902067E+04  0.14082248305E+04  0.12699999809E+01 0.  1.
       -4    1    3    3    0  502 -0.94421260791E+02 -0.51265833544E+03 -0.64762924326E+03  0.83135984569E+03  0.12699999809E+01 0. -1.
</event>
<event>
 5   0  0.4133418E-05  0.2200533E+04  0.7818609E-02  0.8518206E-01
       -1   -1    0    0    0  501  0.00000000000E+00  0.00000000000E+00  0.10373260352E+04  0.10373260352E+04  0.50400001928E-02 0.  1.
        1   -1    0    0  501    0  0.00000000000E+00  0.00000000000E+00 -0.11670254510E+04  0.11670254511E+04  0.50400001928E-02 0. -1.
    10030    2    1    2    0    0  0.00000000000E+00  0.00000000000E+00 -0.12969941583E+03  0.22043514863E+04  0.22005325575E+04 0.  0.
        4    1    3    3  502    0 -0.12787745840E+03  0.73337337635E+03  0.74673847903E+03  0.10544235973E+04  0.12699999809E+01 0.  1.
       -4    1    3    3    0  502  0.12787745840E+03 -0.73337337635E+03 -0.87643789485E+03  0.11499278890E+04  0.12699999809E+01 0. -1.
</event>
<event>
 5   0  0.4174075E-05  0.2154411E+04  0.7818609E-02  0.8537647E-01
        1   -1    0    0  501    0  0.00000000000E+00  0.00000000000E+00  0.86040140819E+03  0.86040140821E+03  0.50400001928E-02 0. -1.
       -1   -1    0    0    0  501  0.00000000000E+00  0.00000000000E+00 -0.13486397525E+04  0.13486397525E+04  0.50400001928E-02 0.  1.
    10030    2    1    2    0    0  0.00000000000E+00  0.00000000000E+00 -0.48823834434E+03  0.22090411607E+04  0.21544108636E+04 0.  0.
        5    1    3    3  502    0 -0.50811158729E+03 -0.40656896486E+03 -0.11242998264E+04  0.12990565415E+04  0.46999998093E+01 0.  1.
       -5    1    3    3    0  502  0.50811158729E+03  0.40656896486E+03  0.63606148207E+03  0.90998461926E+03  0.46999998093E+01 0. -1.
</event>
<event>
 5   0  0.4133418E-05  0.2196271E+04  0.7818609E-02  0.8519982E-01
        1   -1    0    0  501    0  0.00000000000E+00  0.00000000000E+00  0.23424540157E+04  0.23424540157E+04  0.50400001928E-02 0. -1.
       -1   -1    0    0    0  501  0.00000000000E+00  0.00000000000E+00 -0.51480246722E+03  0.51480246725E+03  0.50400001928E-02 0.  1.
    10030    2    1    2    0    0  0.00000000000E+00  0.00000000000E+00  0.18276515485E+04  0.28572564829E+04  0.21962705723E+04 0.  0.
        4    1    3    3  502    0 -0.79926630638E+03 -0.36630776927E+03  0.17697846608E+04  0.19761445718E+04  0.12699999809E+01 0. -1.
       -4    1    3    3    0  502  0.79926630638E+03  0.36630776927E+03  0.57866887712E+02  0.88111191113E+03  0.12699999809E+01 0.  1.
</event>
<event>
 5   0  0.4133418E-05  0.2220586E+04  0.7818609E-02  0.8509908E-01
       -1   -1    0    0    0  501  0.00000000000E+00  0.00000000000E+00  0.13277356455E+04  0.13277356455E+04  0.50400001928E-02 0. -1.
        1   -1    0    0  501    0  0.00000000000E+00  0.00000000000E+00 -0.92846076404E+03  0.92846076405E+03  0.50400001928E-02 0.  1.
    10030    2    1    2    0    0  0.00000000000E+00  0.00000000000E+00  0.39927488146E+03  0.22561964096E+04  0.22205859154E+04 0.  0.
        4    1    3    3  502    0  0.23432315720E+03 -0.99079005120E+03  0.64965855738E+03  0.12077376046E+04  0.12699999809E+01 0. -1.
       -4    1    3    3    0  502 -0.23432315720E+03  0.99079005120E+03 -0.25038367593E+03  0.10484588049E+04  0.12699999809E+01 0.  1.
</event>
<event>
 5   0  0.4133418E-05  0.2160197E+04  0.7818609E-02  0.8535180E-01
        1   -1    0    0  501    0  0.00000000000E+00  0.00000000000E+00  0.18963942253E+04  0.18963942253E+04  0.50400001928E-02 0. -1.
       -1   -1    0    0    0  501  0.00000000000E+00  0.00000000000E+00 -0.61517393855E+03  0.61517393857E+03  0.50400001928E-02 0.  1.
    10030    2    1    2    0    0  0.00000000000E+00  0.00000000000E+00  0.12812202867E+04  0.25115681638E+04  0.21601965694E+04 0.  0.
        4    1    3    3  502    0 -0.86688403605E+03 -0.49867880682E+03  0.11149432424E+04  0.14977544962E+04  0.12699999809E+01 0. -1.
       -4    1    3    3    0  502  0.86688403605E+03  0.49867880682E+03  0.16627704436E+03  0.10138136676E+04  0.12699999809E+01 0.  1.
</event>
<event>
 5   0  0.4063293E-05  0.1873290E+04  0.7818609E-02  0.8668267E-01
       -1   -1    0    0    0  501  0.00000000000E+00  0.00000000000E+00  0.16169797603E+04  0.16169797603E+04  0.50400001928E-02 0.  1.
        1   -1    0    0  501    0  0.00000000000E+00  0.00000000000E+00 -0.54255683103E+03  0.54255683105E+03  0.50400001928E-02 0. -1.
    10030    2    1    2    0    0  0.00000000000E+00  0.00000000000E+00  0.10744229293E+04  0.21595365914E+04  0.18732895287E+04 0.  0.
        1    1    3    3  502    0  0.13044232800E+03  0.62744031646E+03  0.13246763970E+04  0.14715515990E+04  0.50400001928E-02 0.  1.
       -1    1    3    3    0  502 -0.13044232800E+03 -0.62744031646E+03 -0.25025346770E+03  0.68798499241E+03  0.50400001928E-02 0. -1.
</event>
<event>
 5   0  0.9254673E-05  0.2208394E+04  0.7818609E-02  0.8514943E-01
       -2   -1    0    0    0  501  0.00000000000E+00  0.00000000000E+00  0.95300825248E+03  0.95300825248E+03  0.25500000920E-02 0.  1.
        2   -1    0    0  501    0  0.00000000000E+00  0.00000000000E+00 -0.12793703803E+04  0.12793703803E+04  0.25500000920E-02 0. -1.
    10030    2    1    2    0    0  0.00000000000E+00  0.00000000000E+00 -0.32636212784E+03  0.22323786328E+04  0.22083935613E+04 0.  0.
        2    1    3    3  502    0  0.89143151648E+03  0.30967423574E+03 -0.74273348298E+03  0.12009168612E+04  0.25500000920E-02 0. -1.
       -2    1    3    3    0  502 -0.89143151648E+03 -0.30967423574E+03  0.41637135513E+03  0.10314617716E+04  0.25500000920E-02 0.  1.
</event>
<event>
 5   0  0.4063293E-05  0.2201018E+04  0.7818609E-02  0.8518005E-01
       -1   -1    0    0    0  501  0.00000000000E+00  0.00000000000E+00  0.11375600451E+04  0.11375600451E+04  0.50400001928E-02 0.  1.
        1   -1    0    0  501    0  0.00000000000E+00  0.00000000000E+00 -0.10646645131E+04  0.10646645131E+04  0.50400001928E-02 0. -1.
    10030    2    1    2    0    0  0.00000000000E+00  0.00000000000E+00  0.72895531956E+02  0.22022245582E+04  0.22010177751E+04 0.  0.
        1    1    3    3  502    0 -0.10726094424E+04  0.20829472061E+03  0.16782895711E+03  0.11054611098E+04  0.50400001928E-02 0. -1.
       -1    1    3    3    0  502  0.10726094424E+04 -0.20829472061E+03 -0.94933425157E+02  0.10967634484E+04  0.50400001928E-02 0.  1.
</event>
<event>
 5   0  0.4063293E-05  0.1958333E+04  0.7818609E-02  0.8626353E-01
        1   -1    0    0  501    0  0.00000000000E+00  0.00000000000E+00  0.20255189345E+04  0.20255189345E+04  0.50400001928E-02 0.  1.
       -1   -1    0    0    0  501  0.00000000000E+00  0.00000000000E+00 -0.47334366380E+03  0.47334366383E+03  0.50400001928E-02 0. -1.
    10030    2    1    2    0    0  0.00000000000E+00  0.00000000000E+00  0.15521752707E+04  0.24988625983E+04  0.19583325086E+04 0.  0.
        1    1    3    3  502    0 -0.65765083594E+03  0.18678451288E+03 -0.11837416713E+03  0.69383392806E+03  0.50400001928E-02 0. -1.
       -1    1    3    3    0  502  0.65765083594E+03 -0.18678451288E+03  0.16705494378E+04  0.18050286703E+04  0.50400001928E-02 0.  1.
</event>
<event>
 5   0  0.9938176E-05  0.1719202E+04  0.7818609E-02  0.8750488E-01
        2   -1    0    0  501    0  0.00000000000E+00  0.00000000000E+00  0.72003678887E+03  0.72003678887E+03  0.25500000920E-02 0.  1.
       -2   -1    0    0    0  501  0.00000000000E+00  0.00000000000E+00 -0.10262163248E+04  0.10262163248E+04  0.25500000920E-02 0. -1.
    10030    2    1    2    0    0  0.00000000000E+00  0.00000000000E+00 -0.30617953597E+03  0.17462531137E+04  0.17192015673E+04 0.  0.
        5    1    3    3  502    0 -0.30791123021E+03 -0.61332524451E+03 -0.67883856863E+03  0.96530879696E+03  0.46999998093E+01 0. -1.
       -5    1    3    3    0  502  0.30791123021E+03  0.61332524451E+03  0.37265903266E+03  0.78094431675E+03  0.46999998093E+01 0.  1.
</event>
<event>
 5   0  0.4174030E-05  0.2200604E+04  0.7818609E-02  0.8518177E-01
        1   -1    0    0  501    0  0.00000000000E+00  0.00000000000E+00  0.10581706471E+04  0.10581706471E+04  0.50400001928E-02 0. -1.
       -1   -1    0    0    0  501  0.00000000000E+00  0.00000000000E+00 -0.11441109301E+04  0.11441109301E+04  0.50400001928E-02 0.  1.
    10030    2    1    2    0    0  0.00000000000E+00  0.00000000000E+00 -0.85940283058E+02  0.22022815772E+04  0.22006041018E+04 0.  0.
        2    1    3    3  502    0 -0.95965410861E+03 -0.32224501005E+03  0.38850436745E+03  0.10843032317E+04  0.25500000920E-02 0. -1.
       -2    1    3    3    0  502  0.95965410861E+03  0.32224501005E+03 -0.47444465051E+03  0.11179783455E+04  0.25500000920E-02 0.  1.
</event>
<event>
 5   0  0.4188865E-05  0.2134058E+04  0.7818609E-02  0.8546387E-01
       -1   -1    0    0    0  501  0.00000000000E+00  0.00000000000E+00  0.18461852068E+04  0.18461852068E+04  0.50400001928E-02 0.  1.
        1   -1    0    0  501    0  0.00000000000E+00  0.00000000000E+00 -0.61670470191E+03  0.61670470193E+03  0.50400001928E-02 0. -1.
    10030    2    1    2    0    0  0.00000000000E+00  0.00000000000E+00  0.12294805049E+04  0.24628899087E+04  0.21340581976E+04 0.  0.
        3    1    3    3  502    0  0.64571221236E+01  0.83429596043E+03  0.13824120271E+04  0.16146685316E+04  0.10100000352E+00 0.  1.
       -3    1    3    3    0  502 -0.64571221236E+01 -0.83429596043E+03 -0.15293152220E+03  0.84822137717E+03  0.10100000352E+00 0. -1.
</event>
<event>
 5   0  0.4133418E-05  0.2200290E+04  0.7818609E-02  0.8518308E-01
        1   -1    0    0  501    0  0.00000000000E+00  0.00000000000E+00  0.13870983256E+04  0.13870983256E+04  0.50400001928E-02 0.  1.
       -1   -1    0    0    0  501  0.00000000000E+00  0.00000000000E+00 -0.87255431200E+03  0.87255431201E+03  0.50400001928E-02 0. -1.
    10030    2    1    2    0    0  0.00000000000E+00  0.00000000000E+00  0.51454401358E+03  0.22596526376E+04  0.22002896402E+04 0.  0.
        4    1    3    3  502    0 -0.29407775839E+03  0.58557920024E+03 -0.65027372291E+03  0.92316967852E+03  0.12699999809E+01 0. -1.
       -4    1    3    3    0  502  0.29407775839E+03 -0.58557920024E+03  0.11648177365E+04  0.13364829591E+04  0.12699999809E+01 0.  1.
</event>
<event>
 5   0  0.4133418E-05  0.2214212E+04  0.7818609E-02  0.8512536E-01
        1   -1    0    0  501    0  0.00000000000E+00  0.00000000000E+00  0.22770073032E+04  0.22770073032E+04  0.50400001928E-02 0.  1.
       -1   -1    0    0    0  501  0.00000000000E+00  0.00000000000E+00 -0.53828693999E+03  0.53828694002E+03  0.50400001928E-02 0. -1.
    10030    2    1    2    0    0  0.00000000000E+00  0.00000000000E+00  0.17387203632E+04  0.28152942432E+04  0.22142116372E+04 0.  0.
        4    1    3    3  502    0 -0.21322266941E+02  0.56984645565E+03  0.20759148887E+04  0.21528130110E+04  0.12699999809E+01 0.  1.
       -4    1    3    3    0  502  0.21322266941E+02 -0.56984645565E+03 -0.33719452554E+03  0.66248123222E+03  0.12699999809E+01 0. -1.
</event>
<event>
 5   0  0.9442578E-05  0.2207329E+04  0.7818609E-02  0.8515384E-01
       -2   -1    0    0    0  501  0.00000000000E+00  0.00000000000E+00  0.13485980218E+04  0.13485980218E+04  0.25500000920E-02 0. -1.
        2   -1    0    0  501    0  0.00000000000E+00  0.00000000000E+00 -0.90321582414E+03  0.90321582415E+03  0.25500000920E-02 0.  1.
    10030    2    1    2    0    0  0.00000000000E+00  0.00000000000E+00  0.44538219768E+03  0.22518138460E+04  0.22073287691E+04 0.  0.
        4    1    3    3  502    0 -0.41771803023E+03 -0.50686610174E+03  0.11275112622E+04  0.13048696705E+04  0.12699999809E+01 0. -1.
       -4    1    3    3    0  502  0.41771803023E+03  0.50686610174E+03 -0.68212906449E+03  0.94694417544E+03  0.12699999809E+01 0.  1.
</event>
<event>
 5   0  0.3283125E-05  0.2124507E+04  0.7818609E-02  0.8550524E-01
        3   -1    0    0  501    0  0.00000000000E+00  0.00000000000E+00  0.13599045417E+04  0.13599045455E+04  0.10100000352E+00 0.  1.
       -3   -1    0    0    0  501  0.00000000000E+00  0.00000000000E+00 -0.82975162414E+03  0.82975163029E+03  0.10100000352E+00 0. -1.
    10030    2    1    2    0    0  0.00000000000E+00  0.00000000000E+00  0.53015291760E+03  0.21896561758E+04  0.21245074846E+04 0.  0.
        4    1    3    3  502    0 -0.26881587887E+03 -0.65550608805E+03 -0.55066840532E+03  0.89732241348E+03  0.12699999809E+01 0. -1.
       -4    1    3    3    0  502  0.26881587887E+03  0.65550608805E+03  0.10808213229E+04  0.12923337623E+04  0.12699999809E+01 0.  1.
</event>
<event>
 5   0  0.4188865E-05  0.2195352E+04  0.7818609E-02  0.8520365E-01
       -1   -1    0    0    0  501  0.00000000000E+00  0.00000000000E+00  0.50476352383E+03  0.50476352386E+03  0.50400001928E-02 0. -1.
        1   -1    0    0  501    0  0.00000000000E+00  0.00000000000E+00 -0.23870443619E+04  0.23870443619E+04  0.50400001928E-02 0.  1.
    10030    2    1    2    0    0  0.00000000000E+00  0.00000000000E+00 -0.18822808381E+04  0.28918078858E+04  0.21953522940E+04 0.  0.
        3    1    3    3  502    0  0.33022448872E+03 -0.28852391412E+03 -0.22666531018E+04  0.23086815622E+04  0.10100000352E+00 0.  1.
       -3    1    3    3    0  502 -0.33022448872E+03  0.28852391412E+03  0.38437226364E+03  0.58312632356E+03  0.10100000352E+00 0. -1.
</event>
<event>
 5   0  0.9254673E-05  0.2170489E+04  0.7818609E-02  0.8530813E-01
       -2   -1    0    0    0  501  0.00000000000E+00  0.00000000000E+00  0.25904792072E+04  0.25904792072E+04  0.25500000920E-02 0.  1.
        2   -1    0    0  501    0  0.00000000000E+00  0.00000000000E+00 -0.45464762269E+03  0.45464762270E+03  0.25500000920E-02 0. -1.
    10030    2    1    2    0    0  0.00000000000E+00  0.00000000000E+00  0.21358315845E+04  0.30451268299E+04  0.21704886207E+04 0.  0.
        2    1    3    3  502    0  0.80399181912E+03 -0.59057366506E+03  0.46844412372E+03  0.11020979975E+04  0.25500000920E-02 0. -1.
       -2    1    3    3    0  502 -0.80399181912E+03  0.59057366506E+03  0.16673874608E+04  0.19430288324E+04  0.25500000920E-02 0.  1.
</event>
<event>
 5   0  0.9938176E-05  0.2203687E+04  0.7818609E-02  0.8516895E-01
       -2   -1    0    0    0  501  0.00000000000E+00  0.00000000000E+00  0.10427077923E+04  0.10427077923E+04  0.25500000920E-02 0.  1.
        2   -1    0    0  501    0  0.00000000000E+00  0.00000000000E+00 -0.11643330412E+04  0.11643330412E+04  0.25500000920E-02 0. -1.
    10030    2    1    2    0    0  0.00000000000E+00  0.00000000000E+00 -0.12162524897E+03  0.22070408335E+04  0.22036870331E+04 0.  0.
        5    1    3    3  502    0 -0.22729486919E+03  0.80846344156E+03  0.65354771892E+03  0.10641535626E+04  0.46999998093E+01 0.  1.
       -5    1    3    3    0  502  0.22729486919E+03 -0.80846344156E+03 -0.77517296788E+03  0.11428872709E+04  0.46999998093E+01 0. -1.
</event>
<event>
 5   0  0.9179618E-05  0.2207306E+04  0.7818609E-02  0.8515393E-01
       -2   -1    0    0    0  501  0.00000000000E+00  0.00000000000E+00  0.66638260942E+03  0.66638260943E+03  0.25500000920E-02 0. -1.
        2   -1    0    0  501    0  0.00000000000E+00  0.00000000000E+00 -0.18278539173E+04  0.18278539173E+04  0.25500000920E-02 0.  1.
    10030    2    1    2    0    0  0.00000000000E+00  0.00000000000E+00 -0.11614713078E+04  0.24942365267E+04  0.22073061075E+04 0.  0.
        3    1    3    3  502    0  0.51428502441E+03 -0.67177965988E+03 -0.13815742771E+04  0.16200384227E+04  0.10100000352E+00 0.  1.
       -3    1    3    3    0  502 -0.51428502441E+03  0.67177965988E+03  0.22010296922E+03  0.87419810399E+03  0.10100000352E+00 0. -1.
</event>
<event>
 5   0  0.4174030E-05  0.2207458E+04  0.7818609E-02  0.8515330E-01
       -1   -1    0    0    0  501  0.00000000000E+00  0.00000000000E+00  0.67115283373E+03  0.67115283375E+03  0.50400001928E-02 0. -1.
        1   -1    0    0  501    0  0.00000000000E+00  0.00000000000E+00 -0.18151119432E+04  0.18151119432E+04  0.50400001928E-02 0.  1.
    10030    2    1    2    0    0  0.00000000000E+00  0.00000000000E+00 -0.11439591095E+04  0.24862647770E+04  0.22074578358E+04 0.  0.
        2    1    3    3  502    0  0.61347014161E+03 -0.40137377698E+03 -0.15012785854E+04  0.16707135944E+04  0.25500000920E-02 0.  1.
       -2    1    3    3    0  502 -0.61347014161E+03  0.40137377698E+03  0.35731947593E+03  0.81555118256E+03  0.25500000920E-02 0. -1.
</event>
<event>
 5   0  0.9179618E-05  0.2232538E+04  0.7818609E-02  0.8505006E-01
        2   -1    0    0  501    0  0.00000000000E+00  0.00000000000E+00  0.16102801298E+04  0.16102801298E+04  0.25500000920E-02 0.  1.
       -2   -1    0    0    0  501  0.00000000000E+00  0.00000000000E+00 -0.77381334828E+03  0.77381334828E+03  0.25500000920E-02 0. -1.
    10030    2    1    2    0    0  0.00000000000E+00  0.00000000000E+00  0.83646678151E+03  0.23840934781E+04  0.22325378016E+04 0.  0.
        3    1    3    3  502    0 -0.74344055011E+03  0.79295048779E+03  0.14685207842E+03  0.10968317422E+04  0.10100000352E+00 0.  1.
       -3    1    3    3    0  502  0.74344055011E+03 -0.79295048779E+03  0.68961470309E+03  0.12872617358E+04  0.10100000352E+00 0. -1.
</event>
<event>
 5   0  0.4174075E-05  0.1940689E+04  0.7818609E-02  0.8634864E-01
        1   -1    0    0  501    0  0.00000000000E+00  0.00000000000E+00  0.16239849873E+04  0.16239849873E+04  0.50400001928E-02 0.  1.
       -1   -1    0    0    0  501  0.00000000000E+00  0.00000000000E+00 -0.57978918038E+03  0.57978918040E+03  0.50400001928E-02 0. -1.
    10030    2    1    2    0    0  0.00000000000E+00  0.00000000000E+00  0.10441958069E+04  0.22037741677E+04  0.19406894906E+04 0.  0.
        5    1    3    3  502    0  0.66226339385E+02  0.91302503302E+03  0.88750595117E+03  0.12750253105E+04  0.46999998093E+01 0.  1.
       -5    1    3    3    0  502 -0.66226339385E+02 -0.91302503302E+03  0.15668985575E+03  0.92874885725E+03  0.46999998093E+01 0. -1.
</event>
<event>
 5   0  0.4188865E-05  0.2212294E+04  0.7818609E-02  0.8513328E-01
       -1   -1    0    0    0  501  0.00000000000E+00  0.00000000000E+00  0.15663050955E+04  0.15663050955E+04  0.50400001928E-02 0. -1.
        1   -1    0    0  501    0  0.00000000000E+00  0.00000000000E+00 -0.78117677827E+03  0.78117677829E+03  0.50400001928E-02 0.  1.
    10030    2    1    2    0    0  0.00000000000E+00  0.00000000000E+00  0.78512831722E+03  0.23474818738E+04  0.22122939844E+04 0.  0.
        3    1    3    3  502    0 -0.74787823206E+03  0.19858323143E+03  0.12313118014E+04  0.14542647325E+04  0.10100000352E+00 0. -1.
       -3    1    3    3    0  502  0.74787823206E+03 -0.19858323143E+03 -0.44618348414E+03  0.89321714130E+03  0.10100000352E+00 0.  1.
</event>
<event>
 5   0  0.4133418E-05  0.2278105E+04  0.7818609E-02  0.8486604E-01
        1   -1    0    0  501    0  0.00000000000E+00  0.00000000000E+00  0.92172877679E+03  0.92172877681E+03  0.50400001928E-02 0. -1.
       -1   -1    0    0    0  501  0.00000000000E+00  0.00000000000E+00 -0.14076159803E+04  0.14076159803E+04  0.50400001928E-02 0.  1.
    10030    2    1    2    0    0  0.00000000000E+00  0.00000000000E+00 -0.48588720349E+03  0.23293447571E+04  0.22781046119E+04 0.  0.
        4    1    3    3  502    0 -0.86426488470E+03  0.54890002617E+03 -0.75336453197E+03  0.12711430921E+04  0.12699999809E+01 0.  1.
       -4    1    3    3    0  502  0.86426488470E+03 -0.54890002617E+03  0.26747732847E+03  0.10582016650E+04  0.12699999809E+01 0. -1.
</event>
<event>
 5   0  0.9442578E-05  0.2109513E+04  0.7818609E-02  0.8557064E-01
       -2   -1    0    0    0  501  0.00000000000E+00  0.00000000000E+00  0.63567174131E+03  0.63567174131E+03  0.25500000920E-02 0. -1.
        2   -1    0    0  501    0  0.00000000000E+00  0.00000000000E+00 -0.17501356684E+04  0.17501356684E+04  0.25500000920E-02 0.  1.
    10030    2    1    2    0    0  0.00000000000E+00  0.00000000000E+00 -0.11144639271E+04  0.23858074097E+04  0.21095134869E+04 0.  0.
        4    1    3    3  502    0 -0.36430579870E+02  0.40813115714E+03 -0.16564397435E+04  0.17063682092E+04  0.12699999809E+01 0.  1.
       -4    1    3    3    0  502  0.36430579870E+02 -0.40813115714E+03  0.54197581647E+03  0.67943920046E+03  0.12699999809E+01 0. -1.
</event>
<event>
 5   0  0.4133418E-05  0.2213527E+04  0.7818609E-02  0.8512819E-01
        1   -1    0    0  501    0  0.00000000000E+00  0.00000000000E+00  0.12130580260E+04  0.12130580260E+04  0.50400001928E-02 0.  1.
       -1   -1    0    0    0  501  0.00000000000E+00  0.00000000000E+00 -0.10097833214E+04  0.10097833214E+04  0.50400001928E-02 0. -1.
    10030    2    1    2    0    0  0.00000000000E+00  0.00000000000E+00  0.20327470457E+03  0.22228413474E+04  0.22135272869E+04 0.  0.
        4    1    3    3  502    0 -0.56432522053E+03 -0.94802659314E+03  0.13479725232E+02  0.11033588227E+04  0.12699999809E+01 0.  1.
       -4    1    3    3    0  502  0.56432522053E+03  0.94802659314E+03  0.18979497934E+03  0.11194825246E+04  0.12699999809E+01 0. -1.
</event>
<event>
 5   0  0.3283125E-05  0.2188638E+04  0.7818609E-02  0.8523172E-01
       -4   -1    0    0    0  501  0.00000000000E+00  0.00000000000E+00  0.13625468113E+04  0.13625474032E+04  0.12699999809E+01 0.  1.
        4   -1    0    0  501    0  0.00000000000E+00  0.00000000000E+00 -0.87889260208E+03  0.87889351966E+03  0.12699999809E+01 0. -1.
    10030    2    1    2    0    0  0.00000000000E+00  0.00000000000E+00  0.48365420927E+03  0.22414409229E+04  0.21886379364E+04 0.  0.
        1    1    3    3  502    0  0.31377182932E+03 -0.37980952724E+03  0.12425537986E+04  0.13366555204E+04  0.50400001928E-02 0.  1.
       -1    1    3    3    0  502 -0.31377182932E+03  0.37980952724E+03 -0.75889958930E+03  0.90478540247E+03  0.50400001928E-02 0. -1.
</event>
<event>
 5   0  0.4188865E-05  0.2134120E+04  0.7818609E-02  0.8546360E-01
       -1   -1    0    0    0  501  0.00000000000E+00  0.00000000000E+00  0.45934079486E+03  0.45934079489E+03  0.50400001928E-02 0.  1.
        1   -1    0    0  501    0  0.00000000000E+00  0.00000000000E+00 -0.24788064779E+04  0.24788064779E+04  0.50400001928E-02 0. -1.
    10030    2    1    2    0    0  0.00000000000E+00  0.00000000000E+00 -0.20194656830E+04  0.29381472728E+04  0.21341199009E+04 0.  0.
        3    1    3    3  502    0  0.89473233379E+02 -0.61279733496E+03  0.18660643653E+03  0.64679827271E+03  0.10100000352E+00 0.  1.
       -3    1    3    3    0  502 -0.89473233379E+02  0.61279733496E+03 -0.22060721195E+04  0.22913490001E+04  0.10100000352E+00 0. -1.
</event>
<event>
 5   0  0.9254673E-05  0.2195562E+04  0.7818609E-02  0.8520278E-01
        2   -1    0    0  501    0  0.00000000000E+00  0.00000000000E+00  0.15009573439E+04  0.15009573439E+04  0.25500000920E-02 0. -1.
       -2   -1    0    0    0  501  0.00000000000E+00  0.00000000000E+00 -0.80290288775E+03  0.80290288775E+03  0.25500000920E-02 0.  1.
    10030    2    1    2    0    0  0.00000000000E+00  0.00000000000E+00  0.69805445611E+03  0.23038602316E+04  0.21955618741E+04 0.  0.
        2    1    3    3  502    0  0.70096362227E+03 -0.31355210520E+03 -0.47418095809E+03  0.90250346450E+03  0.25500000920E-02 0.  1.
       -2    1    3    3    0  502 -0.70096362227E+03  0.31355210520E+03  0.11722354142E+04  0.14013567671E+04  0.25500000920E-02 0. -1.
</event>
<event>
 5   0  0.9442578E-05  0.2207934E+04  0.7818609E-02  0.8515133E-01
       -2   -1    0    0    0  501  0.00000000000E+00  0.00000000000E+00  0.91231271173E+03  0.91231271173E+03  0.25500000920E-02 0.  1.
        2   -1    0    0  501    0  0.00000000000E+00  0.00000000000E+00 -0.13358827010E+04  0.13358827010E+04  0.25500000920E-02 0. -1.
    10030    2    1    2    0    0  0.00000000000E+00  0.00000000000E+00 -0.42356998923E+03  0.22481954127E+04  0.22079336670E+04 0.  0.
        4    1    3    3  502    0  0.27779394513E+03  0.33708948223E+03 -0.12441479625E+04  0.13185994693E+04  0.12699999809E+01 0. -1.
       -4    1    3    3    0  502 -0.27779394513E+03 -0.33708948223E+03  0.82057797323E+03  0.92959594342E+03  0.12699999809E+01 0.  1.
</event>
<event>
 5   0  0.9254673E-05  0.2155286E+04  0.7818609E-02  0.8537273E-01
        2   -1    0    0  501    0  0.00000000000E+00  0.00000000000E+00  0.92865244709E+03  0.92865244710E+03  0.25500000920E-02 0. -1.
       -2   -1    0    0    0  501  0.00000000000E+00  0.00000000000E+00 -0.12505377795E+04  0.12505377795E+04  0.25500000920E-02 0.  1.
    10030    2    1    2    0    0  0.00000000000E+00  0.00000000000E+00 -0.32188533238E+03  0.21791902266E+04  0.21552864952E+04 0.  0.
        2    1    3    3  502    0 -0.46311315957E+03  0.81316762011E+03  0.37939958302E+03  0.10097818678E+04  0.25500000920E-02 0. -1.
       -2    1    3    3    0  502  0.46311315957E+03 -0.81316762011E+03 -0.70128491540E+03  0.11694083588E+04  0.25500000920E-02 0.  1.
</event>
<event>
 5   0  0.4133418E-05  0.2211664E+04  0.7818609E-02  0.8513589E-01
       -1   -1    0    0    0  501  0.00000000000E+00  0.00000000000E+00  0.98544350311E+03  0.98544350312E+03  0.50400001928E-02 0.  1.
        1   -1    0    0  501    0  0.00000000000E+00  0.00000000000E+00 -0.12409282159E+04  0.12409282160E+04  0.50400001928E-02 0. -1.
    10030    2    1    2    0    0  0.00000000000E+00  0.00000000000E+00 -0.25548471284E+03  0.22263717191E+04  0.22116642134E+04 0.  0.
        4    1    3    3  502    0  0.10770536957E+04 -0.18758668645E+03  0.39584572507E+02  0.10939844512E+04  0.12699999809E+01 0.  1.
       -4    1    3    3    0  502 -0.10770536957E+04  0.18758668645E+03 -0.29506928534E+03  0.11323872678E+04  0.12699999809E+01 0. -1.
</event>
<event>
 5   0  0.9938176E-05  0.2134738E+04  0.7818609E-02  0.8546094E-01
       -2   -1    0    0    0  501  0.00000000000E+00  0.00000000000E+00  0.73282676841E+03  0.73282676841E+03  0.25500000920E-02 0.  1.
        2   -1    0    0  501    0  0.00000000000E+00  0.00000000000E+00 -0.15546324239E+04  0.15546324239E+04  0.25500000920E-02 0. -1.
    10030    2    1    2    0    0  0.00000000000E+00  0.00000000000E+00 -0.82180565547E+03  0.22874591923E+04  0.21347376937E+04 0.  0.
        5    1    3    3  502    0 -0.17814527164E+03 -0.49374893680E+03  0.58495637926E+03  0.78595152906E+03  0.46999998093E+01 0.  1.
       -5    1    3    3    0  502  0.17814527164E+03  0.49374893680E+03 -0.14067620347E+04  0.15015076632E+04  0.46999998093E+01 0. -1.
</event>
<event>
 5   0  0.4174030E-05  0.2216277E+04  0.7818609E-02  0.8511684E-01
        1   -1    0    0  501    0  0.00000000000E+00  0.00000000000E+00  0.16943114543E+04  0.16943114543E+04  0.50400001928E-02 0.  1.
       -1   -1    0    0    0  501  0.00000000000E+00  0.00000000000E+00 -0.72476089931E+03  0.72476089933E+03  0.50400001928E-02 0. -1.
    10030    2    1    2    0    0  0.00000000000E+00  0.00000000000E+00  0.96955055501E+03  0.24190723537E+04  0.22162767818E+04 0.  0.
        2    1    3    3  502    0 -0.47896666156E+03 -0.90851934445E+03  0.30581253546E+02  0.10274977738E+04  0.25500000920E-02 0. -1.
       -2    1    3    3    0  502  0.47896666156E+03  0.90851934445E+03  0.93896930147E+03  0.13915745798E+04  0.25500000920E-02 0.  1.
</event>
<event>
 5   0  0.4063293E-05  0.2227613E+04  0.7818609E-02  0.8507022E-01
        1   -1    0    0  501    0  0.00000000000E+00  0.00000000000E+00  0.12122043918E+04  0.12122043918E+04  0.50400001928E-02 0. -1.
       -1   -1    0    0    0  501  0.00000000000E+00  0.00000000000E+00 -0.10233955761E+04  0.10233955761E+04  0.50400001928E-02 0.  1.
    10030    2    1    2    0    0  0.00000000000E+00  0.00000000000E+00  0.18880881566E+03  0.22355999679E+04  0.22276127239E+04 0.  0.
        1    1    3    3  502    0  0.46472534657E+03  0.99510904034E+03 -0.91605680506E+02  0.11020904004E+04  0.50400001928E-02 0.  1.
       -1    1    3    3    0  502 -0.46472534657E+03 -0.99510904034E+03  0.28041449617E+03  0.11335095675E+04  0.50400001928E-02 0. -1.
</event>
<event>
 5   0  0.4174075E-05  0.2178212E+04  0.7818609E-02  0.8527552E-01
       -1   -1    0    0    0  501  0.00000000000E+00  0.00000000000E+00  0.22033709702E+04  0.22033709702E+04  0.50400001928E-02 0. -1.
        1   -1    0    0  501    0  0.00000000000E+00  0.00000000000E+00 -0.53833497098E+03  0.53833497100E+03  0.50400001928E-02 0.  1.
    10030    2    1    2    0    0  0.00000000000E+00  0.00000000000E+00  0.16650359992E+04  0.27417059412E+04  0.21782117870E+04 0.  0.
        5    1    3    3  502    0  0.64205233696E+03 -0.85795711688E+03  0.10772621237E+04  0.15194858970E+04  0.46999998093E+01 0. -1.
       -5    1    3    3    0  502 -0.64205233696E+03  0.85795711688E+03  0.58777387544E+03  0.12222200442E+04  0.46999998093E+01 0.  1.
</event>
<event>
 5   0  0.4133418E-05  0.2176083E+04  0.7818609E-02  0.8528449E-01
        1   -1    0    0  501    0  0.00000000000E+00  0.00000000000E+00  0.14541277846E+04  0.14541277846E+04  0.50400001928E-02 0. -1.
       -1   -1    0    0    0  501  0.00000000000E+00  0.00000000000E+00 -0.81411968147E+03  0.81411968148E+03  0.50400001928E-02 0.  1.
    10030    2    1    2    0    0  0.00000000000E+00  0.00000000000E+00  0.64000810316E+03  0.22682474661E+04  0.21760827639E+04 0.  0.
        4    1    3    3  502    0 -0.67885047898E+03 -0.83522256796E+03  0.48612042248E+03  0.11809950842E+04  0.12699999809E+01 0.  1.
       -4    1    3    3    0  502  0.67885047898E+03  0.83522256796E+03  0.15388768068E+03  0.10872523819E+04  0.12699999809E+01 0. -1.
</event>
<event>
 5   0  0.9457742E-05  0.2147111E+04  0.7818609E-02  0.8540770E-01
       -2   -1    0    0    0  501  0.00000000000E+00  0.00000000000E+00  0.60056111403E+03  0.60056111404E+03  0.25500000920E-02 0. -1.
        2   -1    0    0  501    0  0.00000000000E+00  0.00000000000E+00 -0.19190749254E+04  0.19190749254E+04  0.25500000920E-02 0.  1.
    10030    2    1    2    0    0  0.00000000000E+00  0.00000000000E+00 -0.13185138114E+04  0.25196360394E+04  0.21471113386E+04 0.  0.
        1    1    3    3  502    0 -0.83065506099E+03 -0.82390982958E+02 -0.14514745706E+04  0.16743818363E+04  0.50400001928E-02 0.  1.
       -1    1    3    3    0  502  0.83065506099E+03  0.82390982958E+02  0.13296075928E+03  0.84525420315E+03  0.50400001928E-02 0. -1.
</event>
<event>
 5   0  0.4063293E-05  0.2202756E+04  0.7818609E-02  0.8517282E-01
       -1   -1    0    0    0  501  0.00000000000E+00  0.00000000000E+00  0.99269017517E+03  0.99269017518E+03  0.50400001928E-02 0.  1.
        1   -1    0    0  501    0  0.00000000000E+00  0.00000000000E+00 -0.12219656084E+04  0.12219656084E+04  0.50400001928E-02 0. -1.
    10030    2    1    2    0    0  0.00000000000E+00  0.00000000000E+00 -0.22927543320E+03  0.22146557836E+04  0.22027557775E+04 0.  0.
        1    1    3    3  502    0  0.35984296213E+02  0.94366575376E+03 -0.68447411362E+03  0.11663210264E+04  0.50400001928E-02 0. -1.
       -1    1    3    3    0  502 -0.35984296213E+02 -0.94366575376E+03  0.45519868041E+03  0.10483347572E+04  0.50400001928E-02 0.  1.
</event>
<event>
 5   0  0.9179618E-05  0.2165412E+04  0.7818609E-02  0.8532964E-01
        2   -1    0    0  501    0  0.00000000000E+00  0.00000000000E+00  0.11871540277E+04  0.11871540277E+04  0.25500000920E-02 0.  1.
       -2   -1    0    0    0  501  0.00000000000E+00  0.00000000000E+00 -0.98744793548E+03  0.98744793548E+03  0.25500000920E-02 0. -1.
    10030    2    1    2    0    0  0.00000000000E+00  0.00000000000E+00  0.19970609217E+03  0.21746019631E+04  0.21654124722E+04 0.  0.
        3    1    3    3  502    0  0.58233007010E+03 -0.61038087705E+02 -0.81473619022E+03  0.10033090394E+04  0.10100000352E+00 0. -1.
       -3    1    3    3    0  502 -0.58233007010E+03  0.61038087705E+02  0.10144422824E+04  0.11712929237E+04  0.10100000352E+00 0.  1.
</event>
<event>
 5   0  0.9457742E-05  0.2211551E+04  0.7818609E-02  0.8513636E-01
        2   -1    0    0  501    0  0.00000000000E+00  0.00000000000E+00  0.14415191472E+04  0.14415191472E+04  0.25500000920E-02 0. -1.
       -2   -1    0    0    0  501  0.00000000000E+00  0.00000000000E+00 -0.84822990087E+03  0.84822990088E+03  0.25500000920E-02 0.  1.
    10030    2    1    2    0    0  0.00000000000E+00  0.00000000000E+00  0.59328924635E+03  0.22897490481E+04  0.22115511691E+04 0.  0.
        1    1    3    3  502    0  0.65057140357E+03 -0.82623217659E+03 -0.57255631579E+02  0.10531766082E+04  0.50400001928E-02 0.  1.
       -1    1    3    3    0  502 -0.65057140357E+03  0.82623217659E+03  0.65054487793E+03  0.12365724399E+04  0.50400001928E-02 0. -1.
</event>
<event>
 5   0  0.9457742E-05  0.2254377E+04  0.7818609E-02  0.8496130E-01
       -2   -1    0    0    0  501  0.00000000000E+00  0.00000000000E+00  0.83609760182E+03  0.83609760183E+03  0.25500000920E-02 0. -1.
        2   -1    0    0  501    0  0.00000000000E+00  0.00000000000E+00 -0.15196245223E+04  0.15196245223E+04  0.25500000920E-02 0.  1.
    10030    2    1    2    0    0  0.00000000000E+00  0.00000000000E+00 -0.68352692050E+03  0.23557221242E+04  0.22543774474E+04 0.  0.
        1    1    3    3  502    0  0.87449965666E+02  0.15381403781E+03  0.82149594246E+03  0.84033436097E+03  0.50400001928E-02 0. -1.
       -1    1    3    3    0  502 -0.87449965666E+02 -0.15381403781E+03 -0.15050228630E+04  0.15153877632E+04  0.50400001928E-02 0.  1.
</event>
<event>
 5   0  0.9938176E-05  0.2190681E+04  0.7818609E-02  0.8522317E-01
       -2   -1    0    0    0  501  0.00000000000E+00  0.00000000000E+00  0.11459822462E+04  0.11459822462E+04  0.25500000920E-02 0.  1.
        2   -1    0    0  501    0  0.00000000000E+00  0.00000000000E+00 -0.10469367790E+04  0.10469367790E+04  0.25500000920E-02 0. -1.
    10030    2    1    2    0    0  0.00000000000E+00  0.00000000000E+00  0.99045467210E+02  0.21929190251E+04  0.21906811375E+04 0.  0.
        5    1    3    3  502    0  0.20125396862E+03  0.54659404238E+03 -0.87904584674E+03  0.10545197474E+04  0.46999998093E+01 0. -1.
       -5    1    3    3    0  502 -0.20125396862E+03 -0.54659404238E+03  0.97809131395E+03  0.11383992777E+04  0.46999998093E+01 0.  1.
</event>
<event>
 5   0  0.4174075E-05  0.2212525E+04  0.7818609E-02  0.8513233E-01
       -1   -1    0    0    0  501  0.00000000000E+00  0.00000000000E+00  0.15022133862E+04  0.15022133862E+04  0.50400001928E-02 0. -1.
        1   -1    0    0  501    0  0.00000000000E+00  0.00000000000E+00 -0.81467540423E+03  0.81467540425E+03  0.50400001928E-02 0.  1.
    10030    2    1    2    0    0  0.00000000000E+00  0.00000000000E+00  0.68753798194E+03  0.23168887904E+04  0.22125246192E+04 0.  0.
        5    1    3    3  502    0 -0.28221263687E+03  0.37919105803E+03 -0.70359149581E+03  0.84763961321E+03  0.46999998093E+01 0.  1.
       -5    1    3    3    0  502  0.28221263687E+03 -0.37919105803E+03  0.13911294777E+04  0.14692491772E+04  0.46999998093E+01 0. -1.
</event>
<event>
 5   0  0.9179618E-05  0.2200774E+04  0.7818609E-02  0.8518106E-01
        2   -1    0    0  501    0  0.00000000000E+00  0.00000000000E+00  0.18049549811E+04  0.18049549811E+04  0.25500000920E-02 0.  1.
       -2   -1    0    0    0  501  0.00000000000E+00  0.00000000000E+00 -0.67084885605E+03  0.67084885605E+03  0.25500000920E-02 0. -1.
    10030    2    1    2    0    0  0.00000000000E+00  0.00000000000E+00  0.11341061251E+04  0.24758038372E+04  0.22007743949E+04 0.  0.
        3    1    3    3  502    0  0.22987237197E+03  0.97547213269E+03  0.55885012039E+02  0.10037481426E+04  0.10100000352E+00 0. -1.
       -3    1    3    3    0  502 -0.22987237197E+03 -0.97547213269E+03  0.10782211131E+04  0.14720556946E+04  0.10100000352E+00 0.  1.
</event>
<event>
 5   0  0.4174030E-05  0.2161884E+04  0.7818609E-02  0.8534462E-01
        1   -1    0    0  501    0  0.00000000000E+00  0.00000000000E+00  0.12046998360E+04  0.12046998360E+04  0.50400001928E-02 0. -1.
       -1   -1    0    0    0  501  0.00000000000E+00  0.00000000000E+00 -0.96989772217E+03  0.96989772218E+03  0.50400001928E-02 0.  1.
    10030    2    1    2    0    0  0.00000000000E+00  0.00000000000E+00  0.23480211381E+03  0.21745975582E+04  0.21618840180E+04 0.  0.
        2    1    3    3  502    0  0.13970849378E+03  0.79679120549E+03  0.83858385455E+03  0.11651684726E+04  0.25500000920E-02 0. -1.
       -2    1    3    3    0  502 -0.13970849378E+03 -0.79679120549E+03 -0.60378174074E+03  0.10094290856E+04  0.25500000920E-02 0.  1.
</event>
<event>
 5   0  0.4063293E-05  0.2202312E+04  0.7818609E-02  0.8517466E-01
       -1   -1    0    0    0  501  0.00000000000E+00  0.00000000000E+00  0.17702712503E+04  0.17702712503E+04  0.50400001928E-02 0. -1.
        1   -1    0    0  501    0  0.00000000000E+00  0.00000000000E+00 -0.68494856355E+03  0.68494856356E+03  0.50400001928E-02 0.  1.
    10030    2    1    2    0    0  0.00000000000E+00  0.00000000000E+00  0.10853226867E+04  0.24552198138E+04  0.22023121940E+04 0.  0.
        1    1    3    3  502    0  0.53196295871E+03  0.75568242871E+03 -0.12484998016E+03  0.93253849255E+03  0.50400001928E-02 0.  1.
       -1    1    3    3    0  502 -0.53196295871E+03 -0.75568242871E+03  0.12101726669E+04  0.15226813213E+04  0.50400001928E-02 0. -1.
</event>
<event>
 5   0  0.4188865E-05  0.2199355E+04  0.7818609E-02  0.8518697E-01
       -1   -1    0    0    0  501  0.00000000000E+00  0.00000000000E+00  0.53662655090E+03  0.53662655092E+03  0.50400001928E-02 0. -1.
        1   -1    0    0  501    0  0.00000000000E+00  0.00000000000E+00 -0.22535051729E+04  0.22535051730E+04  0.50400001928E-02 0.  1.
    10030    2    1    2    0    0  0.00000000000E+00  0.00000000000E+00 -0.17168786220E+04  0.27901317239E+04  0.21993550950E+04 0.  0.
        3    1    3    3  502    0  0.43300580504E+02  0.10522756801E+04 -0.45700448939E+03  0.11480471074E+04  0.10100000352E+00 0. -1.
       -3    1    3    3    0  502 -0.43300580504E+02 -0.10522756801E+04 -0.12598741327E+04  0.16420846165E+04  0.10100000352E+00 0.  1.
</event>
<event>
 5   0  0.4188865E-05  0.2195116E+04  0.7818609E-02  0.8520464E-01
        1   -1    0    0  501    0  0.00000000000E+00  0.00000000000E+00  0.13227667236E+04  0.13227667236E+04  0.50400001928E-02 0.  1.
       -1   -1    0    0    0  501  0.00000000000E+00  0.00000000000E+00 -0.91069247443E+03  0.91069247445E+03  0.50400001928E-02 0. -1.
    10030    2    1    2    0    0  0.00000000000E+00  0.00000000000E+00  0.41207424917E+03  0.22334591981E+04  0.21951161251E+04 0.  0.
        3    1    3    3  502    0 -0.96013227073E+03  0.39500771796E+03  0.56827356346E+03  0.11835623886E+04  0.10100000352E+00 0. -1.
       -3    1    3    3    0  502  0.96013227073E+03 -0.39500771796E+03 -0.15619931430E+03  0.10498968095E+04  0.10100000352E+00 0.  1.
</event>
<event>
 5   0  0.9254673E-05  0.2223954E+04  0.7818609E-02  0.8508523E-01
       -2   -1    0    0    0  501  0.00000000000E+00  0.00000000000E+00  0.84442859147E+03  0.84442859147E+03  0.25500000920E-02 0.  1.
        2   -1    0    0  501    0  0.00000000000E+00  0.00000000000E+00 -0.14642958541E+04  0.14642958541E+04  0.25500000920E-02 0. -1.
    10030    2    1    2    0    0  0.00000000000E+00  0.00000000000E+00 -0.61986726267E+03  0.23087244456E+04  0.22239543931E+04 0.  0.
        2    1    3    3  502    0  0.57985334399E+03 -0.92521958909E+02  0.67036039470E+03  0.89116399849E+03  0.25500000920E-02 0. -1.
       -2    1    3    3    0  502 -0.57985334399E+03  0.92521958909E+02 -0.12902276574E+04  0.14175604471E+04  0.25500000920E-02 0.  1.
</event>
<event>
 5   0  0.4174075E-05  0.2191281E+04  0.7818609E-02  0.8522066E-01
       -1   -1    0    0    0  501  0.00000000000E+00  0.00000000000E+00  0.72404238012E+03  0.72404238014E+03  0.50400001928E-02 0.  1.
        1   -1    0    0  501    0  0.00000000000E+00  0.00000000000E+00 -0.16579526389E+04  0.16579526389E+04  0.50400001928E-02 0. -1.
    10030    2    1    2    0    0  0.00000000000E+00  0.00000000000E+00 -0.93391025876E+03  0.23819950190E+04  0.21912808810E+04 0.  0.
        5    1    3    3  502    0 -0.73968898331E+02  0.68539244394E+03 -0.13926401127E+04  0.15539313928E+04  0.46999998093E+01 0. -1.
       -5    1    3    3    0  502  0.73968898331E+02 -0.68539244394E+03  0.45872985394E+03  0.82806362619E+03  0.46999998093E+01 0.  1.
</event>
<event>
 5   0  0.9938176E-05  0.2233009E+04  0.7818609E-02  0.8504813E-01
       -2   -1    0    0    0  501  0.00000000000E+00  0.00000000000E+00  0.57122459637E+03  0.57122459637E+03  0.25500000920E-02 0.  1.
        2   -1    0    0  501    0  0.00000000000E+00  0.00000000000E+00 -0.21822989065E+04  0.21822989065E+04  0.25500000920E-02 0. -1.
    10030    2    1    2    0    0  0.00000000000E+00  0.00000000000E+00 -0.16110743102E+04  0.27535235029E+04  0.22330094599E+04 0.  0.
        5    1    3    3  502    0  0.62264338312E+03  0.71116628022E+01  0.33721133431E+03  0.70814471139E+03  0.46999998093E+01 0.  1.
       -5    1    3    3    0  502 -0.62264338312E+03 -0.71116628022E+01 -0.19482856445E+04  0.20453787915E+04  0.46999998093E+01 0. -1.
</event>
<event>
 5   0  0.4174030E-05  0.2188604E+04  0.7818609E-02  0.8523186E-01
       -1   -1    0    0    0  501  0.00000000000E+00  0.00000000000E+00  0.95972585564E+03  0.95972585566E+03  0.50400001928E-02 0. -1.
        1   -1    0    0  501    0  0.00000000000E+00  0.00000000000E+00 -0.12477487524E+04  0.12477487524E+04  0.50400001928E-02 0.  1.
    10030    2    1    2    0    0  0.00000000000E+00  0.00000000000E+00 -0.28802289673E+03  0.22074746080E+04  0.21886038829E+04 0.  0.
        2    1    3    3  502    0 -0.86681555165E+03  0.31103593518E+03 -0.74019525120E+03  0.11815251007E+04  0.25500000920E-02 0.  1.
       -2    1    3    3    0  502  0.86681555165E+03 -0.31103593518E+03  0.45217235447E+03  0.10259495074E+04  0.25500000920E-02 0. -1.
</event>
<event>
 5   0  0.4174030E-05  0.2210636E+04  0.7818609E-02  0.8514014E-01
        1   -1    0    0  501    0  0.00000000000E+00  0.00000000000E+00  0.11562513363E+04  0.11562513363E+04  0.50400001928E-02 0. -1.
       -1   -1    0    0    0  501  0.00000000000E+00  0.00000000000E+00 -0.10566282441E+04  0.10566282441E+04  0.50400001928E-02 0.  1.
    10030    2    1    2    0    0  0.00000000000E+00  0.00000000000E+00  0.99623092163E+02  0.22128795804E+04  0.22106359440E+04 0.  0.
        2    1    3    3  502    0  0.99891291988E+03  0.39151901632E+02  0.52184918256E+03  0.11276907653E+04  0.25500000920E-02 0. -1.
       -2    1    3    3    0  502 -0.99891291988E+03 -0.39151901632E+02 -0.42222609040E+03  0.10851888151E+04  0.25500000920E-02 0.  1.
</event>
<event>
 5   0  0.4063293E-05  0.2145694E+04  0.7818609E-02  0.8541378E-01
       -1   -1    0    0    0  501  0.00000000000E+00  0.00000000000E+00  0.13805986013E+04  0.13805986013E+04  0.50400001928E-02 0. -1.
        1   -1    0    0  501    0  0.00000000000E+00  0.00000000000E+00 -0.83369685066E+03  0.83369685067E+03  0.50400001928E-02 0.  1.
    10030    2    1    2    0    0  0.00000000000E+00  0.00000000000E+00  0.54690175063E+03  0.22142954520E+04  0.21456940191E+04 0.  0.
        1    1    3    3  502    0 -0.10805096586E+03  0.11635461752E+03  0.13684050644E+04  0.13775869586E+04  0.50400001928E-02 0. -1.
       -1    1    3    3    0  502  0.10805096586E+03 -0.11635461752E+03 -0.82150331378E+03  0.83670849334E+03  0.50400001928E-02 0.  1.
</event>
<event>
 5   0  0.4174030E-05  0.2192546E+04  0.7818609E-02  0.8521537E-01
       -1   -1    0    0    0  501  0.00000000000E+00  0.00000000000E+00  0.10530830329E+04  0.10530830329E+04  0.50400001928E-02 0.  1.
        1   -1    0    0  501    0  0.00000000000E+00  0.00000000000E+00 -0.11412343272E+04  0.11412343272E+04  0.50400001928E-02 0. -1.
    10030    2    1    2    0    0  0.00000000000E+00  0.00000000000E+00 -0.88151294266E+02  0.21943173602E+04  0.21925460147E+04 0.  0.
        2    1    3    3  502    0  0.25919809378E+03 -0.10894602653E+03  0.10163848643E+04  0.10545572915E+04  0.25500000920E-02 0.  1.
       -2    1    3    3    0  502 -0.25919809378E+03  0.10894602653E+03 -0.11045361586E+04  0.11397600687E+04  0.25500000920E-02 0. -1.
</event>
<event>
 5   0  0.9457742E-05  0.2205029E+04  0.7818609E-02  0.8516338E-01
       -2   -1    0    0    0  501  0.00000000000E+00  0.00000000000E+00  0.44407969772E+03  0.44407969772E+03  0.25500000920E-02 0.  1.
        2   -1    0    0  501    0  0.00000000000E+00  0.00000000000E+00 -0.27372082044E+04  0.27372082044E+04  0.25500000920E-02 0. -1.
    10030    2    1    2    0    0  0.00000000000E+00  0.00000000000E+00 -0.22931285067E+04  0.31812879022E+04  0.22050293350E+04 0.  0.
        1    1    3    3  502    0  0.78828121614E+03 -0.41162766396E+03 -0.20632823944E+03  0.91290522611E+03  0.50400001928E-02 0.  1.
       -1    1    3    3    0  502 -0.78828121614E+03  0.41162766396E+03 -0.20868002673E+04  0.22683826761E+04  0.50400001928E-02 0. -1.
</event>
<event>
 5   0  0.9457742E-05  0.2235094E+04  0.7818609E-02  0.8503961E-01
       -2   -1    0    0    0  501  0.00000000000E+00  0.00000000000E+00  0.16091342767E+04  0.16091342767E+04  0.25500000920E-02 0. -1.
        2   -1    0    0  501    0  0.00000000000E+00  0.00000000000E+00 -0.77613887636E+03  0.77613887636E+03  0.25500000920E-02 0.  1.
    10030    2    1    2    0    0  0.00000000000E+00  0.00000000000E+00  0.83299540036E+03  0.23852731531E+04  0.22350943331E+04 0.  0.
        1    1    3    3  502    0 -0.61738072306E+02 -0.20471699093E+03  0.15871004934E+04  0.16014395437E+04  0.50400001928E-02 0. -1.
       -1    1    3    3    0  502  0.61738072306E+02  0.20471699093E+03 -0.75410509300E+03  0.78383360942E+03  0.50400001928E-02 0.  1.
</event>
<event>
 5   0  0.3283125E-05  0.1716954E+04  0.7818609E-02  0.8751753E-01
        3   -1    0    0  501    0  0.00000000000E+00  0.00000000000E+00  0.11113497407E+04  0.11113497453E+04  0.10100000352E+00 0.  1.
       -3   -1    0    0    0  501  0.00000000000E+00  0.00000000000E+00 -0.66314235952E+03  0.66314236721E+03  0.10100000352E+00 0. -1.
    10030    2    1    2    0    0  0.00000000000E+00  0.00000000000E+00  0.44820738118E+03  0.17744921125E+04  0.17169543968E+04 0.  0.
        4    1    3    3  502    0 -0.56632233319E+03  0.62753172393E+03  0.37900785342E+03  0.92637228773E+03  0.12699999809E+01 0. -1.
       -4    1    3    3    0  502  0.56632233319E+03 -0.62753172393E+03  0.69199527751E+02  0.84811982476E+03  0.12699999809E+01 0.  1.
</event>
<event>
 5   0  0.4133418E-05  0.2198769E+04  0.7818609E-02  0.8518941E-01
        1   -1    0    0  501    0  0.00000000000E+00  0.00000000000E+00  0.15165563496E+04  0.15165563496E+04  0.50400001928E-02 0. -1.
       -1   -1    0    0    0  501  0.00000000000E+00  0.00000000000E+00 -0.79696735073E+03  0.79696735075E+03  0.50400001928E-02 0.  1.
    10030    2    1    2    0    0  0.00000000000E+00  0.00000000000E+00  0.71958899888E+03  0.23135237004E+04  0.21987686520E+04 0.  0.
        4    1    3    3  502    0  0.36114002254E+03 -0.20130969351E+03  0.14316336294E+04  0.14901423322E+04  0.12699999809E+01 0. -1.
       -4    1    3    3    0  502 -0.36114002254E+03  0.20130969351E+03 -0.71204463054E+03  0.82338136812E+03  0.12699999809E+01 0.  1.
</event>
<event>
 5   0  0.9938176E-05  0.2185073E+04  0.7818609E-02  0.8524667E-01
        2   -1    0    0  501    0  0.00000000000E+00  0.00000000000E+00  0.25473369734E+04  0.25473369734E+04  0.25500000920E-02 0.  1.
       -2   -1    0    0    0  501  0.00000000000E+00  0.00000000000E+00 -0.46858169878E+03  0.46858169879E+03  0.25500000920E-02 0. -1.
    10030    2    1    2    0    0  0.00000000000E+00  0.00000000000E+00  0.20787552746E+04  0.30159186722E+04  0.21850725264E+04 0.  0.
        5    1    3    3  502    0 -0.74651603885E+03  0.65515591572E+03  0.16674962237E+04  0.19408970133E+04  0.46999998093E+01 0.  1.
       -5    1    3    3    0  502  0.74651603885E+03 -0.65515591572E+03  0.41125905095E+03  0.10750216589E+04  0.46999998093E+01 0. -1.
</event>
<event>
 5   0  0.4174075E-05  0.1965624E+04  0.7818609E-02  0.8622864E-01
       -1   -1    0    0    0  501  0.00000000000E+00  0.00000000000E+00  0.76842734349E+03  0.76842734350E+03  0.50400001928E-02 0.  1.
        1   -1    0    0  501    0  0.00000000000E+00  0.00000000000E+00 -0.12570075441E+04  0.12570075441E+04  0.50400001928E-02 0. -1.
    10030    2    1    2    0    0  0.00000000000E+00  0.00000000000E+00 -0.48858020064E+03  0.20254348876E+04  0.19656235325E+04 0.  0.
        5    1    3    3  502    0  0.43868042799E+03 -0.74877047767E+03  0.23104826605E+03  0.89805519729E+03  0.46999998093E+01 0.  1.
       -5    1    3    3    0  502 -0.43868042799E+03  0.74877047767E+03 -0.71962846669E+03  0.11273796903E+04  0.46999998093E+01 0. -1.
</event>
<event>
 5   0  0.4174030E-05  0.2215524E+04  0.7818609E-02  0.8511995E-01
       -1   -1    0    0    0  501  0.00000000000E+00  0.00000000000E+00  0.10753937449E+04  0.10753937449E+04  0.50400001928E-02 0. -1.
        1   -1    0    0  501    0  0.00000000000E+00  0.00000000000E+00 -0.11411040195E+04  0.11411040195E+04  0.50400001928E-02 0.  1.
    10030    2    1    2    0    0  0.00000000000E+00  0.00000000000E+00 -0.65710274632E+02  0.22164977644E+04  0.22155235271E+04 0.  0.
        2    1    3    3  502    0  0.23804847966E+03  0.26770890107E+02 -0.11148816377E+04  0.11403266310E+04  0.25500000920E-02 0.  1.
       -2    1    3    3    0  502 -0.23804847966E+03 -0.26770890107E+02  0.10491713631E+04  0.10761711334E+04  0.25500000920E-02 0. -1.
</event>
<event>
 5   0  0.9938176E-05  0.2185154E+04  0.7818609E-02  0.8524633E-01
        2   -1    0    0  501    0  0.00000000000E+00  0.00000000000E+00  0.15587393218E+04  0.15587393218E+04  0.25500000920E-02 0.  1.
       -2   -1    0    0    0  501  0.00000000000E+00  0.00000000000E+00 -0.76582712059E+03  0.76582712060E+03  0.25500000920E-02 0. -1.
    10030    2    1    2    0    0  0.00000000000E+00  0.00000000000E+00  0.79291220120E+03  0.23245664424E+04  0.21851543164E+04 0.  0.
        5    1    3    3  502    0  0.15211101951E+03 -0.42456342732E+03 -0.66217739007E+03  0.80118215906E+03  0.46999998093E+01 0. -1.
       -5    1    3    3    0  502 -0.15211101951E+03  0.42456342732E+03  0.14550895913E+04  0.15233842833E+04  0.46999998093E+01 0.  1.
</event>
<event>
 5   0  0.9457742E-05  0.2189645E+04  0.7818609E-02  0.8522750E-01
       -2   -1    0    0    0  501  0.00000000000E+00  0.00000000000E+00  0.12124476911E+04  0.12124476911E+04  0.25500000920E-02 0. -1.
        2   -1    0    0  501    0  0.00000000000E+00  0.00000000000E+00 -0.98860875365E+03  0.98860875365E+03  0.25500000920E-02 0.  1.
    10030    2    1    2    0    0  0.00000000000E+00  0.00000000000E+00  0.22383893747E+03  0.22010564448E+04  0.21896450861E+04 0.  0.
        1    1    3    3  502    0  0.17906077102E+03  0.36454681225E+03 -0.91007925838E+03  0.99659489995E+03  0.50400001928E-02 0.  1.
       -1    1    3    3    0  502 -0.17906077102E+03 -0.36454681225E+03  0.11339181959E+04  0.12044615448E+04  0.50400001928E-02 0. -1.
</event>
<event>
 5   0  0.4174030E-05  0.2170402E+04  0.7818609E-02  0.8530849E-01
       -1   -1    0    0    0  501  0.00000000000E+00  0.00000000000E+00  0.95192884318E+03  0.95192884319E+03  0.50400001928E-02 0. -1.
        1   -1    0    0  501    0  0.00000000000E+00  0.00000000000E+00 -0.12371313523E+04  0.12371313523E+04  0.50400001928E-02 0.  1.
    10030    2    1    2    0    0  0.00000000000E+00  0.00000000000E+00 -0.28520250916E+03  0.21890601955E+04  0.21704018219E+04 0.  0.
        2    1    3    3  502    0 -0.34419928143E+03  0.20394298435E+02  0.89521094405E+03  0.95931835545E+03  0.25500000920E-02 0. -1.
       -2    1    3    3    0  502  0.34419928143E+03 -0.20394298435E+02 -0.11804134532E+04  0.12297418401E+04  0.25500000920E-02 0.  1.
</event>
<event>
 5   0  0.4174075E-05  0.2194700E+04  0.7818609E-02  0.8520637E-01
       -1   -1    0    0    0  501  0.00000000000E+00  0.00000000000E+00  0.87279322409E+03  0.87279322410E+03  0.50400001928E-02 0.  1.
        1   -1    0    0  501    0  0.00000000000E+00  0.00000000000E+00 -0.13796816436E+04  0.13796816436E+04  0.50400001928E-02 0. -1.
    10030    2    1    2    0    0  0.00000000000E+00  0.00000000000E+00 -0.50688841951E+03  0.22524748677E+04  0.21946997881E+04 0.  0.
        5    1    3    3  502    0  0.11558471651E+03  0.10515724292E+04  0.45761248333E+02  0.10589053699E+04  0.46999998093E+01 0.  1.
       -5    1    3    3    0  502 -0.11558471651E+03 -0.10515724292E+04 -0.55264966785E+03  0.11935694978E+04  0.46999998093E+01 0. -1.
</event>
<event>
 5   0  0.4188865E-05  0.2189336E+04  0.7818609E-02  0.8522880E-01
        1   -1    0    0  501    0  0.00000000000E+00  0.00000000000E+00  0.16430695840E+04  0.16430695840E+04  0.50400001928E-02 0. -1.
       -1   -1    0    0    0  501  0.00000000000E+00  0.00000000000E+00 -0.72930465334E+03  0.72930465336E+03  0.50400001928E-02 0.  1.
    10030    2    1    2    0    0  0.00000000000E+00  0.00000000000E+00  0.91376493070E+03  0.23723742374E+04  0.21893362404E+04 0.  0.
        3    1    3    3  502    0 -0.21225032635E+02  0.16613377195E+03  0.16291036519E+04  0.16376903404E+04  0.10100000352E+00 0. -1.
       -3    1    3    3    0  502  0.21225032635E+02 -0.16613377195E+03 -0.71533872123E+03  0.73468389698E+03  0.10100000352E+00 0.  1.
</event>
<event>
 5   0  0.4188865E-05  0.2074449E+04  0.7818609E-02  0.8572583E-01
        1   -1    0    0  501    0  0.00000000000E+00  0.00000000000E+00  0.15404153794E+04  0.15404153794E+04  0.50400001928E-02 0. -1.
       -1   -1    0    0    0  501  0.00000000000E+00  0.00000000000E+00 -0.69840540760E+03  0.69840540762E+03  0.50400001928E-02 0.  1.
    10030    2    1    2    0    0  0.00000000000E+00  0.00000000000E+00  0.84200997178E+03  0.22388207870E+04  0.20744487759E+04 0.  0.
        3    1    3    3  502    0  0.43509040489E+02  0.91940522168E+03 -0.95040963567E+02  0.92532793820E+03  0.10100000352E+00 0.  1.
       -3    1    3    3    0  502 -0.43509040489E+02 -0.91940522168E+03  0.93705093535E+03  0.13134928488E+04  0.10100000352E+00 0. -1.
</event>
<event>
 5   0  0.4174075E-05  0.2190649E+04  0.7818609E-02  0.8522330E-01
       -1   -1    0    0    0  501  0.00000000000E+00  0.00000000000E+00  0.10167623340E+04  0.10167623341E+04  0.50400001928E-02 0. -1.
        1   -1    0    0  501    0  0.00000000000E+00  0.00000000000E+00 -0.11799567761E+04  0.11799567761E+04  0.50400001928E-02 0.  1.
    10030    2    1    2    0    0  0.00000000000E+00  0.00000000000E+00 -0.16319444208E+03  0.21967191102E+04  0.21906488589E+04 0.  0.
        5    1    3    3  502    0 -0.92983554421E+03 -0.18435286362E+03 -0.63187404372E+03  0.11392396652E+04  0.46999998093E+01 0.  1.
       -5    1    3    3    0  502  0.92983554421E+03  0.18435286362E+03  0.46867960164E+03  0.10574794450E+04  0.46999998093E+01 0. -1.
</event>
<event>
 5   0  0.4133418E-05  0.1948542E+04  0.7818609E-02  0.8631064E-01
       -1   -1    0    0    0  501  0.00000000000E+00  0.00000000000E+00  0.10474969185E+04  0.10474969185E+04  0.50400001928E-02 0. -1.
        1   -1    0    0  501    0  0.00000000000E+00  0.00000000000E+00 -0.90616416950E+03  0.90616416951E+03  0.50400001928E-02 0.  1.
    10030    2    1    2    0    0  0.00000000000E+00  0.00000000000E+00  0.14133274901E+03  0.19536610880E+04  0.19485421989E+04 0.  0.
        4    1    3    3  502    0  0.22132718172E+03  0.34120194466E+03 -0.81698311351E+03  0.91261575105E+03  0.12699999809E+01 0.  1.
       -4    1    3    3    0  502 -0.22132718172E+03 -0.34120194466E+03  0.95831586252E+03  0.10410453370E+04  0.12699999809E+01 0. -1.
</event>
<event>
 5   0  0.4174075E-05  0.2206388E+04  0.7818609E-02  0.8515774E-01
       -1   -1    0    0    0  501  0.00000000000E+00  0.00000000000E+00  0.78394694854E+03  0.78394694856E+03  0.50400001928E-02 0.  1.
        1   -1    0    0  501    0  0.00000000000E+00  0.00000000000E+00 -0.15524486269E+04  0.15524486269E+04  0.50400001928E-02 0. -1.
    10030    2    1    2    0    0  0.00000000000E+00  0.00000000000E+00 -0.76850167838E+03  0.23363955755E+04  0.22063883284E+04 0.  0.
        5    1    3    3  502    0  0.45372266478E+03 -0.86069163227E+03 -0.93485107203E+03  0.13493046206E+04  0.46999998093E+01 0. -1.
       -5    1    3    3    0  502 -0.45372266478E+03  0.86069163227E+03  0.16634939365E+03  0.98709095486E+03  0.46999998093E+01 0.  1.
</event>
<event>
 5   0  0.9442578E-05  0.2208892E+04  0.7818609E-02  0.8514736E-01
       -2   -1    0    0    0  501  0.00000000000E+00  0.00000000000E+00  0.87333787876E+03  0.87333787876E+03  0.25500000920E-02 0.  1.
        2   -1    0    0  501    0  0.00000000000E+00  0.00000000000E+00 -0.13967113608E+04  0.13967113608E+04  0.25500000920E-02 0. -1.
    10030    2    1    2    0    0  0.00000000000E+00  0.00000000000E+00 -0.52337348205E+03  0.22700492396E+04  0.22088919730E+04 0.  0.
        4    1    3    3  502    0  0.69249283456E+02  0.51288921985E+03 -0.12643786941E+04  0.13662012699E+04  0.12699999809E+01 0. -1.
       -4    1    3    3    0  502 -0.69249283456E+02 -0.51288921985E+03  0.74100521201E+03  0.90384796964E+03  0.12699999809E+01 0.  1.
</event>
<event>
 5   0  0.4174075E-05  0.2207388E+04  0.7818609E-02  0.8515360E-01
       -1   -1    0    0    0  501  0.00000000000E+00  0.00000000000E+00  0.78666985695E+03  0.78666985697E+03  0.50400001928E-02 0. -1.
        1   -1    0    0  501    0  0.00000000000E+00  0.00000000000E+00 -0.15484768441E+04  0.15484768441E+04  0.50400001928E-02 0.  1.
    10030    2    1    2    0    0  0.00000000000E+00  0.00000000000E+00 -0.76180698715E+03  0.23351467011E+04  0.22073876483E+04 0.  0.
        5    1    3    3  502    0 -0.91860248385E+01 -0.68504159942E+03  0.53448287453E+03  0.86894212071E+03  0.46999998093E+01 0.  1.
       -5    1    3    3    0  502  0.91860248385E+01  0.68504159942E+03 -0.12962898617E+04  0.14662045804E+04  0.46999998093E+01 0. -1.
</event>
<event>
 5   0  0.9179618E-05  0.2184751E+04  0.7818609E-02  0.8524802E-01
       -2   -1    0    0    0  501  0.00000000000E+00  0.00000000000E+00  0.51044061258E+03  0.51044061259E+03  0.25500000920E-02 0. -1.
        2   -1    0    0  501    0  0.00000000000E+00  0.00000000000E+00 -0.23377540751E+04  0.23377540751E+04  0.25500000920E-02 0.  1.
    10030    2    1    2    0    0  0.00000000000E+00  0.00000000000E+00 -0.18273134626E+04  0.28481946877E+04  0.21847513563E+04 0.  0.
        3    1    3    3  502    0 -0.62863452756E+03  0.74863101515E+03 -0.27811950889E+03  0.10163563536E+04  0.10100000352E+00 0. -1.
       -3    1    3    3    0  502  0.62863452756E+03 -0.74863101515E+03 -0.15491939537E+04  0.18318383341E+04  0.10100000352E+00 0.  1.
</event>
<event>
 5   0  0.9179618E-05  0.2214534E+04  0.7818609E-02  0.8512403E-01
        2   -1    0    0  501    0  0.00000000000E+00  0.00000000000E+00  0.17699892013E+04  0.17699892013E+04  0.25500000920E-02 0. -1.
       -2   -1    0    0    0  501  0.00000000000E+00  0.00000000000E+00 -0.69268216909E+03  0.69268216910E+03  0.25500000920E-02 0.  1.
    10030    2    1    2    0    0  0.00000000000E+00  0.00000000000E+00  0.10773070322E+04  0.24626713704E+04  0.22145337742E+04 0.  0.
        3    1    3    3  502    0  0.91141607962E+03  0.11062994784E+03  0.12269769023E+04  0.15324459484E+04  0.10100000352E+00 0. -1.
       -3    1    3    3    0  502 -0.91141607962E+03 -0.11062994784E+03 -0.14966987015E+03  0.93022542202E+03  0.10100000352E+00 0.  1.
</event>
<event>
 5   0  0.4174030E-05  0.2191746E+04  0.7818609E-02  0.8521871E-01
        1   -1    0    0  501    0  0.00000000000E+00  0.00000000000E+00  0.17076952729E+04  0.17076952729E+04  0.50400001928E-02 0. -1.
       -1   -1    0    0    0  501  0.00000000000E+00  0.00000000000E+00 -0.70325064514E+03  0.70325064516E+03  0.50400001928E-02 0.  1.
    10030    2    1    2    0    0  0.00000000000E+00  0.00000000000E+00  0.10044446278E+04  0.24109459181E+04  0.21917461554E+04 0.  0.
        2    1    3    3  502    0 -0.84617672839E+03  0.61920765207E+03  0.85268367396E+03  0.13514816388E+04  0.25500000920E-02 0. -1.
       -2    1    3    3    0  502  0.84617672839E+03 -0.61920765207E+03  0.15176095382E+03  0.10594642793E+04  0.25500000920E-02 0.  1.
</event>
<event>
 5   0  0.9938176E-05  0.2002803E+04  0.7818609E-02  0.8605311E-01
        2   -1    0    0  501    0  0.00000000000E+00  0.00000000000E+00  0.13138718917E+04  0.13138718917E+04  0.25500000920E-02 0.  1.
       -2   -1    0    0    0  501  0.00000000000E+00  0.00000000000E+00 -0.76324395308E+03  0.76324395309E+03  0.25500000920E-02 0. -1.
    10030    2    1    2    0    0  0.00000000000E+00  0.00000000000E+00  0.55062793857E+03  0.20771158447E+04  0.20028028125E+04 0.  0.
        5    1    3    3  502    0  0.81605773072E+03 -0.11614844904E+03  0.86504446885E+03  0.11948910851E+04  0.46999998093E+01 0.  1.
       -5    1    3    3    0  502 -0.81605773072E+03  0.11614844904E+03 -0.31441653028E+03  0.88222475968E+03  0.46999998093E+01 0. -1.
</event>
<event>
 5   0  0.4174075E-05  0.2204583E+04  0.7818609E-02  0.8516523E-01
       -1   -1    0    0    0  501  0.00000000000E+00  0.00000000000E+00  0.87672826707E+03  0.87672826709E+03  0.50400001928E-02 0. -1.
        1   -1    0    0  501    0  0.00000000000E+00  0.00000000000E+00 -0.13858872415E+04  0.13858872415E+04  0.50400001928E-02 0.  1.
    10030    2    1    2    0    0  0.00000000000E+00  0.00000000000E+00 -0.50915897446E+03  0.22626155086E+04  0.22045829716E+04 0.  0.
        5    1    3    3  502    0 -0.10080626376E+04  0.59328504082E+02 -0.70815678174E+03  0.12333767754E+04  0.46999998093E+01 0.  1.
       -5    1    3    3    0  502  0.10080626376E+04 -0.59328504082E+02  0.19899780727E+03  0.10292387332E+04  0.46999998093E+01 0. -1.
</event>
<event>
 5   0  0.4174030E-05  0.2166757E+04  0.7818609E-02  0.8532393E-01
        1   -1    0    0  501    0  0.00000000000E+00  0.00000000000E+00  0.12558132548E+04  0.12558132548E+04  0.50400001928E-02 0.  1.
       -1   -1    0    0    0  501  0.00000000000E+00  0.00000000000E+00 -0.93462085775E+03  0.93462085776E+03  0.50400001928E-02 0. -1.
    10030    2    1    2    0    0  0.00000000000E+00  0.00000000000E+00  0.32119239709E+03  0.21904341126E+04  0.21667572651E+04 0.  0.
        2    1    3    3  502    0  0.20851684680E+03 -0.87151462534E+03  0.77609425016E+03  0.11854700767E+04  0.25500000920E-02 0.  1.
       -2    1    3    3    0  502 -0.20851684680E+03  0.87151462534E+03 -0.45490185307E+03  0.10049640359E+04  0.25500000920E-02 0. -1.
</event>
<event>
 5   0  0.9938176E-05  0.2170126E+04  0.7818609E-02  0.8530966E-01
        2   -1    0    0  501    0  0.00000000000E+00  0.00000000000E+00  0.28523236405E+04  0.28523236405E+04  0.25500000920E-02 0.  1.
       -2   -1    0    0    0  501  0.00000000000E+00  0.00000000000E+00 -0.41277282287E+03  0.41277282288E+03  0.25500000920E-02 0. -1.
    10030    2    1    2    0    0  0.00000000000E+00  0.00000000000E+00  0.24395508176E+04  0.32650964634E+04  0.21701259695E+04 0.  0.
        5    1    3    3  502    0  0.35573266292E+03  0.86340210284E+03  0.38840169434E+03  0.10113787049E+04  0.46999998093E+01 0. -1.
       -5    1    3    3    0  502 -0.35573266292E+03 -0.86340210284E+03  0.20511491233E+04  0.22537177584E+04  0.46999998093E+01 0.  1.
</event>
<event>
 5   0  0.9457742E-05  0.2184566E+04  0.7818609E-02  0.8524879E-01
       -2   -1    0    0    0  501  0.00000000000E+00  0.00000000000E+00  0.88505350241E+03  0.88505350241E+03  0.25500000920E-02 0.  1.
        2   -1    0    0  501    0  0.00000000000E+00  0.00000000000E+00 -0.13480344811E+04  0.13480344811E+04  0.25500000920E-02 0. -1.
    10030    2    1    2    0    0  0.00000000000E+00  0.00000000000E+00 -0.46298097873E+03  0.22330879836E+04  0.21845664457E+04 0.  0.
        1    1    3    3  502    0  0.81595080052E+03  0.20027176803E+03 -0.94498952530E+03  0.12644721005E+04  0.50400001928E-02 0. -1.
       -1    1    3    3    0  502 -0.81595080052E+03 -0.20027176803E+03  0.48200854657E+03  0.96861588307E+03  0.50400001928E-02 0.  1.
</event>
<event>
 5   0  0.4174030E-05  0.2179111E+04  0.7818609E-02  0.8527173E-01
       -1   -1    0    0    0  501  0.00000000000E+00  0.00000000000E+00  0.53715126007E+03  0.53715126009E+03  0.50400001928E-02 0. -1.
        1   -1    0    0  501    0  0.00000000000E+00  0.00000000000E+00 -0.22100506653E+04  0.22100506653E+04  0.50400001928E-02 0.  1.
    10030    2    1    2    0    0  0.00000000000E+00  0.00000000000E+00 -0.16728994052E+04  0.27472019254E+04  0.21791112865E+04 0.  0.
        2    1    3    3  502    0 -0.36843823351E+02 -0.10231328428E+04 -0.13064268378E+04  0.16597919640E+04  0.25500000920E-02 0.  1.
       -2    1    3    3    0  502  0.36843823351E+02  0.10231328428E+04 -0.36647256742E+03  0.10874099613E+04  0.25500000920E-02 0. -1.
</event>
<event>
 5   0  0.9457742E-05  0.2175431E+04  0.7818609E-02  0.8528725E-01
       -2   -1    0    0    0  501  0.00000000000E+00  0.00000000000E+00  0.16562419291E+04  0.16562419291E+04  0.25500000920E-02 0. -1.
        2   -1    0    0  501    0  0.00000000000E+00  0.00000000000E+00 -0.71434287640E+03  0.71434287640E+03  0.25500000920E-02 0.  1.
    10030    2    1    2    0    0  0.00000000000E+00  0.00000000000E+00  0.94189905269E+03  0.23705848055E+04  0.21754306458E+04 0.  0.
        1    1    3    3  502    0 -0.94363032091E+03 -0.20710606775E+03  0.10155786187E+04  0.14016886375E+04  0.50400001928E-02 0.  1.
       -1    1    3    3    0  502  0.94363032091E+03  0.20710606775E+03 -0.73679565981E+02  0.96889616797E+03  0.50400001928E-02 0. -1.
</event>
<event>
 5   0  0.4133418E-05  0.2206336E+04  0.7818609E-02  0.8515795E-01
        1   -1    0    0  501    0  0.00000000000E+00  0.00000000000E+00  0.16815429550E+04  0.16815429550E+04  0.50400001928E-02 0.  1.
       -1   -1    0    0    0  501  0.00000000000E+00  0.00000000000E+00 -0.72372822296E+03  0.72372822298E+03  0.50400001928E-02 0. -1.
    10030    2    1    2    0    0  0.00000000000E+00  0.00000000000E+00  0.95781473207E+03  0.24052711780E+04  0.22063364156E+04 0.  0.
        4    1    3    3  502    0 -0.12649409305E+03  0.31398433537E+03 -0.66570979943E+03  0.74683202154E+03  0.12699999809E+01 0. -1.
       -4    1    3    3    0  502  0.12649409305E+03 -0.31398433537E+03  0.16235245315E+04  0.16584391565E+04  0.12699999809E+01 0.  1.
</event>
<event>
 5   0  0.9179618E-05  0.2198946E+04  0.7818609E-02  0.8518867E-01
        2   -1    0    0  501    0  0.00000000000E+00  0.00000000000E+00  0.20091338946E+04  0.20091338946E+04  0.25500000920E-02 0. -1.
       -2   -1    0    0    0  501  0.00000000000E+00  0.00000000000E+00 -0.60167244453E+03  0.60167244453E+03  0.25500000920E-02 0.  1.
    10030    2    1    2    0    0  0.00000000000E+00  0.00000000000E+00  0.14074614501E+04  0.26108063391E+04  0.21989456580E+04 0.  0.
        3    1    3    3  502    0  0.44545249901E+02 -0.77665349561E+02 -0.59733697863E+03  0.60400965394E+03  0.10100000352E+00 0.  1.
       -3    1    3    3    0  502 -0.44545249901E+02  0.77665349561E+02  0.20047984287E+04  0.20067966852E+04  0.10100000352E+00 0. -1.
</event>
<event>
 5   0  0.4133418E-05  0.2176706E+04  0.7818609E-02  0.8528187E-01
        1   -1    0    0  501    0  0.00000000000E+00  0.00000000000E+00  0.99486974849E+03  0.99486974851E+03  0.50400001928E-02 0.  1.
       -1   -1    0    0    0  501  0.00000000000E+00  0.00000000000E+00 -0.11906202723E+04  0.11906202723E+04  0.50400001928E-02 0. -1.
    10030    2    1    2    0    0  0.00000000000E+00  0.00000000000E+00 -0.19575052378E+03  0.21854900208E+04  0.21767058514E+04 0.  0.
        4    1    3    3  502    0  0.24695743135E+03 -0.50907238381E+03 -0.10313409872E+04  0.11763539049E+04  0.12699999809E+01 0. -1.
       -4    1    3    3    0  502 -0.24695743135E+03  0.50907238381E+03  0.83559046343E+03  0.10091361159E+04  0.12699999809E+01 0.  1.
</event>
<event>
 5   0  0.9179618E-05  0.2200600E+04  0.7818609E-02  0.8518179E-01
       -2   -1    0    0    0  501  0.00000000000E+00  0.00000000000E+00  0.82533871745E+03  0.82533871746E+03  0.25500000920E-02 0. -1.
        2   -1    0    0  501    0  0.00000000000E+00  0.00000000000E+00 -0.14668642569E+04  0.14668642569E+04  0.25500000920E-02 0.  1.
    10030    2    1    2    0    0  0.00000000000E+00  0.00000000000E+00 -0.64152553945E+03  0.22922029744E+04  0.22005997950E+04 0.  0.
        3    1    3    3  502    0  0.20687817004E+03 -0.44062527563E+03  0.70708065550E+03  0.85843594656E+03  0.10100000352E+00 0. -1.
       -3    1    3    3    0  502 -0.20687817004E+03  0.44062527563E+03 -0.13486061950E+04  0.14337670278E+04  0.10100000352E+00 0.  1.
</event>
<event>
 5   0  0.9442578E-05  0.2446156E+04  0.7818609E-02  0.8422423E-01
        2   -1    0    0  501    0  0.00000000000E+00  0.00000000000E+00  0.15445132249E+04  0.15445132249E+04  0.25500000920E-02 0.  1.
       -2   -1    0    0    0  501  0.00000000000E+00  0.00000000000E+00 -0.96853825831E+03  0.96853825832E+03  0.25500000920E-02 0. -1.
    10030    2    1    2    0    0  0.00000000000E+00  0.00000000000E+00  0.57597496663E+03  0.25130514833E+04  0.24461562901E+04 0.  0.
        4    1    3    3  502    0  0.59819087906E+03 -0.74342483473E+03  0.10740293281E+04  0.14366813924E+04  0.12699999809E+01 0.  1.
       -4    1    3    3    0  502 -0.59819087906E+03  0.74342483473E+03 -0.49805436146E+03  0.10763700909E+04  0.12699999809E+01 0. -1.
</event>
<event>
 5   0  0.9254673E-05  0.2192603E+04  0.7818609E-02  0.8521513E-01
       -2   -1    0    0    0  501  0.00000000000E+00  0.00000000000E+00  0.65720309804E+03  0.65720309805E+03  0.25500000920E-02 0. -1.
        2   -1    0    0  501    0  0.00000000000E+00  0.00000000000E+00 -0.18287762569E+04  0.18287762569E+04  0.25500000920E-02 0.  1.
    10030    2    1    2    0    0  0.00000000000E+00  0.00000000000E+00 -0.11715731588E+04  0.24859793549E+04  0.21926034039E+04 0.  0.
        2    1    3    3  502    0 -0.97644190819E+03  0.48606400093E+03 -0.71091857255E+03  0.13019609172E+04  0.25500000920E-02 0.  1.
       -2    1    3    3    0  502  0.97644190819E+03 -0.48606400093E+03 -0.46065458630E+03  0.11840184378E+04  0.25500000920E-02 0. -1.
</event>
<event>
 5   0  0.9254673E-05  0.1959616E+04  0.7818609E-02  0.8625738E-01
        2   -1    0    0  501    0  0.00000000000E+00  0.00000000000E+00  0.21736741244E+04  0.21736741244E+04  0.25500000920E-02 0. -1.
       -2   -1    0    0    0  501  0.00000000000E+00  0.00000000000E+00 -0.44165937324E+03  0.44165937324E+03  0.25500000920E-02 0.  1.
    10030    2    1    2    0    0  0.00000000000E+00  0.00000000000E+00  0.17320147512E+04  0.26153334976E+04  0.19596158311E+04 0.  0.
        2    1    3    3  502    0 -0.39819671149E+03 -0.13251110362E+03 -0.31563893861E+03  0.52511689479E+03  0.25500000920E-02 0.  1.
       -2    1    3    3    0  502  0.39819671149E+03  0.13251110362E+03  0.20476536898E+04  0.20902166029E+04  0.25500000920E-02 0. -1.
</event>
<event>
 5   0  0.4133418E-05  0.2195592E+04  0.7818609E-02  0.8520265E-01
       -1   -1    0    0    0  501  0.00000000000E+00  0.00000000000E+00  0.12072499564E+04  0.12072499564E+04  0.50400001928E-02 0. -1.
        1   -1    0    0  501    0  0.00000000000E+00  0.00000000000E+00 -0.99826560500E+03  0.99826560501E+03  0.50400001928E-02 0.  1.
    10030    2    1    2    0    0  0.00000000000E+00  0.00000000000E+00  0.20898435144E+03  0.22055155615E+04  0.21955920461E+04 0.  0.
        4    1    3    3  502    0 -0.10038133765E+04 -0.44426665402E+03  0.92592092353E+02  0.11016301844E+04  0.12699999809E+01 0. -1.
       -4    1    3    3    0  502  0.10038133765E+04  0.44426665402E+03  0.11639225908E+03  0.11038853770E+04  0.12699999809E+01 0.  1.
</event>
<event>
 5   0  0.9254673E-05  0.2192931E+04  0.7818609E-02  0.8521376E-01
       -2   -1    0    0    0  501  0.00000000000E+00  0.00000000000E+00  0.96945786988E+03  0.96945786988E+03  0.25500000920E-02 0.  1.
        2   -1    0    0  501    0  0.00000000000E+00  0.00000000000E+00 -0.12401125160E+04  0.12401125160E+04  0.25500000920E-02 0. -1.
    10030    2    1    2    0    0  0.00000000000E+00  0.00000000000E+00 -0.27065464617E+03  0.22095703859E+04  0.21929312239E+04 0.  0.
        2    1    3    3  502    0 -0.44450294799E+03 -0.46438478127E+03 -0.10303242317E+04  0.12144151342E+04  0.25500000920E-02 0. -1.
       -2    1    3    3    0  502  0.44450294799E+03  0.46438478127E+03  0.75966958551E+03  0.99515525171E+03  0.25500000920E-02 0.  1.
</event>
<event>
 5   0  0.9938176E-05  0.2210181E+04  0.7818609E-02  0.8514203E-01
       -2   -1    0    0    0  501  0.00000000000E+00  0.00000000000E+00  0.14470307345E+04  0.14470307345E+04  0.25500000920E-02 0.  1.
        2   -1    0    0  501    0  0.00000000000E+00  0.00000000000E+00 -0.84395199271E+03  0.84395199272E+03  0.25500000920E-02 0. -1.
    10030    2    1    2    0    0  0.00000000000E+00  0.00000000000E+00  0.60307874175E+03  0.22909827272E+04  0.22101805102E+04 0.  0.
        5    1    3    3  502    0 -0.76080850577E+03 -0.48684296301E+03 -0.35841325808E+03  0.97176530431E+03  0.46999998093E+01 0.  1.
       -5    1    3    3    0  502  0.76080850577E+03  0.48684296301E+03  0.96149199983E+03  0.13192174229E+04  0.46999998093E+01 0. -1.
</event>
<event>
 5   0  0.9938176E-05  0.1673067E+04  0.7818609E-02  0.8776876E-01
        2   -1    0    0  501    0  0.00000000000E+00  0.00000000000E+00  0.20686101517E+04  0.20686101517E+04  0.25500000920E-02 0. -1.
       -2   -1    0    0    0  501  0.00000000000E+00  0.00000000000E+00 -0.33828927648E+03  0.33828927649E+03  0.25500000920E-02 0.  1.
    10030    2    1    2    0    0  0.00000000000E+00  0.00000000000E+00  0.17303208752E+04  0.24068994281E+04  0.16730674004E+04 0.  0.
        5    1    3    3  502    0 -0.73879673498E+03 -0.37685004076E+03  0.10222922905E+04  0.13164118603E+04  0.46999998093E+01 0. -1.
       -5    1    3    3    0  502  0.73879673498E+03  0.37685004076E+03  0.70802858472E+03  0.10904875678E+04  0.46999998093E+01 0.  1.
</event>
<event>
 5   0  0.9179618E-05  0.2133401E+04  0.7818609E-02  0.8546671E-01
       -2   -1    0    0    0  501  0.00000000000E+00  0.00000000000E+00  0.48653815581E+03  0.48653815582E+03  0.25500000920E-02 0. -1.
        2   -1    0    0  501    0  0.00000000000E+00  0.00000000000E+00 -0.23386654655E+04  0.23386654655E+04  0.25500000920E-02 0.  1.
    10030    2    1    2    0    0  0.00000000000E+00  0.00000000000E+00 -0.18521273096E+04  0.28252036213E+04  0.21334010243E+04 0.  0.
        3    1    3    3  502    0 -0.60007203754E+03 -0.24601442197E+03 -0.20475904007E+04  0.21478445022E+04  0.10100000352E+00 0.  1.
       -3    1    3    3    0  502  0.60007203754E+03  0.24601442197E+03  0.19546309110E+03  0.67735911911E+03  0.10100000352E+00 0. -1.
</event>
<event>
 5   0  0.4174075E-05  0.2207944E+04  0.7818609E-02  0.8515129E-01
        1   -1    0    0  501    0  0.00000000000E+00  0.00000000000E+00  0.15162124723E+04  0.15162124723E+04  0.50400001928E-02 0.  1.
       -1   -1    0    0    0  501  0.00000000000E+00  0.00000000000E+00 -0.80381486343E+03  0.80381486345E+03  0.50400001928E-02 0. -1.
    10030    2    1    2    0    0  0.00000000000E+00  0.00000000000E+00  0.71239760889E+03  0.23200273358E+04  0.22079439498E+04 0.  0.
        5    1    3    3  502    0  0.31401581920E+03 -0.50075125403E+03  0.13359334165E+04  0.14608552072E+04  0.46999998093E+01 0.  1.
       -5    1    3    3    0  502 -0.31401581920E+03  0.50075125403E+03 -0.62353580761E+03  0.85917212856E+03  0.46999998093E+01 0. -1.
</event>
<event>
 5   0  0.4063293E-05  0.2173134E+04  0.7818609E-02  0.8529694E-01
       -1   -1    0    0    0  501  0.00000000000E+00  0.00000000000E+00  0.11436477945E+04  0.11436477946E+04  0.50400001928E-02 0.  1.
        1   -1    0    0  501    0  0.00000000000E+00  0.00000000000E+00 -0.10323356035E+04  0.10323356035E+04  0.50400001928E-02 0. -1.
    10030    2    1    2    0    0  0.00000000000E+00  0.00000000000E+00  0.11131219105E+03  0.21759833981E+04  0.21731344516E+04 0.  0.
        1    1    3    3  502    0  0.94040697256E+03  0.12341722644E+03  0.58647488646E+03  0.11151456758E+04  0.50400001928E-02 0.  1.
       -1    1    3    3    0  502 -0.94040697256E+03 -0.12341722644E+03 -0.47516269540E+03  0.10608377222E+04  0.50400001928E-02 0. -1.
</event>
<event>
 5   0  0.9179618E-05  0.2086049E+04  0.7818609E-02  0.8567414E-01
        2   -1    0    0  501    0  0.00000000000E+00  0.00000000000E+00  0.20795911056E+04  0.20795911056E+04  0.25500000920E-02 0. -1.
       -2   -1    0    0    0  501  0.00000000000E+00  0.00000000000E+00 -0.52313185412E+03  0.52313185412E+03  0.25500000920E-02 0.  1.
    10030    2    1    2    0    0  0.00000000000E+00  0.00000000000E+00  0.15564592515E+04  0.26027229597E+04  0.20860492333E+04 0.  0.
        3    1    3    3  502    0 -0.67903605441E+03 -0.69248825831E+03  0.12570373049E+04  0.15876941604E+04  0.10100000352E+00 0. -1.
       -3    1    3    3    0  502  0.67903605441E+03  0.69248825831E+03  0.29942194663E+03  0.10150287993E+04  0.10100000352E+00 0.  1.
</event>
<event>
 5   0  0.4174030E-05  0.2217169E+04  0.7818609E-02  0.8511316E-01
       -1   -1    0    0    0  501  0.00000000000E+00  0.00000000000E+00  0.63718754557E+03  0.63718754559E+03  0.50400001928E-02 0.  1.
        1   -1    0    0  501    0  0.00000000000E+00  0.00000000000E+00 -0.19287245754E+04  0.19287245754E+04  0.50400001928E-02 0. -1.
    10030    2    1    2    0    0  0.00000000000E+00  0.00000000000E+00 -0.12915370298E+04  0.25659121210E+04  0.22171687156E+04 0.  0.
        2    1    3    3  502    0 -0.96174633303E+03  0.44337104333E+03 -0.26645658681E+03  0.10920315947E+04  0.25500000920E-02 0.  1.
       -2    1    3    3    0  502  0.96174633303E+03 -0.44337104333E+03 -0.10250804430E+04  0.14738805263E+04  0.25500000920E-02 0. -1.
</event>
<event>
 5   0  0.9442578E-05  0.2204267E+04  0.7818609E-02  0.8516654E-01
       -2   -1    0    0    0  501  0.00000000000E+00  0.00000000000E+00  0.99079544451E+03  0.99079544451E+03  0.25500000920E-02 0.  1.
        2   -1    0    0  501    0  0.00000000000E+00  0.00000000000E+00 -0.12259827590E+04  0.12259827590E+04  0.25500000920E-02 0. -1.
    10030    2    1    2    0    0  0.00000000000E+00  0.00000000000E+00 -0.23518731452E+03  0.22167782035E+04  0.22042668919E+04 0.  0.
        4    1    3    3  502    0 -0.12893084008E+03 -0.12373727545E+03 -0.12113153556E+04  0.12244266326E+04  0.12699999809E+01 0. -1.
       -4    1    3    3    0  502  0.12893084008E+03  0.12373727545E+03  0.97612804112E+03  0.99235157097E+03  0.12699999809E+01 0.  1.
</event>
<event>
 5   0  0.4133418E-05  0.2128013E+04  0.7818609E-02  0.8549003E-01
       -1   -1    0    0    0  501  0.00000000000E+00  0.00000000000E+00  0.80045666484E+03  0.80045666485E+03  0.50400001928E-02 0. -1.
        1   -1    0    0  501    0  0.00000000000E+00  0.00000000000E+00 -0.14143297999E+04  0.14143297999E+04  0.50400001928E-02 0.  1.
    10030    2    1    2    0    0  0.00000000000E+00  0.00000000000E+00 -0.61387313510E+03  0.22147864648E+04  0.21280128897E+04 0.  0.
        4    1    3    3  502    0 -0.39581947019E+03 -0.71399884702E+03  0.40326736218E+03  0.91054576207E+03  0.12699999809E+01 0. -1.
       -4    1    3    3    0  502  0.39581947019E+03  0.71399884702E+03 -0.10171404973E+04  0.13042407027E+04  0.12699999809E+01 0.  1.
</event>
<event>
 5   0  0.9442578E-05  0.2206281E+04  0.7818609E-02  0.8515818E-01
       -2   -1    0    0    0  501  0.00000000000E+00  0.00000000000E+00  0.72864742895E+03  0.72864742895E+03  0.25500000920E-02 0.  1.
        2   -1    0    0  501    0  0.00000000000E+00  0.00000000000E+00 -0.16701064356E+04  0.16701064356E+04  0.25500000920E-02 0. -1.
    10030    2    1    2    0    0  0.00000000000E+00  0.00000000000E+00 -0.94145900666E+03  0.23987538646E+04  0.22062808166E+04 0.  0.
        4    1    3    3  502    0 -0.18697569620E+03  0.10465686223E+02  0.71123832794E+03  0.73548012454E+03  0.12699999809E+01 0.  1.
       -4    1    3    3    0  502  0.18697569620E+03 -0.10465686223E+02 -0.16526973346E+04  0.16632737400E+04  0.12699999809E+01 0. -1.
</event>
<event>
 5   0  0.9457742E-05  0.2118185E+04  0.7818609E-02  0.8553275E-01
       -2   -1    0    0    0  501  0.00000000000E+00  0.00000000000E+00  0.92850584467E+03  0.92850584467E+03  0.25500000920E-02 0. -1.
        2   -1    0    0  501    0  0.00000000000E+00  0.00000000000E+00 -0.12080454145E+04  0.12080454145E+04  0.25500000920E-02 0.  1.
    10030    2    1    2    0    0  0.00000000000E+00  0.00000000000E+00 -0.27953956980E+03  0.21365512591E+04  0.21181852874E+04 0.  0.
        1    1    3    3  502    0 -0.75693912429E+03 -0.73888157307E+03 -0.19289916781E+03  0.10752269090E+04  0.50400001928E-02 0.  1.
       -1    1    3    3    0  502  0.75693912429E+03  0.73888157307E+03 -0.86640401987E+02  0.10613243501E+04  0.50400001928E-02 0. -1.
</event>
<event>
 5   0  0.9254673E-05  0.2079505E+04  0.7818609E-02  0.8570326E-01
       -2   -1    0    0    0  501  0.00000000000E+00  0.00000000000E+00  0.78001757279E+03  0.78001757280E+03  0.25500000920E-02 0.  1.
        2   -1    0    0  501    0  0.00000000000E+00  0.00000000000E+00 -0.13859757563E+04  0.13859757563E+04  0.25500000920E-02 0. -1.
    10030    2    1    2    0    0  0.00000000000E+00  0.00000000000E+00 -0.60595818350E+03  0.21659933291E+04  0.20795051771E+04 0.  0.
        2    1    3    3  502    0 -0.39399070966E+03  0.95432585953E+03 -0.43105206504E+03  0.11188263530E+04  0.25500000920E-02 0. -1.
       -2    1    3    3    0  502  0.39399070966E+03 -0.95432585953E+03 -0.17490611846E+03  0.10471669761E+04  0.25500000920E-02 0.  1.
</event>
<event>
 5   0  0.4188865E-05  0.2210833E+04  0.7818609E-02  0.8513933E-01
       -1   -1    0    0    0  501  0.00000000000E+00  0.00000000000E+00  0.12389183855E+04  0.12389183856E+04  0.50400001928E-02 0.  1.
        1   -1    0    0  501    0  0.00000000000E+00  0.00000000000E+00 -0.98630071581E+03  0.98630071583E+03  0.50400001928E-02 0. -1.
    10030    2    1    2    0    0  0.00000000000E+00  0.00000000000E+00  0.25261766974E+03  0.22252191014E+04  0.22108334089E+04 0.  0.
        3    1    3    3  502    0  0.15895688281E+03  0.10275152011E+04  0.50410613564E+03  0.11554989334E+04  0.10100000352E+00 0. -1.
       -3    1    3    3    0  502 -0.15895688281E+03 -0.10275152011E+04 -0.25148846590E+03  0.10697201679E+04  0.10100000352E+00 0.  1.
</event>
<event>
 5   0  0.4063293E-05  0.2195421E+04  0.7818609E-02  0.8520337E-01
        1   -1    0    0  501    0  0.00000000000E+00  0.00000000000E+00  0.45328876663E+03  0.45328876666E+03  0.50400001928E-02 0. -1.
       -1   -1    0    0    0  501  0.00000000000E+00  0.00000000000E+00 -0.26582789385E+04  0.26582789385E+04  0.50400001928E-02 0.  1.
    10030    2    1    2    0    0  0.00000000000E+00  0.00000000000E+00 -0.22049901719E+04  0.31115677052E+04  0.21954206717E+04 0.  0.
        1    1    3    3  502    0  0.37183084301E+03  0.70063538826E+03 -0.21779812443E+04  0.23179194170E+04  0.50400001928E-02 0.  1.
       -1    1    3    3    0  502 -0.37183084301E+03 -0.70063538826E+03 -0.27008927551E+02  0.79364828816E+03  0.50400001928E-02 0. -1.
</event>
<event>
 5   0  0.4174030E-05  0.2125648E+04  0.7818609E-02  0.8550029E-01
        1   -1    0    0  501    0  0.00000000000E+00  0.00000000000E+00  0.10923163133E+04  0.10923163133E+04  0.50400001928E-02 0.  1.
       -1   -1    0    0    0  501  0.00000000000E+00  0.00000000000E+00 -0.10341277342E+04  0.10341277342E+04  0.50400001928E-02 0. -1.
    10030    2    1    2    0    0  0.00000000000E+00  0.00000000000E+00  0.58188579042E+02  0.21264440475E+04  0.21256477545E+04 0.  0.
        2    1    3    3  502    0 -0.99739838790E+03  0.21576276405E+03 -0.26806492968E+03  0.10550904800E+04  0.25500000920E-02 0.  1.
       -2    1    3    3    0  502  0.99739838790E+03 -0.21576276405E+03  0.32625350872E+03  0.10713535675E+04  0.25500000920E-02 0. -1.
</event>
<event>
 5   0  0.9254673E-05  0.2320063E+04  0.7818609E-02  0.8470052E-01
        2   -1    0    0  501    0  0.00000000000E+00  0.00000000000E+00  0.11432199344E+04  0.11432199344E+04  0.25500000920E-02 0.  1.
       -2   -1    0    0    0  501  0.00000000000E+00  0.00000000000E+00 -0.11770899321E+04  0.11770899321E+04  0.25500000920E-02 0. -1.
    10030    2    1    2    0    0  0.00000000000E+00  0.00000000000E+00 -0.33869997711E+02  0.23203098665E+04  0.23200626499E+04 0.  0.
        2    1    3    3  502    0  0.59496640483E+02 -0.39769981345E+03 -0.11051537334E+04  0.11760398659E+04  0.25500000920E-02 0. -1.
       -2    1    3    3    0  502 -0.59496640483E+02  0.39769981345E+03  0.10712837357E+04  0.11442700005E+04  0.25500000920E-02 0.  1.
</event>
<event>
 5   0  0.9938176E-05  0.2487954E+04  0.7818609E-02  0.8407290E-01
       -2   -1    0    0    0  501  0.00000000000E+00  0.00000000000E+00  0.62029858933E+03  0.62029858934E+03  0.25500000920E-02 0. -1.
        2   -1    0    0  501    0  0.00000000000E+00  0.00000000000E+00 -0.24947320940E+04  0.24947320940E+04  0.25500000920E-02 0.  1.
    10030    2    1    2    0    0  0.00000000000E+00  0.00000000000E+00 -0.18744335046E+04  0.31150306833E+04  0.24879540178E+04 0.  0.
        5    1    3    3  502    0 -0.16034664076E+03 -0.51590713850E+03  0.46573625098E+03  0.71330467981E+03  0.46999998093E+01 0. -1.
       -5    1    3    3    0  502  0.16034664076E+03  0.51590713850E+03 -0.23401697556E+04  0.24017260035E+04  0.46999998093E+01 0.  1.
</event>
<event>
 5   0  0.4063293E-05  0.2152836E+04  0.7818609E-02  0.8538319E-01
        1   -1    0    0  501    0  0.00000000000E+00  0.00000000000E+00  0.94079394802E+03  0.94079394803E+03  0.50400001928E-02 0. -1.
       -1   -1    0    0    0  501  0.00000000000E+00  0.00000000000E+00 -0.12315931071E+04  0.12315931071E+04  0.50400001928E-02 0.  1.
    10030    2    1    2    0    0  0.00000000000E+00  0.00000000000E+00 -0.29079915908E+03  0.21723870551E+04  0.21528356571E+04 0.  0.
        1    1    3    3  502    0 -0.80720673811E+03  0.21167099149E+03  0.54069287862E+03  0.99435210851E+03  0.50400001928E-02 0. -1.
       -1    1    3    3    0  502  0.80720673811E+03 -0.21167099149E+03 -0.83149203770E+03  0.11780349466E+04  0.50400001928E-02 0.  1.
</event>
<event>
 5   0  0.9457742E-05  0.2196009E+04  0.7818609E-02  0.8520091E-01
        2   -1    0    0  501    0  0.00000000000E+00  0.00000000000E+00  0.23489561726E+04  0.23489561726E+04  0.25500000920E-02 0.  1.
       -2   -1    0    0    0  501  0.00000000000E+00  0.00000000000E+00 -0.51325522665E+03  0.51325522666E+03  0.25500000920E-02 0. -1.
    10030    2    1    2    0    0  0.00000000000E+00  0.00000000000E+00  0.18357009459E+04  0.28622113992E+04  0.21960091373E+04 0.  0.
        1    1    3    3  502    0 -0.10116997285E+04  0.10309932171E+03  0.14575276561E+04  0.17772317460E+04  0.50400001928E-02 0. -1.
       -1    1    3    3    0  502  0.10116997285E+04 -0.10309932171E+03  0.37817328981E+03  0.10849796532E+04  0.50400001928E-02 0.  1.
</event>
<event>
 5   0  0.4063293E-05  0.2226119E+04  0.7818609E-02  0.8507635E-01
       -1   -1    0    0    0  501  0.00000000000E+00  0.00000000000E+00  0.12500558508E+04  0.12500558508E+04  0.50400001928E-02 0. -1.
        1   -1    0    0  501    0  0.00000000000E+00  0.00000000000E+00 -0.99107723788E+03  0.99107723789E+03  0.50400001928E-02 0.  1.
    10030    2    1    2    0    0  0.00000000000E+00  0.00000000000E+00  0.25897861293E+03  0.22411330887E+04  0.22261194037E+04 0.  0.
        1    1    3    3  502    0  0.99126360174E+03 -0.35293918692E+03 -0.23590799286E+03  0.10783423292E+04  0.50400001928E-02 0. -1.
       -1    1    3    3    0  502 -0.99126360174E+03  0.35293918692E+03  0.49488660579E+03  0.11627907595E+04  0.50400001928E-02 0.  1.
</event>
<event>
 5   0  0.9938176E-05  0.2194227E+04  0.7818609E-02  0.8520835E-01
        2   -1    0    0  501    0  0.00000000000E+00  0.00000000000E+00  0.23014108202E+04  0.23014108202E+04  0.25500000920E-02 0.  1.
       -2   -1    0    0    0  501  0.00000000000E+00  0.00000000000E+00 -0.52300868953E+03  0.52300868953E+03  0.25500000920E-02 0. -1.
    10030    2    1    2    0    0  0.00000000000E+00  0.00000000000E+00  0.17784021307E+04  0.28244195097E+04  0.21942268407E+04 0.  0.
        5    1    3    3  502    0 -0.57912410284E+03 -0.75548878284E+02  0.20846696272E+04  0.21649392379E+04  0.46999998093E+01 0.  1.
       -5    1    3    3    0  502  0.57912410284E+03  0.75548878284E+02 -0.30626749649E+03  0.65948027181E+03  0.46999998093E+01 0. -1.
</event>
<event>
 5   0  0.9457742E-05  0.2173563E+04  0.7818609E-02  0.8529513E-01
        2   -1    0    0  501    0  0.00000000000E+00  0.00000000000E+00  0.15044944296E+04  0.15044944296E+04  0.25500000920E-02 0.  1.
       -2   -1    0    0    0  501  0.00000000000E+00  0.00000000000E+00 -0.78504392304E+03  0.78504392305E+03  0.25500000920E-02 0. -1.
    10030    2    1    2    0    0  0.00000000000E+00  0.00000000000E+00  0.71945050655E+03  0.22895383526E+04  0.21735631661E+04 0.  0.
        1    1    3    3  502    0 -0.65675571892E+03  0.14219009638E+03  0.12594354155E+04  0.14274885862E+04  0.50400001928E-02 0.  1.
       -1    1    3    3    0  502  0.65675571892E+03 -0.14219009638E+03 -0.53998490898E+03  0.86204976643E+03  0.50400001928E-02 0. -1.
</event>
<event>
 5   0  0.9938176E-05  0.2146109E+04  0.7818609E-02  0.8541200E-01
        2   -1    0    0  501    0  0.00000000000E+00  0.00000000000E+00  0.34359641305E+04  0.34359641305E+04  0.25500000920E-02 0. -1.
       -2   -1    0    0    0  501  0.00000000000E+00  0.00000000000E+00 -0.33511583615E+03  0.33511583616E+03  0.25500000920E-02 0.  1.
    10030    2    1    2    0    0  0.00000000000E+00  0.00000000000E+00  0.31008482944E+04  0.37710799667E+04  0.21461090304E+04 0.  0.
        5    1    3    3  502    0  0.35729943661E+03 -0.25390793635E+03 -0.17060933814E+03  0.47038469767E+03  0.46999998093E+01 0.  1.
       -5    1    3    3    0  502 -0.35729943661E+03  0.25390793635E+03  0.32714576325E+04  0.33006952690E+04  0.46999998093E+01 0. -1.
</event>
<event>
 5   0  0.9938176E-05  0.2228435E+04  0.7818609E-02  0.8506685E-01
       -2   -1    0    0    0  501  0.00000000000E+00  0.00000000000E+00  0.18739243565E+04  0.18739243565E+04  0.25500000920E-02 0.  1.
        2   -1    0    0  501    0  0.00000000000E+00  0.00000000000E+00 -0.66250286808E+03  0.66250286808E+03  0.25500000920E-02 0. -1.
    10030    2    1    2    0    0  0.00000000000E+00  0.00000000000E+00  0.12114214885E+04  0.25364272246E+04  0.22284346621E+04 0.  0.
        5    1    3    3  502    0  0.31372941844E+03 -0.74580514814E+03 -0.26619599466E+03  0.85178275667E+03  0.46999998093E+01 0. -1.
       -5    1    3    3    0  502 -0.31372941844E+03  0.74580514814E+03  0.14776174831E+04  0.16846444680E+04  0.46999998093E+01 0.  1.
</event>
<event>
 5   0  0.4174030E-05  0.2186963E+04  0.7818609E-02  0.8523874E-01
        1   -1    0    0  501    0  0.00000000000E+00  0.00000000000E+00  0.12853368639E+04  0.12853368639E+04  0.50400001928E-02 0.  1.
       -1   -1    0    0    0  501  0.00000000000E+00  0.00000000000E+00 -0.93026319184E+03  0.93026319186E+03  0.50400001928E-02 0. -1.
    10030    2    1    2    0    0  0.00000000000E+00  0.00000000000E+00  0.35507367203E+03  0.22156000557E+04  0.21869628013E+04 0.  0.
        2    1    3    3  502    0  0.15568854720E+03 -0.21419319469E+03  0.12523646896E+04  0.12800527193E+04  0.25500000920E-02 0.  1.
       -2    1    3    3    0  502 -0.15568854720E+03  0.21419319469E+03 -0.89729101761E+03  0.93554733641E+03  0.25500000920E-02 0. -1.
</event>
<event>
 5   0  0.9457742E-05  0.2206447E+04  0.7818609E-02  0.8515750E-01
       -2   -1    0    0    0  501  0.00000000000E+00  0.00000000000E+00  0.86306986229E+03  0.86306986229E+03  0.25500000920E-02 0. -1.
        2   -1    0    0  501    0  0.00000000000E+00  0.00000000000E+00 -0.14102005707E+04  0.14102005707E+04  0.25500000920E-02 0.  1.
    10030    2    1    2    0    0  0.00000000000E+00  0.00000000000E+00 -0.54713070845E+03  0.22732704330E+04  0.22064465662E+04 0.  0.
        1    1    3    3  502    0 -0.83694726898E+03  0.47770718134E+03  0.27974387368E+03  0.10034647563E+04  0.50400001928E-02 0. -1.
       -1    1    3    3    0  502  0.83694726898E+03 -0.47770718134E+03 -0.82687458213E+03  0.12698056768E+04  0.50400001928E-02 0.  1.
</event>
<event>
 5   0  0.4174030E-05  0.2214081E+04  0.7818609E-02  0.8512590E-01
        1   -1    0    0  501    0  0.00000000000E+00  0.00000000000E+00  0.18655517945E+04  0.18655517945E+04  0.50400001928E-02 0. -1.
       -1   -1    0    0    0  501  0.00000000000E+00  0.00000000000E+00 -0.65693084955E+03  0.65693084957E+03  0.50400001928E-02 0.  1.
    10030    2    1    2    0    0  0.00000000000E+00  0.00000000000E+00  0.12086209449E+04  0.25224826440E+04  0.22140808705E+04 0.  0.
        2    1    3    3  502    0  0.94591247369E+03  0.49617426259E+02  0.12571215209E+04  0.15740288482E+04  0.25500000920E-02 0. -1.
       -2    1    3    3    0  502 -0.94591247369E+03 -0.49617426259E+02 -0.48500575978E+02  0.94845379579E+03  0.25500000920E-02 0.  1.
</event>
<event>
 5   0  0.9442578E-05  0.2168670E+04  0.7818609E-02  0.8531583E-01
       -2   -1    0    0    0  501  0.00000000000E+00  0.00000000000E+00  0.67797319234E+03  0.67797319235E+03  0.25500000920E-02 0. -1.
        2   -1    0    0  501    0  0.00000000000E+00  0.00000000000E+00 -0.17342609852E+04  0.17342609852E+04  0.25500000920E-02 0.  1.
    10030    2    1    2    0    0  0.00000000000E+00  0.00000000000E+00 -0.10562877929E+04  0.24122341776E+04  0.21686700593E+04 0.  0.
        4    1    3    3  502    0 -0.10041410454E+04  0.16769230624E+03 -0.94338128029E+03  0.13879444519E+04  0.12699999809E+01 0. -1.
       -4    1    3    3    0  502  0.10041410454E+04 -0.16769230624E+03 -0.11290651257E+03  0.10242897257E+04  0.12699999809E+01 0.  1.
</event>
<event>
 5   0  0.4188865E-05  0.2216276E+04  0.7818609E-02  0.8511684E-01
        1   -1    0    0  501    0  0.00000000000E+00  0.00000000000E+00  0.24637137268E+04  0.24637137268E+04  0.50400001928E-02 0.  1.
       -1   -1    0    0    0  501  0.00000000000E+00  0.00000000000E+00 -0.49842246527E+03  0.49842246530E+03  0.50400001928E-02 0. -1.
    10030    2    1    2    0    0  0.00000000000E+00  0.00000000000E+00  0.19652912616E+04  0.29621361921E+04  0.22162763993E+04 0.  0.
        3    1    3    3  502    0  0.75929435538E+03  0.21818691416E+03 -0.55936613129E+02  0.79199896624E+03  0.10100000352E+00 0. -1.
       -3    1    3    3    0  502 -0.75929435538E+03 -0.21818691416E+03  0.20212278747E+04  0.21701372259E+04  0.10100000352E+00 0.  1.
</event>
<event>
 5   0  0.9179618E-05  0.2077472E+04  0.7818609E-02  0.8571233E-01
       -2   -1    0    0    0  501  0.00000000000E+00  0.00000000000E+00  0.10801095822E+04  0.10801095822E+04  0.25500000920E-02 0.  1.
        2   -1    0    0  501    0  0.00000000000E+00  0.00000000000E+00 -0.99894697094E+03  0.99894697094E+03  0.25500000920E-02 0. -1.
    10030    2    1    2    0    0  0.00000000000E+00  0.00000000000E+00  0.81162611280E+02  0.20790565532E+04  0.20774717283E+04 0.  0.
        3    1    3    3  502    0 -0.58928037149E+03  0.46030451126E+02  0.89540036425E+03  0.10728988681E+04  0.10100000352E+00 0.  1.
       -3    1    3    3    0  502  0.58928037149E+03 -0.46030451126E+02 -0.81423775297E+03  0.10061576851E+04  0.10100000352E+00 0. -1.
</event>
<event>
 5   0  0.4133418E-05  0.2307732E+04  0.7818609E-02  0.8474879E-01
       -1   -1    0    0    0  501  0.00000000000E+00  0.00000000000E+00  0.75078231200E+03  0.75078231202E+03  0.50400001928E-02 0.  1.
        1   -1    0    0  501    0  0.00000000000E+00  0.00000000000E+00 -0.17733594382E+04  0.17733594382E+04  0.50400001928E-02 0. -1.
    10030    2    1    2    0    0  0.00000000000E+00  0.00000000000E+00 -0.10225771262E+04  0.25241417502E+04  0.23077321327E+04 0.  0.
        4    1    3    3  502    0  0.18791838524E+03 -0.10820622092E+04 -0.89835750779E+03  0.14188797584E+04  0.12699999809E+01 0. -1.
       -4    1    3    3    0  502 -0.18791838524E+03  0.10820622092E+04 -0.12421961842E+03  0.11052619918E+04  0.12699999809E+01 0.  1.
</event>
<event>
 5   0  0.9457742E-05  0.2275323E+04  0.7818609E-02  0.8487715E-01
        2   -1    0    0  501    0  0.00000000000E+00  0.00000000000E+00  0.16823411806E+04  0.16823411806E+04  0.25500000920E-02 0.  1.
       -2   -1    0    0    0  501  0.00000000000E+00  0.00000000000E+00 -0.76932892115E+03  0.76932892115E+03  0.25500000920E-02 0. -1.
    10030    2    1    2    0    0  0.00000000000E+00  0.00000000000E+00  0.91301225941E+03  0.24516701017E+04  0.22753230324E+04 0.  0.
        1    1    3    3  502    0  0.10779934027E+04 -0.14520787039E+03  0.81568633500E+03  0.13595952703E+04  0.50400001928E-02 0.  1.
       -1    1    3    3    0  502 -0.10779934027E+04  0.14520787039E+03  0.97325924411E+02  0.10920748314E+04  0.50400001928E-02 0. -1.
</event>
<event>
 5   0  0.4174075E-05  0.2191414E+04  0.7818609E-02  0.8522010E-01
       -1   -1    0    0    0  501  0.00000000000E+00  0.00000000000E+00  0.93254392052E+03  0.93254392053E+03  0.50400001928E-02 0. -1.
        1   -1    0    0  501    0  0.00000000000E+00  0.00000000000E+00 -0.12874175460E+04  0.12874175461E+04  0.50400001928E-02 0.  1.
    10030    2    1    2    0    0  0.00000000000E+00  0.00000000000E+00 -0.35487362553E+03  0.22199614666E+04  0.21914136130E+04 0.  0.
        5    1    3    3  502    0 -0.27216520313E+03 -0.30063238580E+03  0.85371215669E+03  0.94514563198E+03  0.46999998093E+01 0. -1.
       -5    1    3    3    0  502  0.27216520313E+03  0.30063238580E+03 -0.12085857822E+04  0.12748158346E+04  0.46999998093E+01 0.  1.
</event>
<event>
 5   0  0.4133418E-05  0.2197999E+04  0.7818609E-02  0.8519261E-01
       -1   -1    0    0    0  501  0.00000000000E+00  0.00000000000E+00  0.88828117211E+03  0.88828117213E+03  0.50400001928E-02 0.  1.
        1   -1    0    0  501    0  0.00000000000E+00  0.00000000000E+00 -0.13597048639E+04  0.13597048639E+04  0.50400001928E-02 0. -1.
    10030    2    1    2    0    0  0.00000000000E+00  0.00000000000E+00 -0.47142369180E+03  0.22479860360E+04  0.21979992996E+04 0.  0.
        4    1    3    3  502    0  0.72779183023E+03 -0.59429734062E+03 -0.81870016806E+03  0.12462511205E+04  0.12699999809E+01 0. -1.
       -4    1    3    3    0  502 -0.72779183023E+03  0.59429734062E+03  0.34727647626E+03  0.10017349156E+04  0.12699999809E+01 0.  1.
</event>
<event>
 5   0  0.9179618E-05  0.2208656E+04  0.7818609E-02  0.8514834E-01
       -2   -1    0    0    0  501  0.00000000000E+00  0.00000000000E+00  0.64113821894E+03  0.64113821895E+03  0.25500000920E-02 0. -1.
        2   -1    0    0  501    0  0.00000000000E+00  0.00000000000E+00 -0.19021497189E+04  0.19021497189E+04  0.25500000920E-02 0.  1.
    10030    2    1    2    0    0  0.00000000000E+00  0.00000000000E+00 -0.12610114999E+04  0.25432879378E+04  0.22086564992E+04 0.  0.
        3    1    3    3  502    0 -0.73080675809E+03 -0.24547076950E+02 -0.15834515274E+04  0.17441329727E+04  0.10100000352E+00 0.  1.
       -3    1    3    3    0  502  0.73080675809E+03  0.24547076950E+02  0.32244002752E+03  0.79915496507E+03  0.10100000352E+00 0. -1.
</event>
<event>
 5   0  0.4174075E-05  0.2214415E+04  0.7818609E-02  0.8512452E-01
        1   -1    0    0  501    0  0.00000000000E+00  0.00000000000E+00  0.15655257896E+04  0.15655257896E+04  0.50400001928E-02 0.  1.
       -1   -1    0    0    0  501  0.00000000000E+00  0.00000000000E+00 -0.78306497631E+03  0.78306497632E+03  0.50400001928E-02 0. -1.
    10030    2    1    2    0    0  0.00000000000E+00  0.00000000000E+00  0.78246081327E+03  0.23485907659E+04  0.22144149705E+04 0.  0.
        5    1    3    3  502    0 -0.31852511980E+03 -0.60552581995E+03 -0.53201266397E+03  0.86670602582E+03  0.46999998093E+01 0. -1.
       -5    1    3    3    0  502  0.31852511980E+03  0.60552581995E+03  0.13144734772E+04  0.14818847401E+04  0.46999998093E+01 0.  1.
</event>
<event>
 5   0  0.4188865E-05  0.2254138E+04  0.7818609E-02  0.8496226E-01
       -1   -1    0    0    0  501  0.00000000000E+00  0.00000000000E+00  0.10362283105E+04  0.10362283105E+04  0.50400001928E-02 0. -1.
        1   -1    0    0  501    0  0.00000000000E+00  0.00000000000E+00 -0.12258734588E+04  0.12258734588E+04  0.50400001928E-02 0.  1.
    10030    2    1    2    0    0  0.00000000000E+00  0.00000000000E+00 -0.18964514837E+03  0.22621017693E+04  0.22541382239E+04 0.  0.
        3    1    3    3  502    0  0.34340886805E+03 -0.92182693765E+03 -0.64684794605E+03  0.11773303823E+04  0.10100000352E+00 0.  1.
       -3    1    3    3    0  502 -0.34340886805E+03  0.92182693765E+03  0.45720279767E+03  0.10847713870E+04  0.10100000352E+00 0. -1.
</event>
<event>
 5   0  0.4174030E-05  0.2159387E+04  0.7818609E-02  0.8535525E-01
       -1   -1    0    0    0  501  0.00000000000E+00  0.00000000000E+00  0.83064136158E+03  0.83064136160E+03  0.50400001928E-02 0. -1.
        1   -1    0    0  501    0  0.00000000000E+00  0.00000000000E+00 -0.14034194874E+04  0.14034194874E+04  0.50400001928E-02 0.  1.
    10030    2    1    2    0    0  0.00000000000E+00  0.00000000000E+00 -0.57277812578E+03  0.22340608490E+04  0.21593872037E+04 0.  0.
        2    1    3    3  502    0  0.65964910818E+02 -0.29244071253E+03 -0.13594970601E+04  0.13921584666E+04  0.25500000920E-02 0.  1.
       -2    1    3    3    0  502 -0.65964910818E+02  0.29244071253E+03  0.78671893430E+03  0.84190238235E+03  0.25500000920E-02 0. -1.
</event>
<event>
 5   0  0.9254673E-05  0.2189069E+04  0.7818609E-02  0.8522992E-01
       -2   -1    0    0    0  501  0.00000000000E+00  0.00000000000E+00  0.10208013869E+04  0.10208013869E+04  0.25500000920E-02 0.  1.
        2   -1    0    0  501    0  0.00000000000E+00  0.00000000000E+00 -0.11735937146E+04  0.11735937146E+04  0.25500000920E-02 0. -1.
    10030    2    1    2    0    0  0.00000000000E+00  0.00000000000E+00 -0.15279232765E+03  0.21943951015E+04  0.21890692922E+04 0.  0.
        2    1    3    3  502    0  0.99004036490E+03  0.13350418723E+03  0.37190859969E+03  0.10659827853E+04  0.25500000920E-02 0.  1.
       -2    1    3    3    0  502 -0.99004036490E+03 -0.13350418723E+03 -0.52470092734E+03  0.11284123162E+04  0.25500000920E-02 0. -1.
</event>
<event>
 5   0  0.4133418E-05  0.2351393E+04  0.7818609E-02  0.8457929E-01
        1   -1    0    0  501    0  0.00000000000E+00  0.00000000000E+00  0.17858887461E+04  0.17858887461E+04  0.50400001928E-02 0. -1.
       -1   -1    0    0    0  501  0.00000000000E+00  0.00000000000E+00 -0.77399109076E+03  0.77399109077E+03  0.50400001928E-02 0.  1.
    10030    2    1    2    0    0  0.00000000000E+00  0.00000000000E+00  0.10118976553E+04  0.25598798369E+04  0.23513927605E+04 0.  0.
        4    1    3    3  502    0 -0.68771831184E+03  0.39094050102E+03  0.14528182444E+04  0.16542289491E+04  0.12699999809E+01 0. -1.
       -4    1    3    3    0  502  0.68771831184E+03 -0.39094050102E+03 -0.44092058908E+03  0.90565088779E+03  0.12699999809E+01 0.  1.
</event>
<event>
 5   0  0.4174030E-05  0.2180898E+04  0.7818609E-02  0.8526421E-01
        1   -1    0    0  501    0  0.00000000000E+00  0.00000000000E+00  0.82760358668E+03  0.82760358669E+03  0.50400001928E-02 0.  1.
       -1   -1    0    0    0  501  0.00000000000E+00  0.00000000000E+00 -0.14367740756E+04  0.14367740756E+04  0.50400001928E-02 0. -1.
    10030    2    1    2    0    0  0.00000000000E+00  0.00000000000E+00 -0.60917048894E+03  0.22643776623E+04  0.21808983271E+04 0.  0.
        2    1    3    3  502    0  0.10581391115E+04 -0.24507120459E+03 -0.20412899317E+03  0.11051637528E+04  0.25500000920E-02 0. -1.
       -2    1    3    3    0  502 -0.10581391115E+04  0.24507120459E+03 -0.40504149577E+03  0.11592139095E+04  0.25500000920E-02 0.  1.
</event>
<event>
 5   0  0.4188865E-05  0.2178377E+04  0.7818609E-02  0.8527482E-01
        1   -1    0    0  501    0  0.00000000000E+00  0.00000000000E+00  0.19734369740E+04  0.19734369740E+04  0.50400001928E-02 0.  1.
       -1   -1    0    0    0  501  0.00000000000E+00  0.00000000000E+00 -0.60114984966E+03  0.60114984968E+03  0.50400001928E-02 0. -1.
    10030    2    1    2    0    0  0.00000000000E+00  0.00000000000E+00  0.13722871244E+04  0.25745868237E+04  0.21783767721E+04 0.  0.
        3    1    3    3  502    0  0.55897592100E+03 -0.10872126372E+03 -0.41119974754E+03  0.70239564066E+03  0.10100000352E+00 0. -1.
       -3    1    3    3    0  502 -0.55897592100E+03  0.10872126372E+03  0.17834868719E+04  0.18721911830E+04  0.10100000352E+00 0.  1.
</event>
<event>
 5   0  0.9457742E-05  0.2200563E+04  0.7818609E-02  0.8518194E-01
        2   -1    0    0  501    0  0.00000000000E+00  0.00000000000E+00  0.13997834017E+04  0.13997834017E+04  0.25500000920E-02 0. -1.
       -2   -1    0    0    0  501  0.00000000000E+00  0.00000000000E+00 -0.86486228346E+03  0.86486228346E+03  0.25500000920E-02 0.  1.
    10030    2    1    2    0    0  0.00000000000E+00  0.00000000000E+00  0.53492111821E+03  0.22646456851E+04  0.22005634452E+04 0.  0.
        1    1    3    3  502    0 -0.36335184177E+03  0.15964461721E+03  0.13235556217E+04  0.13817780026E+04  0.50400001928E-02 0. -1.
       -1    1    3    3    0  502  0.36335184177E+03 -0.15964461721E+03 -0.78863450349E+03  0.88286768252E+03  0.50400001928E-02 0.  1.
</event>
<event>
 5   0  0.9442578E-05  0.2155436E+04  0.7818609E-02  0.8537209E-01
       -2   -1    0    0    0  501  0.00000000000E+00  0.00000000000E+00  0.47867740262E+03  0.47867740262E+03  0.25500000920E-02 0. -1.
        2   -1    0    0  501    0  0.00000000000E+00  0.00000000000E+00 -0.24264281191E+04  0.24264281191E+04  0.25500000920E-02 0.  1.
    10030    2    1    2    0    0  0.00000000000E+00  0.00000000000E+00 -0.19477507165E+04  0.29051055217E+04  0.21554362062E+04 0.  0.
        4    1    3    3  502    0 -0.36183722218E+03  0.29032642338E+02 -0.23415515321E+04  0.23695219476E+04  0.12699999809E+01 0.  1.
       -4    1    3    3    0  502  0.36183722218E+03 -0.29032642338E+02  0.39380081558E+03  0.53558357418E+03  0.12699999809E+01 0. -1.
</event>
<event>
 5   0  0.4063293E-05  0.2152355E+04  0.7818609E-02  0.8538525E-01
        1   -1    0    0  501    0  0.00000000000E+00  0.00000000000E+00  0.14228806439E+04  0.14228806439E+04  0.50400001928E-02 0. -1.
       -1   -1    0    0    0  501  0.00000000000E+00  0.00000000000E+00 -0.81395289848E+03  0.81395289849E+03  0.50400001928E-02 0.  1.
    10030    2    1    2    0    0  0.00000000000E+00  0.00000000000E+00  0.60892774545E+03  0.22368335424E+04  0.21523548261E+04 0.  0.
        1    1    3    3  502    0  0.81888072905E+03 -0.53908014443E+03 -0.15678585963E+03  0.99285188036E+03  0.50400001928E-02 0.  1.
       -1    1    3    3    0  502 -0.81888072905E+03  0.53908014443E+03  0.76571360508E+03  0.12439816621E+04  0.50400001928E-02 0. -1.
</event>
<event>
 5   0  0.9457742E-05  0.2198174E+04  0.7818609E-02  0.8519189E-01
        2   -1    0    0  501    0  0.00000000000E+00  0.00000000000E+00  0.24425003130E+04  0.24425003130E+04  0.25500000920E-02 0. -1.
       -2   -1    0    0    0  501  0.00000000000E+00  0.00000000000E+00 -0.49457197044E+03  0.49457197045E+03  0.25500000920E-02 0.  1.
    10030    2    1    2    0    0  0.00000000000E+00  0.00000000000E+00  0.19479283426E+04  0.29370722835E+04  0.21981739628E+04 0.  0.
        1    1    3    3  502    0  0.22379041419E+03  0.86378193428E+03  0.18313788265E+04  0.20371916418E+04  0.50400001928E-02 0. -1.
       -1    1    3    3    0  502 -0.22379041419E+03 -0.86378193428E+03  0.11654951610E+03  0.89988064164E+03  0.50400001928E-02 0.  1.
</event>
<event>
 5   0  0.9442578E-05  0.2182181E+04  0.7818609E-02  0.8525882E-01
       -2   -1    0    0    0  501  0.00000000000E+00  0.00000000000E+00  0.12599588811E+04  0.12599588811E+04  0.25500000920E-02 0.  1.
        2   -1    0    0  501    0  0.00000000000E+00  0.00000000000E+00 -0.94485494796E+03  0.94485494796E+03  0.25500000920E-02 0. -1.
    10030    2    1    2    0    0  0.00000000000E+00  0.00000000000E+00  0.31510393319E+03  0.22048138291E+04  0.21821809119E+04 0.  0.
        4    1    3    3  502    0  0.15742341922E+03  0.95399652736E+03 -0.35324590168E+03  0.10294055503E+04  0.12699999809E+01 0.  1.
       -4    1    3    3    0  502 -0.15742341922E+03 -0.95399652736E+03  0.66834983486E+03  0.11754082788E+04  0.12699999809E+01 0. -1.
</event>
<event>
 5   0  0.9938176E-05  0.2123051E+04  0.7818609E-02  0.8551157E-01
       -2   -1    0    0    0  501  0.00000000000E+00  0.00000000000E+00  0.58526099981E+03  0.58526099981E+03  0.25500000920E-02 0. -1.
        2   -1    0    0  501    0  0.00000000000E+00  0.00000000000E+00 -0.19253569978E+04  0.19253569978E+04  0.25500000920E-02 0.  1.
    10030    2    1    2    0    0  0.00000000000E+00  0.00000000000E+00 -0.13400959980E+04  0.25106179976E+04  0.21230509759E+04 0.  0.
        5    1    3    3  502    0  0.86993864676E+02  0.67355659953E+03  0.29470554420E+03  0.74035118224E+03  0.46999998093E+01 0. -1.
       -5    1    3    3    0  502 -0.86993864676E+02 -0.67355659953E+03 -0.16348015422E+04  0.17702668154E+04  0.46999998093E+01 0.  1.
</event>
<event>
 5   0  0.9457742E-05  0.2203439E+04  0.7818609E-02  0.8516998E-01
        2   -1    0    0  501    0  0.00000000000E+00  0.00000000000E+00  0.15126743778E+04  0.15126743778E+04  0.25500000920E-02 0. -1.
       -2   -1    0    0    0  501  0.00000000000E+00  0.00000000000E+00 -0.80241033658E+03  0.80241033658E+03  0.25500000920E-02 0.  1.
    10030    2    1    2    0    0  0.00000000000E+00  0.00000000000E+00  0.71026404121E+03  0.23150847144E+04  0.22034387276E+04 0.  0.
        1    1    3    3  502    0  0.32597875261E+03 -0.66055301774E+03 -0.50564300372E+03  0.89345804806E+03  0.50400001928E-02 0.  1.
       -1    1    3    3    0  502 -0.32597875261E+03  0.66055301774E+03  0.12159070449E+04  0.14216266663E+04  0.50400001928E-02 0. -1.
</event>
<event>
 5   0  0.9938176E-05  0.2203033E+04  0.7818609E-02  0.8517167E-01
       -2   -1    0    0    0  501  0.00000000000E+00  0.00000000000E+00  0.96589552873E+03  0.96589552874E+03  0.25500000920E-02 0.  1.
        2   -1    0    0  501    0  0.00000000000E+00  0.00000000000E+00 -0.12561803625E+04  0.12561803625E+04  0.25500000920E-02 0. -1.
    10030    2    1    2    0    0  0.00000000000E+00  0.00000000000E+00 -0.29028483379E+03  0.22220758913E+04  0.22030333592E+04 0.  0.
        5    1    3    3  502    0 -0.79202656090E+03 -0.69098462710E+03  0.18717636181E+03  0.10676248913E+04  0.46999998093E+01 0. -1.
       -5    1    3    3    0  502  0.79202656090E+03  0.69098462710E+03 -0.47746119560E+03  0.11544510000E+04  0.46999998093E+01 0.  1.
</event>
<event>
 5   0  0.9457742E-05  0.2225891E+04  0.7818609E-02  0.8507728E-01
        2   -1    0    0  501    0  0.00000000000E+00  0.00000000000E+00  0.93229245229E+03  0.93229245229E+03  0.25500000920E-02 0. -1.
       -2   -1    0    0    0  501  0.00000000000E+00  0.00000000000E+00 -0.13286045616E+04  0.13286045616E+04  0.25500000920E-02 0.  1.
    10030    2    1    2    0    0  0.00000000000E+00  0.00000000000E+00 -0.39631210927E+03  0.22608970138E+04  0.22258912865E+04 0.  0.
        1    1    3    3  502    0 -0.83347725280E+03 -0.72915334982E+03 -0.31080130957E+03  0.11501940673E+04  0.50400001928E-02 0.  1.
       -1    1    3    3    0  502  0.83347725280E+03  0.72915334982E+03 -0.85510799702E+02  0.11107029465E+04  0.50400001928E-02 0. -1.
</event>
<event>
 5   0  0.4133418E-05  0.2231404E+04  0.7818609E-02  0.8505470E-01
        1   -1    0    0  501    0  0.00000000000E+00  0.00000000000E+00  0.75551237714E+03  0.75551237716E+03  0.50400001928E-02 0.  1.
       -1   -1    0    0    0  501  0.00000000000E+00  0.00000000000E+00 -0.16476116518E+04  0.16476116518E+04  0.50400001928E-02 0. -1.
    10030    2    1    2    0    0  0.00000000000E+00  0.00000000000E+00 -0.89209927463E+03  0.24031240289E+04  0.22314040384E+04 0.  0.
        4    1    3    3  502    0  0.55449446278E+03 -0.41309046796E+02 -0.14877611156E+04  0.15882711660E+04  0.12699999809E+01 0. -1.
       -4    1    3    3    0  502 -0.55449446278E+03  0.41309046796E+02  0.59566184098E+03  0.81485286298E+03  0.12699999809E+01 0.  1.
</event>
<event>
 5   0  0.4188865E-05  0.2214715E+04  0.7818609E-02  0.8512328E-01
        1   -1    0    0  501    0  0.00000000000E+00  0.00000000000E+00  0.78663144591E+03  0.78663144593E+03  0.50400001928E-02 0.  1.
       -1   -1    0    0    0  501  0.00000000000E+00  0.00000000000E+00 -0.15588495724E+04  0.15588495724E+04  0.50400001928E-02 0. -1.
    10030    2    1    2    0    0  0.00000000000E+00  0.00000000000E+00 -0.77221812649E+03  0.23454810183E+04  0.22147145126E+04 0.  0.
        3    1    3    3  502    0 -0.67963006194E+03 -0.47418968541E+02  0.53841577991E+03  0.86835312053E+03  0.10100000352E+00 0.  1.
       -3    1    3    3    0  502  0.67963006194E+03  0.47418968541E+02 -0.13106339064E+04  0.14771278978E+04  0.10100000352E+00 0. -1.
</event>
<event>
 5   0  0.9457742E-05  0.2252029E+04  0.7818609E-02  0.8497079E-01
       -2   -1    0    0    0  501  0.00000000000E+00  0.00000000000E+00  0.46485354934E+03  0.46485354935E+03  0.25500000920E-02 0.  1.
        2   -1    0    0  501    0  0.00000000000E+00  0.00000000000E+00 -0.27275441365E+04  0.27275441365E+04  0.25500000920E-02 0. -1.
    10030    2    1    2    0    0  0.00000000000E+00  0.00000000000E+00 -0.22626905872E+04  0.31923976859E+04  0.22520289278E+04 0.  0.
        1    1    3    3  502    0 -0.59885224850E+03  0.91993786763E+03 -0.14871481469E+04  0.18483828896E+04  0.50400001928E-02 0. -1.
       -1    1    3    3    0  502  0.59885224850E+03 -0.91993786763E+03 -0.77554244031E+03  0.13440147963E+04  0.50400001928E-02 0.  1.
</event>
<event>
 5   0  0.4174030E-05  0.2205079E+04  0.7818609E-02  0.8516317E-01
       -1   -1    0    0    0  501  0.00000000000E+00  0.00000000000E+00  0.71929396976E+03  0.71929396978E+03  0.50400001928E-02 0.  1.
        1   -1    0    0  501    0  0.00000000000E+00  0.00000000000E+00 -0.16899815449E+04  0.16899815449E+04  0.50400001928E-02 0. -1.
    10030    2    1    2    0    0  0.00000000000E+00  0.00000000000E+00 -0.97068757509E+03  0.24092755146E+04  0.22050791680E+04 0.  0.
        2    1    3    3  502    0  0.25122098007E+03  0.10394433195E+04 -0.77859953805E+03  0.13227893392E+04  0.25500000920E-02 0.  1.
       -2    1    3    3    0  502 -0.25122098007E+03 -0.10394433195E+04 -0.19208803704E+03  0.10864861754E+04  0.25500000920E-02 0. -1.
</event>
<event>
 5   0  0.9254673E-05  0.2208608E+04  0.7818609E-02  0.8514854E-01
       -2   -1    0    0    0  501  0.00000000000E+00  0.00000000000E+00  0.75794231899E+03  0.75794231900E+03  0.25500000920E-02 0.  1.
        2   -1    0    0  501    0  0.00000000000E+00  0.00000000000E+00 -0.16089444739E+04  0.16089444739E+04  0.25500000920E-02 0. -1.
    10030    2    1    2    0    0  0.00000000000E+00  0.00000000000E+00 -0.85100215491E+03  0.23668867929E+04  0.22086078019E+04 0.  0.
        2    1    3    3  502    0  0.28679099033E+03  0.34001423037E+03 -0.15086928528E+04  0.15728995115E+04  0.25500000920E-02 0. -1.
       -2    1    3    3    0  502 -0.28679099033E+03 -0.34001423037E+03  0.65769069790E+03  0.79398728145E+03  0.25500000920E-02 0.  1.
</event>
<event>
 5   0  0.4133418E-05  0.2193999E+04  0.7818609E-02  0.8520930E-01
        1   -1    0    0  501    0  0.00000000000E+00  0.00000000000E+00  0.12913775502E+04  0.12913775502E+04  0.50400001928E-02 0.  1.
       -1   -1    0    0    0  501  0.00000000000E+00  0.00000000000E+00 -0.93187914210E+03  0.93187914211E+03  0.50400001928E-02 0. -1.
    10030    2    1    2    0    0  0.00000000000E+00  0.00000000000E+00  0.35949840806E+03  0.22232566923E+04  0.21939989094E+04 0.  0.
        4    1    3    3  502    0 -0.23939948026E+03 -0.58169850305E+03 -0.73096868945E+03  0.96436616358E+03  0.12699999809E+01 0. -1.
       -4    1    3    3    0  502  0.23939948026E+03  0.58169850305E+03  0.10904670975E+04  0.12588905287E+04  0.12699999809E+01 0.  1.
</event>
<event>
 5   0  0.9938176E-05  0.1941858E+04  0.7818609E-02  0.8634297E-01
        2   -1    0    0  501    0  0.00000000000E+00  0.00000000000E+00  0.14212925642E+04  0.14212925642E+04  0.25500000920E-02 0. -1.
       -2   -1    0    0    0  501  0.00000000000E+00  0.00000000000E+00 -0.66327168796E+03  0.66327168797E+03  0.25500000920E-02 0.  1.
    10030    2    1    2    0    0  0.00000000000E+00  0.00000000000E+00  0.75802087623E+03  0.20845642522E+04  0.19418579950E+04 0.  0.
        5    1    3    3  502    0  0.11644118971E+03 -0.97053416478E+01 -0.65568440942E+03  0.66603068929E+03  0.46999998093E+01 0.  1.
       -5    1    3    3    0  502 -0.11644118971E+03  0.97053416478E+01  0.14137052856E+04  0.14185335629E+04  0.46999998093E+01 0. -1.
</event>
<event>
 5   0  0.4133418E-05  0.2206744E+04  0.7818609E-02  0.8515626E-01
       -1   -1    0    0    0  501  0.00000000000E+00  0.00000000000E+00  0.92702927978E+03  0.92702927979E+03  0.50400001928E-02 0. -1.
        1   -1    0    0  501    0  0.00000000000E+00  0.00000000000E+00 -0.13132596907E+04  0.13132596907E+04  0.50400001928E-02 0.  1.
    10030    2    1    2    0    0  0.00000000000E+00  0.00000000000E+00 -0.38623041092E+03  0.22402889705E+04  0.22067443760E+04 0.  0.
        4    1    3    3  502    0  0.48534183322E+03  0.33826945854E+03  0.75241008411E+03  0.95713398708E+03  0.12699999809E+01 0. -1.
       -4    1    3    3    0  502 -0.48534183322E+03 -0.33826945854E+03 -0.11386404950E+04  0.12831549834E+04  0.12699999809E+01 0.  1.
</event>
<event>
 5   0  0.9457742E-05  0.1849523E+04  0.7818609E-02  0.8680398E-01
        2   -1    0    0  501    0  0.00000000000E+00  0.00000000000E+00  0.97557395977E+03  0.97557395978E+03  0.25500000920E-02 0.  1.
       -2   -1    0    0    0  501  0.00000000000E+00  0.00000000000E+00 -0.87659582840E+03  0.87659582840E+03  0.25500000920E-02 0. -1.
    10030    2    1    2    0    0  0.00000000000E+00  0.00000000000E+00  0.98978131375E+02  0.18521697882E+04  0.18495232504E+04 0.  0.
        1    1    3    3  502    0 -0.41603977224E+03 -0.31034525441E+03  0.81594742470E+03  0.96704367478E+03  0.50400001928E-02 0.  1.
       -1    1    3    3    0  502  0.41603977224E+03  0.31034525441E+03 -0.71696929333E+03  0.88512611340E+03  0.50400001928E-02 0. -1.
</event>
<event>
 5   0  0.4174030E-05  0.2155193E+04  0.7818609E-02  0.8537312E-01
       -1   -1    0    0    0  501  0.00000000000E+00  0.00000000000E+00  0.12078935973E+04  0.12078935973E+04  0.50400001928E-02 0. -1.
        1   -1    0    0  501    0  0.00000000000E+00  0.00000000000E+00 -0.96135516497E+03  0.96135516499E+03  0.50400001928E-02 0.  1.
    10030    2    1    2    0    0  0.00000000000E+00  0.00000000000E+00  0.24653843233E+03  0.21692487623E+04  0.21551934934E+04 0.  0.
        2    1    3    3  502    0  0.69028386841E+03 -0.25454375605E+03  0.91576061974E+03  0.11746922386E+04  0.25500000920E-02 0. -1.
       -2    1    3    3    0  502 -0.69028386841E+03  0.25454375605E+03 -0.66922218741E+03  0.99455652371E+03  0.25500000920E-02 0.  1.
</event>
<event>
 5   0  0.4174030E-05  0.2181418E+04  0.7818609E-02  0.8526202E-01
       -1   -1    0    0    0  501  0.00000000000E+00  0.00000000000E+00  0.22919928782E+04  0.22919928782E+04  0.50400001928E-02 0.  1.
        1   -1    0    0  501    0  0.00000000000E+00  0.00000000000E+00 -0.51904444612E+03  0.51904444614E+03  0.50400001928E-02 0. -1.
    10030    2    1    2    0    0  0.00000000000E+00  0.00000000000E+00  0.17729484321E+04  0.28110373243E+04  0.21814180471E+04 0.  0.
        2    1    3    3  502    0 -0.10074709694E+03  0.22187812698E+03 -0.48351799645E+03  0.54145132161E+03  0.25500000920E-02 0. -1.
       -2    1    3    3    0  502  0.10074709694E+03 -0.22187812698E+03  0.22564664285E+04  0.22695860027E+04  0.25500000920E-02 0.  1.
</event>
<event>
 5   0  0.4188865E-05  0.2184357E+04  0.7818609E-02  0.8524967E-01
       -1   -1    0    0    0  501  0.00000000000E+00  0.00000000000E+00  0.75847663560E+03  0.75847663562E+03  0.50400001928E-02 0. -1.
        1   -1    0    0  501    0  0.00000000000E+00  0.00000000000E+00 -0.15726969610E+04  0.15726969610E+04  0.50400001928E-02 0.  1.
    10030    2    1    2    0    0  0.00000000000E+00  0.00000000000E+00 -0.81422032542E+03  0.23311735966E+04  0.21843570220E+04 0.  0.
        3    1    3    3  502    0  0.25017261533E+03  0.80772261101E+03  0.33062006146E+03  0.90791617952E+03  0.10100000352E+00 0. -1.
       -3    1    3    3    0  502 -0.25017261533E+03 -0.80772261101E+03 -0.11448403869E+04  0.14232574171E+04  0.10100000352E+00 0.  1.
</event>
<event>
 5   0  0.4174075E-05  0.2195558E+04  0.7818609E-02  0.8520279E-01
        1   -1    0    0  501    0  0.00000000000E+00  0.00000000000E+00  0.14035672618E+04  0.14035672618E+04  0.50400001928E-02 0. -1.
       -1   -1    0    0    0  501  0.00000000000E+00  0.00000000000E+00 -0.85861104090E+03  0.85861104091E+03  0.50400001928E-02 0.  1.
    10030    2    1    2    0    0  0.00000000000E+00  0.00000000000E+00  0.54495622087E+03  0.22621783027E+04  0.21955576491E+04 0.  0.
        5    1    3    3  502    0  0.52463009814E+03  0.74990658046E+03 -0.35213406515E+03  0.98062077743E+03  0.46999998093E+01 0.  1.
       -5    1    3    3    0  502 -0.52463009814E+03 -0.74990658046E+03  0.89709028602E+03  0.12815575253E+04  0.46999998093E+01 0. -1.
</event>
<event>
 5   0  0.4133418E-05  0.2194356E+04  0.7818609E-02  0.8520781E-01
        1   -1    0    0  501    0  0.00000000000E+00  0.00000000000E+00  0.14230526362E+04  0.14230526362E+04  0.50400001928E-02 0.  1.
       -1   -1    0    0    0  501  0.00000000000E+00  0.00000000000E+00 -0.84592760296E+03  0.84592760298E+03  0.50400001928E-02 0. -1.
    10030    2    1    2    0    0  0.00000000000E+00  0.00000000000E+00  0.57712503324E+03  0.22689802392E+04  0.21943559469E+04 0.  0.
        4    1    3    3  502    0  0.54170715227E+02  0.10410841871E+04  0.64225825110E+03  0.12244541744E+04  0.12699999809E+01 0.  1.
       -4    1    3    3    0  502 -0.54170715227E+02 -0.10410841871E+04 -0.65133217860E+02  0.10445260648E+04  0.12699999809E+01 0. -1.
</event>
<event>
 5   0  0.9442578E-05  0.2219160E+04  0.7818609E-02  0.8510495E-01
       -2   -1    0    0    0  501  0.00000000000E+00  0.00000000000E+00  0.89558212840E+03  0.89558212840E+03  0.25500000920E-02 0. -1.
        2   -1    0    0  501    0  0.00000000000E+00  0.00000000000E+00 -0.13747126393E+04  0.13747126393E+04  0.25500000920E-02 0.  1.
    10030    2    1    2    0    0  0.00000000000E+00  0.00000000000E+00 -0.47913051095E+03  0.22702947678E+04  0.22191602659E+04 0.  0.
        4    1    3    3  502    0 -0.70504774366E+03  0.42476020997E+03  0.52165856640E+03  0.97449619272E+03  0.12699999809E+01 0. -1.
       -4    1    3    3    0  502  0.70504774366E+03 -0.42476020997E+03 -0.10007890773E+04  0.12957985750E+04  0.12699999809E+01 0.  1.
</event>
<event>
 5   0  0.9457742E-05  0.2218552E+04  0.7818609E-02  0.8510746E-01
        2   -1    0    0  501    0  0.00000000000E+00  0.00000000000E+00  0.95597529663E+03  0.95597529664E+03  0.25500000920E-02 0. -1.
       -2   -1    0    0    0  501  0.00000000000E+00  0.00000000000E+00 -0.12871596382E+04  0.12871596382E+04  0.25500000920E-02 0.  1.
    10030    2    1    2    0    0  0.00000000000E+00  0.00000000000E+00 -0.33118434159E+03  0.22431349349E+04  0.22185516149E+04 0.  0.
        1    1    3    3  502    0  0.99470362594E+03  0.46543447177E+03 -0.75648481878E+01  0.10982357570E+04  0.50400001928E-02 0. -1.
       -1    1    3    3    0  502 -0.99470362594E+03 -0.46543447177E+03 -0.32361949341E+03  0.11448991779E+04  0.50400001928E-02 0.  1.
</event>
<event>
 5   0  0.9938176E-05  0.2207172E+04  0.7818609E-02  0.8515449E-01
        2   -1    0    0  501    0  0.00000000000E+00  0.00000000000E+00  0.12031094164E+04  0.12031094164E+04  0.25500000920E-02 0. -1.
       -2   -1    0    0    0  501  0.00000000000E+00  0.00000000000E+00 -0.10122954987E+04  0.10122954987E+04  0.25500000920E-02 0.  1.
    10030    2    1    2    0    0  0.00000000000E+00  0.00000000000E+00  0.19081391763E+03  0.22154049151E+04  0.22071721697E+04 0.  0.
        5    1    3    3  502    0  0.11036646483E+03 -0.10731166880E+04  0.32891169493E+03  0.11278143356E+04  0.46999998093E+01 0.  1.
       -5    1    3    3    0  502 -0.11036646483E+03  0.10731166880E+04 -0.13809777729E+03  0.10875905795E+04  0.46999998093E+01 0. -1.
</event>
<event>
 5   0  0.9254673E-05  0.2270124E+04  0.7818609E-02  0.8489795E-01
       -2   -1    0    0    0  501  0.00000000000E+00  0.00000000000E+00  0.94199959100E+03  0.94199959101E+03  0.25500000920E-02 0. -1.
        2   -1    0    0  501    0  0.00000000000E+00  0.00000000000E+00 -0.13676925997E+04  0.13676925997E+04  0.25500000920E-02 0.  1.
    10030    2    1    2    0    0  0.00000000000E+00  0.00000000000E+00 -0.42569300872E+03  0.23096921907E+04  0.22701241108E+04 0.  0.
        2    1    3    3  502    0  0.92412442787E+03  0.36904191658E+03 -0.76841166407E+03  0.12572407804E+04  0.25500000920E-02 0.  1.
       -2    1    3    3    0  502 -0.92412442787E+03 -0.36904191658E+03  0.34271865536E+03  0.10524514103E+04  0.25500000920E-02 0. -1.
</event>
<event>
 5   0  0.4174030E-05  0.2212997E+04  0.7818609E-02  0.8513038E-01
        1   -1    0    0  501    0  0.00000000000E+00  0.00000000000E+00  0.11185096309E+04  0.11185096309E+04  0.50400001928E-02 0. -1.
       -1   -1    0    0    0  501  0.00000000000E+00  0.00000000000E+00 -0.10946161772E+04  0.10946161772E+04  0.50400001928E-02 0.  1.
    10030    2    1    2    0    0  0.00000000000E+00  0.00000000000E+00  0.23893453652E+02  0.22131258081E+04  0.22129968245E+04 0.  0.
        2    1    3    3  502    0 -0.90860645301E+03 -0.35857241372E+03  0.53178359718E+03  0.11121751915E+04  0.25500000920E-02 0. -1.
       -2    1    3    3    0  502  0.90860645301E+03  0.35857241372E+03 -0.50789014352E+03  0.11009506166E+04  0.25500000920E-02 0.  1.
</event>
<event>
 5   0  0.4063293E-05  0.2139503E+04  0.7818609E-02  0.8544039E-01
        1   -1    0    0  501    0  0.00000000000E+00  0.00000000000E+00  0.93322184747E+03  0.93322184749E+03  0.50400001928E-02 0.  1.
       -1   -1    0    0    0  501  0.00000000000E+00  0.00000000000E+00 -0.12262551025E+04  0.12262551025E+04  0.50400001928E-02 0. -1.
    10030    2    1    2    0    0  0.00000000000E+00  0.00000000000E+00 -0.29303325503E+03  0.21594769500E+04  0.21395027948E+04 0.  0.
        1    1    3    3  502    0 -0.83110354055E+03  0.54013095749E+03 -0.55263293485E+03  0.11348469972E+04  0.50400001928E-02 0. -1.
       -1    1    3    3    0  502  0.83110354055E+03 -0.54013095749E+03  0.25959967983E+03  0.10246299528E+04  0.50400001928E-02 0.  1.
</event>
<event>
 5   0  0.9938176E-05  0.2156657E+04  0.7818609E-02  0.8536688E-01
       -2   -1    0    0    0  501  0.00000000000E+00  0.00000000000E+00  0.84672939734E+03  0.84672939735E+03  0.25500000920E-02 0.  1.
        2   -1    0    0  501    0  0.00000000000E+00  0.00000000000E+00 -0.13732747618E+04  0.13732747618E+04  0.25500000920E-02 0. -1.
    10030    2    1    2    0    0  0.00000000000E+00  0.00000000000E+00 -0.52654536444E+03  0.22200041591E+04  0.21566567751E+04 0.  0.
        5    1    3    3  502    0  0.86293139348E+03  0.12317761735E+03  0.39015354027E+03  0.95502104179E+03  0.46999998093E+01 0.  1.
       -5    1    3    3    0  502 -0.86293139348E+03 -0.12317761735E+03 -0.91669890471E+03  0.12649831173E+04  0.46999998093E+01 0. -1.
</event>
<event>
 5   0  0.9457742E-05  0.2171471E+04  0.7818609E-02  0.8530397E-01
       -2   -1    0    0    0  501  0.00000000000E+00  0.00000000000E+00  0.11343185594E+04  0.11343185594E+04  0.25500000920E-02 0.  1.
        2   -1    0    0  501    0  0.00000000000E+00  0.00000000000E+00 -0.10392329029E+04  0.10392329029E+04  0.25500000920E-02 0. -1.
    10030    2    1    2    0    0  0.00000000000E+00  0.00000000000E+00  0.95085656502E+02  0.21735514624E+04  0.21714706255E+04 0.  0.
        1    1    3    3  502    0 -0.36169106100E+03  0.12426389765E+02 -0.97708174422E+03  0.10419518097E+04  0.50400001928E-02 0. -1.
       -1    1    3    3    0  502  0.36169106100E+03 -0.12426389765E+02  0.10721674007E+04  0.11315996527E+04  0.50400001928E-02 0.  1.
</event>
<event>
 5   0  0.4174075E-05  0.2197270E+04  0.7818609E-02  0.8519565E-01
       -1   -1    0    0    0  501  0.00000000000E+00  0.00000000000E+00  0.89068029903E+03  0.89068029905E+03  0.50400001928E-02 0.  1.
        1   -1    0    0  501    0  0.00000000000E+00  0.00000000000E+00 -0.13551431635E+04  0.13551431635E+04  0.50400001928E-02 0. -1.
    10030    2    1    2    0    0  0.00000000000E+00  0.00000000000E+00 -0.46446286448E+03  0.22458234626E+04  0.21972704141E+04 0.  0.
        5    1    3    3  502    0  0.10171316562E+04 -0.41521861222E+03 -0.22841719760E+03  0.11221229024E+04  0.46999998093E+01 0.  1.
       -5    1    3    3    0  502 -0.10171316562E+04  0.41521861222E+03 -0.23604566688E+03  0.11237005601E+04  0.46999998093E+01 0. -1.
</event>
<event>
 5   0  0.4188865E-05  0.2018906E+04  0.7818609E-02  0.8597832E-01
        1   -1    0    0  501    0  0.00000000000E+00  0.00000000000E+00  0.92589914896E+03  0.92589914897E+03  0.50400001928E-02 0. -1.
       -1   -1    0    0    0  501  0.00000000000E+00  0.00000000000E+00 -0.11005467374E+04  0.11005467374E+04  0.50400001928E-02 0.  1.
    10030    2    1    2    0    0  0.00000000000E+00  0.00000000000E+00 -0.17464758840E+03  0.20264458863E+04  0.20189059290E+04 0.  0.
        3    1    3    3  502    0 -0.72268434080E+03 -0.25017563416E+03 -0.74867357509E+03  0.10702208354E+04  0.10100000352E+00 0.  1.
       -3    1    3    3    0  502  0.72268434080E+03  0.25017563416E+03  0.57402598669E+03  0.95622505090E+03  0.10100000352E+00 0. -1.
</event>
<event>
 5   0  0.9938176E-05  0.2197627E+04  0.7818609E-02  0.8519416E-01
        2   -1    0    0  501    0  0.00000000000E+00  0.00000000000E+00  0.17115651473E+04  0.17115651473E+04  0.25500000920E-02 0.  1.
       -2   -1    0    0    0  501  0.00000000000E+00  0.00000000000E+00 -0.70543100201E+03  0.70543100202E+03  0.25500000920E-02 0. -1.
    10030    2    1    2    0    0  0.00000000000E+00  0.00000000000E+00  0.10061341453E+04  0.24169961493E+04  0.21976270083E+04 0.  0.
        5    1    3    3  502    0  0.69213901589E+03  0.69332972438E+03  0.10503387814E+04  0.14363133954E+04  0.46999998093E+01 0.  1.
       -5    1    3    3    0  502 -0.69213901589E+03 -0.69332972438E+03 -0.44204636115E+02  0.98068275394E+03  0.46999998093E+01 0. -1.
</event>
<event>
 5   0  0.4188865E-05  0.2193994E+04  0.7818609E-02  0.8520932E-01
        1   -1    0    0  501    0  0.00000000000E+00  0.00000000000E+00  0.16491744239E+04  0.16491744239E+04  0.50400001928E-02 0. -1.
       -1   -1    0    0    0  501  0.00000000000E+00  0.00000000000E+00 -0.72970009477E+03  0.72970009479E+03  0.50400001928E-02 0.  1.
    10030    2    1    2    0    0  0.00000000000E+00  0.00000000000E+00  0.91947432911E+03  0.23788745187E+04  0.21939942875E+04 0.  0.
        3    1    3    3  502    0 -0.15419203888E+02  0.33424039410E+03 -0.67302212474E+03  0.75160706721E+03  0.10100000352E+00 0.  1.
       -3    1    3    3    0  502  0.15419203888E+02 -0.33424039410E+03  0.15924964538E+04  0.16272674515E+04  0.10100000352E+00 0. -1.
</event>
<event>
 5   0  0.9938176E-05  0.2270231E+04  0.7818609E-02  0.8489752E-01
        2   -1    0    0  501    0  0.00000000000E+00  0.00000000000E+00  0.22284446502E+04  0.22284446502E+04  0.25500000920E-02 0.  1.
       -2   -1    0    0    0  501  0.00000000000E+00  0.00000000000E+00 -0.57820042412E+03  0.57820042413E+03  0.25500000920E-02 0. -1.
    10030    2    1    2    0    0  0.00000000000E+00  0.00000000000E+00  0.16502442261E+04  0.28066450744E+04  0.22702313908E+04 0.  0.
        5    1    3    3  502    0  0.53159385156E+03  0.96360994682E+03  0.48133492369E+03  0.12011833962E+04  0.46999998093E+01 0. -1.
       -5    1    3    3    0  502 -0.53159385156E+03 -0.96360994682E+03  0.11689093024E+04  0.16054616781E+04  0.46999998093E+01 0.  1.
</event>
<event>
 5   0  0.4174030E-05  0.2312192E+04  0.7818609E-02  0.8473130E-01
       -1   -1    0    0    0  501  0.00000000000E+00  0.00000000000E+00  0.10333398597E+04  0.10333398597E+04  0.50400001928E-02 0.  1.
        1   -1    0    0  501    0  0.00000000000E+00  0.00000000000E+00 -0.12934345579E+04  0.12934345579E+04  0.50400001928E-02 0. -1.
    10030    2    1    2    0    0  0.00000000000E+00  0.00000000000E+00 -0.26009469817E+03  0.23267744177E+04  0.23121915878E+04 0.  0.
        2    1    3    3  502    0 -0.84794514431E+03  0.21544370963E+03 -0.89054547737E+03  0.12483982566E+04  0.25500000920E-02 0. -1.
       -2    1    3    3    0  502  0.84794514431E+03 -0.21544370963E+03  0.63045077920E+03  0.10783761611E+04  0.25500000920E-02 0.  1.
</event>
<event>
 5   0  0.9457742E-05  0.2153335E+04  0.7818609E-02  0.8538106E-01
       -2   -1    0    0    0  501  0.00000000000E+00  0.00000000000E+00  0.14566030489E+04  0.14566030489E+04  0.25500000920E-02 0.  1.
        2   -1    0    0  501    0  0.00000000000E+00  0.00000000000E+00 -0.79583313216E+03  0.79583313216E+03  0.25500000920E-02 0. -1.
    10030    2    1    2    0    0  0.00000000000E+00  0.00000000000E+00  0.66076991673E+03  0.22524361810E+04  0.21533350568E+04 0.  0.
        1    1    3    3  502    0 -0.14681825734E+03  0.78255668345E+02  0.14430759602E+04  0.14526347707E+04  0.50400001928E-02 0.  1.
       -1    1    3    3    0  502  0.14681825734E+03 -0.78255668345E+02 -0.78230604344E+03  0.79980141031E+03  0.50400001928E-02 0. -1.
</event>
<event>
 5   0  0.4174030E-05  0.2322120E+04  0.7818609E-02  0.8469250E-01
        1   -1    0    0  501    0  0.00000000000E+00  0.00000000000E+00  0.12535586752E+04  0.12535586752E+04  0.50400001928E-02 0. -1.
       -1   -1    0    0    0  501  0.00000000000E+00  0.00000000000E+00 -0.10753864549E+04  0.10753864549E+04  0.50400001928E-02 0.  1.
    10030    2    1    2    0    0  0.00000000000E+00  0.00000000000E+00  0.17817222025E+03  0.23289451301E+04  0.23221197383E+04 0.  0.
        2    1    3    3  502    0  0.31599568599E+03 -0.29073987899E+03  0.11709954870E+04  0.12472423106E+04  0.25500000920E-02 0. -1.
       -2    1    3    3    0  502 -0.31599568599E+03  0.29073987899E+03 -0.99282326672E+03  0.10817028195E+04  0.25500000920E-02 0.  1.
</event>
<event>
 5   0  0.9442578E-05  0.2353669E+04  0.7818609E-02  0.8457056E-01
        2   -1    0    0  501    0  0.00000000000E+00  0.00000000000E+00  0.19410887550E+04  0.19410887550E+04  0.25500000920E-02 0. -1.
       -2   -1    0    0    0  501  0.00000000000E+00  0.00000000000E+00 -0.71348563059E+03  0.71348563060E+03  0.25500000920E-02 0.  1.
    10030    2    1    2    0    0  0.00000000000E+00  0.00000000000E+00  0.12276031245E+04  0.26545743856E+04  0.23536685701E+04 0.  0.
        4    1    3    3  502    0  0.33486467748E+03  0.11279625491E+04  0.63910799042E+03  0.13389901048E+04  0.12699999809E+01 0.  1.
       -4    1    3    3    0  502 -0.33486467748E+03 -0.11279625491E+04  0.58849513404E+03  0.13155842809E+04  0.12699999809E+01 0. -1.
</event>
<event>
 5   0  0.4133418E-05  0.1677797E+04  0.7818609E-02  0.8774130E-01
        1   -1    0    0  501    0  0.00000000000E+00  0.00000000000E+00  0.14169275527E+04  0.14169275527E+04  0.50400001928E-02 0. -1.
       -1   -1    0    0    0  501  0.00000000000E+00  0.00000000000E+00 -0.49667390377E+03  0.49667390379E+03  0.50400001928E-02 0.  1.
    10030    2    1    2    0    0  0.00000000000E+00  0.00000000000E+00  0.92025364895E+03  0.19136014565E+04  0.16777972929E+04 0.  0.
        4    1    3    3  502    0 -0.42397510070E+03  0.20879972446E+03 -0.33039196859E+03  0.57663912177E+03  0.12699999809E+01 0.  1.
       -4    1    3    3    0  502  0.42397510070E+03 -0.20879972446E+03  0.12506456175E+04  0.13369623347E+04  0.12699999809E+01 0. -1.
</event>
<event>
 5   0  0.4174030E-05  0.2174400E+04  0.7818609E-02  0.8529160E-01
        1   -1    0    0  501    0  0.00000000000E+00  0.00000000000E+00  0.90709584729E+03  0.90709584730E+03  0.50400001928E-02 0.  1.
       -1   -1    0    0    0  501  0.00000000000E+00  0.00000000000E+00 -0.13030635950E+04  0.13030635950E+04  0.50400001928E-02 0. -1.
    10030    2    1    2    0    0  0.00000000000E+00  0.00000000000E+00 -0.39596774770E+03  0.22101594423E+04  0.21743997570E+04 0.  0.
        2    1    3    3  502    0  0.84795361395E+03  0.46760911448E+03  0.30443238921E+03  0.10150678278E+04  0.25500000920E-02 0.  1.
       -2    1    3    3    0  502 -0.84795361395E+03 -0.46760911448E+03 -0.70040013691E+03  0.11950916145E+04  0.25500000920E-02 0. -1.
</event>
<event>
 5   0  0.4174075E-05  0.2182146E+04  0.7818609E-02  0.8525896E-01
        1   -1    0    0  501    0  0.00000000000E+00  0.00000000000E+00  0.16883892850E+04  0.16883892850E+04  0.50400001928E-02 0.  1.
       -1   -1    0    0    0  501  0.00000000000E+00  0.00000000000E+00 -0.70507438516E+03  0.70507438518E+03  0.50400001928E-02 0. -1.
    10030    2    1    2    0    0  0.00000000000E+00  0.00000000000E+00  0.98331489985E+03  0.23934636702E+04  0.21821457670E+04 0.  0.
        5    1    3    3  502    0  0.10714747196E+04 -0.47124341334E+00  0.71740303451E+03  0.12894756689E+04  0.46999998093E+01 0. -1.
       -5    1    3    3    0  502 -0.10714747196E+04  0.47124341334E+00  0.26591186534E+03  0.11039880013E+04  0.46999998093E+01 0.  1.
</event>
<event>
 5   0  0.4174030E-05  0.2197536E+04  0.7818609E-02  0.8519454E-01
        1   -1    0    0  501    0  0.00000000000E+00  0.00000000000E+00  0.18334313450E+04  0.18334313450E+04  0.50400001928E-02 0.  1.
       -1   -1    0    0    0  501  0.00000000000E+00  0.00000000000E+00 -0.65848709743E+03  0.65848709745E+03  0.50400001928E-02 0. -1.
    10030    2    1    2    0    0  0.00000000000E+00  0.00000000000E+00  0.11749442475E+04  0.24919184424E+04  0.21975357879E+04 0.  0.
        2    1    3    3  502    0 -0.59556755061E+03  0.81266897594E+03  0.90389495000E+02  0.10115838238E+04  0.25500000920E-02 0.  1.
       -2    1    3    3    0  502  0.59556755061E+03 -0.81266897594E+03  0.10845547525E+04  0.14803346186E+04  0.25500000920E-02 0. -1.
</event>
<event>
 5   0  0.4188865E-05  0.2180893E+04  0.7818609E-02  0.8526423E-01
        1   -1    0    0  501    0  0.00000000000E+00  0.00000000000E+00  0.13665080090E+04  0.13665080090E+04  0.50400001928E-02 0.  1.
       -1   -1    0    0    0  501  0.00000000000E+00  0.00000000000E+00 -0.87015454416E+03  0.87015454418E+03  0.50400001928E-02 0. -1.
    10030    2    1    2    0    0  0.00000000000E+00  0.00000000000E+00  0.49635346481E+03  0.22366625532E+04  0.21808926188E+04 0.  0.
        3    1    3    3  502    0 -0.80321256254E+03 -0.73147004035E+03  0.34478922988E+03  0.11397712331E+04  0.10100000352E+00 0.  1.
       -3    1    3    3    0  502  0.80321256254E+03  0.73147004035E+03  0.15156423494E+03  0.10968913201E+04  0.10100000352E+00 0. -1.
</event>
<event>
 5   0  0.4174075E-05  0.2184419E+04  0.7818609E-02  0.8524941E-01
       -1   -1    0    0    0  501  0.00000000000E+00  0.00000000000E+00  0.75148774889E+03  0.75148774891E+03  0.50400001928E-02 0.  1.
        1   -1    0    0  501    0  0.00000000000E+00  0.00000000000E+00 -0.15874132261E+04  0.15874132261E+04  0.50400001928E-02 0. -1.
    10030    2    1    2    0    0  0.00000000000E+00  0.00000000000E+00 -0.83592547723E+03  0.23389009750E+04  0.21844190000E+04 0.  0.
        5    1    3    3  502    0 -0.91970750302E+03  0.22813251143E+02 -0.10482496182E+04  0.13947156297E+04  0.46999998093E+01 0. -1.
       -5    1    3    3    0  502  0.91970750302E+03 -0.22813251143E+02  0.21232414100E+03  0.94418534536E+03  0.46999998093E+01 0.  1.
</event>
<event>
 5   0  0.4174075E-05  0.2191817E+04  0.7818609E-02  0.8521842E-01
        1   -1    0    0  501    0  0.00000000000E+00  0.00000000000E+00  0.16353626560E+04  0.16353626560E+04  0.50400001928E-02 0.  1.
       -1   -1    0    0    0  501  0.00000000000E+00  0.00000000000E+00 -0.73440291252E+03  0.73440291254E+03  0.50400001928E-02 0. -1.
    10030    2    1    2    0    0  0.00000000000E+00  0.00000000000E+00  0.90095974347E+03  0.23697655685E+04  0.21918166873E+04 0.  0.
        5    1    3    3  502    0 -0.58550194824E+03  0.87921820697E+03  0.13497336103E+03  0.10649305541E+04  0.46999998093E+01 0.  1.
       -5    1    3    3    0  502  0.58550194824E+03 -0.87921820697E+03  0.76598638245E+03  0.13048350145E+04  0.46999998093E+01 0. -1.
</event>
<event>
 5   0  0.4174075E-05  0.2238252E+04  0.7818609E-02  0.8502673E-01
       -1   -1    0    0    0  501  0.00000000000E+00  0.00000000000E+00  0.12591978774E+04  0.12591978774E+04  0.50400001928E-02 0.  1.
        1   -1    0    0  501    0  0.00000000000E+00  0.00000000000E+00 -0.99463564768E+03  0.99463564769E+03  0.50400001928E-02 0. -1.
    10030    2    1    2    0    0  0.00000000000E+00  0.00000000000E+00  0.26456222971E+03  0.22538335251E+04  0.22382520826E+04 0.  0.
        5    1    3    3  502    0 -0.43219712911E+03  0.34739262375E+03  0.11111310266E+04  0.12418173141E+04  0.46999998093E+01 0.  1.
       -5    1    3    3    0  502  0.43219712911E+03 -0.34739262375E+03 -0.84656879686E+03  0.10120162110E+04  0.46999998093E+01 0. -1.
</event>
<event>
 5   0  0.9442578E-05  0.2221498E+04  0.7818609E-02  0.8509533E-01
       -2   -1    0    0    0  501  0.00000000000E+00  0.00000000000E+00  0.90716050446E+03  0.90716050446E+03  0.25500000920E-02 0.  1.
        2   -1    0    0  501    0  0.00000000000E+00  0.00000000000E+00 -0.13600278183E+04  0.13600278183E+04  0.25500000920E-02 0. -1.
    10030    2    1    2    0    0  0.00000000000E+00  0.00000000000E+00 -0.45286731384E+03  0.22671883228E+04  0.22214981627E+04 0.  0.
        4    1    3    3  502    0 -0.84818327548E+02  0.10876862287E+04 -0.13561749538E+02  0.10910733315E+04  0.12699999809E+01 0.  1.
       -4    1    3    3    0  502  0.84818327548E+02 -0.10876862287E+04 -0.43930556430E+03  0.11761149912E+04  0.12699999809E+01 0. -1.
</event>
<event>
 5   0  0.4133418E-05  0.2212817E+04  0.7818609E-02  0.8513112E-01
        1   -1    0    0  501    0  0.00000000000E+00  0.00000000000E+00  0.11939916948E+04  0.11939916948E+04  0.50400001928E-02 0. -1.
       -1   -1    0    0    0  501  0.00000000000E+00  0.00000000000E+00 -0.10252495618E+04  0.10252495618E+04  0.50400001928E-02 0.  1.
    10030    2    1    2    0    0  0.00000000000E+00  0.00000000000E+00  0.16874213300E+03  0.22192412566E+04  0.22128167226E+04 0.  0.
        4    1    3    3  502    0 -0.51075936680E+03 -0.81156995639E+03  0.63789459615E+03  0.11517083197E+04  0.12699999809E+01 0. -1.
       -4    1    3    3    0  502  0.51075936680E+03  0.81156995639E+03 -0.46915246315E+03  0.10675329369E+04  0.12699999809E+01 0.  1.
</event>
<event>
 5   0  0.9179618E-05  0.2178775E+04  0.7818609E-02  0.8527315E-01
        2   -1    0    0  501    0  0.00000000000E+00  0.00000000000E+00  0.11795286263E+04  0.11795286263E+04  0.25500000920E-02 0. -1.
       -2   -1    0    0    0  501  0.00000000000E+00  0.00000000000E+00 -0.10061347990E+04  0.10061347990E+04  0.25500000920E-02 0.  1.
    10030    2    1    2    0    0  0.00000000000E+00  0.00000000000E+00  0.17339382731E+03  0.21856634252E+04  0.21787746990E+04 0.  0.
        3    1    3    3  502    0  0.84740945222E+03  0.20194535195E+03  0.74289052339E+03  0.11448890972E+04  0.10100000352E+00 0. -1.
       -3    1    3    3    0  502 -0.84740945222E+03 -0.20194535195E+03 -0.56949669608E+03  0.10407743281E+04  0.10100000352E+00 0.  1.
</event>
<event>
 5   0  0.9457742E-05  0.2203513E+04  0.7818609E-02  0.8516967E-01
        2   -1    0    0  501    0  0.00000000000E+00  0.00000000000E+00  0.23998476319E+04  0.23998476319E+04  0.25500000920E-02 0. -1.
       -2   -1    0    0    0  501  0.00000000000E+00  0.00000000000E+00 -0.50581036937E+03  0.50581036937E+03  0.25500000920E-02 0.  1.
    10030    2    1    2    0    0  0.00000000000E+00  0.00000000000E+00  0.18940372626E+04  0.29056580013E+04  0.22035133920E+04 0.  0.
        1    1    3    3  502    0 -0.50467622836E+03  0.43404303631E+03 -0.21067327252E+03  0.69819387037E+03  0.50400001928E-02 0.  1.
       -1    1    3    3    0  502  0.50467622836E+03 -0.43404303631E+03  0.21047105351E+04  0.22074641310E+04  0.50400001928E-02 0. -1.
</event>
<event>
 5   0  0.4133418E-05  0.2036868E+04  0.7818609E-02  0.8589575E-01
        1   -1    0    0  501    0  0.00000000000E+00  0.00000000000E+00  0.22385701869E+04  0.22385701869E+04  0.50400001928E-02 0. -1.
       -1   -1    0    0    0  501  0.00000000000E+00  0.00000000000E+00 -0.46333473171E+03  0.46333473174E+03  0.50400001928E-02 0.  1.
    10030    2    1    2    0    0  0.00000000000E+00  0.00000000000E+00  0.17752354552E+04  0.27019049186E+04  0.20368675136E+04 0.  0.
        4    1    3    3  502    0  0.92207096577E+03 -0.26296117452E+02  0.31506834201E+03  0.97476972909E+03  0.12699999809E+01 0.  1.
       -4    1    3    3    0  502 -0.92207096577E+03  0.26296117452E+02  0.14601671132E+04  0.17271351896E+04  0.12699999809E+01 0. -1.
</event>
<event>
 5   0  0.9457742E-05  0.2191699E+04  0.7818609E-02  0.8521891E-01
        2   -1    0    0  501    0  0.00000000000E+00  0.00000000000E+00  0.17399532732E+04  0.17399532732E+04  0.25500000920E-02 0. -1.
       -2   -1    0    0    0  501  0.00000000000E+00  0.00000000000E+00 -0.69018274344E+03  0.69018274345E+03  0.25500000920E-02 0.  1.
    10030    2    1    2    0    0  0.00000000000E+00  0.00000000000E+00  0.10497705298E+04  0.24301360167E+04  0.21916986322E+04 0.  0.
        1    1    3    3  502    0  0.79039474984E+03  0.54840098363E+03 -0.57011687105E+02  0.96370007363E+03  0.50400001928E-02 0.  1.
       -1    1    3    3    0  502 -0.79039474984E+03 -0.54840098363E+03  0.11067822169E+04  0.14664359430E+04  0.50400001928E-02 0. -1.
</event>
<event>
 5   0  0.9179618E-05  0.2114967E+04  0.7818609E-02  0.8554679E-01
        2   -1    0    0  501    0  0.00000000000E+00  0.00000000000E+00  0.21317560800E+04  0.21317560800E+04  0.25500000920E-02 0.  1.
       -2   -1    0    0    0  501  0.00000000000E+00  0.00000000000E+00 -0.52457758203E+03  0.52457758204E+03  0.25500000920E-02 0. -1.
    10030    2    1    2    0    0  0.00000000000E+00  0.00000000000E+00  0.16071784979E+04  0.26563336620E+04  0.21149670919E+04 0.  0.
        3    1    3    3  502    0 -0.53290852550E+02  0.78022340045E+03  0.16976091068E+04  0.18690813678E+04  0.10100000352E+00 0.  1.
       -3    1    3    3    0  502  0.53290852550E+02 -0.78022340045E+03 -0.90430608870E+02  0.78725229425E+03  0.10100000352E+00 0. -1.
</event>
<event>
 5   0  0.4174030E-05  0.2227829E+04  0.7818609E-02  0.8506934E-01
        1   -1    0    0  501    0  0.00000000000E+00  0.00000000000E+00  0.89697145567E+03  0.89697145569E+03  0.50400001928E-02 0. -1.
       -1   -1    0    0    0  501  0.00000000000E+00  0.00000000000E+00 -0.13833279013E+04  0.13833279013E+04  0.50400001928E-02 0.  1.
    10030    2    1    2    0    0  0.00000000000E+00  0.00000000000E+00 -0.48635644561E+03  0.22802993570E+04  0.22278291149E+04 0.  0.
        2    1    3    3  502    0  0.94069323775E+03  0.13921337655E+03  0.35058925114E+03  0.10135072544E+04  0.25500000920E-02 0. -1.
       -2    1    3    3    0  502 -0.94069323775E+03 -0.13921337655E+03 -0.83694569675E+03  0.12667921025E+04  0.25500000920E-02 0.  1.
</event>
<event>
 5   0  0.9179618E-05  0.2207793E+04  0.7818609E-02  0.8515191E-01
       -2   -1    0    0    0  501  0.00000000000E+00  0.00000000000E+00  0.78070923410E+03  0.78070923411E+03  0.25500000920E-02 0.  1.
        2   -1    0    0  501    0  0.00000000000E+00  0.00000000000E+00 -0.15608723855E+04  0.15608723855E+04  0.25500000920E-02 0. -1.
    10030    2    1    2    0    0  0.00000000000E+00  0.00000000000E+00 -0.78016315144E+03  0.23415816196E+04  0.22077930018E+04 0.  0.
        3    1    3    3  502    0 -0.36521540190E+03  0.10067909010E+04 -0.10632985640E+03  0.10762510194E+04  0.10100000352E+00 0.  1.
       -3    1    3    3    0  502  0.36521540190E+03 -0.10067909010E+04 -0.67383329504E+03  0.12653306002E+04  0.10100000352E+00 0. -1.
</event>
<event>
 5   0  0.4133418E-05  0.2177696E+04  0.7818609E-02  0.8527769E-01
        1   -1    0    0  501    0  0.00000000000E+00  0.00000000000E+00  0.28289748705E+04  0.28289748705E+04  0.50400001928E-02 0. -1.
       -1   -1    0    0    0  501  0.00000000000E+00  0.00000000000E+00 -0.41908833413E+03  0.41908833416E+03  0.50400001928E-02 0.  1.
    10030    2    1    2    0    0  0.00000000000E+00  0.00000000000E+00  0.24098865364E+04  0.32480632047E+04  0.21776963662E+04 0.  0.
        4    1    3    3  502    0  0.98931329459E+03  0.19648669654E+03  0.18167200399E+04  0.20779367490E+04  0.12699999809E+01 0. -1.
       -4    1    3    3    0  502 -0.98931329459E+03 -0.19648669654E+03  0.59316649653E+03  0.11701264557E+04  0.12699999809E+01 0.  1.
</event>
<event>
 5   0  0.4174030E-05  0.2179872E+04  0.7818609E-02  0.8526853E-01
       -1   -1    0    0    0  501  0.00000000000E+00  0.00000000000E+00  0.58882667999E+03  0.58882668002E+03  0.50400001928E-02 0.  1.
        1   -1    0    0  501    0  0.00000000000E+00  0.00000000000E+00 -0.20175045796E+04  0.20175045796E+04  0.50400001928E-02 0. -1.
    10030    2    1    2    0    0  0.00000000000E+00  0.00000000000E+00 -0.14286778996E+04  0.26063312596E+04  0.21798720362E+04 0.  0.
        2    1    3    3  502    0 -0.11145688069E+03 -0.38026462657E+03 -0.19283275623E+04  0.19686216016E+04  0.25500000920E-02 0. -1.
       -2    1    3    3    0  502  0.11145688069E+03  0.38026462657E+03  0.49964966275E+03  0.63770965804E+03  0.25500000920E-02 0.  1.
</event>
<event>
 5   0  0.4063293E-05  0.2159280E+04  0.7818609E-02  0.8535570E-01
       -1   -1    0    0    0  501  0.00000000000E+00  0.00000000000E+00  0.76308924795E+03  0.76308924797E+03  0.50400001928E-02 0. -1.
        1   -1    0    0  501    0  0.00000000000E+00  0.00000000000E+00 -0.15275045734E+04  0.15275045734E+04  0.50400001928E-02 0.  1.
    10030    2    1    2    0    0  0.00000000000E+00  0.00000000000E+00 -0.76441532541E+03  0.22905938213E+04  0.21592798023E+04 0.  0.
        1    1    3    3  502    0  0.75490035163E+03  0.37769499919E+03  0.33185026309E+03  0.90700201237E+03  0.50400001928E-02 0. -1.
       -1    1    3    3    0  502 -0.75490035163E+03 -0.37769499919E+03 -0.10962655885E+04  0.13835918090E+04  0.50400001928E-02 0.  1.
</event>
<event>
 5   0  0.9457742E-05  0.2184761E+04  0.7818609E-02  0.8524798E-01
        2   -1    0    0  501    0  0.00000000000E+00  0.00000000000E+00  0.81132772201E+03  0.81132772201E+03  0.25500000920E-02 0.  1.
       -2   -1    0    0    0  501  0.00000000000E+00  0.00000000000E+00 -0.14707928278E+04  0.14707928278E+04  0.25500000920E-02 0. -1.
    10030    2    1    2    0    0  0.00000000000E+00  0.00000000000E+00 -0.65946510581E+03  0.22821205498E+04  0.21847608515E+04 0.  0.
        1    1    3    3  502    0  0.10655547202E+04  0.18063793974E+03 -0.49574273877E+03  0.11890322915E+04  0.50400001928E-02 0.  1.
       -1    1    3    3    0  502 -0.10655547202E+04 -0.18063793974E+03 -0.16372236704E+03  0.10930882584E+04  0.50400001928E-02 0. -1.
</event>
<event>
 5   0  0.4063293E-05  0.2290676E+04  0.7818609E-02  0.8481606E-01
        1   -1    0    0  501    0  0.00000000000E+00  0.00000000000E+00  0.17896840853E+04  0.17896840853E+04  0.50400001928E-02 0.  1.
       -1   -1    0    0    0  501  0.00000000000E+00  0.00000000000E+00 -0.73297821389E+03  0.73297821391E+03  0.50400001928E-02 0. -1.
    10030    2    1    2    0    0  0.00000000000E+00  0.00000000000E+00  0.10567058714E+04  0.25226622992E+04  0.22906762707E+04 0.  0.
        1    1    3    3  502    0  0.11846933005E+03 -0.39243683720E+03  0.17061282095E+04  0.17546837665E+04  0.50400001928E-02 0.  1.
       -1    1    3    3    0  502 -0.11846933005E+03  0.39243683720E+03 -0.64942233810E+03  0.76797853265E+03  0.50400001928E-02 0. -1.
</event>
<event>
 5   0  0.4133418E-05  0.2197674E+04  0.7818609E-02  0.8519397E-01
       -1   -1    0    0    0  501  0.00000000000E+00  0.00000000000E+00  0.98730056350E+03  0.98730056351E+03  0.50400001928E-02 0. -1.
        1   -1    0    0  501    0  0.00000000000E+00  0.00000000000E+00 -0.12229742379E+04  0.12229742379E+04  0.50400001928E-02 0.  1.
    10030    2    1    2    0    0  0.00000000000E+00  0.00000000000E+00 -0.23567367438E+03  0.22102748014E+04  0.21976743655E+04 0.  0.
        4    1    3    3  502    0  0.22089688273E+03  0.56094117118E+03  0.80612038888E+03  0.10066191557E+04  0.12699999809E+01 0. -1.
       -4    1    3    3    0  502 -0.22089688273E+03 -0.56094117118E+03 -0.10417940633E+04  0.12036556457E+04  0.12699999809E+01 0.  1.
</event>
<event>
 5   0  0.9254673E-05  0.2245249E+04  0.7818609E-02  0.8499827E-01
        2   -1    0    0  501    0  0.00000000000E+00  0.00000000000E+00  0.26901057286E+04  0.26901057286E+04  0.25500000920E-02 0.  1.
       -2   -1    0    0    0  501  0.00000000000E+00  0.00000000000E+00 -0.46848932649E+03  0.46848932650E+03  0.25500000920E-02 0. -1.
    10030    2    1    2    0    0  0.00000000000E+00  0.00000000000E+00  0.22216164021E+04  0.31585950551E+04  0.22452490472E+04 0.  0.
        2    1    3    3  502    0  0.14872913945E+03 -0.83492827990E+03  0.76018167140E+02  0.85147187343E+03  0.25500000920E-02 0. -1.
       -2    1    3    3    0  502 -0.14872913945E+03  0.83492827990E+03  0.21455982349E+04  0.23071231816E+04  0.25500000920E-02 0.  1.
</event>
<event>
 5   0  0.9254673E-05  0.2199263E+04  0.7818609E-02  0.8518735E-01
        2   -1    0    0  501    0  0.00000000000E+00  0.00000000000E+00  0.22527672237E+04  0.22527672237E+04  0.25500000920E-02 0.  1.
       -2   -1    0    0    0  501  0.00000000000E+00  0.00000000000E+00 -0.53675744126E+03  0.53675744126E+03  0.25500000920E-02 0. -1.
    10030    2    1    2    0    0  0.00000000000E+00  0.00000000000E+00  0.17160097825E+04  0.27895246650E+04  0.21992631228E+04 0.  0.
        2    1    3    3  502    0 -0.46917817401E+03 -0.75049561738E+03  0.16856895187E+04  0.19039225257E+04  0.25500000920E-02 0.  1.
       -2    1    3    3    0  502  0.46917817401E+03  0.75049561738E+03  0.30320263816E+02  0.88560213927E+03  0.25500000920E-02 0. -1.
</event>
<event>
 5   0  0.3283125E-05  0.2188644E+04  0.7818609E-02  0.8523169E-01
       -4   -1    0    0    0  501  0.00000000000E+00  0.00000000000E+00  0.10334412805E+04  0.10334420609E+04  0.12699999809E+01 0.  1.
        4   -1    0    0  501    0  0.00000000000E+00  0.00000000000E+00 -0.11587880260E+04  0.11587887220E+04  0.12699999809E+01 0. -1.
    10030    2    1    2    0    0  0.00000000000E+00  0.00000000000E+00 -0.12534674550E+03  0.21922307828E+04  0.21886443289E+04 0.  0.
        3    1    3    3  502    0 -0.38107954178E+03  0.91909017969E+03  0.39369656559E+03  0.10700212014E+04  0.10100000352E+00 0.  1.
       -3    1    3    3    0  502  0.38107954178E+03 -0.91909017969E+03 -0.51904331109E+03  0.11222095814E+04  0.10100000352E+00 0. -1.
</event>
<event>
 5   0  0.9457742E-05  0.2191209E+04  0.7818609E-02  0.8522096E-01
        2   -1    0    0  501    0  0.00000000000E+00  0.00000000000E+00  0.99942414056E+03  0.99942414057E+03  0.25500000920E-02 0.  1.
       -2   -1    0    0    0  501  0.00000000000E+00  0.00000000000E+00 -0.12010412276E+04  0.12010412276E+04  0.25500000920E-02 0. -1.
    10030    2    1    2    0    0  0.00000000000E+00  0.00000000000E+00 -0.20161708704E+03  0.22004653682E+04  0.21912093434E+04 0.  0.
        1    1    3    3  502    0 -0.40595158102E+03 -0.23847951596E+03  0.89265313407E+03  0.10092070072E+04  0.50400001928E-02 0.  1.
       -1    1    3    3    0  502  0.40595158102E+03  0.23847951596E+03 -0.10942702211E+04  0.11912583609E+04  0.50400001928E-02 0. -1.
</event>
<event>
 5   0  0.4188865E-05  0.2226981E+04  0.7818609E-02  0.8507281E-01
        1   -1    0    0  501    0  0.00000000000E+00  0.00000000000E+00  0.10239760736E+04  0.10239760736E+04  0.50400001928E-02 0. -1.
       -1   -1    0    0    0  501  0.00000000000E+00  0.00000000000E+00 -0.12108302600E+04  0.12108302600E+04  0.50400001928E-02 0.  1.
    10030    2    1    2    0    0  0.00000000000E+00  0.00000000000E+00 -0.18685418645E+03  0.22348063336E+04  0.22269811094E+04 0.  0.
        3    1    3    3  502    0 -0.22424738769E+03 -0.83732805567E+03  0.60792500920E+03  0.10587624808E+04  0.10100000352E+00 0.  1.
       -3    1    3    3    0  502  0.22424738769E+03  0.83732805567E+03 -0.79477919565E+03  0.11760438528E+04  0.10100000352E+00 0. -1.
</event>
<event>
 5   0  0.9442578E-05  0.2211709E+04  0.7818609E-02  0.8513570E-01
       -2   -1    0    0    0  501  0.00000000000E+00  0.00000000000E+00  0.89262602490E+03  0.89262602490E+03  0.25500000920E-02 0.  1.
        2   -1    0    0  501    0  0.00000000000E+00  0.00000000000E+00 -0.13700187353E+04  0.13700187353E+04  0.25500000920E-02 0. -1.
    10030    2    1    2    0    0  0.00000000000E+00  0.00000000000E+00 -0.47739271045E+03  0.22626447602E+04  0.22117091832E+04 0.  0.
        4    1    3    3  502    0  0.77878952345E+03  0.78465317019E+03 -0.26612892905E+03  0.11371103460E+04  0.12699999809E+01 0.  1.
       -4    1    3    3    0  502 -0.77878952345E+03 -0.78465317019E+03 -0.21126378140E+03  0.11255344142E+04  0.12699999809E+01 0. -1.
</event>
<event>
 5   0  0.9938176E-05  0.2204505E+04  0.7818609E-02  0.8516555E-01
       -2   -1    0    0    0  501  0.00000000000E+00  0.00000000000E+00  0.55274802819E+03  0.55274802819E+03  0.25500000920E-02 0. -1.
        2   -1    0    0  501    0  0.00000000000E+00  0.00000000000E+00 -0.21980373242E+04  0.21980373242E+04  0.25500000920E-02 0.  1.
    10030    2    1    2    0    0  0.00000000000E+00  0.00000000000E+00 -0.16452892960E+04  0.27507853524E+04  0.22045052024E+04 0.  0.
        5    1    3    3  502    0 -0.14101495173E+03  0.90687223106E+03 -0.60937337910E+02  0.91980319049E+03  0.46999998093E+01 0. -1.
       -5    1    3    3    0  502  0.14101495173E+03 -0.90687223106E+03 -0.15843519581E+04  0.18309821619E+04  0.46999998093E+01 0.  1.
</event>
<event>
 5   0  0.9179618E-05  0.2228386E+04  0.7818609E-02  0.8506705E-01
       -2   -1    0    0    0  501  0.00000000000E+00  0.00000000000E+00  0.18832273685E+04  0.18832273685E+04  0.25500000920E-02 0.  1.
        2   -1    0    0  501    0  0.00000000000E+00  0.00000000000E+00 -0.65920156776E+03  0.65920156777E+03  0.25500000920E-02 0. -1.
    10030    2    1    2    0    0  0.00000000000E+00  0.00000000000E+00  0.12240258007E+04  0.25424289362E+04  0.22283863523E+04 0.  0.
        3    1    3    3  502    0  0.46468731348E+03  0.54851011190E+03  0.15832295582E+04  0.17387965627E+04  0.10100000352E+00 0.  1.
       -3    1    3    3    0  502 -0.46468731348E+03 -0.54851011190E+03 -0.35920375754E+03  0.80363237354E+03  0.10100000352E+00 0. -1.
</event>
<event>
 5   0  0.4063293E-05  0.2197999E+04  0.7818609E-02  0.8519261E-01
       -1   -1    0    0    0  501  0.00000000000E+00  0.00000000000E+00  0.69271910107E+03  0.69271910109E+03  0.50400001928E-02 0. -1.
        1   -1    0    0  501    0  0.00000000000E+00  0.00000000000E+00 -0.17435634864E+04  0.17435634864E+04  0.50400001928E-02 0.  1.
    10030    2    1    2    0    0  0.00000000000E+00  0.00000000000E+00 -0.10508443853E+04  0.24362825875E+04  0.21979988453E+04 0.  0.
        1    1    3    3  502    0  0.28734501621E+02 -0.10938135020E+04 -0.41159506432E+03  0.11690441162E+04  0.50400001928E-02 0. -1.
       -1    1    3    3    0  502 -0.28734501621E+02  0.10938135020E+04 -0.63924932102E+03  0.12672384713E+04  0.50400001928E-02 0.  1.
</event>
<event>
 5   0  0.4174030E-05  0.2154415E+04  0.7818609E-02  0.8537645E-01
        1   -1    0    0  501    0  0.00000000000E+00  0.00000000000E+00  0.14766712641E+04  0.14766712641E+04  0.50400001928E-02 0.  1.
       -1   -1    0    0    0  501  0.00000000000E+00  0.00000000000E+00 -0.78580518692E+03  0.78580518693E+03  0.50400001928E-02 0. -1.
    10030    2    1    2    0    0  0.00000000000E+00  0.00000000000E+00  0.69086607721E+03  0.22624764511E+04  0.21544149449E+04 0.  0.
        2    1    3    3  502    0 -0.48213008573E+03  0.94262111183E+03  0.13700386697E+03  0.10675926375E+04  0.25500000920E-02 0. -1.
       -2    1    3    3    0  502  0.48213008573E+03 -0.94262111183E+03  0.55386221024E+03  0.11948838136E+04  0.25500000920E-02 0.  1.
</event>
<event>
 5   0  0.4174030E-05  0.2137534E+04  0.7818609E-02  0.8544887E-01
       -1   -1    0    0    0  501  0.00000000000E+00  0.00000000000E+00  0.62560383838E+03  0.62560383840E+03  0.50400001928E-02 0. -1.
        1   -1    0    0  501    0  0.00000000000E+00  0.00000000000E+00 -0.18258560287E+04  0.18258560287E+04  0.50400001928E-02 0.  1.
    10030    2    1    2    0    0  0.00000000000E+00  0.00000000000E+00 -0.12002521904E+04  0.24514598671E+04  0.21375336628E+04 0.  0.
        2    1    3    3  502    0  0.16584449942E+03  0.84786279296E+02 -0.18070983997E+04  0.18166721601E+04  0.25500000920E-02 0.  1.
       -2    1    3    3    0  502 -0.16584449942E+03 -0.84786279296E+02  0.60684620936E+03  0.63478770701E+03  0.25500000920E-02 0. -1.
</event>
<event>
 5   0  0.9254673E-05  0.2202615E+04  0.7818609E-02  0.8517341E-01
        2   -1    0    0  501    0  0.00000000000E+00  0.00000000000E+00  0.77675147063E+03  0.77675147064E+03  0.25500000920E-02 0.  1.
       -2   -1    0    0    0  501  0.00000000000E+00  0.00000000000E+00 -0.15614751204E+04  0.15614751204E+04  0.25500000920E-02 0. -1.
    10030    2    1    2    0    0  0.00000000000E+00  0.00000000000E+00 -0.78472364972E+03  0.23382265910E+04  0.22026148970E+04 0.  0.
        2    1    3    3  502    0 -0.85709520235E+02 -0.57833238088E+03 -0.13831320891E+04  0.15016220698E+04  0.25500000920E-02 0. -1.
       -2    1    3    3    0  502  0.85709520235E+02  0.57833238088E+03  0.59840843935E+03  0.83660452122E+03  0.25500000920E-02 0.  1.
</event>
<event>
 5   0  0.9442578E-05  0.2163121E+04  0.7818609E-02  0.8533937E-01
       -2   -1    0    0    0  501  0.00000000000E+00  0.00000000000E+00  0.87333231794E+03  0.87333231794E+03  0.25500000920E-02 0. -1.
        2   -1    0    0  501    0  0.00000000000E+00  0.00000000000E+00 -0.13394365995E+04  0.13394365995E+04  0.25500000920E-02 0.  1.
    10030    2    1    2    0    0  0.00000000000E+00  0.00000000000E+00 -0.46610428159E+03  0.22127689175E+04  0.21631211434E+04 0.  0.
        4    1    3    3  502    0 -0.48854854882E+03  0.37483717686E+03  0.67650632650E+03  0.91479233513E+03  0.12699999809E+01 0. -1.
       -4    1    3    3    0  502  0.48854854882E+03 -0.37483717686E+03 -0.11426106081E+04  0.12979765823E+04  0.12699999809E+01 0.  1.
</event>
<event>
 5   0  0.9938176E-05  0.2176425E+04  0.7818609E-02  0.8528305E-01
       -2   -1    0    0    0  501  0.00000000000E+00  0.00000000000E+00  0.85965367845E+03  0.85965367846E+03  0.25500000920E-02 0. -1.
        2   -1    0    0  501    0  0.00000000000E+00  0.00000000000E+00 -0.13775383692E+04  0.13775383692E+04  0.25500000920E-02 0.  1.
    10030    2    1    2    0    0  0.00000000000E+00  0.00000000000E+00 -0.51788469080E+03  0.22371920477E+04  0.21764245232E+04 0.  0.
        5    1    3    3  502    0  0.38684848310E+03  0.10167380508E+04 -0.23031104017E+03  0.11119682001E+04  0.46999998093E+01 0. -1.
       -5    1    3    3    0  502 -0.38684848310E+03 -0.10167380508E+04 -0.28757365062E+03  0.11252238476E+04  0.46999998093E+01 0.  1.
</event>
<event>
 5   0  0.4063293E-05  0.2219970E+04  0.7818609E-02  0.8510162E-01
        1   -1    0    0  501    0  0.00000000000E+00  0.00000000000E+00  0.14000773927E+04  0.14000773927E+04  0.50400001928E-02 0.  1.
       -1   -1    0    0    0  501  0.00000000000E+00  0.00000000000E+00 -0.87999929768E+03  0.87999929770E+03  0.50400001928E-02 0. -1.
    10030    2    1    2    0    0  0.00000000000E+00  0.00000000000E+00  0.52007809504E+03  0.22800766904E+04  0.22199703803E+04 0.  0.
        1    1    3    3  502    0  0.42963859835E+03 -0.51154225807E+03  0.11704949732E+04  0.13477103877E+04  0.50400001928E-02 0.  1.
       -1    1    3    3    0  502 -0.42963859835E+03  0.51154225807E+03 -0.65041687813E+03  0.93236630268E+03  0.50400001928E-02 0. -1.
</event>
<event>
 5   0  0.4133418E-05  0.2312910E+04  0.7818609E-02  0.8472848E-01
       -1   -1    0    0    0  501  0.00000000000E+00  0.00000000000E+00  0.15638896025E+04  0.15638896025E+04  0.50400001928E-02 0. -1.
        1   -1    0    0  501    0  0.00000000000E+00  0.00000000000E+00 -0.85516761039E+03  0.85516761040E+03  0.50400001928E-02 0.  1.
    10030    2    1    2    0    0  0.00000000000E+00  0.00000000000E+00  0.70872199214E+03  0.24190572129E+04  0.23129096258E+04 0.  0.
        4    1    3    3  502    0 -0.50251247781E+03 -0.33280295568E+03  0.13866263970E+04  0.15119560098E+04  0.12699999809E+01 0. -1.
       -4    1    3    3    0  502  0.50251247781E+03  0.33280295568E+03 -0.67790440490E+03  0.90710120315E+03  0.12699999809E+01 0.  1.
</event>
<event>
 5   0  0.9254673E-05  0.2226285E+04  0.7818609E-02  0.8507567E-01
        2   -1    0    0  501    0  0.00000000000E+00  0.00000000000E+00  0.18222558790E+04  0.18222558790E+04  0.25500000920E-02 0.  1.
       -2   -1    0    0    0  501  0.00000000000E+00  0.00000000000E+00 -0.67997402706E+03  0.67997402707E+03  0.25500000920E-02 0. -1.
    10030    2    1    2    0    0  0.00000000000E+00  0.00000000000E+00  0.11422818519E+04  0.25022299061E+04  0.22262853981E+04 0.  0.
        2    1    3    3  502    0 -0.61383925994E+02  0.10881054806E+04  0.82582164386E+03  0.13673781155E+04  0.25500000920E-02 0.  1.
       -2    1    3    3    0  502  0.61383925994E+02 -0.10881054806E+04  0.31646020808E+03  0.11348517906E+04  0.25500000920E-02 0. -1.
</event>
<event>
 5   0  0.9457742E-05  0.2199428E+04  0.7818609E-02  0.8518666E-01
        2   -1    0    0  501    0  0.00000000000E+00  0.00000000000E+00  0.93866465756E+03  0.93866465756E+03  0.25500000920E-02 0. -1.
       -2   -1    0    0    0  501  0.00000000000E+00  0.00000000000E+00 -0.12883948380E+04  0.12883948380E+04  0.25500000920E-02 0.  1.
    10030    2    1    2    0    0  0.00000000000E+00  0.00000000000E+00 -0.34973018046E+03  0.22270594956E+04  0.21994278342E+04 0.  0.
        1    1    3    3  502    0  0.72286216516E+03  0.12525192233E+03 -0.10043965339E+04  0.12437966679E+04  0.50400001928E-02 0.  1.
       -1    1    3    3    0  502 -0.72286216516E+03 -0.12525192233E+03  0.65466635344E+03  0.98326282764E+03  0.50400001928E-02 0. -1.
</event>
<event>
 5   0  0.9457742E-05  0.2222522E+04  0.7818609E-02  0.8509112E-01
       -2   -1    0    0    0  501  0.00000000000E+00  0.00000000000E+00  0.99753036515E+03  0.99753036516E+03  0.25500000920E-02 0.  1.
        2   -1    0    0  501    0  0.00000000000E+00  0.00000000000E+00 -0.12379579966E+04  0.12379579966E+04  0.25500000920E-02 0. -1.
    10030    2    1    2    0    0  0.00000000000E+00  0.00000000000E+00 -0.24042763144E+03  0.22354883618E+04  0.22225217141E+04 0.  0.
        1    1    3    3  502    0 -0.85510483707E+03  0.51808290117E+03  0.36767955973E+03  0.10652710611E+04  0.50400001928E-02 0.  1.
       -1    1    3    3    0  502  0.85510483707E+03 -0.51808290117E+03 -0.60810719117E+03  0.11702173007E+04  0.50400001928E-02 0. -1.
</event>
<event>
 5   0  0.4174030E-05  0.2193367E+04  0.7818609E-02  0.8521194E-01
        1   -1    0    0  501    0  0.00000000000E+00  0.00000000000E+00  0.14148524393E+04  0.14148524393E+04  0.50400001928E-02 0.  1.
       -1   -1    0    0    0  501  0.00000000000E+00  0.00000000000E+00 -0.85006381059E+03  0.85006381061E+03  0.50400001928E-02 0. -1.
    10030    2    1    2    0    0  0.00000000000E+00  0.00000000000E+00  0.56478862868E+03  0.22649162499E+04  0.21933671430E+04 0.  0.
        2    1    3    3  502    0  0.37936733518E+03 -0.81206311572E+03 -0.37016049340E+03  0.96973443262E+03  0.25500000920E-02 0. -1.
       -2    1    3    3    0  502 -0.37936733518E+03  0.81206311572E+03  0.93494912208E+03  0.12951818173E+04  0.25500000920E-02 0.  1.
</event>
<event>
 5   0  0.9938176E-05  0.2418483E+04  0.7818609E-02  0.8432616E-01
        2   -1    0    0  501    0  0.00000000000E+00  0.00000000000E+00  0.12982701101E+04  0.12982701101E+04  0.25500000920E-02 0. -1.
       -2   -1    0    0    0  501  0.00000000000E+00  0.00000000000E+00 -0.11263184521E+04  0.11263184521E+04  0.25500000920E-02 0.  1.
    10030    2    1    2    0    0  0.00000000000E+00  0.00000000000E+00  0.17195165801E+03  0.24245885622E+04  0.24184834759E+04 0.  0.
        5    1    3    3  502    0  0.97305873265E+03  0.48706350913E+03 -0.44277316148E+03  0.11747954382E+04  0.46999998093E+01 0.  1.
       -5    1    3    3    0  502 -0.97305873265E+03 -0.48706350913E+03  0.61472481948E+03  0.12497931240E+04  0.46999998093E+01 0. -1.
</event>
<event>
 5   0  0.4133418E-05  0.2182540E+04  0.7818609E-02  0.8525731E-01
        1   -1    0    0  501    0  0.00000000000E+00  0.00000000000E+00  0.16632985299E+04  0.16632985300E+04  0.50400001928E-02 0. -1.
       -1   -1    0    0    0  501  0.00000000000E+00  0.00000000000E+00 -0.71596913958E+03  0.71596913960E+03  0.50400001928E-02 0.  1.
    10030    2    1    2    0    0  0.00000000000E+00  0.00000000000E+00  0.94732939036E+03  0.23792676696E+04  0.21825401874E+04 0.  0.
        4    1    3    3  502    0  0.41168558212E+03 -0.81038380215E+03 -0.18463891519E+03  0.92752362083E+03  0.12699999809E+01 0.  1.
       -4    1    3    3    0  502 -0.41168558212E+03  0.81038380215E+03  0.11319683056E+04  0.14517440487E+04  0.12699999809E+01 0. -1.
</event>
<event>
 5   0  0.4063293E-05  0.2229327E+04  0.7818609E-02  0.8506320E-01
        1   -1    0    0  501    0  0.00000000000E+00  0.00000000000E+00  0.11359810269E+04  0.11359810269E+04  0.50400001928E-02 0. -1.
       -1   -1    0    0    0  501  0.00000000000E+00  0.00000000000E+00 -0.10937462430E+04  0.10937462430E+04  0.50400001928E-02 0.  1.
    10030    2    1    2    0    0  0.00000000000E+00  0.00000000000E+00  0.42234783940E+02  0.22297272699E+04  0.22293272351E+04 0.  0.
        1    1    3    3  502    0 -0.51566498332E+03 -0.82270373172E+03  0.56868542473E+03  0.11252354943E+04  0.50400001928E-02 0. -1.
       -1    1    3    3    0  502  0.51566498332E+03  0.82270373172E+03 -0.52645064079E+03  0.11044917756E+04  0.50400001928E-02 0.  1.
</event>
<event>
 5   0  0.4063293E-05  0.2193591E+04  0.7818609E-02  0.8521100E-01
        1   -1    0    0  501    0  0.00000000000E+00  0.00000000000E+00  0.26772701735E+04  0.26772701735E+04  0.50400001928E-02 0. -1.
       -1   -1    0    0    0  501  0.00000000000E+00  0.00000000000E+00 -0.44932367983E+03  0.44932367986E+03  0.50400001928E-02 0.  1.
    10030    2    1    2    0    0  0.00000000000E+00  0.00000000000E+00  0.22279464936E+04  0.31265938533E+04  0.21935914718E+04 0.  0.
        1    1    3    3  502    0 -0.75584709032E+03  0.71467870805E+03  0.61839567908E+03  0.12101585415E+04  0.50400001928E-02 0.  1.
       -1    1    3    3    0  502  0.75584709032E+03 -0.71467870805E+03  0.16095508146E+04  0.19164353118E+04  0.50400001928E-02 0. -1.
</event>
<event>
 5   0  0.4174030E-05  0.2292203E+04  0.7818609E-02  0.8481002E-01
       -1   -1    0    0    0  501  0.00000000000E+00  0.00000000000E+00  0.73104081643E+03  0.73104081645E+03  0.50400001928E-02 0. -1.
        1   -1    0    0  501    0  0.00000000000E+00  0.00000000000E+00 -0.17968199844E+04  0.17968199844E+04  0.50400001928E-02 0.  1.
    10030    2    1    2    0    0  0.00000000000E+00  0.00000000000E+00 -0.10657791680E+04  0.25278608008E+04  0.22922030873E+04 0.  0.
        2    1    3    3  502    0 -0.54344722005E+03  0.99510212220E+03 -0.34840179088E+03  0.11861479345E+04  0.25500000920E-02 0.  1.
       -2    1    3    3    0  502  0.54344722005E+03 -0.99510212220E+03 -0.71737737707E+03  0.13417128664E+04  0.25500000920E-02 0. -1.
</event>
<event>
 5   0  0.4188865E-05  0.2178496E+04  0.7818609E-02  0.8527432E-01
       -1   -1    0    0    0  501  0.00000000000E+00  0.00000000000E+00  0.12905729927E+04  0.12905729927E+04  0.50400001928E-02 0. -1.
        1   -1    0    0  501    0  0.00000000000E+00  0.00000000000E+00 -0.91932922067E+03  0.91932922069E+03  0.50400001928E-02 0.  1.
    10030    2    1    2    0    0  0.00000000000E+00  0.00000000000E+00  0.37124377204E+03  0.22099022134E+04  0.21784962370E+04 0.  0.
        3    1    3    3  502    0  0.97121638195E+03  0.25495209178E+03 -0.24260076345E+03  0.10330135383E+04  0.10100000352E+00 0.  1.
       -3    1    3    3    0  502 -0.97121638195E+03 -0.25495209178E+03  0.61384453548E+03  0.11768886751E+04  0.10100000352E+00 0. -1.
</event>
<event>
 5   0  0.9179618E-05  0.2231049E+04  0.7818609E-02  0.8505615E-01
       -2   -1    0    0    0  501  0.00000000000E+00  0.00000000000E+00  0.67049486073E+03  0.67049486074E+03  0.25500000920E-02 0. -1.
        2   -1    0    0  501    0  0.00000000000E+00  0.00000000000E+00 -0.18559353647E+04  0.18559353647E+04  0.25500000920E-02 0.  1.
    10030    2    1    2    0    0  0.00000000000E+00  0.00000000000E+00 -0.11854405040E+04  0.25264302254E+04  0.22310491917E+04 0.  0.
        3    1    3    3  502    0  0.85351282244E+03 -0.67193946843E+03 -0.30533189487E+03  0.11283680089E+04  0.10100000352E+00 0. -1.
       -3    1    3    3    0  502 -0.85351282244E+03  0.67193946843E+03 -0.88010860911E+03  0.13980622165E+04  0.10100000352E+00 0.  1.
</event>
<event>
 5   0  0.4188865E-05  0.2187806E+04  0.7818609E-02  0.8523521E-01
       -1   -1    0    0    0  501  0.00000000000E+00  0.00000000000E+00  0.75853896809E+03  0.75853896810E+03  0.50400001928E-02 0.  1.
        1   -1    0    0  501    0  0.00000000000E+00  0.00000000000E+00 -0.15775376395E+04  0.15775376395E+04  0.50400001928E-02 0. -1.
    10030    2    1    2    0    0  0.00000000000E+00  0.00000000000E+00 -0.81899867140E+03  0.23360766076E+04  0.21878059998E+04 0.  0.
        3    1    3    3  502    0 -0.73290695720E+03  0.20912824525E+03  0.42836891166E+03  0.87429237990E+03  0.10100000352E+00 0.  1.
       -3    1    3    3    0  502  0.73290695720E+03 -0.20912824525E+03 -0.12473675831E+04  0.14617842277E+04  0.10100000352E+00 0. -1.
</event>
<event>
 5   0  0.9442578E-05  0.2371414E+04  0.7818609E-02  0.8450284E-01
        2   -1    0    0  501    0  0.00000000000E+00  0.00000000000E+00  0.94627855780E+03  0.94627855780E+03  0.25500000920E-02 0.  1.
       -2   -1    0    0    0  501  0.00000000000E+00  0.00000000000E+00 -0.14857160163E+04  0.14857160163E+04  0.25500000920E-02 0. -1.
    10030    2    1    2    0    0  0.00000000000E+00  0.00000000000E+00 -0.53943745854E+03  0.24319945741E+04  0.23714141007E+04 0.  0.
        4    1    3    3  502    0 -0.46333864918E+03 -0.42254883828E+03  0.76230347469E+03  0.98708582453E+03  0.12699999809E+01 0.  1.
       -4    1    3    3    0  502  0.46333864918E+03  0.42254883828E+03 -0.13017409332E+04  0.14449087496E+04  0.12699999809E+01 0. -1.
</event>
<event>
 5   0  0.9179618E-05  0.2140623E+04  0.7818609E-02  0.8543557E-01
        2   -1    0    0  501    0  0.00000000000E+00  0.00000000000E+00  0.15758712747E+04  0.15758712747E+04  0.25500000920E-02 0.  1.
       -2   -1    0    0    0  501  0.00000000000E+00  0.00000000000E+00 -0.72694199690E+03  0.72694199691E+03  0.25500000920E-02 0. -1.
    10030    2    1    2    0    0  0.00000000000E+00  0.00000000000E+00  0.84892927784E+03  0.23028132717E+04  0.21406232843E+04 0.  0.
        3    1    3    3  502    0 -0.35175626794E+03  0.56259775862E+03  0.13279290547E+04  0.14844676805E+04  0.10100000352E+00 0.  1.
       -3    1    3    3    0  502  0.35175626794E+03 -0.56259775862E+03 -0.47899977687E+03  0.81834559111E+03  0.10100000352E+00 0. -1.
</event>
<event>
 5   0  0.9254673E-05  0.2152631E+04  0.7818609E-02  0.8538407E-01
        2   -1    0    0  501    0  0.00000000000E+00  0.00000000000E+00  0.13522055171E+04  0.13522055171E+04  0.25500000920E-02 0.  1.
       -2   -1    0    0    0  501  0.00000000000E+00  0.00000000000E+00 -0.85671543582E+03  0.85671543582E+03  0.25500000920E-02 0. -1.
    10030    2    1    2    0    0  0.00000000000E+00  0.00000000000E+00  0.49549008124E+03  0.22089209529E+04  0.21526312632E+04 0.  0.
        2    1    3    3  502    0 -0.27751843750E+03 -0.40658956547E+03 -0.73442709687E+03  0.88414632189E+03  0.25500000920E-02 0. -1.
       -2    1    3    3    0  502  0.27751843750E+03  0.40658956547E+03  0.12299171781E+04  0.13247746310E+04  0.25500000920E-02 0.  1.
</event>
<event>
 5   0  0.4174075E-05  0.1790210E+04  0.7818609E-02  0.8711523E-01
        1   -1    0    0  501    0  0.00000000000E+00  0.00000000000E+00  0.13222006013E+04  0.13222006013E+04  0.50400001928E-02 0. -1.
       -1   -1    0    0    0  501  0.00000000000E+00  0.00000000000E+00 -0.60596954500E+03  0.60596954502E+03  0.50400001928E-02 0.  1.
    10030    2    1    2    0    0  0.00000000000E+00  0.00000000000E+00  0.71623105630E+03  0.19281701463E+04  0.17902103751E+04 0.  0.
        5    1    3    3  502    0  0.50927959994E+03 -0.71407415615E+03  0.16567471485E+03  0.89260170991E+03  0.46999998093E+01 0.  1.
       -5    1    3    3    0  502 -0.50927959994E+03  0.71407415615E+03  0.55055634146E+03  0.10355684364E+04  0.46999998093E+01 0. -1.
</event>
<event>
 5   0  0.4063293E-05  0.2369073E+04  0.7818609E-02  0.8451174E-01
       -1   -1    0    0    0  501  0.00000000000E+00  0.00000000000E+00  0.70342316381E+03  0.70342316383E+03  0.50400001928E-02 0.  1.
        1   -1    0    0  501    0  0.00000000000E+00  0.00000000000E+00 -0.19947120341E+04  0.19947120341E+04  0.50400001928E-02 0. -1.
    10030    2    1    2    0    0  0.00000000000E+00  0.00000000000E+00 -0.12912888703E+04  0.26981351979E+04  0.23690729410E+04 0.  0.
        1    1    3    3  502    0 -0.11204312808E+04  0.23990718306E+03 -0.98770297102E+03  0.15127719162E+04  0.50400001928E-02 0. -1.
       -1    1    3    3    0  502  0.11204312808E+04 -0.23990718306E+03 -0.30358589926E+03  0.11853632817E+04  0.50400001928E-02 0.  1.
</event>
<event>
 5   0  0.9442578E-05  0.2237281E+04  0.7818609E-02  0.8503069E-01
       -2   -1    0    0    0  501  0.00000000000E+00  0.00000000000E+00  0.14676999992E+04  0.14676999992E+04  0.25500000920E-02 0. -1.
        2   -1    0    0  501    0  0.00000000000E+00  0.00000000000E+00 -0.85259660599E+03  0.85259660599E+03  0.25500000920E-02 0.  1.
    10030    2    1    2    0    0  0.00000000000E+00  0.00000000000E+00  0.61510339324E+03  0.23202966052E+04  0.22372805260E+04 0.  0.
        4    1    3    3  502    0 -0.11060727061E+04  0.90074754854E+01  0.48070941992E+03  0.12060518750E+04  0.12699999809E+01 0.  1.
       -4    1    3    3    0  502  0.11060727061E+04 -0.90074754854E+01  0.13439397331E+03  0.11142447302E+04  0.12699999809E+01 0. -1.
</event>
<event>
 5   0  0.9442578E-05  0.2090960E+04  0.7818609E-02  0.8565236E-01
       -2   -1    0    0    0  501  0.00000000000E+00  0.00000000000E+00  0.66178765814E+03  0.66178765815E+03  0.25500000920E-02 0.  1.
        2   -1    0    0  501    0  0.00000000000E+00  0.00000000000E+00 -0.16516306152E+04  0.16516306152E+04  0.25500000920E-02 0. -1.
    10030    2    1    2    0    0  0.00000000000E+00  0.00000000000E+00 -0.98984295706E+03  0.23134182734E+04  0.20909603124E+04 0.  0.
        4    1    3    3  502    0  0.29419711314E+03 -0.11424646977E+03  0.60782445682E+03  0.68487690897E+03  0.12699999809E+01 0.  1.
       -4    1    3    3    0  502 -0.29419711314E+03  0.11424646977E+03 -0.15976674139E+04  0.16285413644E+04  0.12699999809E+01 0. -1.
</event>
<event>
 5   0  0.3283125E-05  0.2196928E+04  0.7818609E-02  0.8519708E-01
        4   -1    0    0  501    0  0.00000000000E+00  0.00000000000E+00  0.97472351122E+03  0.97472433858E+03  0.12699999809E+01 0. -1.
       -4   -1    0    0    0  501  0.00000000000E+00  0.00000000000E+00 -0.12379114307E+04  0.12379120822E+04  0.12699999809E+01 0.  1.
    10030    2    1    2    0    0  0.00000000000E+00  0.00000000000E+00 -0.26318791951E+03  0.22126364208E+04  0.21969278663E+04 0.  0.
        2    1    3    3  502    0  0.93173132278E+02  0.10752121643E+04 -0.33765547429E+03  0.11308287449E+04  0.25500000920E-02 0.  1.
       -2    1    3    3    0  502 -0.93173132278E+02 -0.10752121643E+04  0.74467554775E+02  0.10818076759E+04  0.25500000920E-02 0. -1.
</event>
<event>
 5   0  0.9179618E-05  0.2167783E+04  0.7818609E-02  0.8531958E-01
       -2   -1    0    0    0  501  0.00000000000E+00  0.00000000000E+00  0.96265970488E+03  0.96265970488E+03  0.25500000920E-02 0.  1.
        2   -1    0    0  501    0  0.00000000000E+00  0.00000000000E+00 -0.12203909666E+04  0.12203909666E+04  0.25500000920E-02 0. -1.
    10030    2    1    2    0    0  0.00000000000E+00  0.00000000000E+00 -0.25773126169E+03  0.21830506715E+04  0.21677833911E+04 0.  0.
        3    1    3    3  502    0  0.40912216981E+03 -0.31623825711E+03  0.83043639771E+03  0.97827000666E+03  0.10100000352E+00 0.  1.
       -3    1    3    3    0  502 -0.40912216981E+03  0.31623825711E+03 -0.10881676594E+04  0.12047806648E+04  0.10100000352E+00 0. -1.
</event>
<event>
 5   0  0.9442578E-05  0.2169788E+04  0.7818609E-02  0.8531109E-01
        2   -1    0    0  501    0  0.00000000000E+00  0.00000000000E+00  0.12554817450E+04  0.12554817450E+04  0.25500000920E-02 0. -1.
       -2   -1    0    0    0  501  0.00000000000E+00  0.00000000000E+00 -0.93748454012E+03  0.93748454012E+03  0.25500000920E-02 0.  1.
    10030    2    1    2    0    0  0.00000000000E+00  0.00000000000E+00  0.31799720488E+03  0.21929662851E+04  0.21697877558E+04 0.  0.
        4    1    3    3  502    0 -0.91296481764E+02 -0.51884528775E+03  0.11175271604E+04  0.12354772549E+04  0.12699999809E+01 0. -1.
       -4    1    3    3    0  502  0.91296481764E+02  0.51884528775E+03 -0.79952995557E+03  0.95748903020E+03  0.12699999809E+01 0.  1.
</event>
<event>
 5   0  0.4174075E-05  0.2228157E+04  0.7818609E-02  0.8506799E-01
       -1   -1    0    0    0  501  0.00000000000E+00  0.00000000000E+00  0.90768118857E+03  0.90768118859E+03  0.50400001928E-02 0. -1.
        1   -1    0    0  501    0  0.00000000000E+00  0.00000000000E+00 -0.13674083943E+04  0.13674083943E+04  0.50400001928E-02 0.  1.
    10030    2    1    2    0    0  0.00000000000E+00  0.00000000000E+00 -0.45972720570E+03  0.22750895829E+04  0.22281569753E+04 0.  0.
        5    1    3    3  502    0 -0.37175567481E+03 -0.44193243768E+03  0.74290616275E+03  0.94097726746E+03  0.46999998093E+01 0. -1.
       -5    1    3    3    0  502  0.37175567481E+03  0.44193243768E+03 -0.12026333684E+04  0.13341123154E+04  0.46999998093E+01 0.  1.
</event>
<event>
 5   0  0.4174030E-05  0.2166719E+04  0.7818609E-02  0.8532409E-01
        1   -1    0    0  501    0  0.00000000000E+00  0.00000000000E+00  0.12085424917E+04  0.12085424918E+04  0.50400001928E-02 0. -1.
       -1   -1    0    0    0  501  0.00000000000E+00  0.00000000000E+00 -0.97114358079E+03  0.97114358080E+03  0.50400001928E-02 0.  1.
    10030    2    1    2    0    0  0.00000000000E+00  0.00000000000E+00  0.23739891096E+03  0.21796860726E+04  0.21667194401E+04 0.  0.
        2    1    3    3  502    0 -0.34730354760E+03  0.25654163125E+03  0.11182425513E+04  0.11987075399E+04  0.25500000920E-02 0. -1.
       -2    1    3    3    0  502  0.34730354760E+03 -0.25654163125E+03 -0.88084364034E+03  0.98097853263E+03  0.25500000920E-02 0.  1.
</event>
<event>
 5   0  0.9442578E-05  0.2022053E+04  0.7818609E-02  0.8596379E-01
        2   -1    0    0  501    0  0.00000000000E+00  0.00000000000E+00  0.73762018060E+03  0.73762018060E+03  0.25500000920E-02 0.  1.
       -2   -1    0    0    0  501  0.00000000000E+00  0.00000000000E+00 -0.13857732920E+04  0.13857732921E+04  0.25500000920E-02 0. -1.
    10030    2    1    2    0    0  0.00000000000E+00  0.00000000000E+00 -0.64815311145E+03  0.21233934727E+04  0.20220527648E+04 0.  0.
        4    1    3    3  502    0  0.96645911768E+03  0.47050871943E+02 -0.16272515013E+02  0.96774140055E+03  0.12699999809E+01 0.  1.
       -4    1    3    3    0  502 -0.96645911768E+03 -0.47050871943E+02 -0.63188059644E+03  0.11556520721E+04  0.12699999809E+01 0. -1.
</event>
<event>
 5   0  0.9179618E-05  0.2237583E+04  0.7818609E-02  0.8502946E-01
       -2   -1    0    0    0  501  0.00000000000E+00  0.00000000000E+00  0.10680933525E+04  0.10680933525E+04  0.25500000920E-02 0. -1.
        2   -1    0    0  501    0  0.00000000000E+00  0.00000000000E+00 -0.11718959562E+04  0.11718959562E+04  0.25500000920E-02 0.  1.
    10030    2    1    2    0    0  0.00000000000E+00  0.00000000000E+00 -0.10380260372E+03  0.22399893087E+04  0.22375828751E+04 0.  0.
        3    1    3    3  502    0  0.17066605825E+03 -0.84599276245E+03 -0.76461051572E+03  0.11530220763E+04  0.10100000352E+00 0.  1.
       -3    1    3    3    0  502 -0.17066605825E+03  0.84599276245E+03  0.66080791200E+03  0.10869672324E+04  0.10100000352E+00 0. -1.
</event>
<event>
 5   0  0.3283125E-05  0.2213397E+04  0.7818609E-02  0.8512873E-01
       -3   -1    0    0    0  501  0.00000000000E+00  0.00000000000E+00  0.90041468982E+03  0.90041469549E+03  0.10100000352E+00 0.  1.
        3   -1    0    0  501    0  0.00000000000E+00  0.00000000000E+00 -0.13602411333E+04  0.13602411370E+04  0.10100000352E+00 0. -1.
    10030    2    1    2    0    0  0.00000000000E+00  0.00000000000E+00 -0.45982644345E+03  0.22606558325E+04  0.22133965833E+04 0.  0.
        4    1    3    3  502    0  0.58495039814E+03  0.17254689176E+03 -0.11731245753E+04  0.13221808803E+04  0.12699999809E+01 0. -1.
       -4    1    3    3    0  502 -0.58495039814E+03 -0.17254689176E+03  0.71329813185E+03  0.93847495222E+03  0.12699999809E+01 0.  1.
</event>
<event>
 5   0  0.9254673E-05  0.2205003E+04  0.7818609E-02  0.8516349E-01
       -2   -1    0    0    0  501  0.00000000000E+00  0.00000000000E+00  0.72363017163E+03  0.72363017163E+03  0.25500000920E-02 0.  1.
        2   -1    0    0  501    0  0.00000000000E+00  0.00000000000E+00 -0.16797381844E+04  0.16797381844E+04  0.25500000920E-02 0. -1.
    10030    2    1    2    0    0  0.00000000000E+00  0.00000000000E+00 -0.95610801279E+03  0.24033683560E+04  0.22050027036E+04 0.  0.
        2    1    3    3  502    0 -0.46698360101E+03 -0.91386216360E+03 -0.38958401337E+02  0.10270031620E+04  0.25500000920E-02 0.  1.
       -2    1    3    3    0  502  0.46698360101E+03  0.91386216360E+03 -0.91714961145E+03  0.13763651941E+04  0.25500000920E-02 0. -1.
</event>
<event>
 5   0  0.9442578E-05  0.1860437E+04  0.7818609E-02  0.8674804E-01
       -2   -1    0    0    0  501  0.00000000000E+00  0.00000000000E+00  0.63008587236E+03  0.63008587237E+03  0.25500000920E-02 0. -1.
        2   -1    0    0  501    0  0.00000000000E+00  0.00000000000E+00 -0.13733149703E+04  0.13733149703E+04  0.25500000920E-02 0.  1.
    10030    2    1    2    0    0  0.00000000000E+00  0.00000000000E+00 -0.74322909794E+03  0.20034008427E+04  0.18604368961E+04 0.  0.
        4    1    3    3  502    0  0.24917655459E+03 -0.38014418429E+03 -0.12455890889E+04  0.13259307477E+04  0.12699999809E+01 0.  1.
       -4    1    3    3    0  502 -0.24917655459E+03  0.38014418429E+03  0.50235999099E+03  0.67747009503E+03  0.12699999809E+01 0. -1.
</event>
<event>
 5   0  0.4063293E-05  0.2213444E+04  0.7818609E-02  0.8512853E-01
        1   -1    0    0  501    0  0.00000000000E+00  0.00000000000E+00  0.13798004376E+04  0.13798004376E+04  0.50400001928E-02 0.  1.
       -1   -1    0    0    0  501  0.00000000000E+00  0.00000000000E+00 -0.88768926479E+03  0.88768926480E+03  0.50400001928E-02 0. -1.
    10030    2    1    2    0    0  0.00000000000E+00  0.00000000000E+00  0.49211117280E+03  0.22674897024E+04  0.22134444073E+04 0.  0.
        1    1    3    3  502    0  0.84745743288E+03  0.32759000628E+03  0.89341466382E+03  0.12742405873E+04  0.50400001928E-02 0.  1.
       -1    1    3    3    0  502 -0.84745743288E+03 -0.32759000628E+03 -0.40130349101E+03  0.99324911511E+03  0.50400001928E-02 0. -1.
</event>
<event>
 5   0  0.9254673E-05  0.2212781E+04  0.7818609E-02  0.8513127E-01
        2   -1    0    0  501    0  0.00000000000E+00  0.00000000000E+00  0.11892627897E+04  0.11892627898E+04  0.25500000920E-02 0. -1.
       -2   -1    0    0    0  501  0.00000000000E+00  0.00000000000E+00 -0.10292928646E+04  0.10292928646E+04  0.25500000920E-02 0.  1.
    10030    2    1    2    0    0  0.00000000000E+00  0.00000000000E+00  0.15996992516E+03  0.22185556543E+04  0.22127807877E+04 0.  0.
        2    1    3    3  502    0  0.54955571584E+03  0.25684099944E+03 -0.84769780749E+03  0.10423868556E+04  0.25500000920E-02 0.  1.
       -2    1    3    3    0  502 -0.54955571584E+03 -0.25684099944E+03  0.10076677327E+04  0.11761687988E+04  0.25500000920E-02 0. -1.
</event>
<event>
 5   0  0.4174075E-05  0.2221143E+04  0.7818609E-02  0.8509679E-01
       -1   -1    0    0    0  501  0.00000000000E+00  0.00000000000E+00  0.88079512227E+03  0.88079512228E+03  0.50400001928E-02 0. -1.
        1   -1    0    0  501    0  0.00000000000E+00  0.00000000000E+00 -0.14002910415E+04  0.14002910415E+04  0.50400001928E-02 0.  1.
    10030    2    1    2    0    0  0.00000000000E+00  0.00000000000E+00 -0.51949591920E+03  0.22810861638E+04  0.22211434164E+04 0.  0.
        5    1    3    3  502    0  0.37867402903E+02 -0.94471779790E+03 -0.85806991102E+03  0.12768052788E+04  0.46999998093E+01 0.  1.
       -5    1    3    3    0  502 -0.37867402903E+02  0.94471779790E+03  0.33857399183E+03  0.10042808849E+04  0.46999998093E+01 0. -1.
</event>
<event>
 5   0  0.4188865E-05  0.2180800E+04  0.7818609E-02  0.8526462E-01
       -1   -1    0    0    0  501  0.00000000000E+00  0.00000000000E+00  0.75398465324E+03  0.75398465325E+03  0.50400001928E-02 0.  1.
        1   -1    0    0  501    0  0.00000000000E+00  0.00000000000E+00 -0.15769183311E+04  0.15769183311E+04  0.50400001928E-02 0. -1.
    10030    2    1    2    0    0  0.00000000000E+00  0.00000000000E+00 -0.82293367783E+03  0.23309029843E+04  0.21808000560E+04 0.  0.
        3    1    3    3  502    0 -0.44728809078E+03 -0.39137195085E+03  0.56564049313E+03  0.82048023604E+03  0.10100000352E+00 0.  1.
       -3    1    3    3    0  502  0.44728809078E+03  0.39137195085E+03 -0.13885741710E+04  0.15104227483E+04  0.10100000352E+00 0. -1.
</event>
<event>
 5   0  0.9938176E-05  0.2221034E+04  0.7818609E-02  0.8509724E-01
        2   -1    0    0  501    0  0.00000000000E+00  0.00000000000E+00  0.66500860667E+03  0.66500860667E+03  0.25500000920E-02 0. -1.
       -2   -1    0    0    0  501  0.00000000000E+00  0.00000000000E+00 -0.18544836975E+04  0.18544836975E+04  0.25500000920E-02 0.  1.
    10030    2    1    2    0    0  0.00000000000E+00  0.00000000000E+00 -0.11894750909E+04  0.25194923042E+04  0.22210336511E+04 0.  0.
        5    1    3    3  502    0  0.67078481642E+02 -0.10873577502E+04 -0.83903514385E+03  0.13750812566E+04  0.46999998093E+01 0. -1.
       -5    1    3    3    0  502 -0.67078481642E+02  0.10873577502E+04 -0.35043994701E+03  0.11444110476E+04  0.46999998093E+01 0.  1.
</event>
<event>
 5   0  0.4174075E-05  0.2208431E+04  0.7818609E-02  0.8514927E-01
       -1   -1    0    0    0  501  0.00000000000E+00  0.00000000000E+00  0.88213754222E+03  0.88213754223E+03  0.50400001928E-02 0. -1.
        1   -1    0    0  501    0  0.00000000000E+00  0.00000000000E+00 -0.13822019029E+04  0.13822019030E+04  0.50400001928E-02 0.  1.
    10030    2    1    2    0    0  0.00000000000E+00  0.00000000000E+00 -0.50006436073E+03  0.22643394452E+04  0.22084312890E+04 0.  0.
        5    1    3    3  502    0 -0.10381381008E+04  0.34176681302E+03 -0.88777587015E+02  0.10965577143E+04  0.46999998093E+01 0. -1.
       -5    1    3    3    0  502  0.10381381008E+04 -0.34176681302E+03 -0.41128677371E+03  0.11677817309E+04  0.46999998093E+01 0.  1.
</event>
<event>
 5   0  0.9179618E-05  0.2198692E+04  0.7818609E-02  0.8518973E-01
       -2   -1    0    0    0  501  0.00000000000E+00  0.00000000000E+00  0.79548852392E+03  0.79548852392E+03  0.25500000920E-02 0. -1.
        2   -1    0    0  501    0  0.00000000000E+00  0.00000000000E+00 -0.15192699095E+04  0.15192699095E+04  0.25500000920E-02 0.  1.
    10030    2    1    2    0    0  0.00000000000E+00  0.00000000000E+00 -0.72378138556E+03  0.23147584334E+04  0.21986921365E+04 0.  0.
        3    1    3    3  502    0 -0.66403711056E+03 -0.12101484792E+03 -0.12754371412E+04  0.14430279931E+04  0.10100000352E+00 0.  1.
       -3    1    3    3    0  502  0.66403711056E+03  0.12101484792E+03  0.55165575562E+03  0.87173044029E+03  0.10100000352E+00 0. -1.
</event>
<event>
 5   0  0.4063293E-05  0.2191020E+04  0.7818609E-02  0.8522175E-01
        1   -1    0    0  501    0  0.00000000000E+00  0.00000000000E+00  0.98723820244E+03  0.98723820245E+03  0.50400001928E-02 0.  1.
       -1   -1    0    0    0  501  0.00000000000E+00  0.00000000000E+00 -0.12156558790E+04  0.12156558790E+04  0.50400001928E-02 0. -1.
    10030    2    1    2    0    0  0.00000000000E+00  0.00000000000E+00 -0.22841767653E+03  0.22028940814E+04  0.21910197852E+04 0.  0.
        1    1    3    3  502    0  0.30229011345E+03 -0.10068957861E+04  0.19555745629E+03  0.10693274314E+04  0.50400001928E-02 0.  1.
       -1    1    3    3    0  502 -0.30229011345E+03  0.10068957861E+04 -0.42397513282E+03  0.11335666500E+04  0.50400001928E-02 0. -1.
</event>
<event>
 5   0  0.4174075E-05  0.2187674E+04  0.7818609E-02  0.8523576E-01
       -1   -1    0    0    0  501  0.00000000000E+00  0.00000000000E+00  0.92714001032E+03  0.92714001033E+03  0.50400001928E-02 0. -1.
        1   -1    0    0  501    0  0.00000000000E+00  0.00000000000E+00 -0.12905050625E+04  0.12905050625E+04  0.50400001928E-02 0.  1.
    10030    2    1    2    0    0  0.00000000000E+00  0.00000000000E+00 -0.36336505220E+03  0.22176450729E+04  0.21876735378E+04 0.  0.
        5    1    3    3  502    0 -0.24468760972E+03 -0.92316144095E+03  0.35887514380E+03  0.10202512099E+04  0.46999998093E+01 0. -1.
       -5    1    3    3    0  502  0.24468760972E+03  0.92316144095E+03 -0.72224019600E+03  0.11973938630E+04  0.46999998093E+01 0.  1.
</event>
<event>
 5   0  0.9179618E-05  0.2002283E+04  0.7818609E-02  0.8605554E-01
        2   -1    0    0  501    0  0.00000000000E+00  0.00000000000E+00  0.26185872996E+04  0.26185872996E+04  0.25500000920E-02 0. -1.
       -2   -1    0    0    0  501  0.00000000000E+00  0.00000000000E+00 -0.38275779477E+03  0.38275779478E+03  0.25500000920E-02 0.  1.
    10030    2    1    2    0    0  0.00000000000E+00  0.00000000000E+00  0.22358295048E+04  0.30013450943E+04  0.20022833967E+04 0.  0.
        3    1    3    3  502    0 -0.65535533195E+03 -0.59217168556E+02  0.22488980085E+04  0.23431900365E+04  0.10100000352E+00 0. -1.
       -3    1    3    3    0  502  0.65535533195E+03  0.59217168556E+02 -0.13068503760E+02  0.65815505783E+03  0.10100000352E+00 0.  1.
</event>
<event>
 5   0  0.9938176E-05  0.1972190E+04  0.7818609E-02  0.8619734E-01
        2   -1    0    0  501    0  0.00000000000E+00  0.00000000000E+00  0.14911739265E+04  0.14911739265E+04  0.25500000920E-02 0.  1.
       -2   -1    0    0    0  501  0.00000000000E+00  0.00000000000E+00 -0.65209237138E+03  0.65209237139E+03  0.25500000920E-02 0. -1.
    10030    2    1    2    0    0  0.00000000000E+00  0.00000000000E+00  0.83908155513E+03  0.21432662979E+04  0.19721897900E+04 0.  0.
        5    1    3    3  502    0 -0.42353495215E+03 -0.88583206003E+03  0.51843307473E+03  0.11103491511E+04  0.46999998093E+01 0. -1.
       -5    1    3    3    0  502  0.42353495215E+03  0.88583206003E+03  0.32064848040E+03  0.10329171469E+04  0.46999998093E+01 0.  1.
</event>
<event>
 5   0  0.9938176E-05  0.2155788E+04  0.7818609E-02  0.8537059E-01
        2   -1    0    0  501    0  0.00000000000E+00  0.00000000000E+00  0.13611938718E+04  0.13611938718E+04  0.25500000920E-02 0.  1.
       -2   -1    0    0    0  501  0.00000000000E+00  0.00000000000E+00 -0.85355645680E+03  0.85355645681E+03  0.25500000920E-02 0. -1.
    10030    2    1    2    0    0  0.00000000000E+00  0.00000000000E+00  0.50763741495E+03  0.22147503286E+04  0.21557883182E+04 0.  0.
        5    1    3    3  502    0  0.36249069959E+03 -0.32156438189E+03  0.12429767541E+04  0.13340976202E+04  0.46999998093E+01 0.  1.
       -5    1    3    3    0  502 -0.36249069959E+03  0.32156438189E+03 -0.73533933917E+03  0.88065270835E+03  0.46999998093E+01 0. -1.
</event>
<event>
 5   0  0.4133418E-05  0.2238908E+04  0.7818609E-02  0.8502406E-01
       -1   -1    0    0    0  501  0.00000000000E+00  0.00000000000E+00  0.51484895367E+03  0.51484895369E+03  0.50400001928E-02 0. -1.
        1   -1    0    0  501    0  0.00000000000E+00  0.00000000000E+00 -0.24340677110E+04  0.24340677110E+04  0.50400001928E-02 0.  1.
    10030    2    1    2    0    0  0.00000000000E+00  0.00000000000E+00 -0.19192187574E+04  0.29489166647E+04  0.22389079608E+04 0.  0.
        4    1    3    3  502    0  0.11563964500E+03 -0.95373867228E+03 -0.20276718463E+03  0.98188906021E+03  0.12699999809E+01 0. -1.
       -4    1    3    3    0  502 -0.11563964500E+03  0.95373867228E+03 -0.17164515727E+04  0.19670276045E+04  0.12699999809E+01 0.  1.
</event>
<event>
 5   0  0.4174075E-05  0.2190740E+04  0.7818609E-02  0.8522292E-01
       -1   -1    0    0    0  501  0.00000000000E+00  0.00000000000E+00  0.98133686955E+03  0.98133686957E+03  0.50400001928E-02 0.  1.
        1   -1    0    0  501    0  0.00000000000E+00  0.00000000000E+00 -0.12226540558E+04  0.12226540558E+04  0.50400001928E-02 0. -1.
    10030    2    1    2    0    0  0.00000000000E+00  0.00000000000E+00 -0.24131718620E+03  0.22039909253E+04  0.21907400609E+04 0.  0.
        5    1    3    3  502    0 -0.89671107836E+03  0.45075381000E+03 -0.56211066717E+03  0.11503304949E+04  0.46999998093E+01 0. -1.
       -5    1    3    3    0  502  0.89671107836E+03 -0.45075381000E+03  0.32079348097E+03  0.10536604305E+04  0.46999998093E+01 0.  1.
</event>
<event>
 5   0  0.4133418E-05  0.2216738E+04  0.7818609E-02  0.8511494E-01
       -1   -1    0    0    0  501  0.00000000000E+00  0.00000000000E+00  0.11506368784E+04  0.11506368784E+04  0.50400001928E-02 0. -1.
        1   -1    0    0  501    0  0.00000000000E+00  0.00000000000E+00 -0.10676534070E+04  0.10676534071E+04  0.50400001928E-02 0.  1.
    10030    2    1    2    0    0  0.00000000000E+00  0.00000000000E+00  0.82983471348E+02  0.22182902855E+04  0.22167375880E+04 0.  0.
        4    1    3    3  502    0 -0.32767674476E+03 -0.10587007824E+04  0.25344298279E+02  0.11085410872E+04  0.12699999809E+01 0.  1.
       -4    1    3    3    0  502  0.32767674476E+03  0.10587007824E+04  0.57639173069E+02  0.11097491982E+04  0.12699999809E+01 0. -1.
</event>
<event>
 5   0  0.4188865E-05  0.2207616E+04  0.7818609E-02  0.8515265E-01
       -1   -1    0    0    0  501  0.00000000000E+00  0.00000000000E+00  0.71165308885E+03  0.71165308887E+03  0.50400001928E-02 0.  1.
        1   -1    0    0  501    0  0.00000000000E+00  0.00000000000E+00 -0.17120588421E+04  0.17120588421E+04  0.50400001928E-02 0. -1.
    10030    2    1    2    0    0  0.00000000000E+00  0.00000000000E+00 -0.10004057532E+04  0.24237119309E+04  0.22076158754E+04 0.  0.
        3    1    3    3  502    0  0.41879740331E+03 -0.79237704286E+03 -0.12075855562E+04  0.15038336107E+04  0.10100000352E+00 0. -1.
       -3    1    3    3    0  502 -0.41879740331E+03  0.79237704286E+03  0.20717980295E+03  0.91987832023E+03  0.10100000352E+00 0.  1.
</event>
<event>
 5   0  0.4063293E-05  0.2186960E+04  0.7818609E-02  0.8523875E-01
        1   -1    0    0  501    0  0.00000000000E+00  0.00000000000E+00  0.13057613936E+04  0.13057613936E+04  0.50400001928E-02 0.  1.
       -1   -1    0    0    0  501  0.00000000000E+00  0.00000000000E+00 -0.91570966023E+03  0.91570966024E+03  0.50400001928E-02 0. -1.
    10030    2    1    2    0    0  0.00000000000E+00  0.00000000000E+00  0.39005173334E+03  0.22214710538E+04  0.21869598278E+04 0.  0.
        1    1    3    3  502    0 -0.58414786738E+03  0.64031274694E+03 -0.48217994684E+03  0.99182994813E+03  0.50400001928E-02 0. -1.
       -1    1    3    3    0  502  0.58414786738E+03 -0.64031274694E+03  0.87223168017E+03  0.12296411057E+04  0.50400001928E-02 0.  1.
</event>
<event>
 5   0  0.9179618E-05  0.2193936E+04  0.7818609E-02  0.8520956E-01
       -2   -1    0    0    0  501  0.00000000000E+00  0.00000000000E+00  0.11984395342E+04  0.11984395342E+04  0.25500000920E-02 0.  1.
        2   -1    0    0  501    0  0.00000000000E+00  0.00000000000E+00 -0.10040877136E+04  0.10040877136E+04  0.25500000920E-02 0. -1.
    10030    2    1    2    0    0  0.00000000000E+00  0.00000000000E+00  0.19435182067E+03  0.22025272478E+04  0.21939356525E+04 0.  0.
        3    1    3    3  502    0  0.11082876352E+03 -0.44034997169E+03  0.10996590119E+04  0.11897231043E+04  0.10100000352E+00 0.  1.
       -3    1    3    3    0  502 -0.11082876352E+03  0.44034997169E+03 -0.90530719121E+03  0.10128041435E+04  0.10100000352E+00 0. -1.
</event>
<event>
 5   0  0.9938176E-05  0.2188704E+04  0.7818609E-02  0.8523144E-01
        2   -1    0    0  501    0  0.00000000000E+00  0.00000000000E+00  0.10425024339E+04  0.10425024339E+04  0.25500000920E-02 0. -1.
       -2   -1    0    0    0  501  0.00000000000E+00  0.00000000000E+00 -0.11487808151E+04  0.11487808151E+04  0.25500000920E-02 0.  1.
    10030    2    1    2    0    0  0.00000000000E+00  0.00000000000E+00 -0.10627838123E+03  0.21912832490E+04  0.21887044531E+04 0.  0.
        5    1    3    3  502    0  0.10527541780E+04  0.29260033615E+03 -0.11386037952E+03  0.10985866339E+04  0.46999998093E+01 0.  1.
       -5    1    3    3    0  502 -0.10527541780E+04 -0.29260033615E+03  0.75819982915E+01  0.10926966152E+04  0.46999998093E+01 0. -1.
</event>
<event>
 5   0  0.9938176E-05  0.2193191E+04  0.7818609E-02  0.8521268E-01
        2   -1    0    0  501    0  0.00000000000E+00  0.00000000000E+00  0.88579770021E+03  0.88579770022E+03  0.25500000920E-02 0.  1.
       -2   -1    0    0    0  501  0.00000000000E+00  0.00000000000E+00 -0.13575573846E+04  0.13575573846E+04  0.25500000920E-02 0. -1.
    10030    2    1    2    0    0  0.00000000000E+00  0.00000000000E+00 -0.47175968437E+03  0.22433550848E+04  0.21931905610E+04 0.  0.
        5    1    3    3  502    0 -0.68943536464E+03 -0.85077462421E+03 -0.29517591428E+03  0.11341470335E+04  0.46999998093E+01 0. -1.
       -5    1    3    3    0  502  0.68943536464E+03  0.85077462421E+03 -0.17658377009E+03  0.11092080513E+04  0.46999998093E+01 0.  1.
</event>
<event>
 5   0  0.4063293E-05  0.2173059E+04  0.7818609E-02  0.8529726E-01
        1   -1    0    0  501    0  0.00000000000E+00  0.00000000000E+00  0.97861359992E+03  0.97861359994E+03  0.50400001928E-02 0.  1.
       -1   -1    0    0    0  501  0.00000000000E+00  0.00000000000E+00 -0.12063462904E+04  0.12063462904E+04  0.50400001928E-02 0. -1.
    10030    2    1    2    0    0  0.00000000000E+00  0.00000000000E+00 -0.22773269044E+03  0.21849598903E+04  0.21730594893E+04 0.  0.
        1    1    3    3  502    0  0.97678639787E+03 -0.14710822074E+03  0.34115406902E+03  0.10450543500E+04  0.50400001928E-02 0.  1.
       -1    1    3    3    0  502 -0.97678639787E+03  0.14710822074E+03 -0.56888675946E+03  0.11399055403E+04  0.50400001928E-02 0. -1.
</event>
<event>
 5   0  0.9457742E-05  0.2171971E+04  0.7818609E-02  0.8530186E-01
        2   -1    0    0  501    0  0.00000000000E+00  0.00000000000E+00  0.13551379691E+04  0.13551379691E+04  0.25500000920E-02 0.  1.
       -2   -1    0    0    0  501  0.00000000000E+00  0.00000000000E+00 -0.87029090065E+03  0.87029090066E+03  0.25500000920E-02 0. -1.
    10030    2    1    2    0    0  0.00000000000E+00  0.00000000000E+00  0.48484706841E+03  0.22254288697E+04  0.21719707582E+04 0.  0.
        1    1    3    3  502    0 -0.65601974856E+03 -0.73309803902E+03  0.71371152622E+03  0.12153924420E+04  0.50400001928E-02 0. -1.
       -1    1    3    3    0  502  0.65601974856E+03  0.73309803902E+03 -0.22886445781E+03  0.10100364278E+04  0.50400001928E-02 0.  1.
</event>
<event>
 5   0  0.9457742E-05  0.2313073E+04  0.7818609E-02  0.8472784E-01
        2   -1    0    0  501    0  0.00000000000E+00  0.00000000000E+00  0.13793882461E+04  0.13793882461E+04  0.25500000920E-02 0. -1.
       -2   -1    0    0    0  501  0.00000000000E+00  0.00000000000E+00 -0.96968833768E+03  0.96968833768E+03  0.25500000920E-02 0.  1.
    10030    2    1    2    0    0  0.00000000000E+00  0.00000000000E+00  0.40969990838E+03  0.23490765837E+04  0.23130730169E+04 0.  0.
        1    1    3    3  502    0  0.14331993343E+03  0.11218673655E+04  0.45037680833E+03  0.12173603652E+04  0.50400001928E-02 0. -1.
       -1    1    3    3    0  502 -0.14331993343E+03 -0.11218673655E+04 -0.40676899952E+02  0.11317162186E+04  0.50400001928E-02 0.  1.
</event>
<event>
 5   0  0.4188865E-05  0.2182688E+04  0.7818609E-02  0.8525668E-01
        1   -1    0    0  501    0  0.00000000000E+00  0.00000000000E+00  0.31296584259E+04  0.31296584260E+04  0.50400001928E-02 0. -1.
       -1   -1    0    0    0  501  0.00000000000E+00  0.00000000000E+00 -0.38056293643E+03  0.38056293646E+03  0.50400001928E-02 0.  1.
    10030    2    1    2    0    0  0.00000000000E+00  0.00000000000E+00  0.27490954895E+04  0.35102213624E+04  0.21826882514E+04 0.  0.
        3    1    3    3  502    0  0.67982566984E+03  0.27438715547E+03  0.26746946193E+04  0.27733450145E+04  0.10100000352E+00 0. -1.
       -3    1    3    3    0  502 -0.67982566984E+03 -0.27438715547E+03  0.74400870189E+02  0.73687634794E+03  0.10100000352E+00 0.  1.
</event>
<event>
 5   0  0.9442578E-05  0.1994698E+04  0.7818609E-02  0.8609103E-01
       -2   -1    0    0    0  501  0.00000000000E+00  0.00000000000E+00  0.10062115929E+04  0.10062115929E+04  0.25500000920E-02 0. -1.
        2   -1    0    0  501    0  0.00000000000E+00  0.00000000000E+00 -0.98856468070E+03  0.98856468070E+03  0.25500000920E-02 0.  1.
    10030    2    1    2    0    0  0.00000000000E+00  0.00000000000E+00  0.17646912190E+02  0.19947762736E+04  0.19946982148E+04 0.  0.
        4    1    3    3  502    0 -0.20413519757E+03 -0.25529888674E+03  0.95112087153E+03  0.10057242294E+04  0.12699999809E+01 0. -1.
       -4    1    3    3    0  502  0.20413519757E+03  0.25529888674E+03 -0.93347395934E+03  0.98905204419E+03  0.12699999809E+01 0.  1.
</event>
<event>
 5   0  0.4174030E-05  0.1860987E+04  0.7818609E-02  0.8674523E-01
       -1   -1    0    0    0  501  0.00000000000E+00  0.00000000000E+00  0.10999570990E+04  0.10999570990E+04  0.50400001928E-02 0. -1.
        1   -1    0    0  501    0  0.00000000000E+00  0.00000000000E+00 -0.78713800297E+03  0.78713800299E+03  0.50400001928E-02 0.  1.
    10030    2    1    2    0    0  0.00000000000E+00  0.00000000000E+00  0.31281909605E+03  0.18870951020E+04  0.18609868719E+04 0.  0.
        2    1    3    3  502    0 -0.30762713867E+03 -0.86887545357E+03  0.27189338700E+02  0.92212703594E+03  0.25500000920E-02 0.  1.
       -2    1    3    3    0  502  0.30762713867E+03  0.86887545357E+03  0.28562975735E+03  0.96496806608E+03  0.25500000920E-02 0. -1.
</event>
<event>
 5   0  0.9254673E-05  0.2186294E+04  0.7818609E-02  0.8524155E-01
       -2   -1    0    0    0  501  0.00000000000E+00  0.00000000000E+00  0.10197398673E+04  0.10197398673E+04  0.25500000920E-02 0.  1.
        2   -1    0    0  501    0  0.00000000000E+00  0.00000000000E+00 -0.11718382432E+04  0.11718382432E+04  0.25500000920E-02 0. -1.
    10030    2    1    2    0    0  0.00000000000E+00  0.00000000000E+00 -0.15209837587E+03  0.21915781106E+04  0.21862938272E+04 0.  0.
        2    1    3    3  502    0 -0.10336602393E+03  0.23383379401E+02 -0.11666765204E+04  0.11714800129E+04  0.25500000920E-02 0. -1.
       -2    1    3    3    0  502  0.10336602393E+03 -0.23383379401E+02  0.10145781446E+04  0.10200980976E+04  0.25500000920E-02 0.  1.
</event>
<event>
 5   0  0.4063293E-05  0.2219631E+04  0.7818609E-02  0.8510302E-01
        1   -1    0    0  501    0  0.00000000000E+00  0.00000000000E+00  0.17725243932E+04  0.17725243933E+04  0.50400001928E-02 0. -1.
       -1   -1    0    0    0  501  0.00000000000E+00  0.00000000000E+00 -0.69487896055E+03  0.69487896057E+03  0.50400001928E-02 0.  1.
    10030    2    1    2    0    0  0.00000000000E+00  0.00000000000E+00  0.10776454327E+04  0.24674033538E+04  0.22196305170E+04 0.  0.
        1    1    3    3  502    0 -0.69929370642E+03 -0.22569792502E+03  0.14633729013E+04  0.16375015998E+04  0.50400001928E-02 0. -1.
       -1    1    3    3    0  502  0.69929370642E+03  0.22569792502E+03 -0.38572746862E+03  0.82990175398E+03  0.50400001928E-02 0.  1.
</event>
<event>
 5   0  0.9254673E-05  0.2219306E+04  0.7818609E-02  0.8510435E-01
       -2   -1    0    0    0  501  0.00000000000E+00  0.00000000000E+00  0.54860858415E+03  0.54860858415E+03  0.25500000920E-02 0. -1.
        2   -1    0    0  501    0  0.00000000000E+00  0.00000000000E+00 -0.22444599710E+04  0.22444599710E+04  0.25500000920E-02 0.  1.
    10030    2    1    2    0    0  0.00000000000E+00  0.00000000000E+00 -0.16958513869E+04  0.27930685552E+04  0.22193062041E+04 0.  0.
        2    1    3    3  502    0  0.64375633927E+03 -0.81740881572E+03 -0.13333189591E+04  0.16912477179E+04  0.25500000920E-02 0.  1.
       -2    1    3    3    0  502 -0.64375633927E+03  0.81740881572E+03 -0.36253242773E+03  0.11018208373E+04  0.25500000920E-02 0. -1.
</event>
<event>
 5   0  0.9938176E-05  0.2131159E+04  0.7818609E-02  0.8547640E-01
        2   -1    0    0  501    0  0.00000000000E+00  0.00000000000E+00  0.82715591700E+03  0.82715591701E+03  0.25500000920E-02 0. -1.
       -2   -1    0    0    0  501  0.00000000000E+00  0.00000000000E+00 -0.13727279990E+04  0.13727279990E+04  0.25500000920E-02 0.  1.
    10030    2    1    2    0    0  0.00000000000E+00  0.00000000000E+00 -0.54557208200E+03  0.21998839160E+04  0.21311593904E+04 0.  0.
        5    1    3    3  502    0 -0.87814890514E+03 -0.10616092984E+03  0.34053086462E+03  0.94783912263E+03  0.46999998093E+01 0. -1.
       -5    1    3    3    0  502  0.87814890514E+03  0.10616092984E+03 -0.88610294662E+03  0.12520447934E+04  0.46999998093E+01 0.  1.
</event>
<event>
 5   0  0.9938176E-05  0.2190399E+04  0.7818609E-02  0.8522435E-01
        2   -1    0    0  501    0  0.00000000000E+00  0.00000000000E+00  0.10423125468E+04  0.10423125468E+04  0.25500000920E-02 0. -1.
       -2   -1    0    0    0  501  0.00000000000E+00  0.00000000000E+00 -0.11507700235E+04  0.11507700235E+04  0.25500000920E-02 0.  1.
    10030    2    1    2    0    0  0.00000000000E+00  0.00000000000E+00 -0.10845747666E+03  0.21930825703E+04  0.21903990814E+04 0.  0.
        5    1    3    3  502    0  0.17971568923E+03  0.12103952639E+02 -0.11358279556E+04  0.11500310732E+04  0.46999998093E+01 0.  1.
       -5    1    3    3    0  502 -0.17971568923E+03 -0.12103952639E+02  0.10273704789E+04  0.10430514971E+04  0.46999998093E+01 0. -1.
</event>
<event>
 5   0  0.3283125E-05  0.1804996E+04  0.7818609E-02  0.8703647E-01
       -4   -1    0    0    0  501  0.00000000000E+00  0.00000000000E+00  0.13521784803E+04  0.13521790767E+04  0.12699999809E+01 0. -1.
        4   -1    0    0  501    0  0.00000000000E+00  0.00000000000E+00 -0.60236177206E+03  0.60236311087E+03  0.12699999809E+01 0.  1.
    10030    2    1    2    0    0  0.00000000000E+00  0.00000000000E+00  0.74981670825E+03  0.19545421876E+04  0.18049958635E+04 0.  0.
        1    1    3    3  502    0 -0.68475269607E+02 -0.84542688635E+03  0.41033423897E+02  0.84918739075E+03  0.50400001928E-02 0. -1.
       -1    1    3    3    0  502  0.68475269607E+02  0.84542688635E+03  0.70878328435E+03  0.11053547968E+04  0.50400001928E-02 0.  1.
</event>
<event>
 5   0  0.4063293E-05  0.2193913E+04  0.7818609E-02  0.8520966E-01
        1   -1    0    0  501    0  0.00000000000E+00  0.00000000000E+00  0.17406265402E+04  0.17406265402E+04  0.50400001928E-02 0.  1.
       -1   -1    0    0    0  501  0.00000000000E+00  0.00000000000E+00 -0.69131058118E+03  0.69131058120E+03  0.50400001928E-02 0. -1.
    10030    2    1    2    0    0  0.00000000000E+00  0.00000000000E+00  0.10493159591E+04  0.24319371214E+04  0.21939129839E+04 0.  0.
        1    1    3    3  502    0  0.74120984351E+03 -0.46859009621E+03  0.12552085331E+04  0.15311816261E+04  0.50400001928E-02 0.  1.
       -1    1    3    3    0  502 -0.74120984351E+03  0.46859009621E+03 -0.20589257405E+03  0.90075549538E+03  0.50400001928E-02 0. -1.
</event>
<event>
 5   0  0.4188865E-05  0.1685597E+04  0.7818609E-02  0.8769622E-01
        1   -1    0    0  501    0  0.00000000000E+00  0.00000000000E+00  0.10447045944E+04  0.10447045944E+04  0.50400001928E-02 0.  1.
       -1   -1    0    0    0  501  0.00000000000E+00  0.00000000000E+00 -0.67991432399E+03  0.67991432401E+03  0.50400001928E-02 0. -1.
    10030    2    1    2    0    0  0.00000000000E+00  0.00000000000E+00  0.36479027045E+03  0.17246189185E+04  0.16855973637E+04 0.  0.
        3    1    3    3  502    0  0.72133689060E+02 -0.42111246493E+03 -0.56090106384E+03  0.70508793128E+03  0.10100000352E+00 0. -1.
       -3    1    3    3    0  502 -0.72133689060E+02  0.42111246493E+03  0.92569133429E+03  0.10195309872E+04  0.10100000352E+00 0.  1.
</event>
<event>
 5   0  0.4188865E-05  0.2195616E+04  0.7818609E-02  0.8520255E-01
       -1   -1    0    0    0  501  0.00000000000E+00  0.00000000000E+00  0.12747302138E+04  0.12747302138E+04  0.50400001928E-02 0. -1.
        1   -1    0    0  501    0  0.00000000000E+00  0.00000000000E+00 -0.94544073410E+03  0.94544073412E+03  0.50400001928E-02 0.  1.
    10030    2    1    2    0    0  0.00000000000E+00  0.00000000000E+00  0.32928947970E+03  0.22201709479E+04  0.21956155120E+04 0.  0.
        3    1    3    3  502    0 -0.42624809066E+03 -0.27990677541E+03 -0.81841456458E+03  0.96428089654E+03  0.10100000352E+00 0.  1.
       -3    1    3    3    0  502  0.42624809066E+03  0.27990677541E+03  0.11477040443E+04  0.12558900514E+04  0.10100000352E+00 0. -1.
</event>
<event>
 5   0  0.9457742E-05  0.2194399E+04  0.7818609E-02  0.8520763E-01
        2   -1    0    0  501    0  0.00000000000E+00  0.00000000000E+00  0.87980168766E+03  0.87980168766E+03  0.25500000920E-02 0.  1.
       -2   -1    0    0    0  501  0.00000000000E+00  0.00000000000E+00 -0.13683155713E+04  0.13683155713E+04  0.25500000920E-02 0. -1.
    10030    2    1    2    0    0  0.00000000000E+00  0.00000000000E+00 -0.48851388367E+03  0.22481172590E+04  0.21943986410E+04 0.  0.
        1    1    3    3  502    0  0.19892008666E+03  0.62381324130E+03 -0.11462265001E+04  0.13200558134E+04  0.50400001928E-02 0. -1.
       -1    1    3    3    0  502 -0.19892008666E+03 -0.62381324130E+03  0.65771261646E+03  0.92806144558E+03  0.50400001928E-02 0.  1.
</event>
<event>
 5   0  0.4174075E-05  0.2178559E+04  0.7818609E-02  0.8527406E-01
       -1   -1    0    0    0  501  0.00000000000E+00  0.00000000000E+00  0.55258061117E+03  0.55258061119E+03  0.50400001928E-02 0.  1.
        1   -1    0    0  501    0  0.00000000000E+00  0.00000000000E+00 -0.21472524493E+04  0.21472524493E+04  0.50400001928E-02 0. -1.
    10030    2    1    2    0    0  0.00000000000E+00  0.00000000000E+00 -0.15946718382E+04  0.26998330605E+04  0.21785592219E+04 0.  0.
        5    1    3    3  502    0  0.95814830678E+02 -0.41976509553E+03 -0.20373072468E+04  0.20823126866E+04  0.46999998093E+01 0. -1.
       -5    1    3    3    0  502 -0.95814830678E+02  0.41976509553E+03  0.44263540862E+03  0.61752037389E+03  0.46999998093E+01 0.  1.
</event>
<event>
 5   0  0.9457742E-05  0.2170303E+04  0.7818609E-02  0.8530891E-01
        2   -1    0    0  501    0  0.00000000000E+00  0.00000000000E+00  0.19214560113E+04  0.19214560113E+04  0.25500000920E-02 0.  1.
       -2   -1    0    0    0  501  0.00000000000E+00  0.00000000000E+00 -0.61284432216E+03  0.61284432216E+03  0.25500000920E-02 0. -1.
    10030    2    1    2    0    0  0.00000000000E+00  0.00000000000E+00  0.13086116891E+04  0.25343003334E+04  0.21703026580E+04 0.  0.
        1    1    3    3  502    0  0.61346022533E+03 -0.17189943183E+03 -0.37147300429E+03  0.73747885099E+03  0.50400001928E-02 0. -1.
       -1    1    3    3    0  502 -0.61346022533E+03  0.17189943183E+03  0.16800846934E+04  0.17968214824E+04  0.50400001928E-02 0.  1.
</event>
<event>
 5   0  0.9179618E-05  0.2217499E+04  0.7818609E-02  0.8511180E-01
        2   -1    0    0  501    0  0.00000000000E+00  0.00000000000E+00  0.11616033997E+04  0.11616033997E+04  0.25500000920E-02 0. -1.
       -2   -1    0    0    0  501  0.00000000000E+00  0.00000000000E+00 -0.10583006788E+04  0.10583006788E+04  0.25500000920E-02 0.  1.
    10030    2    1    2    0    0  0.00000000000E+00  0.00000000000E+00  0.10330272092E+03  0.22199040786E+04  0.22174991919E+04 0.  0.
        3    1    3    3  502    0 -0.10291186891E+04 -0.29105899748E+03 -0.24111244390E+03  0.10963283436E+04  0.10100000352E+00 0.  1.
       -3    1    3    3    0  502  0.10291186891E+04  0.29105899748E+03  0.34441516482E+03  0.11235757350E+04  0.10100000352E+00 0. -1.
</event>
<event>
 5   0  0.9254673E-05  0.2218643E+04  0.7818609E-02  0.8510708E-01
        2   -1    0    0  501    0  0.00000000000E+00  0.00000000000E+00  0.17993650688E+04  0.17993650688E+04  0.25500000920E-02 0.  1.
       -2   -1    0    0    0  501  0.00000000000E+00  0.00000000000E+00 -0.68390471614E+03  0.68390471615E+03  0.25500000920E-02 0. -1.
    10030    2    1    2    0    0  0.00000000000E+00  0.00000000000E+00  0.11154603526E+04  0.24832697849E+04  0.22186430597E+04 0.  0.
        2    1    3    3  502    0 -0.96811044362E+03 -0.14307028519E+03  0.11424235123E+04  0.15042733858E+04  0.25500000920E-02 0.  1.
       -2    1    3    3    0  502  0.96811044362E+03  0.14307028519E+03 -0.26963159728E+02  0.97899639914E+03  0.25500000920E-02 0. -1.
</event>
<event>
 5   0  0.4174030E-05  0.2229556E+04  0.7818609E-02  0.8506226E-01
       -1   -1    0    0    0  501  0.00000000000E+00  0.00000000000E+00  0.10629775513E+04  0.10629775514E+04  0.50400001928E-02 0. -1.
        1   -1    0    0  501    0  0.00000000000E+00  0.00000000000E+00 -0.11691030433E+04  0.11691030433E+04  0.50400001928E-02 0.  1.
    10030    2    1    2    0    0  0.00000000000E+00  0.00000000000E+00 -0.10612549195E+03  0.22320805947E+04  0.22295562700E+04 0.  0.
        2    1    3    3  502    0  0.37311867609E+03 -0.97228734193E+03  0.34509354816E+03  0.10971097387E+04  0.25500000920E-02 0. -1.
       -2    1    3    3    0  502 -0.37311867609E+03  0.97228734193E+03 -0.45121904011E+03  0.11349708560E+04  0.25500000920E-02 0.  1.
</event>
<event>
 5   0  0.9938176E-05  0.2225678E+04  0.7818609E-02  0.8507816E-01
        2   -1    0    0  501    0  0.00000000000E+00  0.00000000000E+00  0.99257357735E+03  0.99257357736E+03  0.25500000920E-02 0.  1.
       -2   -1    0    0    0  501  0.00000000000E+00  0.00000000000E+00 -0.12476768103E+04  0.12476768103E+04  0.25500000920E-02 0. -1.
    10030    2    1    2    0    0  0.00000000000E+00  0.00000000000E+00 -0.25510323297E+03  0.22402503877E+04  0.22256783550E+04 0.  0.
        5    1    3    3  502    0 -0.71199200891E+03 -0.66995862254E+03  0.40754139645E+03  0.10591927381E+04  0.46999998093E+01 0.  1.
       -5    1    3    3    0  502  0.71199200891E+03  0.66995862254E+03 -0.66264462943E+03  0.11810576496E+04  0.46999998093E+01 0. -1.
</event>
<event>
 5   0  0.3283125E-05  0.1765206E+04  0.7818609E-02  0.8725024E-01
       -3   -1    0    0    0  501  0.00000000000E+00  0.00000000000E+00  0.59982560522E+03  0.59982561373E+03  0.10100000352E+00 0. -1.
        3   -1    0    0  501    0  0.00000000000E+00  0.00000000000E+00 -0.12986914232E+04  0.12986914271E+04  0.10100000352E+00 0.  1.
    10030    2    1    2    0    0  0.00000000000E+00  0.00000000000E+00 -0.69886581795E+03  0.18985170408E+04  0.17652063683E+04 0.  0.
        1    1    3    3  502    0 -0.49356481116E+03  0.20659256576E+03 -0.11043704654E+04  0.12271596619E+04  0.50400001928E-02 0.  1.
       -1    1    3    3    0  502  0.49356481116E+03 -0.20659256576E+03  0.40550464745E+03  0.67135737888E+03  0.50400001928E-02 0. -1.
</event>
<event>
 5   0  0.9938176E-05  0.1973691E+04  0.7818609E-02  0.8619021E-01
        2   -1    0    0  501    0  0.00000000000E+00  0.00000000000E+00  0.88318431179E+03  0.88318431180E+03  0.25500000920E-02 0. -1.
       -2   -1    0    0    0  501  0.00000000000E+00  0.00000000000E+00 -0.11026737119E+04  0.11026737119E+04  0.25500000920E-02 0.  1.
    10030    2    1    2    0    0  0.00000000000E+00  0.00000000000E+00 -0.21948940015E+03  0.19858580237E+04  0.19736910837E+04 0.  0.
        5    1    3    3  502    0  0.43662528093E+03 -0.44440001199E+01  0.78068572460E+03  0.89451309419E+03  0.46999998093E+01 0. -1.
       -5    1    3    3    0  502 -0.43662528093E+03  0.44440001199E+01 -0.10001751248E+04  0.10913449296E+04  0.46999998093E+01 0.  1.
</event>
<event>
 5   0  0.9457742E-05  0.2262515E+04  0.7818609E-02  0.8492849E-01
        2   -1    0    0  501    0  0.00000000000E+00  0.00000000000E+00  0.75879216991E+03  0.75879216991E+03  0.25500000920E-02 0.  1.
       -2   -1    0    0    0  501  0.00000000000E+00  0.00000000000E+00 -0.16865533432E+04  0.16865533432E+04  0.25500000920E-02 0. -1.
    10030    2    1    2    0    0  0.00000000000E+00  0.00000000000E+00 -0.92776117331E+03  0.24453455131E+04  0.22625149467E+04 0.  0.
        1    1    3    3  502    0 -0.53540175238E+03 -0.98644267837E+03 -0.61680364191E+03  0.12806915815E+04  0.50400001928E-02 0.  1.
       -1    1    3    3    0  502  0.53540175238E+03  0.98644267837E+03 -0.31095753140E+03  0.11646539317E+04  0.50400001928E-02 0. -1.
</event>
<event>
 5   0  0.9442578E-05  0.2458057E+04  0.7818609E-02  0.8418082E-01
       -2   -1    0    0    0  501  0.00000000000E+00  0.00000000000E+00  0.16268349448E+04  0.16268349448E+04  0.25500000920E-02 0.  1.
        2   -1    0    0  501    0  0.00000000000E+00  0.00000000000E+00 -0.92849713690E+03  0.92849713690E+03  0.25500000920E-02 0. -1.
    10030    2    1    2    0    0  0.00000000000E+00  0.00000000000E+00  0.69833780786E+03  0.25553320817E+04  0.24580574350E+04 0.  0.
        4    1    3    3  502    0 -0.19176935677E+03  0.95751997650E+02  0.16072533743E+04  0.16214835655E+04  0.12699999809E+01 0.  1.
       -4    1    3    3    0  502  0.19176935677E+03 -0.95751997650E+02 -0.90891556643E+03  0.93384851612E+03  0.12699999809E+01 0. -1.
</event>
<event>
 5   0  0.4174030E-05  0.2148870E+04  0.7818609E-02  0.8540016E-01
        1   -1    0    0  501    0  0.00000000000E+00  0.00000000000E+00  0.24751731855E+04  0.24751731855E+04  0.50400001928E-02 0. -1.
       -1   -1    0    0    0  501  0.00000000000E+00  0.00000000000E+00 -0.46639580837E+03  0.46639580840E+03  0.50400001928E-02 0.  1.
    10030    2    1    2    0    0  0.00000000000E+00  0.00000000000E+00  0.20087773771E+04  0.29415689939E+04  0.21488698413E+04 0.  0.
        2    1    3    3  502    0 -0.70925568093E+03 -0.33891222849E+03  0.20070538570E+04  0.21554976930E+04  0.25500000920E-02 0. -1.
       -2    1    3    3    0  502  0.70925568093E+03  0.33891222849E+03  0.17235200991E+01  0.78607130089E+03  0.25500000920E-02 0.  1.
</event>
<event>
 5   0  0.4174030E-05  0.2145390E+04  0.7818609E-02  0.8541508E-01
        1   -1    0    0  501    0  0.00000000000E+00  0.00000000000E+00  0.97443815827E+03  0.97443815828E+03  0.50400001928E-02 0.  1.
       -1   -1    0    0    0  501  0.00000000000E+00  0.00000000000E+00 -0.11808591245E+04  0.11808591245E+04  0.50400001928E-02 0. -1.
    10030    2    1    2    0    0  0.00000000000E+00  0.00000000000E+00 -0.20642096622E+03  0.21552972828E+04  0.21453896527E+04 0.  0.
        2    1    3    3  502    0  0.80413809083E+02  0.88306966085E+03 -0.70965024904E+03  0.11357296697E+04  0.25500000920E-02 0.  1.
       -2    1    3    3    0  502 -0.80413809083E+02 -0.88306966085E+03  0.50322928281E+03  0.10195676131E+04  0.25500000920E-02 0. -1.
</event>
<event>
 5   0  0.9938176E-05  0.2121749E+04  0.7818609E-02  0.8551723E-01
       -2   -1    0    0    0  501  0.00000000000E+00  0.00000000000E+00  0.87746170168E+03  0.87746170168E+03  0.25500000920E-02 0. -1.
        2   -1    0    0  501    0  0.00000000000E+00  0.00000000000E+00 -0.12826253251E+04  0.12826253251E+04  0.25500000920E-02 0.  1.
    10030    2    1    2    0    0  0.00000000000E+00  0.00000000000E+00 -0.40516362345E+03  0.21600870268E+04  0.21217489017E+04 0.  0.
        5    1    3    3  502    0 -0.46125602264E+03  0.93074408967E+03 -0.42185894314E+03  0.11211729290E+04  0.46999998093E+01 0.  1.
       -5    1    3    3    0  502  0.46125602264E+03 -0.93074408967E+03  0.16695319689E+02  0.10389140978E+04  0.46999998093E+01 0. -1.
</event>
<event>
 5   0  0.9179618E-05  0.1890367E+04  0.7818609E-02  0.8659666E-01
       -2   -1    0    0    0  501  0.00000000000E+00  0.00000000000E+00  0.84345722435E+03  0.84345722436E+03  0.25500000920E-02 0. -1.
        2   -1    0    0  501    0  0.00000000000E+00  0.00000000000E+00 -0.10591781257E+04  0.10591781257E+04  0.25500000920E-02 0.  1.
    10030    2    1    2    0    0  0.00000000000E+00  0.00000000000E+00 -0.21572090134E+03  0.19026353500E+04  0.18903665697E+04 0.  0.
        3    1    3    3  502    0  0.56808338284E+03 -0.13913356526E+03 -0.85517146603E+03  0.10360478393E+04  0.10100000352E+00 0.  1.
       -3    1    3    3    0  502 -0.56808338284E+03  0.13913356526E+03  0.63945056470E+03  0.86658751072E+03  0.10100000352E+00 0. -1.
</event>
<event>
 5   0  0.4174030E-05  0.2110131E+04  0.7818609E-02  0.8556794E-01
       -1   -1    0    0    0  501  0.00000000000E+00  0.00000000000E+00  0.79590180469E+03  0.79590180471E+03  0.50400001928E-02 0.  1.
        1   -1    0    0  501    0  0.00000000000E+00  0.00000000000E+00 -0.13986183157E+04  0.13986183157E+04  0.50400001928E-02 0. -1.
    10030    2    1    2    0    0  0.00000000000E+00  0.00000000000E+00 -0.60271651105E+03  0.21945201205E+04  0.21101306515E+04 0.  0.
        2    1    3    3  502    0 -0.87839862370E+02 -0.93457794167E+03 -0.80229694529E+03  0.12348409448E+04  0.25500000920E-02 0. -1.
       -2    1    3    3    0  502  0.87839862370E+02  0.93457794167E+03  0.19958043424E+03  0.95967917567E+03  0.25500000920E-02 0.  1.
</event>
<event>
 5   0  0.9442578E-05  0.2200868E+04  0.7818609E-02  0.8518067E-01
        2   -1    0    0  501    0  0.00000000000E+00  0.00000000000E+00  0.12898423447E+04  0.12898423447E+04  0.25500000920E-02 0.  1.
       -2   -1    0    0    0  501  0.00000000000E+00  0.00000000000E+00 -0.93883976843E+03  0.93883976844E+03  0.25500000920E-02 0. -1.
    10030    2    1    2    0    0  0.00000000000E+00  0.00000000000E+00  0.35100257631E+03  0.22286821132E+04  0.22008682725E+04 0.  0.
        4    1    3    3  502    0 -0.51459752100E+03  0.58777301920E+01  0.11604748064E+04  0.12694678198E+04  0.12699999809E+01 0.  1.
       -4    1    3    3    0  502  0.51459752100E+03 -0.58777301920E+01 -0.80947223012E+03  0.95921429335E+03  0.12699999809E+01 0. -1.
</event>
<event>
 5   0  0.4133418E-05  0.2191366E+04  0.7818609E-02  0.8522031E-01
       -1   -1    0    0    0  501  0.00000000000E+00  0.00000000000E+00  0.14611014832E+04  0.14611014833E+04  0.50400001928E-02 0. -1.
        1   -1    0    0  501    0  0.00000000000E+00  0.00000000000E+00 -0.82165467785E+03  0.82165467786E+03  0.50400001928E-02 0.  1.
    10030    2    1    2    0    0  0.00000000000E+00  0.00000000000E+00  0.63944680539E+03  0.22827561611E+04  0.21913656642E+04 0.  0.
        4    1    3    3  502    0  0.13553096332E+03 -0.10819009953E+04  0.43211582101E+03  0.11728615014E+04  0.12699999809E+01 0.  1.
       -4    1    3    3    0  502 -0.13553096332E+03  0.10819009953E+04  0.20733098439E+03  0.11098946597E+04  0.12699999809E+01 0. -1.
</event>
<event>
 5   0  0.4188865E-05  0.2193764E+04  0.7818609E-02  0.8521028E-01
        1   -1    0    0  501    0  0.00000000000E+00  0.00000000000E+00  0.15776706406E+04  0.15776706406E+04  0.50400001928E-02 0.  1.
       -1   -1    0    0    0  501  0.00000000000E+00  0.00000000000E+00 -0.76261142840E+03  0.76261142842E+03  0.50400001928E-02 0. -1.
    10030    2    1    2    0    0  0.00000000000E+00  0.00000000000E+00  0.81505921217E+03  0.23402820690E+04  0.21937635796E+04 0.  0.
        3    1    3    3  502    0 -0.31043861308E+03  0.15273512741E+02 -0.71465103794E+03  0.77931478165E+03  0.10100000352E+00 0. -1.
       -3    1    3    3    0  502  0.31043861308E+03 -0.15273512741E+02  0.15297102501E+04  0.15609672873E+04  0.10100000352E+00 0.  1.
</event>
<event>
 5   0  0.9457742E-05  0.2258874E+04  0.7818609E-02  0.8494315E-01
       -2   -1    0    0    0  501  0.00000000000E+00  0.00000000000E+00  0.13382716542E+04  0.13382716542E+04  0.25500000920E-02 0. -1.
        2   -1    0    0  501    0  0.00000000000E+00  0.00000000000E+00 -0.95319096583E+03  0.95319096583E+03  0.25500000920E-02 0.  1.
    10030    2    1    2    0    0  0.00000000000E+00  0.00000000000E+00  0.38508068834E+03  0.22914626200E+04  0.22588744548E+04 0.  0.
        1    1    3    3  502    0 -0.82892516594E+03  0.60488306454E+03 -0.28610140126E+03  0.10652954822E+04  0.50400001928E-02 0.  1.
       -1    1    3    3    0  502  0.82892516594E+03 -0.60488306454E+03  0.67118208959E+03  0.12261671378E+04  0.50400001928E-02 0. -1.
</event>
<event>
 5   0  0.4174030E-05  0.2098787E+04  0.7818609E-02  0.8561778E-01
       -1   -1    0    0    0  501  0.00000000000E+00  0.00000000000E+00  0.10088870878E+04  0.10088870878E+04  0.50400001928E-02 0. -1.
        1   -1    0    0  501    0  0.00000000000E+00  0.00000000000E+00 -0.10915260925E+04  0.10915260925E+04  0.50400001928E-02 0.  1.
    10030    2    1    2    0    0  0.00000000000E+00  0.00000000000E+00 -0.82639004711E+02  0.21004131804E+04  0.20987868694E+04 0.  0.
        2    1    3    3  502    0 -0.24713662382E+03 -0.96900805939E+03 -0.35964371818E+03  0.10627307909E+04  0.25500000920E-02 0. -1.
       -2    1    3    3    0  502  0.24713662382E+03  0.96900805939E+03  0.27700471347E+03  0.10376823894E+04  0.25500000920E-02 0.  1.
</event>
<event>
 5   0  0.9457742E-05  0.2183332E+04  0.7818609E-02  0.8525398E-01
        2   -1    0    0  501    0  0.00000000000E+00  0.00000000000E+00  0.12909650522E+04  0.12909650522E+04  0.25500000920E-02 0.  1.
       -2   -1    0    0    0  501  0.00000000000E+00  0.00000000000E+00 -0.92313458679E+03  0.92313458680E+03  0.25500000920E-02 0. -1.
    10030    2    1    2    0    0  0.00000000000E+00  0.00000000000E+00  0.36783046537E+03  0.22140996390E+04  0.21833318483E+04 0.  0.
        1    1    3    3  502    0  0.82552525745E+03  0.24451260681E+03  0.86453359110E+03  0.12201215906E+04  0.50400001928E-02 0.  1.
       -1    1    3    3    0  502 -0.82552525745E+03 -0.24451260681E+03 -0.49670312573E+03  0.99397804841E+03  0.50400001928E-02 0. -1.
</event>
<event>
 5   0  0.9179618E-05  0.2169745E+04  0.7818609E-02  0.8531127E-01
        2   -1    0    0  501    0  0.00000000000E+00  0.00000000000E+00  0.12484959308E+04  0.12484959308E+04  0.25500000920E-02 0.  1.
       -2   -1    0    0    0  501  0.00000000000E+00  0.00000000000E+00 -0.94269327261E+03  0.94269327262E+03  0.25500000920E-02 0. -1.
    10030    2    1    2    0    0  0.00000000000E+00  0.00000000000E+00  0.30580265823E+03  0.21911892035E+04  0.21697453444E+04 0.  0.
        3    1    3    3  502    0  0.70875535838E+03  0.40548012140E+03  0.87424382659E+03  0.11962652571E+04  0.10100000352E+00 0.  1.
       -3    1    3    3    0  502 -0.70875535838E+03 -0.40548012140E+03 -0.56844116836E+03  0.99492394633E+03  0.10100000352E+00 0. -1.
</event>
<event>
 5   0  0.4063293E-05  0.2196009E+04  0.7818609E-02  0.8520091E-01
       -1   -1    0    0    0  501  0.00000000000E+00  0.00000000000E+00  0.10137122255E+04  0.10137122255E+04  0.50400001928E-02 0.  1.
        1   -1    0    0  501    0  0.00000000000E+00  0.00000000000E+00 -0.11893059236E+04  0.11893059236E+04  0.50400001928E-02 0. -1.
    10030    2    1    2    0    0  0.00000000000E+00  0.00000000000E+00 -0.17559369814E+03  0.22030181491E+04  0.21960090661E+04 0.  0.
        1    1    3    3  502    0 -0.10207144972E+04 -0.14885601746E+03 -0.46529265545E+03  0.11315977439E+04  0.50400001928E-02 0. -1.
       -1    1    3    3    0  502  0.10207144972E+04  0.14885601746E+03  0.28969895731E+03  0.10714204052E+04  0.50400001928E-02 0.  1.
</event>
<event>
 5   0  0.4063293E-05  0.2188148E+04  0.7818609E-02  0.8523378E-01
        1   -1    0    0  501    0  0.00000000000E+00  0.00000000000E+00  0.13889401200E+04  0.13889401200E+04  0.50400001928E-02 0. -1.
       -1   -1    0    0    0  501  0.00000000000E+00  0.00000000000E+00 -0.86180645865E+03  0.86180645867E+03  0.50400001928E-02 0.  1.
    10030    2    1    2    0    0  0.00000000000E+00  0.00000000000E+00  0.52713366136E+03  0.22507465787E+04  0.21881476789E+04 0.  0.
        1    1    3    3  502    0  0.10791082855E+04 -0.65223747991E+02  0.43650990370E+03  0.11658772342E+04  0.50400001928E-02 0. -1.
       -1    1    3    3    0  502 -0.10791082855E+04  0.65223747991E+02  0.90623757659E+02  0.10848693445E+04  0.50400001928E-02 0.  1.
</event>
<event>
 5   0  0.9457742E-05  0.2090580E+04  0.7818609E-02  0.8565404E-01
       -2   -1    0    0    0  501  0.00000000000E+00  0.00000000000E+00  0.97182542192E+03  0.97182542192E+03  0.25500000920E-02 0. -1.
        2   -1    0    0  501    0  0.00000000000E+00  0.00000000000E+00 -0.11243084327E+04  0.11243084327E+04  0.25500000920E-02 0.  1.
    10030    2    1    2    0    0  0.00000000000E+00  0.00000000000E+00 -0.15248301079E+03  0.20961338546E+04  0.20905803185E+04 0.  0.
        1    1    3    3  502    0  0.80883077726E+03  0.34142199806E+03  0.49258849612E+03  0.10066874557E+04  0.50400001928E-02 0. -1.
       -1    1    3    3    0  502 -0.80883077726E+03 -0.34142199806E+03 -0.64507150691E+03  0.10894463989E+04  0.50400001928E-02 0.  1.
</event>
<event>
 5   0  0.4174030E-05  0.2175841E+04  0.7818609E-02  0.8528551E-01
       -1   -1    0    0    0  501  0.00000000000E+00  0.00000000000E+00  0.51217455942E+03  0.51217455944E+03  0.50400001928E-02 0.  1.
        1   -1    0    0  501    0  0.00000000000E+00  0.00000000000E+00 -0.23108737794E+04  0.23108737794E+04  0.50400001928E-02 0. -1.
    10030    2    1    2    0    0  0.00000000000E+00  0.00000000000E+00 -0.17986992200E+04  0.28230483389E+04  0.21758407661E+04 0.  0.
        2    1    3    3  502    0  0.13225245603E+03 -0.97899463169E+03 -0.14905799489E+04  0.17882253172E+04  0.25500000920E-02 0. -1.
       -2    1    3    3    0  502 -0.13225245603E+03  0.97899463169E+03 -0.30811927115E+03  0.10348230217E+04  0.25500000920E-02 0.  1.
</event>
<event>
 5   0  0.4063293E-05  0.2196333E+04  0.7818609E-02  0.8519956E-01
        1   -1    0    0  501    0  0.00000000000E+00  0.00000000000E+00  0.20298798261E+04  0.20298798261E+04  0.50400001928E-02 0.  1.
       -1   -1    0    0    0  501  0.00000000000E+00  0.00000000000E+00 -0.59410870846E+03  0.59410870848E+03  0.50400001928E-02 0. -1.
    10030    2    1    2    0    0  0.00000000000E+00  0.00000000000E+00  0.14357711177E+04  0.26239885346E+04  0.21963326541E+04 0.  0.
        1    1    3    3  502    0 -0.73052909266E+03 -0.39781389871E+03  0.15744549232E+04  0.17806844073E+04  0.50400001928E-02 0.  1.
       -1    1    3    3    0  502  0.73052909266E+03  0.39781389871E+03 -0.13868380551E+03  0.84330412733E+03  0.50400001928E-02 0. -1.
</event>
<event>
 5   0  0.9179618E-05  0.2185624E+04  0.7818609E-02  0.8524436E-01
        2   -1    0    0  501    0  0.00000000000E+00  0.00000000000E+00  0.11731190777E+04  0.11731190777E+04  0.25500000920E-02 0. -1.
       -2   -1    0    0    0  501  0.00000000000E+00  0.00000000000E+00 -0.10180025484E+04  0.10180025484E+04  0.25500000920E-02 0.  1.
    10030    2    1    2    0    0  0.00000000000E+00  0.00000000000E+00  0.15511652928E+03  0.21911216261E+04  0.21856241311E+04 0.  0.
        3    1    3    3  502    0 -0.22456804611E+03 -0.97780328363E+03 -0.35678446039E+03  0.10648122981E+04  0.10100000352E+00 0.  1.
       -3    1    3    3    0  502  0.22456804611E+03  0.97780328363E+03  0.51190098968E+03  0.11263093280E+04  0.10100000352E+00 0. -1.
</event>
<event>
 5   0  0.4133418E-05  0.2206118E+04  0.7818609E-02  0.8515886E-01
       -1   -1    0    0    0  501  0.00000000000E+00  0.00000000000E+00  0.66999670370E+03  0.66999670372E+03  0.50400001928E-02 0.  1.
        1   -1    0    0  501    0  0.00000000000E+00  0.00000000000E+00 -0.18160374237E+04  0.18160374237E+04  0.50400001928E-02 0. -1.
    10030    2    1    2    0    0  0.00000000000E+00  0.00000000000E+00 -0.11460407200E+04  0.24860341274E+04  0.22061179367E+04 0.  0.
        4    1    3    3  502    0  0.59759334827E+03  0.87605102980E+03 -0.91510696115E+03  0.14007160954E+04  0.12699999809E+01 0. -1.
       -4    1    3    3    0  502 -0.59759334827E+03 -0.87605102980E+03 -0.23093375885E+03  0.10853180320E+04  0.12699999809E+01 0.  1.
</event>
<event>
 5   0  0.4063293E-05  0.2313477E+04  0.7818609E-02  0.8472626E-01
        1   -1    0    0  501    0  0.00000000000E+00  0.00000000000E+00  0.11304060670E+04  0.11304060670E+04  0.50400001928E-02 0. -1.
       -1   -1    0    0    0  501  0.00000000000E+00  0.00000000000E+00 -0.11836848422E+04  0.11836848422E+04  0.50400001928E-02 0.  1.
    10030    2    1    2    0    0  0.00000000000E+00  0.00000000000E+00 -0.53278775252E+02  0.23140909092E+04  0.23134774924E+04 0.  0.
        1    1    3    3  502    0  0.30891428444E+03 -0.10321668029E+04  0.39448077316E+03  0.11473497394E+04  0.50400001928E-02 0. -1.
       -1    1    3    3    0  502 -0.30891428444E+03  0.10321668029E+04 -0.44775954841E+03  0.11667411698E+04  0.50400001928E-02 0.  1.
</event>
<event>
 5   0  0.4063293E-05  0.2194453E+04  0.7818609E-02  0.8520740E-01
       -1   -1    0    0    0  501  0.00000000000E+00  0.00000000000E+00  0.71799403717E+03  0.71799403719E+03  0.50400001928E-02 0.  1.
        1   -1    0    0  501    0  0.00000000000E+00  0.00000000000E+00 -0.16767639644E+04  0.16767639645E+04  0.50400001928E-02 0. -1.
    10030    2    1    2    0    0  0.00000000000E+00  0.00000000000E+00 -0.95876992727E+03  0.23947580016E+04  0.21944534885E+04 0.  0.
        1    1    3    3  502    0  0.67496992144E+03  0.76203734373E+03 -0.92617116465E+03  0.13762551850E+04  0.50400001928E-02 0. -1.
       -1    1    3    3    0  502 -0.67496992144E+03 -0.76203734373E+03 -0.32598762624E+02  0.10185028166E+04  0.50400001928E-02 0.  1.
</event>
<event>
 5   0  0.9254673E-05  0.2209982E+04  0.7818609E-02  0.8514285E-01
        2   -1    0    0  501    0  0.00000000000E+00  0.00000000000E+00  0.18182284659E+04  0.18182284659E+04  0.25500000920E-02 0.  1.
       -2   -1    0    0    0  501  0.00000000000E+00  0.00000000000E+00 -0.67153574243E+03  0.67153574244E+03  0.25500000920E-02 0. -1.
    10030    2    1    2    0    0  0.00000000000E+00  0.00000000000E+00  0.11466927235E+04  0.24897642084E+04  0.22099822649E+04 0.  0.
        2    1    3    3  502    0  0.45558194363E+03 -0.49992945786E+03  0.15577652397E+04  0.16982687985E+04  0.25500000920E-02 0.  1.
       -2    1    3    3    0  502 -0.45558194363E+03  0.49992945786E+03 -0.41107251618E+03  0.79149540982E+03  0.25500000920E-02 0. -1.
</event>
<event>
 5   0  0.9442578E-05  0.2208435E+04  0.7818609E-02  0.8514926E-01
       -2   -1    0    0    0  501  0.00000000000E+00  0.00000000000E+00  0.61033810314E+03  0.61033810315E+03  0.25500000920E-02 0. -1.
        2   -1    0    0  501    0  0.00000000000E+00  0.00000000000E+00 -0.19977381996E+04  0.19977381996E+04  0.25500000920E-02 0.  1.
    10030    2    1    2    0    0  0.00000000000E+00  0.00000000000E+00 -0.13874000965E+04  0.26080763027E+04  0.22084345074E+04 0.  0.
        4    1    3    3  502    0  0.40803272039E+03 -0.71135641187E+03  0.17955335289E+03  0.83949965161E+03  0.12699999809E+01 0. -1.
       -4    1    3    3    0  502 -0.40803272039E+03  0.71135641187E+03 -0.15669534494E+04  0.17685766511E+04  0.12699999809E+01 0.  1.
</event>
<event>
 5   0  0.9179618E-05  0.2214461E+04  0.7818609E-02  0.8512433E-01
        2   -1    0    0  501    0  0.00000000000E+00  0.00000000000E+00  0.21583452638E+04  0.21583452638E+04  0.25500000920E-02 0.  1.
       -2   -1    0    0    0  501  0.00000000000E+00  0.00000000000E+00 -0.56800880523E+03  0.56800880524E+03  0.25500000920E-02 0. -1.
    10030    2    1    2    0    0  0.00000000000E+00  0.00000000000E+00  0.15903364586E+04  0.27263540690E+04  0.22144607602E+04 0.  0.
        3    1    3    3  502    0  0.13116519190E+03  0.17716997475E+03 -0.54071943084E+03  0.58392723914E+03  0.10100000352E+00 0. -1.
       -3    1    3    3    0  502 -0.13116519190E+03 -0.17716997475E+03  0.21310558894E+04  0.21424268299E+04  0.10100000352E+00 0.  1.
</event>
<event>
 5   0  0.4188865E-05  0.2099056E+04  0.7818609E-02  0.8561659E-01
       -1   -1    0    0    0  501  0.00000000000E+00  0.00000000000E+00  0.94067340304E+03  0.94067340306E+03  0.50400001928E-02 0.  1.
        1   -1    0    0  501    0  0.00000000000E+00  0.00000000000E+00 -0.11709790787E+04  0.11709790787E+04  0.50400001928E-02 0. -1.
    10030    2    1    2    0    0  0.00000000000E+00  0.00000000000E+00 -0.23030567561E+03  0.21116524817E+04  0.20990558590E+04 0.  0.
        3    1    3    3  502    0  0.32976595263E+03 -0.87669947345E+03 -0.59145086580E+03  0.11077733013E+04  0.10100000352E+00 0. -1.
       -3    1    3    3    0  502 -0.32976595263E+03  0.87669947345E+03  0.36114519019E+03  0.10038791804E+04  0.10100000352E+00 0.  1.
</event>
<event>
 5   0  0.9938176E-05  0.2493800E+04  0.7818609E-02  0.8405198E-01
       -2   -1    0    0    0  501  0.00000000000E+00  0.00000000000E+00  0.59450407499E+03  0.59450407500E+03  0.25500000920E-02 0. -1.
        2   -1    0    0  501    0  0.00000000000E+00  0.00000000000E+00 -0.26152218594E+04  0.26152218594E+04  0.25500000920E-02 0.  1.
    10030    2    1    2    0    0  0.00000000000E+00  0.00000000000E+00 -0.20207177844E+04  0.32097259344E+04  0.24938003548E+04 0.  0.
        5    1    3    3  502    0  0.95721383908E+03 -0.71458330499E+02 -0.20346800822E+04  0.22497354853E+04  0.46999998093E+01 0.  1.
       -5    1    3    3    0  502 -0.95721383908E+03  0.71458330499E+02  0.13962297768E+02  0.95999044916E+03  0.46999998093E+01 0. -1.
</event>
<event>
 5   0  0.9254673E-05  0.2167023E+04  0.7818609E-02  0.8532281E-01
        2   -1    0    0  501    0  0.00000000000E+00  0.00000000000E+00  0.16346268391E+04  0.16346268391E+04  0.25500000920E-02 0.  1.
       -2   -1    0    0    0  501  0.00000000000E+00  0.00000000000E+00 -0.71820496395E+03  0.71820496395E+03  0.25500000920E-02 0. -1.
    10030    2    1    2    0    0  0.00000000000E+00  0.00000000000E+00  0.91642187518E+03  0.23528318031E+04  0.21670229441E+04 0.  0.
        2    1    3    3  502    0  0.16534476820E+03  0.91372767394E+03  0.10644410962E+04  0.14125409735E+04  0.25500000920E-02 0.  1.
       -2    1    3    3    0  502 -0.16534476820E+03 -0.91372767394E+03 -0.14801922099E+03  0.94029082963E+03  0.25500000920E-02 0. -1.
</event>
<event>
 5   0  0.4188865E-05  0.2266948E+04  0.7818609E-02  0.8491068E-01
        1   -1    0    0  501    0  0.00000000000E+00  0.00000000000E+00  0.15665141469E+04  0.15665141469E+04  0.50400001928E-02 0.  1.
       -1   -1    0    0    0  501  0.00000000000E+00  0.00000000000E+00 -0.82014182148E+03  0.82014182149E+03  0.50400001928E-02 0. -1.
    10030    2    1    2    0    0  0.00000000000E+00  0.00000000000E+00  0.74637232546E+03  0.23866559684E+04  0.22669484034E+04 0.  0.
        3    1    3    3  502    0  0.93626221520E+03  0.32235736492E+03 -0.20754139471E+03  0.10117186600E+04  0.10100000352E+00 0. -1.
       -3    1    3    3    0  502 -0.93626221520E+03 -0.32235736492E+03  0.95391372016E+03  0.13749373084E+04  0.10100000352E+00 0.  1.
</event>
<event>
 5   0  0.9938176E-05  0.2197205E+04  0.7818609E-02  0.8519592E-01
        2   -1    0    0  501    0  0.00000000000E+00  0.00000000000E+00  0.19162522681E+04  0.19162522681E+04  0.25500000920E-02 0. -1.
       -2   -1    0    0    0  501  0.00000000000E+00  0.00000000000E+00 -0.62983772113E+03  0.62983772113E+03  0.25500000920E-02 0.  1.
    10030    2    1    2    0    0  0.00000000000E+00  0.00000000000E+00  0.12864145469E+04  0.25460899892E+04  0.21972054630E+04 0.  0.
        5    1    3    3  502    0 -0.78729716977E+03 -0.62971324614E+03  0.11490145418E+04  0.15286046295E+04  0.46999998093E+01 0.  1.
       -5    1    3    3    0  502  0.78729716977E+03  0.62971324614E+03  0.13740000512E+03  0.10174853597E+04  0.46999998093E+01 0. -1.
</event>
<event>
 5   0  0.4174075E-05  0.2152282E+04  0.7818609E-02  0.8538556E-01
        1   -1    0    0  501    0  0.00000000000E+00  0.00000000000E+00  0.11422753407E+04  0.11422753407E+04  0.50400001928E-02 0. -1.
       -1   -1    0    0    0  501  0.00000000000E+00  0.00000000000E+00 -0.10138355054E+04  0.10138355054E+04  0.50400001928E-02 0.  1.
    10030    2    1    2    0    0  0.00000000000E+00  0.00000000000E+00  0.12843983524E+03  0.21561108461E+04  0.21522818564E+04 0.  0.
        5    1    3    3  502    0  0.22777234918E+02 -0.11334500016E+03 -0.10075859584E+04  0.10142077918E+04  0.46999998093E+01 0.  1.
       -5    1    3    3    0  502 -0.22777234918E+02  0.11334500016E+03  0.11360257936E+04  0.11419030542E+04  0.46999998093E+01 0. -1.
</event>
<event>
 5   0  0.9938176E-05  0.2224275E+04  0.7818609E-02  0.8508392E-01
        2   -1    0    0  501    0  0.00000000000E+00  0.00000000000E+00  0.11236411352E+04  0.11236411352E+04  0.25500000920E-02 0. -1.
       -2   -1    0    0    0  501  0.00000000000E+00  0.00000000000E+00 -0.11007520077E+04  0.11007520077E+04  0.25500000920E-02 0.  1.
    10030    2    1    2    0    0  0.00000000000E+00  0.00000000000E+00  0.22889127518E+02  0.22243931430E+04  0.22242753747E+04 0.  0.
        5    1    3    3  502    0  0.20909545833E+03  0.61474292655E+03  0.91437573265E+03  0.11214877828E+04  0.46999998093E+01 0. -1.
       -5    1    3    3    0  502 -0.20909545833E+03 -0.61474292655E+03 -0.89148660513E+03  0.11029053602E+04  0.46999998093E+01 0.  1.
</event>
<event>
 5   0  0.9457742E-05  0.2343925E+04  0.7818609E-02  0.8460801E-01
       -2   -1    0    0    0  501  0.00000000000E+00  0.00000000000E+00  0.61726183490E+03  0.61726183491E+03  0.25500000920E-02 0. -1.
        2   -1    0    0  501    0  0.00000000000E+00  0.00000000000E+00 -0.22251430285E+04  0.22251430285E+04  0.25500000920E-02 0.  1.
    10030    2    1    2    0    0  0.00000000000E+00  0.00000000000E+00 -0.16078811936E+04  0.28424048634E+04  0.23439248014E+04 0.  0.
        1    1    3    3  502    0 -0.14222977431E+03  0.40638528514E+03  0.51787834330E+03  0.67348072517E+03  0.50400001928E-02 0. -1.
       -1    1    3    3    0  502  0.14222977431E+03 -0.40638528514E+03 -0.21257595369E+04  0.21689241382E+04  0.50400001928E-02 0.  1.
</event>
<event>
 5   0  0.9442578E-05  0.2136568E+04  0.7818609E-02  0.8545304E-01
        2   -1    0    0  501    0  0.00000000000E+00  0.00000000000E+00  0.11892227467E+04  0.11892227467E+04  0.25500000920E-02 0. -1.
       -2   -1    0    0    0  501  0.00000000000E+00  0.00000000000E+00 -0.95964429941E+03  0.95964429942E+03  0.25500000920E-02 0.  1.
    10030    2    1    2    0    0  0.00000000000E+00  0.00000000000E+00  0.22957844724E+03  0.21488670461E+04  0.21365681169E+04 0.  0.
        4    1    3    3  502    0  0.46370086511E+03  0.43862111375E+03  0.97635460111E+03  0.11664805587E+04  0.12699999809E+01 0. -1.
       -4    1    3    3    0  502 -0.46370086511E+03 -0.43862111375E+03 -0.74677615388E+03  0.98238648740E+03  0.12699999809E+01 0.  1.
</event>
<event>
 5   0  0.4188865E-05  0.2204031E+04  0.7818609E-02  0.8516752E-01
       -1   -1    0    0    0  501  0.00000000000E+00  0.00000000000E+00  0.12283029752E+04  0.12283029752E+04  0.50400001928E-02 0. -1.
        1   -1    0    0  501    0  0.00000000000E+00  0.00000000000E+00 -0.98871248989E+03  0.98871248990E+03  0.50400001928E-02 0.  1.
    10030    2    1    2    0    0  0.00000000000E+00  0.00000000000E+00  0.23959048530E+03  0.22170154651E+04  0.22040313001E+04 0.  0.
        3    1    3    3  502    0 -0.10526984228E+04  0.13353805461E+03  0.41892246453E+03  0.11408340908E+04  0.10100000352E+00 0. -1.
       -3    1    3    3    0  502  0.10526984228E+04 -0.13353805461E+03 -0.17933197923E+03  0.10761813743E+04  0.10100000352E+00 0.  1.
</event>
<event>
 5   0  0.4133418E-05  0.2095115E+04  0.7818609E-02  0.8563399E-01
       -1   -1    0    0    0  501  0.00000000000E+00  0.00000000000E+00  0.53772111624E+03  0.53772111626E+03  0.50400001928E-02 0. -1.
        1   -1    0    0  501    0  0.00000000000E+00  0.00000000000E+00 -0.20407906648E+04  0.20407906648E+04  0.50400001928E-02 0.  1.
    10030    2    1    2    0    0  0.00000000000E+00  0.00000000000E+00 -0.15030695485E+04  0.25785117810E+04  0.20951145404E+04 0.  0.
        4    1    3    3  502    0 -0.74987892655E+03  0.42389092447E+03 -0.17860348688E+02  0.86158140955E+03  0.12699999809E+01 0. -1.
       -4    1    3    3    0  502  0.74987892655E+03 -0.42389092447E+03 -0.14852091998E+04  0.17169303715E+04  0.12699999809E+01 0.  1.
</event>
<event>
 5   0  0.9457742E-05  0.2193901E+04  0.7818609E-02  0.8520971E-01
        2   -1    0    0  501    0  0.00000000000E+00  0.00000000000E+00  0.11200586964E+04  0.11200586964E+04  0.25500000920E-02 0. -1.
       -2   -1    0    0    0  501  0.00000000000E+00  0.00000000000E+00 -0.10743188253E+04  0.10743188253E+04  0.25500000920E-02 0.  1.
    10030    2    1    2    0    0  0.00000000000E+00  0.00000000000E+00  0.45739871013E+02  0.21943775217E+04  0.21939007662E+04 0.  0.
        1    1    3    3  502    0 -0.45800888127E+03  0.80412162342E+03  0.61199404404E+03  0.11094685352E+04  0.50400001928E-02 0. -1.
       -1    1    3    3    0  502  0.45800888127E+03 -0.80412162342E+03 -0.56625417302E+03  0.10849089865E+04  0.50400001928E-02 0.  1.
</event>
<event>
 5   0  0.4063293E-05  0.2179223E+04  0.7818609E-02  0.8527126E-01
        1   -1    0    0  501    0  0.00000000000E+00  0.00000000000E+00  0.19817849814E+04  0.19817849814E+04  0.50400001928E-02 0.  1.
       -1   -1    0    0    0  501  0.00000000000E+00  0.00000000000E+00 -0.59908278144E+03  0.59908278146E+03  0.50400001928E-02 0. -1.
    10030    2    1    2    0    0  0.00000000000E+00  0.00000000000E+00  0.13827021999E+04  0.25808677628E+04  0.21792230348E+04 0.  0.
        1    1    3    3  502    0 -0.47593169230E+03 -0.58792851461E+03 -0.23746707021E+03  0.79281872045E+03  0.50400001928E-02 0. -1.
       -1    1    3    3    0  502  0.47593169230E+03  0.58792851461E+03  0.16201692701E+04  0.17880490424E+04  0.50400001928E-02 0.  1.
</event>
<event>
 5   0  0.9442578E-05  0.2138525E+04  0.7818609E-02  0.8544460E-01
       -2   -1    0    0    0  501  0.00000000000E+00  0.00000000000E+00  0.68872593060E+03  0.68872593060E+03  0.25500000920E-02 0.  1.
        2   -1    0    0  501    0  0.00000000000E+00  0.00000000000E+00 -0.16600538191E+04  0.16600538191E+04  0.25500000920E-02 0. -1.
    10030    2    1    2    0    0  0.00000000000E+00  0.00000000000E+00 -0.97132788847E+03  0.23487797497E+04  0.21385248293E+04 0.  0.
        4    1    3    3  502    0  0.47334063216E+03  0.89181084196E+03 -0.98995937566E+02  0.10144849631E+04  0.12699999809E+01 0.  1.
       -4    1    3    3    0  502 -0.47334063216E+03 -0.89181084196E+03 -0.87233195091E+03  0.13342947865E+04  0.12699999809E+01 0. -1.
</event>
<event>
 5   0  0.9938176E-05  0.2144148E+04  0.7818609E-02  0.8542042E-01
        2   -1    0    0  501    0  0.00000000000E+00  0.00000000000E+00  0.25845515225E+04  0.25845515225E+04  0.25500000920E-02 0.  1.
       -2   -1    0    0    0  501  0.00000000000E+00  0.00000000000E+00 -0.44469696940E+03  0.44469696941E+03  0.25500000920E-02 0. -1.
    10030    2    1    2    0    0  0.00000000000E+00  0.00000000000E+00  0.21398545531E+04  0.30292484919E+04  0.21441475969E+04 0.  0.
        5    1    3    3  502    0 -0.18522163196E+03 -0.91510622234E+03  0.32556386734E+03  0.98880755096E+03  0.46999998093E+01 0.  1.
       -5    1    3    3    0  502  0.18522163196E+03  0.91510622234E+03  0.18142906857E+04  0.20404409409E+04  0.46999998093E+01 0. -1.
</event>
<event>
 5   0  0.9938176E-05  0.2209069E+04  0.7818609E-02  0.8514663E-01
       -2   -1    0    0    0  501  0.00000000000E+00  0.00000000000E+00  0.76900907946E+03  0.76900907946E+03  0.25500000920E-02 0. -1.
        2   -1    0    0  501    0  0.00000000000E+00  0.00000000000E+00 -0.15864524061E+04  0.15864524061E+04  0.25500000920E-02 0.  1.
    10030    2    1    2    0    0  0.00000000000E+00  0.00000000000E+00 -0.81744332668E+03  0.23554614856E+04  0.22090688577E+04 0.  0.
        5    1    3    3  502    0  0.10454286204E+04  0.24476390534E+03 -0.68501464769E+03  0.12736159261E+04  0.46999998093E+01 0.  1.
       -5    1    3    3    0  502 -0.10454286204E+04 -0.24476390534E+03 -0.13242867899E+03  0.10818455595E+04  0.46999998093E+01 0. -1.
</event>
<event>
 5   0  0.4133418E-05  0.2218568E+04  0.7818609E-02  0.8510739E-01
        1   -1    0    0  501    0  0.00000000000E+00  0.00000000000E+00  0.11708304674E+04  0.11708304674E+04  0.50400001928E-02 0. -1.
       -1   -1    0    0    0  501  0.00000000000E+00  0.00000000000E+00 -0.10509724014E+04  0.10509724014E+04  0.50400001928E-02 0.  1.
    10030    2    1    2    0    0  0.00000000000E+00  0.00000000000E+00  0.11985806600E+03  0.22218028688E+04  0.22185675631E+04 0.  0.
        4    1    3    3  502    0  0.98341860447E+03  0.40071358351E+03  0.38106060056E+03  0.11282252975E+04  0.12699999809E+01 0. -1.
       -4    1    3    3    0  502 -0.98341860447E+03 -0.40071358351E+03 -0.26120253456E+03  0.10935775714E+04  0.12699999809E+01 0.  1.
</event>
<event>
 5   0  0.4133418E-05  0.2183952E+04  0.7818609E-02  0.8525137E-01
        1   -1    0    0  501    0  0.00000000000E+00  0.00000000000E+00  0.11528170196E+04  0.11528170196E+04  0.50400001928E-02 0. -1.
       -1   -1    0    0    0  501  0.00000000000E+00  0.00000000000E+00 -0.10343459264E+04  0.10343459264E+04  0.50400001928E-02 0.  1.
    10030    2    1    2    0    0  0.00000000000E+00  0.00000000000E+00  0.11847109317E+03  0.21871629460E+04  0.21839520032E+04 0.  0.
        4    1    3    3  502    0  0.53420187904E+03 -0.81581217640E+03  0.55137316712E+03  0.11202388750E+04  0.12699999809E+01 0. -1.
       -4    1    3    3    0  502 -0.53420187904E+03  0.81581217640E+03 -0.43290207395E+03  0.10669240710E+04  0.12699999809E+01 0.  1.
</event>
<event>
 5   0  0.4063293E-05  0.2199504E+04  0.7818609E-02  0.8518634E-01
       -1   -1    0    0    0  501  0.00000000000E+00  0.00000000000E+00  0.73072899583E+03  0.73072899585E+03  0.50400001928E-02 0. -1.
        1   -1    0    0  501    0  0.00000000000E+00  0.00000000000E+00 -0.16551346650E+04  0.16551346651E+04  0.50400001928E-02 0.  1.
    10030    2    1    2    0    0  0.00000000000E+00  0.00000000000E+00 -0.92440566921E+03  0.23858636609E+04  0.21995043913E+04 0.  0.
        1    1    3    3  502    0 -0.12441847205E+03  0.47104993132E+03 -0.15316844759E+04  0.16073037447E+04  0.50400001928E-02 0.  1.
       -1    1    3    3    0  502  0.12441847205E+03 -0.47104993132E+03  0.60727880671E+03  0.77855991618E+03  0.50400001928E-02 0. -1.
</event>
<event>
 5   0  0.9938176E-05  0.1971694E+04  0.7818609E-02  0.8619970E-01
       -2   -1    0    0    0  501  0.00000000000E+00  0.00000000000E+00  0.87319114428E+03  0.87319114429E+03  0.25500000920E-02 0. -1.
        2   -1    0    0  501    0  0.00000000000E+00  0.00000000000E+00 -0.11130371362E+04  0.11130371362E+04  0.25500000920E-02 0.  1.
    10030    2    1    2    0    0  0.00000000000E+00  0.00000000000E+00 -0.23984599191E+03  0.19862282805E+04  0.19716938612E+04 0.  0.
        5    1    3    3  502    0  0.78102104729E+03  0.29324309845E+03 -0.64904405995E+03  0.10570078868E+04  0.46999998093E+01 0.  1.
       -5    1    3    3    0  502 -0.78102104729E+03 -0.29324309845E+03  0.40919806803E+03  0.92922039365E+03  0.46999998093E+01 0. -1.
</event>
<event>
 5   0  0.9442578E-05  0.1966288E+04  0.7818609E-02  0.8622546E-01
        2   -1    0    0  501    0  0.00000000000E+00  0.00000000000E+00  0.20760645727E+04  0.20760645727E+04  0.25500000920E-02 0.  1.
       -2   -1    0    0    0  501  0.00000000000E+00  0.00000000000E+00 -0.46557898555E+03  0.46557898556E+03  0.25500000920E-02 0. -1.
    10030    2    1    2    0    0  0.00000000000E+00  0.00000000000E+00  0.16104855871E+04  0.25416435582E+04  0.19662879115E+04 0.  0.
        4    1    3    3  502    0  0.37585315693E+03  0.72359066106E+03  0.95222794827E+02  0.82092510858E+03  0.12699999809E+01 0. -1.
       -4    1    3    3    0  502 -0.37585315693E+03 -0.72359066106E+03  0.15152627923E+04  0.17207184496E+04  0.12699999809E+01 0.  1.
</event>
<event>
 5   0  0.9457742E-05  0.2190336E+04  0.7818609E-02  0.8522461E-01
        2   -1    0    0  501    0  0.00000000000E+00  0.00000000000E+00  0.11551449746E+04  0.11551449746E+04  0.25500000920E-02 0.  1.
       -2   -1    0    0    0  501  0.00000000000E+00  0.00000000000E+00 -0.10383054496E+04  0.10383054496E+04  0.25500000920E-02 0. -1.
    10030    2    1    2    0    0  0.00000000000E+00  0.00000000000E+00  0.11683952502E+03  0.21934504242E+04  0.21903363415E+04 0.  0.
        1    1    3    3  502    0 -0.67013387395E+03  0.33954819934E+03  0.85643472659E+03  0.11392334395E+04  0.50400001928E-02 0.  1.
       -1    1    3    3    0  502  0.67013387395E+03 -0.33954819934E+03 -0.73959520158E+03  0.10542169847E+04  0.50400001928E-02 0. -1.
</event>
<event>
 5   0  0.9457742E-05  0.2211053E+04  0.7818609E-02  0.8513842E-01
       -2   -1    0    0    0  501  0.00000000000E+00  0.00000000000E+00  0.13497613607E+04  0.13497613607E+04  0.25500000920E-02 0. -1.
        2   -1    0    0  501    0  0.00000000000E+00  0.00000000000E+00 -0.90548482422E+03  0.90548482422E+03  0.25500000920E-02 0.  1.
    10030    2    1    2    0    0  0.00000000000E+00  0.00000000000E+00  0.44427653651E+03  0.22552461850E+04  0.22110526258E+04 0.  0.
        1    1    3    3  502    0  0.98953235358E+02 -0.54845704160E+03  0.11959948976E+04  0.13194698422E+04  0.50400001928E-02 0. -1.
       -1    1    3    3    0  502 -0.98953235358E+02  0.54845704160E+03 -0.75171836110E+03  0.93577634278E+03  0.50400001928E-02 0.  1.
</event>
<event>
 5   0  0.4174030E-05  0.2153776E+04  0.7818609E-02  0.8537918E-01
        1   -1    0    0  501    0  0.00000000000E+00  0.00000000000E+00  0.11639116122E+04  0.11639116122E+04  0.50400001928E-02 0. -1.
       -1   -1    0    0    0  501  0.00000000000E+00  0.00000000000E+00 -0.99637081401E+03  0.99637081402E+03  0.50400001928E-02 0.  1.
    10030    2    1    2    0    0  0.00000000000E+00  0.00000000000E+00  0.16754079816E+03  0.21602824262E+04  0.21537758105E+04 0.  0.
        2    1    3    3  502    0  0.52142329252E+03 -0.13108805867E+03 -0.85211929439E+03  0.10075582469E+04  0.25500000920E-02 0.  1.
       -2    1    3    3    0  502 -0.52142329252E+03  0.13108805867E+03  0.10196600926E+04  0.11527241793E+04  0.25500000920E-02 0. -1.
</event>
<event>
 5   0  0.4174075E-05  0.2230276E+04  0.7818609E-02  0.8505931E-01
       -1   -1    0    0    0  501  0.00000000000E+00  0.00000000000E+00  0.12692264705E+04  0.12692264705E+04  0.50400001928E-02 0. -1.
        1   -1    0    0  501    0  0.00000000000E+00  0.00000000000E+00 -0.97975680443E+03  0.97975680444E+03  0.50400001928E-02 0.  1.
    10030    2    1    2    0    0  0.00000000000E+00  0.00000000000E+00  0.28946966605E+03  0.22489832749E+04  0.22302764590E+04 0.  0.
        5    1    3    3  502    0 -0.76631502413E+03  0.78575586162E+03  0.34351817529E+03  0.11500773092E+04  0.46999998093E+01 0.  1.
       -5    1    3    3    0  502  0.76631502413E+03 -0.78575586162E+03 -0.54048509237E+02  0.10989059658E+04  0.46999998093E+01 0. -1.
</event>
<event>
 5   0  0.9938176E-05  0.1575933E+04  0.7818609E-02  0.8835471E-01
       -2   -1    0    0    0  501  0.00000000000E+00  0.00000000000E+00  0.25622760389E+03  0.25622760390E+03  0.25500000920E-02 0. -1.
        2   -1    0    0  501    0  0.00000000000E+00  0.00000000000E+00 -0.24232023795E+04  0.24232023795E+04  0.25500000920E-02 0.  1.
    10030    2    1    2    0    0  0.00000000000E+00  0.00000000000E+00 -0.21669747756E+04  0.26794299834E+04  0.15759331705E+04 0.  0.
        5    1    3    3  502    0 -0.17502760053E+03 -0.68191550924E+02 -0.23845536126E+04  0.23919453944E+04  0.46999998093E+01 0.  1.
       -5    1    3    3    0  502  0.17502760053E+03  0.68191550924E+02  0.21757883702E+03  0.28748458895E+03  0.46999998093E+01 0. -1.
</event>
<event>
 5   0  0.4133418E-05  0.1860483E+04  0.7818609E-02  0.8674781E-01
       -1   -1    0    0    0  501  0.00000000000E+00  0.00000000000E+00  0.62810329425E+03  0.62810329427E+03  0.50400001928E-02 0. -1.
        1   -1    0    0  501    0  0.00000000000E+00  0.00000000000E+00 -0.13777175689E+04  0.13777175689E+04  0.50400001928E-02 0.  1.
    10030    2    1    2    0    0  0.00000000000E+00  0.00000000000E+00 -0.74961427461E+03  0.20058208631E+04  0.18604826724E+04 0.  0.
        4    1    3    3  502    0  0.12662745484E+03  0.68959609213E+03 -0.10339336224E+04  0.12492388206E+04  0.12699999809E+01 0.  1.
       -4    1    3    3    0  502 -0.12662745484E+03 -0.68959609213E+03  0.28431934778E+03  0.75658204249E+03  0.12699999809E+01 0. -1.
</event>
<event>
 5   0  0.9254673E-05  0.2185738E+04  0.7818609E-02  0.8524388E-01
        2   -1    0    0  501    0  0.00000000000E+00  0.00000000000E+00  0.18735782254E+04  0.18735782254E+04  0.25500000920E-02 0. -1.
       -2   -1    0    0    0  501  0.00000000000E+00  0.00000000000E+00 -0.63747690244E+03  0.63747690245E+03  0.25500000920E-02 0.  1.
    10030    2    1    2    0    0  0.00000000000E+00  0.00000000000E+00  0.12361013229E+04  0.25110551278E+04  0.21857381761E+04 0.  0.
        2    1    3    3  502    0  0.59111591057E+03  0.24750401142E+03  0.16350702477E+04  0.17561694025E+04  0.25500000920E-02 0. -1.
       -2    1    3    3    0  502 -0.59111591057E+03 -0.24750401142E+03 -0.39896892474E+03  0.75488572534E+03  0.25500000920E-02 0.  1.
</event>
<event>
 5   0  0.4063293E-05  0.2200875E+04  0.7818609E-02  0.8518064E-01
       -1   -1    0    0    0  501  0.00000000000E+00  0.00000000000E+00  0.11206736738E+04  0.11206736738E+04  0.50400001928E-02 0.  1.
        1   -1    0    0  501    0  0.00000000000E+00  0.00000000000E+00 -0.10805667518E+04  0.10805667518E+04  0.50400001928E-02 0. -1.
    10030    2    1    2    0    0  0.00000000000E+00  0.00000000000E+00  0.40106922008E+02  0.22012404256E+04  0.22008750183E+04 0.  0.
        1    1    3    3  502    0 -0.46496699897E+03  0.12623975344E+03 -0.96947015185E+03  0.10825909481E+04  0.50400001928E-02 0. -1.
       -1    1    3    3    0  502  0.46496699897E+03 -0.12623975344E+03  0.10095770739E+04  0.11186494775E+04  0.50400001928E-02 0.  1.
</event>
<event>
 5   0  0.9179618E-05  0.2189108E+04  0.7818609E-02  0.8522975E-01
       -2   -1    0    0    0  501  0.00000000000E+00  0.00000000000E+00  0.64251479254E+03  0.64251479255E+03  0.25500000920E-02 0. -1.
        2   -1    0    0  501    0  0.00000000000E+00  0.00000000000E+00 -0.18646243536E+04  0.18646243536E+04  0.25500000920E-02 0.  1.
    10030    2    1    2    0    0  0.00000000000E+00  0.00000000000E+00 -0.12221095610E+04  0.25071391461E+04  0.21891082474E+04 0.  0.
        3    1    3    3  502    0 -0.91109498900E+03  0.23198933536E+03 -0.12529583213E+04  0.15664666277E+04  0.10100000352E+00 0.  1.
       -3    1    3    3    0  502  0.91109498900E+03 -0.23198933536E+03  0.30848760222E+02  0.94067251842E+03  0.10100000352E+00 0. -1.
</event>
<event>
 5   0  0.9938176E-05  0.2194302E+04  0.7818609E-02  0.8520803E-01
        2   -1    0    0  501    0  0.00000000000E+00  0.00000000000E+00  0.25108977682E+04  0.25108977682E+04  0.25500000920E-02 0. -1.
       -2   -1    0    0    0  501  0.00000000000E+00  0.00000000000E+00 -0.47940646910E+03  0.47940646910E+03  0.25500000920E-02 0.  1.
    10030    2    1    2    0    0  0.00000000000E+00  0.00000000000E+00  0.20314912991E+04  0.29903042373E+04  0.21943022885E+04 0.  0.
        5    1    3    3  502    0  0.64182219294E+03 -0.72412387545E+03  0.17204742461E+04  0.19739161167E+04  0.46999998093E+01 0. -1.
       -5    1    3    3    0  502 -0.64182219294E+03  0.72412387545E+03  0.31101705295E+03  0.10163881205E+04  0.46999998093E+01 0.  1.
</event>
<event>
 5   0  0.4063293E-05  0.2198950E+04  0.7818609E-02  0.8518865E-01
       -1   -1    0    0    0  501  0.00000000000E+00  0.00000000000E+00  0.14030286270E+04  0.14030286270E+04  0.50400001928E-02 0.  1.
        1   -1    0    0  501    0  0.00000000000E+00  0.00000000000E+00 -0.86159669279E+03  0.86159669281E+03  0.50400001928E-02 0. -1.
    10030    2    1    2    0    0  0.00000000000E+00  0.00000000000E+00  0.54143193416E+03  0.22646253198E+04  0.21989495901E+04 0.  0.
        1    1    3    3  502    0  0.96893367131E+03 -0.19617159489E+03 -0.22482988999E+03  0.10138363939E+04  0.50400001928E-02 0.  1.
       -1    1    3    3    0  502 -0.96893367131E+03  0.19617159489E+03  0.76626182415E+03  0.12507889259E+04  0.50400001928E-02 0. -1.
</event>
<event>
 5   0  0.4133418E-05  0.1759659E+04  0.7818609E-02  0.8728051E-01
        1   -1    0    0  501    0  0.00000000000E+00  0.00000000000E+00  0.13138548935E+04  0.13138548935E+04  0.50400001928E-02 0.  1.
       -1   -1    0    0    0  501  0.00000000000E+00  0.00000000000E+00 -0.58918251194E+03  0.58918251197E+03  0.50400001928E-02 0. -1.
    10030    2    1    2    0    0  0.00000000000E+00  0.00000000000E+00  0.72467238157E+03  0.19030374055E+04  0.17596594290E+04 0.  0.
        4    1    3    3  502    0 -0.10338793710E+03  0.86922033900E+03  0.45825107847E+03  0.98804287714E+03  0.12699999809E+01 0. -1.
       -4    1    3    3    0  502  0.10338793710E+03 -0.86922033900E+03  0.26642130311E+03  0.91499452835E+03  0.12699999809E+01 0.  1.
</event>
<event>
 5   0  0.4174075E-05  0.2220682E+04  0.7818609E-02  0.8509869E-01
       -1   -1    0    0    0  501  0.00000000000E+00  0.00000000000E+00  0.43258098115E+03  0.43258098118E+03  0.50400001928E-02 0. -1.
        1   -1    0    0  501    0  0.00000000000E+00  0.00000000000E+00 -0.28500038009E+04  0.28500038009E+04  0.50400001928E-02 0.  1.
    10030    2    1    2    0    0  0.00000000000E+00  0.00000000000E+00 -0.24174228197E+04  0.32825847821E+04  0.22206822740E+04 0.  0.
        5    1    3    3  502    0  0.51040803664E+02  0.46682722898E+03 -0.26959638356E+04  0.27365627927E+04  0.46999998093E+01 0.  1.
       -5    1    3    3    0  502 -0.51040803664E+02 -0.46682722898E+03  0.27854101588E+03  0.54602198938E+03  0.46999998093E+01 0. -1.
</event>
<event>
 5   0  0.4174075E-05  0.2283861E+04  0.7818609E-02  0.8484312E-01
        1   -1    0    0  501    0  0.00000000000E+00  0.00000000000E+00  0.10569281027E+04  0.10569281027E+04  0.50400001928E-02 0. -1.
       -1   -1    0    0    0  501  0.00000000000E+00  0.00000000000E+00 -0.12337692680E+04  0.12337692680E+04  0.50400001928E-02 0.  1.
    10030    2    1    2    0    0  0.00000000000E+00  0.00000000000E+00 -0.17684116523E+03  0.22906973707E+04  0.22838611268E+04 0.  0.
        5    1    3    3  502    0 -0.10862853543E+04  0.14843334419E+02  0.26440948322E+03  0.11181103078E+04  0.46999998093E+01 0. -1.
       -5    1    3    3    0  502  0.10862853543E+04 -0.14843334419E+02 -0.44125064845E+03  0.11725870630E+04  0.46999998093E+01 0.  1.
</event>
<event>
 5   0  0.9938176E-05  0.2055856E+04  0.7818609E-02  0.8580942E-01
       -2   -1    0    0    0  501  0.00000000000E+00  0.00000000000E+00  0.42537996885E+03  0.42537996886E+03  0.25500000920E-02 0.  1.
        2   -1    0    0  501    0  0.00000000000E+00  0.00000000000E+00 -0.24839812298E+04  0.24839812298E+04  0.25500000920E-02 0. -1.
    10030    2    1    2    0    0  0.00000000000E+00  0.00000000000E+00 -0.20586012609E+04  0.29093611986E+04  0.20558558881E+04 0.  0.
        5    1    3    3  502    0 -0.72060840811E+03  0.71367205588E+03 -0.12661419934E+04  0.16222644416E+04  0.46999998093E+01 0. -1.
       -5    1    3    3    0  502  0.72060840811E+03 -0.71367205588E+03 -0.79245926754E+03  0.12870967570E+04  0.46999998093E+01 0.  1.
</event>
<event>
 5   0  0.9938176E-05  0.2205114E+04  0.7818609E-02  0.8516302E-01
       -2   -1    0    0    0  501  0.00000000000E+00  0.00000000000E+00  0.70883984788E+03  0.70883984789E+03  0.25500000920E-02 0.  1.
        2   -1    0    0  501    0  0.00000000000E+00  0.00000000000E+00 -0.17149603000E+04  0.17149603000E+04  0.25500000920E-02 0. -1.
    10030    2    1    2    0    0  0.00000000000E+00  0.00000000000E+00 -0.10061204521E+04  0.24238001479E+04  0.22051142357E+04 0.  0.
        5    1    3    3  502    0  0.94152721949E+03 -0.41963856480E+03 -0.73060376195E+02  0.10334069569E+04  0.46999998093E+01 0.  1.
       -5    1    3    3    0  502 -0.94152721949E+03  0.41963856480E+03 -0.93306007588E+03  0.13903931909E+04  0.46999998093E+01 0. -1.
</event>
<event>
 5   0  0.9179618E-05  0.2182946E+04  0.7818609E-02  0.8525560E-01
       -2   -1    0    0    0  501  0.00000000000E+00  0.00000000000E+00  0.62830901553E+03  0.62830901554E+03  0.25500000920E-02 0.  1.
        2   -1    0    0  501    0  0.00000000000E+00  0.00000000000E+00 -0.18960628425E+04  0.18960628425E+04  0.25500000920E-02 0. -1.
    10030    2    1    2    0    0  0.00000000000E+00  0.00000000000E+00 -0.12677538270E+04  0.25243718581E+04  0.21829460625E+04 0.  0.
        3    1    3    3  502    0  0.57348169549E+03 -0.71025987033E+03 -0.13257547397E+04  0.16096508872E+04  0.10100000352E+00 0. -1.
       -3    1    3    3    0  502 -0.57348169549E+03  0.71025987033E+03  0.58000912757E+02  0.91472097087E+03  0.10100000352E+00 0.  1.
</event>
<event>
 5   0  0.9938176E-05  0.2203650E+04  0.7818609E-02  0.8516911E-01
        2   -1    0    0  501    0  0.00000000000E+00  0.00000000000E+00  0.95131608222E+03  0.95131608222E+03  0.25500000920E-02 0. -1.
       -2   -1    0    0    0  501  0.00000000000E+00  0.00000000000E+00 -0.12761455463E+04  0.12761455463E+04  0.25500000920E-02 0.  1.
    10030    2    1    2    0    0  0.00000000000E+00  0.00000000000E+00 -0.32482946410E+03  0.22274616285E+04  0.22036495016E+04 0.  0.
        5    1    3    3  502    0 -0.39559019597E+03 -0.70405247125E+03 -0.92005678136E+03  0.12242173240E+04  0.46999998093E+01 0.  1.
       -5    1    3    3    0  502  0.39559019597E+03  0.70405247125E+03  0.59522731726E+03  0.10032443046E+04  0.46999998093E+01 0. -1.
</event>
<event>
 5   0  0.4174030E-05  0.2200996E+04  0.7818609E-02  0.8518014E-01
        1   -1    0    0  501    0  0.00000000000E+00  0.00000000000E+00  0.10098572385E+04  0.10098572385E+04  0.50400001928E-02 0. -1.
       -1   -1    0    0    0  501  0.00000000000E+00  0.00000000000E+00 -0.11992743382E+04  0.11992743382E+04  0.50400001928E-02 0.  1.
    10030    2    1    2    0    0  0.00000000000E+00  0.00000000000E+00 -0.18941709968E+03  0.22091315767E+04  0.22009960212E+04 0.  0.
        2    1    3    3  502    0 -0.25076867335E+03 -0.90625216687E+03 -0.66858937217E+03  0.11537719298E+04  0.25500000920E-02 0.  1.
       -2    1    3    3    0  502  0.25076867335E+03  0.90625216687E+03  0.47917227249E+03  0.10553596469E+04  0.25500000920E-02 0. -1.
</event>
<event>
 5   0  0.9179618E-05  0.2158370E+04  0.7818609E-02  0.8535958E-01
       -2   -1    0    0    0  501  0.00000000000E+00  0.00000000000E+00  0.74411049218E+03  0.74411049218E+03  0.25500000920E-02 0.  1.
        2   -1    0    0  501    0  0.00000000000E+00  0.00000000000E+00 -0.15651442869E+04  0.15651442869E+04  0.25500000920E-02 0. -1.
    10030    2    1    2    0    0  0.00000000000E+00  0.00000000000E+00 -0.82103379472E+03  0.23092547791E+04  0.21583700199E+04 0.  0.
        3    1    3    3  502    0 -0.31094497302E+03 -0.10308117291E+04 -0.33203590872E+03  0.11267242129E+04  0.10100000352E+00 0.  1.
       -3    1    3    3    0  502  0.31094497302E+03  0.10308117291E+04 -0.48899788600E+03  0.11825305661E+04  0.10100000352E+00 0. -1.
</event>
<event>
 5   0  0.9254673E-05  0.2247420E+04  0.7818609E-02  0.8498946E-01
        2   -1    0    0  501    0  0.00000000000E+00  0.00000000000E+00  0.86682624941E+03  0.86682624941E+03  0.25500000920E-02 0.  1.
       -2   -1    0    0    0  501  0.00000000000E+00  0.00000000000E+00 -0.14567211750E+04  0.14567211750E+04  0.25500000920E-02 0. -1.
    10030    2    1    2    0    0  0.00000000000E+00  0.00000000000E+00 -0.58989492563E+03  0.23235474245E+04  0.22474199898E+04 0.  0.
        2    1    3    3  502    0  0.49778431134E+03 -0.51984509814E+03  0.59724143340E+03  0.93526759617E+03  0.25500000920E-02 0.  1.
       -2    1    3    3    0  502 -0.49778431134E+03  0.51984509814E+03 -0.11871363590E+04  0.13882798283E+04  0.25500000920E-02 0. -1.
</event>
<event>
 5   0  0.9179618E-05  0.2197540E+04  0.7818609E-02  0.8519453E-01
       -2   -1    0    0    0  501  0.00000000000E+00  0.00000000000E+00  0.75260061623E+03  0.75260061624E+03  0.25500000920E-02 0.  1.
        2   -1    0    0  501    0  0.00000000000E+00  0.00000000000E+00 -0.16041650796E+04  0.16041650796E+04  0.25500000920E-02 0. -1.
    10030    2    1    2    0    0  0.00000000000E+00  0.00000000000E+00 -0.85156446338E+03  0.23567656958E+04  0.21975401043E+04 0.  0.
        3    1    3    3  502    0  0.73086987540E+03 -0.62159736304E+03  0.14849939383E+03  0.97087905358E+03  0.10100000352E+00 0.  1.
       -3    1    3    3    0  502 -0.73086987540E+03  0.62159736304E+03 -0.10000638572E+04  0.13858866423E+04  0.10100000352E+00 0. -1.
</event>
<event>
 5   0  0.4174030E-05  0.2196864E+04  0.7818609E-02  0.8519734E-01
        1   -1    0    0  501    0  0.00000000000E+00  0.00000000000E+00  0.20017528444E+04  0.20017528444E+04  0.50400001928E-02 0. -1.
       -1   -1    0    0    0  501  0.00000000000E+00  0.00000000000E+00 -0.60274823731E+03  0.60274823733E+03  0.50400001928E-02 0.  1.
    10030    2    1    2    0    0  0.00000000000E+00  0.00000000000E+00  0.13990046071E+04  0.26045010817E+04  0.21968641274E+04 0.  0.
        2    1    3    3  502    0  0.32639342991E+03 -0.20404237802E+03 -0.52017123175E+03  0.64710437602E+03  0.25500000920E-02 0.  1.
       -2    1    3    3    0  502 -0.32639342991E+03  0.20404237802E+03  0.19191758388E+04  0.19573967057E+04  0.25500000920E-02 0. -1.
</event>
<event>
 5   0  0.9254673E-05  0.2146322E+04  0.7818609E-02  0.8541108E-01
       -2   -1    0    0    0  501  0.00000000000E+00  0.00000000000E+00  0.14239941181E+04  0.14239941181E+04  0.25500000920E-02 0. -1.
        2   -1    0    0  501    0  0.00000000000E+00  0.00000000000E+00 -0.80876361713E+03  0.80876361713E+03  0.25500000920E-02 0.  1.
    10030    2    1    2    0    0  0.00000000000E+00  0.00000000000E+00  0.61523050094E+03  0.22327577352E+04  0.21463220948E+04 0.  0.
        2    1    3    3  502    0 -0.90797238383E+03 -0.49727525098E+03  0.13422293730E+02  0.10353147748E+04  0.25500000920E-02 0.  1.
       -2    1    3    3    0  502  0.90797238383E+03  0.49727525098E+03  0.60180820721E+03  0.11974429604E+04  0.25500000920E-02 0. -1.
</event>
<event>
 5   0  0.4133418E-05  0.2209974E+04  0.7818609E-02  0.8514288E-01
       -1   -1    0    0    0  501  0.00000000000E+00  0.00000000000E+00  0.12166150666E+04  0.12166150667E+04  0.50400001928E-02 0.  1.
        1   -1    0    0  501    0  0.00000000000E+00  0.00000000000E+00 -0.10036008530E+04  0.10036008530E+04  0.50400001928E-02 0. -1.
    10030    2    1    2    0    0  0.00000000000E+00  0.00000000000E+00  0.21301421366E+03  0.22202159197E+04  0.22099736819E+04 0.  0.
        4    1    3    3  502    0  0.16034721937E+01 -0.69230164338E+03 -0.75871025837E+03  0.10270963955E+04  0.12699999809E+01 0. -1.
       -4    1    3    3    0  502 -0.16034721937E+01  0.69230164338E+03  0.97172447202E+03  0.11931195242E+04  0.12699999809E+01 0.  1.
</event>
<event>
 5   0  0.4133418E-05  0.2196807E+04  0.7818609E-02  0.8519758E-01
       -1   -1    0    0    0  501  0.00000000000E+00  0.00000000000E+00  0.79156012712E+03  0.79156012713E+03  0.50400001928E-02 0. -1.
        1   -1    0    0  501    0  0.00000000000E+00  0.00000000000E+00 -0.15241933887E+04  0.15241933887E+04  0.50400001928E-02 0.  1.
    10030    2    1    2    0    0  0.00000000000E+00  0.00000000000E+00 -0.73263326159E+03  0.23157535159E+04  0.21968074222E+04 0.  0.
        4    1    3    3  502    0  0.15808886614E+03  0.10213522148E+04  0.25758226672E+02  0.10338363194E+04  0.12699999809E+01 0.  1.
       -4    1    3    3    0  502 -0.15808886614E+03 -0.10213522148E+04 -0.75839148826E+03  0.12819171964E+04  0.12699999809E+01 0. -1.
</event>
<event>
 5   0  0.9442578E-05  0.2170082E+04  0.7818609E-02  0.8530985E-01
        2   -1    0    0  501    0  0.00000000000E+00  0.00000000000E+00  0.84044896296E+03  0.84044896296E+03  0.25500000920E-02 0. -1.
       -2   -1    0    0    0  501  0.00000000000E+00  0.00000000000E+00 -0.14008151257E+04  0.14008151257E+04  0.25500000920E-02 0.  1.
    10030    2    1    2    0    0  0.00000000000E+00  0.00000000000E+00 -0.56036616275E+03  0.22412640887E+04  0.21700816756E+04 0.  0.
        4    1    3    3  502    0  0.27753974530E+03  0.70052396113E+03 -0.10865293426E+04  0.13222366489E+04  0.12699999809E+01 0.  1.
       -4    1    3    3    0  502 -0.27753974530E+03 -0.70052396113E+03  0.52616317988E+03  0.91902743980E+03  0.12699999809E+01 0. -1.
</event>
<event>
 5   0  0.4188865E-05  0.2221683E+04  0.7818609E-02  0.8509457E-01
       -1   -1    0    0    0  501  0.00000000000E+00  0.00000000000E+00  0.12840093727E+04  0.12840093727E+04  0.50400001928E-02 0.  1.
        1   -1    0    0  501    0  0.00000000000E+00  0.00000000000E+00 -0.96102774749E+03  0.96102774750E+03  0.50400001928E-02 0. -1.
    10030    2    1    2    0    0  0.00000000000E+00  0.00000000000E+00  0.32298162522E+03  0.22450371202E+04  0.22216828174E+04 0.  0.
        3    1    3    3  502    0  0.93536111786E+03 -0.43557366290E+03 -0.25434903750E+03  0.10626938786E+04  0.10100000352E+00 0. -1.
       -3    1    3    3    0  502 -0.93536111786E+03  0.43557366290E+03  0.57733066272E+03  0.11823432416E+04  0.10100000352E+00 0.  1.
</event>
<event>
 5   0  0.4174030E-05  0.2157812E+04  0.7818609E-02  0.8536196E-01
       -1   -1    0    0    0  501  0.00000000000E+00  0.00000000000E+00  0.16274422662E+04  0.16274422662E+04  0.50400001928E-02 0. -1.
        1   -1    0    0  501    0  0.00000000000E+00  0.00000000000E+00 -0.71525586564E+03  0.71525586566E+03  0.50400001928E-02 0.  1.
    10030    2    1    2    0    0  0.00000000000E+00  0.00000000000E+00  0.91218640052E+03  0.23426981318E+04  0.21578115088E+04 0.  0.
        2    1    3    3  502    0 -0.97679112725E+02  0.10732295808E+04  0.39994457492E+03  0.11494862353E+04  0.25500000920E-02 0. -1.
       -2    1    3    3    0  502  0.97679112725E+02 -0.10732295808E+04  0.51224182560E+03  0.11932118965E+04  0.25500000920E-02 0.  1.
</event>
<event>
 5   0  0.9179618E-05  0.2102534E+04  0.7818609E-02  0.8560128E-01
       -2   -1    0    0    0  501  0.00000000000E+00  0.00000000000E+00  0.10163121601E+04  0.10163121601E+04  0.25500000920E-02 0. -1.
        2   -1    0    0  501    0  0.00000000000E+00  0.00000000000E+00 -0.10874239269E+04  0.10874239269E+04  0.25500000920E-02 0.  1.
    10030    2    1    2    0    0  0.00000000000E+00  0.00000000000E+00 -0.71111766863E+02  0.21037360870E+04  0.21025338619E+04 0.  0.
        3    1    3    3  502    0 -0.54929629188E+01  0.87791597528E+03 -0.61415595295E+03  0.10714262350E+04  0.10100000352E+00 0.  1.
       -3    1    3    3    0  502  0.54929629188E+01 -0.87791597528E+03  0.54304418609E+03  0.10323098520E+04  0.10100000352E+00 0. -1.
</event>
<event>
 5   0  0.9179618E-05  0.2191007E+04  0.7818609E-02  0.8522181E-01
        2   -1    0    0  501    0  0.00000000000E+00  0.00000000000E+00  0.18421742173E+04  0.18421742173E+04  0.25500000920E-02 0.  1.
       -2   -1    0    0    0  501  0.00000000000E+00  0.00000000000E+00 -0.65147366193E+03  0.65147366194E+03  0.25500000920E-02 0. -1.
    10030    2    1    2    0    0  0.00000000000E+00  0.00000000000E+00  0.11907005554E+04  0.24936478793E+04  0.21910070591E+04 0.  0.
        3    1    3    3  502    0  0.15846248554E+02  0.34857668456E+03 -0.58653543966E+03  0.68248123841E+03  0.10100000352E+00 0. -1.
       -3    1    3    3    0  502 -0.15846248554E+02 -0.34857668456E+03  0.17772359951E+04  0.18111666409E+04  0.10100000352E+00 0.  1.
</event>
<event>
 5   0  0.9442578E-05  0.2458012E+04  0.7818609E-02  0.8418099E-01
       -2   -1    0    0    0  501  0.00000000000E+00  0.00000000000E+00  0.91588647992E+03  0.91588647992E+03  0.25500000920E-02 0.  1.
        2   -1    0    0  501    0  0.00000000000E+00  0.00000000000E+00 -0.16491734796E+04  0.16491734796E+04  0.25500000920E-02 0. -1.
    10030    2    1    2    0    0  0.00000000000E+00  0.00000000000E+00 -0.73328699973E+03  0.25650599596E+04  0.24580119553E+04 0.  0.
        4    1    3    3  502    0 -0.28051607356E+03 -0.99988294691E+03 -0.10525341040E+04  0.14786090856E+04  0.12699999809E+01 0. -1.
       -4    1    3    3    0  502  0.28051607356E+03  0.99988294691E+03  0.31924710428E+03  0.10864508740E+04  0.12699999809E+01 0.  1.
</event>
<event>
 5   0  0.4063293E-05  0.2108893E+04  0.7818609E-02  0.8557336E-01
       -1   -1    0    0    0  501  0.00000000000E+00  0.00000000000E+00  0.16314170599E+04  0.16314170599E+04  0.50400001928E-02 0.  1.
        1   -1    0    0  501    0  0.00000000000E+00  0.00000000000E+00 -0.68152842037E+03  0.68152842039E+03  0.50400001928E-02 0. -1.
    10030    2    1    2    0    0  0.00000000000E+00  0.00000000000E+00  0.94988863952E+03  0.23129454803E+04  0.21088926875E+04 0.  0.
        1    1    3    3  502    0  0.28945306935E+03  0.93701878210E+03  0.89981580779E+03  0.13309604672E+04  0.50400001928E-02 0.  1.
       -1    1    3    3    0  502 -0.28945306935E+03 -0.93701878210E+03  0.50072831732E+02  0.98198501306E+03  0.50400001928E-02 0. -1.
</event>
<event>
 5   0  0.9442578E-05  0.2203388E+04  0.7818609E-02  0.8517019E-01
        2   -1    0    0  501    0  0.00000000000E+00  0.00000000000E+00  0.76039958339E+03  0.76039958340E+03  0.25500000920E-02 0. -1.
       -2   -1    0    0    0  501  0.00000000000E+00  0.00000000000E+00 -0.15961736973E+04  0.15961736973E+04  0.25500000920E-02 0.  1.
    10030    2    1    2    0    0  0.00000000000E+00  0.00000000000E+00 -0.83577411393E+03  0.23565732807E+04  0.22033881315E+04 0.  0.
        4    1    3    3  502    0  0.38586523946E+03  0.69337351054E+03 -0.12352635956E+04  0.14681745712E+04  0.12699999809E+01 0.  1.
       -4    1    3    3    0  502 -0.38586523946E+03 -0.69337351054E+03  0.39948948166E+03  0.88839870948E+03  0.12699999809E+01 0. -1.
</event>
<event>
 5   0  0.4188865E-05  0.2260395E+04  0.7818609E-02  0.8493702E-01
        1   -1    0    0  501    0  0.00000000000E+00  0.00000000000E+00  0.68749428070E+03  0.68749428072E+03  0.50400001928E-02 0.  1.
       -1   -1    0    0    0  501  0.00000000000E+00  0.00000000000E+00 -0.18579742706E+04  0.18579742706E+04  0.50400001928E-02 0. -1.
    10030    2    1    2    0    0  0.00000000000E+00  0.00000000000E+00 -0.11704799899E+04  0.25454685513E+04  0.22603952617E+04 0.  0.
        3    1    3    3  502    0  0.62654737528E+02 -0.91466194639E+03 -0.13295123903E+04  0.16149722284E+04  0.10100000352E+00 0. -1.
       -3    1    3    3    0  502 -0.62654737528E+02  0.91466194639E+03  0.15903240045E+03  0.93049632289E+03  0.10100000352E+00 0.  1.
</event>
<event>
 5   0  0.9179618E-05  0.2209124E+04  0.7818609E-02  0.8514640E-01
       -2   -1    0    0    0  501  0.00000000000E+00  0.00000000000E+00  0.16672280196E+04  0.16672280196E+04  0.25500000920E-02 0. -1.
        2   -1    0    0  501    0  0.00000000000E+00  0.00000000000E+00 -0.73178806562E+03  0.73178806562E+03  0.25500000920E-02 0.  1.
    10030    2    1    2    0    0  0.00000000000E+00  0.00000000000E+00  0.93543995399E+03  0.23990160852E+04  0.22091243219E+04 0.  0.
        3    1    3    3  502    0 -0.54171250256E+03  0.89606770521E+03  0.84961262857E+03  0.13484181090E+04  0.10100000352E+00 0. -1.
       -3    1    3    3    0  502  0.54171250256E+03 -0.89606770521E+03  0.85827325418E+02  0.10505979763E+04  0.10100000352E+00 0.  1.
</event>
<event>
 5   0  0.9179618E-05  0.2189374E+04  0.7818609E-02  0.8522864E-01
       -2   -1    0    0    0  501  0.00000000000E+00  0.00000000000E+00  0.73932513757E+03  0.73932513758E+03  0.25500000920E-02 0.  1.
        2   -1    0    0  501    0  0.00000000000E+00  0.00000000000E+00 -0.16208555009E+04  0.16208555009E+04  0.25500000920E-02 0. -1.
    10030    2    1    2    0    0  0.00000000000E+00  0.00000000000E+00 -0.88153036330E+03  0.23601806385E+04  0.21893736238E+04 0.  0.
        3    1    3    3  502    0 -0.22169035200E+03  0.51605770159E+03  0.57215558178E+03  0.80176317170E+03  0.10100000352E+00 0.  1.
       -3    1    3    3    0  502  0.22169035200E+03 -0.51605770159E+03 -0.14536859451E+04  0.15584174668E+04  0.10100000352E+00 0. -1.
</event>
<event>
 5   0  0.4063293E-05  0.2086178E+04  0.7818609E-02  0.8567357E-01
       -1   -1    0    0    0  501  0.00000000000E+00  0.00000000000E+00  0.13977610064E+04  0.13977610064E+04  0.50400001928E-02 0. -1.
        1   -1    0    0  501    0  0.00000000000E+00  0.00000000000E+00 -0.77841228420E+03  0.77841228422E+03  0.50400001928E-02 0.  1.
    10030    2    1    2    0    0  0.00000000000E+00  0.00000000000E+00  0.61934872221E+03  0.21761732906E+04  0.20861776893E+04 0.  0.
        1    1    3    3  502    0  0.13439455363E+03 -0.83641713782E+03  0.94451577041E+03  0.12687653704E+04  0.50400001928E-02 0.  1.
       -1    1    3    3    0  502 -0.13439455363E+03  0.83641713782E+03 -0.32516704820E+03  0.90740792026E+03  0.50400001928E-02 0. -1.
</event>
<event>
 5   0  0.4063293E-05  0.2171100E+04  0.7818609E-02  0.8530554E-01
        1   -1    0    0  501    0  0.00000000000E+00  0.00000000000E+00  0.18200006149E+04  0.18200006149E+04  0.50400001928E-02 0. -1.
       -1   -1    0    0    0  501  0.00000000000E+00  0.00000000000E+00 -0.64748258135E+03  0.64748258137E+03  0.50400001928E-02 0.  1.
    10030    2    1    2    0    0  0.00000000000E+00  0.00000000000E+00  0.11725180335E+04  0.24674831962E+04  0.21710999021E+04 0.  0.
        1    1    3    3  502    0 -0.26663824550E+03 -0.44173477238E+03 -0.49921090899E+03  0.71793947849E+03  0.50400001928E-02 0.  1.
       -1    1    3    3    0  502  0.26663824550E+03  0.44173477238E+03  0.16717289425E+04  0.17495437177E+04  0.50400001928E-02 0. -1.
</event>
<event>
 5   0  0.9457742E-05  0.2175547E+04  0.7818609E-02  0.8528675E-01
        2   -1    0    0  501    0  0.00000000000E+00  0.00000000000E+00  0.10150779698E+04  0.10150779698E+04  0.25500000920E-02 0.  1.
       -2   -1    0    0    0  501  0.00000000000E+00  0.00000000000E+00 -0.11656751553E+04  0.11656751553E+04  0.25500000920E-02 0. -1.
    10030    2    1    2    0    0  0.00000000000E+00  0.00000000000E+00 -0.15059718552E+03  0.21807531251E+04  0.21755469842E+04 0.  0.
        1    1    3    3  502    0 -0.74979341218E+03 -0.15039204753E+03  0.70014376416E+03  0.10368265137E+04  0.50400001928E-02 0.  1.
       -1    1    3    3    0  502  0.74979341218E+03  0.15039204753E+03 -0.85074094969E+03  0.11439266115E+04  0.50400001928E-02 0. -1.
</event>
<event>
 5   0  0.4133418E-05  0.1635803E+04  0.7818609E-02  0.8798850E-01
       -1   -1    0    0    0  501  0.00000000000E+00  0.00000000000E+00  0.37706546910E+03  0.37706546913E+03  0.50400001928E-02 0. -1.
        1   -1    0    0  501    0  0.00000000000E+00  0.00000000000E+00 -0.17741298309E+04  0.17741298309E+04  0.50400001928E-02 0.  1.
    10030    2    1    2    0    0  0.00000000000E+00  0.00000000000E+00 -0.13970643618E+04  0.21511953000E+04  0.16358032852E+04 0.  0.
        4    1    3    3  502    0 -0.47872154972E+03 -0.57091997341E+03 -0.25483003756E+03  0.78744136235E+03  0.12699999809E+01 0. -1.
       -4    1    3    3    0  502  0.47872154972E+03  0.57091997341E+03 -0.11422343242E+04  0.13637539377E+04  0.12699999809E+01 0.  1.
</event>
<event>
 5   0  0.9938176E-05  0.2076189E+04  0.7818609E-02  0.8571805E-01
        2   -1    0    0  501    0  0.00000000000E+00  0.00000000000E+00  0.10296519961E+04  0.10296519961E+04  0.25500000920E-02 0.  1.
       -2   -1    0    0    0  501  0.00000000000E+00  0.00000000000E+00 -0.10466065894E+04  0.10466065894E+04  0.25500000920E-02 0. -1.
    10030    2    1    2    0    0  0.00000000000E+00  0.00000000000E+00 -0.16954593255E+02  0.20762585855E+04  0.20761893592E+04 0.  0.
        5    1    3    3  502    0 -0.90360926000E+03  0.98076501417E+02 -0.50998158381E+03  0.10422245443E+04  0.46999998093E+01 0. -1.
       -5    1    3    3    0  502  0.90360926000E+03 -0.98076501417E+02  0.49302699056E+03  0.10340340412E+04  0.46999998093E+01 0.  1.
</event>
<event>
 5   0  0.4174030E-05  0.2184157E+04  0.7818609E-02  0.8525051E-01
       -1   -1    0    0    0  501  0.00000000000E+00  0.00000000000E+00  0.29156576461E+04  0.29156576461E+04  0.50400001928E-02 0.  1.
        1   -1    0    0  501    0  0.00000000000E+00  0.00000000000E+00 -0.40904500175E+03  0.40904500178E+03  0.50400001928E-02 0. -1.
    10030    2    1    2    0    0  0.00000000000E+00  0.00000000000E+00  0.25066126444E+04  0.33247026479E+04  0.21841567591E+04 0.  0.
        2    1    3    3  502    0 -0.19210369632E+03 -0.70138955597E+03  0.24934797160E+04  0.25973625534E+04  0.25500000920E-02 0.  1.
       -2    1    3    3    0  502  0.19210369632E+03  0.70138955597E+03  0.13132928365E+02  0.72734009457E+03  0.25500000920E-02 0. -1.
</event>
<event>
 5   0  0.4174075E-05  0.2234306E+04  0.7818609E-02  0.8504283E-01
        1   -1    0    0  501    0  0.00000000000E+00  0.00000000000E+00  0.13030070353E+04  0.13030070353E+04  0.50400001928E-02 0. -1.
       -1   -1    0    0    0  501  0.00000000000E+00  0.00000000000E+00 -0.95780835728E+03  0.95780835729E+03  0.50400001928E-02 0.  1.
    10030    2    1    2    0    0  0.00000000000E+00  0.00000000000E+00  0.34519867801E+03  0.22608153926E+04  0.22343061814E+04 0.  0.
        5    1    3    3  502    0  0.21800022864E+03  0.58005654945E+03 -0.76795549649E+03  0.98679655190E+03  0.46999998093E+01 0.  1.
       -5    1    3    3    0  502 -0.21800022864E+03 -0.58005654945E+03  0.11131541745E+04  0.12740188407E+04  0.46999998093E+01 0. -1.
</event>
<event>
 5   0  0.4063293E-05  0.2316924E+04  0.7818609E-02  0.8471278E-01
       -1   -1    0    0    0  501  0.00000000000E+00  0.00000000000E+00  0.13438253610E+04  0.13438253610E+04  0.50400001928E-02 0.  1.
        1   -1    0    0  501    0  0.00000000000E+00  0.00000000000E+00 -0.99866690381E+03  0.99866690382E+03  0.50400001928E-02 0. -1.
    10030    2    1    2    0    0  0.00000000000E+00  0.00000000000E+00  0.34515845721E+03  0.23424922648E+04  0.23169237472E+04 0.  0.
        1    1    3    3  502    0 -0.81482125133E+03  0.50625728814E+03 -0.48405220370E+03  0.10744936712E+04  0.50400001928E-02 0. -1.
       -1    1    3    3    0  502  0.81482125133E+03 -0.50625728814E+03  0.82921066091E+03  0.12679985937E+04  0.50400001928E-02 0.  1.
</event>
<event>
 5   0  0.9938176E-05  0.2301532E+04  0.7818609E-02  0.8477317E-01
        2   -1    0    0  501    0  0.00000000000E+00  0.00000000000E+00  0.12026939112E+04  0.12026939112E+04  0.25500000920E-02 0.  1.
       -2   -1    0    0    0  501  0.00000000000E+00  0.00000000000E+00 -0.11010805671E+04  0.11010805671E+04  0.25500000920E-02 0. -1.
    10030    2    1    2    0    0  0.00000000000E+00  0.00000000000E+00  0.10161334415E+03  0.23037744783E+04  0.23015324406E+04 0.  0.
        5    1    3    3  502    0  0.59985984712E+03  0.16397817565E+03  0.10200061281E+04  0.11946360406E+04  0.46999998093E+01 0.  1.
       -5    1    3    3    0  502 -0.59985984712E+03 -0.16397817565E+03 -0.91839278393E+03  0.11091384376E+04  0.46999998093E+01 0. -1.
</event>
<event>
 5   0  0.4174030E-05  0.2279507E+04  0.7818609E-02  0.8486045E-01
       -1   -1    0    0    0  501  0.00000000000E+00  0.00000000000E+00  0.76712486125E+03  0.76712486126E+03  0.50400001928E-02 0.  1.
        1   -1    0    0  501    0  0.00000000000E+00  0.00000000000E+00 -0.16933851765E+04  0.16933851765E+04  0.50400001928E-02 0. -1.
    10030    2    1    2    0    0  0.00000000000E+00  0.00000000000E+00 -0.92626031525E+03  0.24605100378E+04  0.22795068489E+04 0.  0.
        2    1    3    3  502    0  0.10817213667E+04 -0.21984926162E+03 -0.76954239438E+03  0.13456040687E+04  0.25500000920E-02 0. -1.
       -2    1    3    3    0  502 -0.10817213667E+04  0.21984926162E+03 -0.15671792087E+03  0.11149059690E+04  0.25500000920E-02 0.  1.
</event>
<event>
 5   0  0.4188865E-05  0.2266506E+04  0.7818609E-02  0.8491246E-01
        1   -1    0    0  501    0  0.00000000000E+00  0.00000000000E+00  0.13487047950E+04  0.13487047950E+04  0.50400001928E-02 0.  1.
       -1   -1    0    0    0  501  0.00000000000E+00  0.00000000000E+00 -0.95221865668E+03  0.95221865669E+03  0.50400001928E-02 0. -1.
    10030    2    1    2    0    0  0.00000000000E+00  0.00000000000E+00  0.39648613832E+03  0.23009234517E+04  0.22665055642E+04 0.  0.
        3    1    3    3  502    0 -0.54955100041E+03 -0.53145047457E+03 -0.65101034007E+03  0.10041216968E+04  0.10100000352E+00 0. -1.
       -3    1    3    3    0  502  0.54955100041E+03  0.53145047457E+03  0.10474964784E+04  0.12968017549E+04  0.10100000352E+00 0.  1.
</event>
<event>
 5   0  0.9179618E-05  0.2186145E+04  0.7818609E-02  0.8524217E-01
       -2   -1    0    0    0  501  0.00000000000E+00  0.00000000000E+00  0.78965305436E+03  0.78965305437E+03  0.25500000920E-02 0. -1.
        2   -1    0    0  501    0  0.00000000000E+00  0.00000000000E+00 -0.15130796061E+04  0.15130796061E+04  0.25500000920E-02 0.  1.
    10030    2    1    2    0    0  0.00000000000E+00  0.00000000000E+00 -0.72342655174E+03  0.23027326605E+04  0.21861454046E+04 0.  0.
        3    1    3    3  502    0 -0.19728980942E+03  0.58591055737E+03  0.58780021801E+03  0.85306714662E+03  0.10100000352E+00 0. -1.
       -3    1    3    3    0  502  0.19728980942E+03 -0.58591055737E+03 -0.13112267698E+04  0.14496655139E+04  0.10100000352E+00 0.  1.
</event>
<event>
 5   0  0.9938176E-05  0.2202698E+04  0.7818609E-02  0.8517306E-01
       -2   -1    0    0    0  501  0.00000000000E+00  0.00000000000E+00  0.14990298320E+04  0.14990298320E+04  0.25500000920E-02 0.  1.
        2   -1    0    0  501    0  0.00000000000E+00  0.00000000000E+00 -0.80916950520E+03  0.80916950521E+03  0.25500000920E-02 0. -1.
    10030    2    1    2    0    0  0.00000000000E+00  0.00000000000E+00  0.68986032675E+03  0.23081993372E+04  0.22026976437E+04 0.  0.
        5    1    3    3  502    0  0.69311350879E+03 -0.85499203425E+03  0.30394919727E+03  0.11418515312E+04  0.46999998093E+01 0. -1.
       -5    1    3    3    0  502 -0.69311350879E+03  0.85499203425E+03  0.38591112948E+03  0.11663478060E+04  0.46999998093E+01 0.  1.
</event>
<event>
 5   0  0.9457742E-05  0.2113622E+04  0.7818609E-02  0.8555267E-01
       -2   -1    0    0    0  501  0.00000000000E+00  0.00000000000E+00  0.10835662944E+04  0.10835662944E+04  0.25500000920E-02 0.  1.
        2   -1    0    0  501    0  0.00000000000E+00  0.00000000000E+00 -0.10307160883E+04  0.10307160883E+04  0.25500000920E-02 0. -1.
    10030    2    1    2    0    0  0.00000000000E+00  0.00000000000E+00  0.52850206087E+02  0.21142823828E+04  0.21136217376E+04 0.  0.
        1    1    3    3  502    0  0.94114978580E+03 -0.11300413646E+03 -0.44096430192E+03  0.10454579713E+04  0.50400001928E-02 0.  1.
       -1    1    3    3    0  502 -0.94114978580E+03  0.11300413646E+03  0.49381450800E+03  0.10688244115E+04  0.50400001928E-02 0. -1.
</event>
<event>
 5   0  0.4133418E-05  0.2217891E+04  0.7818609E-02  0.8511018E-01
        1   -1    0    0  501    0  0.00000000000E+00  0.00000000000E+00  0.14769551319E+04  0.14769551319E+04  0.50400001928E-02 0. -1.
       -1   -1    0    0    0  501  0.00000000000E+00  0.00000000000E+00 -0.83263233544E+03  0.83263233546E+03  0.50400001928E-02 0.  1.
    10030    2    1    2    0    0  0.00000000000E+00  0.00000000000E+00  0.64432279649E+03  0.23095874674E+04  0.22178914318E+04 0.  0.
        4    1    3    3  502    0  0.24877663474E+03  0.20555783960E+03  0.14269752120E+04  0.14630118619E+04  0.12699999809E+01 0. -1.
       -4    1    3    3    0  502 -0.24877663474E+03 -0.20555783960E+03 -0.78265241553E+03  0.84657560551E+03  0.12699999809E+01 0.  1.
</event>
<event>
 5   0  0.4188865E-05  0.2208624E+04  0.7818609E-02  0.8514847E-01
       -1   -1    0    0    0  501  0.00000000000E+00  0.00000000000E+00  0.77857666811E+03  0.77857666813E+03  0.50400001928E-02 0.  1.
        1   -1    0    0  501    0  0.00000000000E+00  0.00000000000E+00 -0.15663257336E+04  0.15663257336E+04  0.50400001928E-02 0. -1.
    10030    2    1    2    0    0  0.00000000000E+00  0.00000000000E+00 -0.78774906546E+03  0.23449024017E+04  0.22086237080E+04 0.  0.
        3    1    3    3  502    0  0.97733095965E+03  0.21954802125E+03 -0.88745512996E+03  0.13382652040E+04  0.10100000352E+00 0. -1.
       -3    1    3    3    0  502 -0.97733095965E+03 -0.21954802125E+03  0.99706064504E+02  0.10066371977E+04  0.10100000352E+00 0.  1.
</event>
<event>
 5   0  0.4063293E-05  0.1969925E+04  0.7818609E-02  0.8620812E-01
       -1   -1    0    0    0  501  0.00000000000E+00  0.00000000000E+00  0.75774677659E+03  0.75774677660E+03  0.50400001928E-02 0. -1.
        1   -1    0    0  501    0  0.00000000000E+00  0.00000000000E+00 -0.12803105058E+04  0.12803105058E+04  0.50400001928E-02 0.  1.
    10030    2    1    2    0    0  0.00000000000E+00  0.00000000000E+00 -0.52256372922E+03  0.20380572824E+04  0.19699250329E+04 0.  0.
        1    1    3    3  502    0 -0.23910771326E+03  0.42223808152E+03  0.62550618953E+03  0.79165364219E+03  0.50400001928E-02 0. -1.
       -1    1    3    3    0  502  0.23910771326E+03 -0.42223808152E+03 -0.11480699187E+04  0.12464036402E+04  0.50400001928E-02 0.  1.
</event>
<event>
 5   0  0.9254673E-05  0.2192186E+04  0.7818609E-02  0.8521688E-01
       -2   -1    0    0    0  501  0.00000000000E+00  0.00000000000E+00  0.87161405243E+03  0.87161405244E+03  0.25500000920E-02 0. -1.
        2   -1    0    0  501    0  0.00000000000E+00  0.00000000000E+00 -0.13783847252E+04  0.13783847252E+04  0.25500000920E-02 0.  1.
    10030    2    1    2    0    0  0.00000000000E+00  0.00000000000E+00 -0.50677067279E+03  0.22499987777E+04  0.21921856638E+04 0.  0.
        2    1    3    3  502    0 -0.66914292130E+03  0.79051550423E+02  0.63394791055E+03  0.92514396179E+03  0.25500000920E-02 0. -1.
       -2    1    3    3    0  502  0.66914292130E+03 -0.79051550423E+02 -0.11407185833E+04  0.13248548159E+04  0.25500000920E-02 0.  1.
</event>
<event>
 5   0  0.4063293E-05  0.2194690E+04  0.7818609E-02  0.8520641E-01
       -1   -1    0    0    0  501  0.00000000000E+00  0.00000000000E+00  0.18511575754E+04  0.18511575755E+04  0.50400001928E-02 0. -1.
        1   -1    0    0  501    0  0.00000000000E+00  0.00000000000E+00 -0.65049374124E+03  0.65049374126E+03  0.50400001928E-02 0.  1.
    10030    2    1    2    0    0  0.00000000000E+00  0.00000000000E+00  0.12006638342E+04  0.25016513167E+04  0.21946903353E+04 0.  0.
        1    1    3    3  502    0  0.10467741465E+04  0.26520986535E+03  0.82280731321E+03  0.13576023943E+04  0.50400001928E-02 0. -1.
       -1    1    3    3    0  502 -0.10467741465E+04 -0.26520986535E+03  0.37785652099E+03  0.11440489224E+04  0.50400001928E-02 0.  1.
</event>
<event>
 5   0  0.4174030E-05  0.2201528E+04  0.7818609E-02  0.8517792E-01
        1   -1    0    0  501    0  0.00000000000E+00  0.00000000000E+00  0.16481251720E+04  0.16481251720E+04  0.50400001928E-02 0. -1.
       -1   -1    0    0    0  501  0.00000000000E+00  0.00000000000E+00 -0.73518804635E+03  0.73518804637E+03  0.50400001928E-02 0.  1.
    10030    2    1    2    0    0  0.00000000000E+00  0.00000000000E+00  0.91293712568E+03  0.23833132184E+04  0.22015284921E+04 0.  0.
        2    1    3    3  502    0  0.94105876870E+03 -0.42289775163E+03  0.87188266421E+03  0.13507825490E+04  0.25500000920E-02 0. -1.
       -2    1    3    3    0  502 -0.94105876870E+03  0.42289775163E+03  0.41054461473E+02  0.10325306694E+04  0.25500000920E-02 0.  1.
</event>
<event>
 5   0  0.4133418E-05  0.2164647E+04  0.7818609E-02  0.8533289E-01
        1   -1    0    0  501    0  0.00000000000E+00  0.00000000000E+00  0.11139262189E+04  0.11139262189E+04  0.50400001928E-02 0. -1.
       -1   -1    0    0    0  501  0.00000000000E+00  0.00000000000E+00 -0.10516168944E+04  0.10516168944E+04  0.50400001928E-02 0.  1.
    10030    2    1    2    0    0  0.00000000000E+00  0.00000000000E+00  0.62309324461E+02  0.21655431133E+04  0.21646465124E+04 0.  0.
        4    1    3    3  502    0 -0.82918272999E+03 -0.44249824299E+03  0.56810159977E+03  0.10982211687E+04  0.12699999809E+01 0. -1.
       -4    1    3    3    0  502  0.82918272999E+03  0.44249824299E+03 -0.50579227530E+03  0.10673219446E+04  0.12699999809E+01 0.  1.
</event>
<event>
 5   0  0.9457742E-05  0.2218573E+04  0.7818609E-02  0.8510737E-01
       -2   -1    0    0    0  501  0.00000000000E+00  0.00000000000E+00  0.13428564518E+04  0.13428564518E+04  0.25500000920E-02 0.  1.
        2   -1    0    0  501    0  0.00000000000E+00  0.00000000000E+00 -0.91634288483E+03  0.91634288484E+03  0.25500000920E-02 0. -1.
    10030    2    1    2    0    0  0.00000000000E+00  0.00000000000E+00  0.42651356695E+03  0.22591993366E+04  0.22185733749E+04 0.  0.
        1    1    3    3  502    0  0.25245996143E+03 -0.10788508489E+04  0.26773187999E+03  0.11398840055E+04  0.50400001928E-02 0.  1.
       -1    1    3    3    0  502 -0.25245996143E+03  0.10788508489E+04  0.15878168696E+03  0.11193153311E+04  0.50400001928E-02 0. -1.
</event>
<event>
 5   0  0.9179618E-05  0.2172677E+04  0.7818609E-02  0.8529887E-01
       -2   -1    0    0    0  501  0.00000000000E+00  0.00000000000E+00  0.73730284105E+03  0.73730284105E+03  0.25500000920E-02 0. -1.
        2   -1    0    0  501    0  0.00000000000E+00  0.00000000000E+00 -0.16006058051E+04  0.16006058051E+04  0.25500000920E-02 0.  1.
    10030    2    1    2    0    0  0.00000000000E+00  0.00000000000E+00 -0.86330296400E+03  0.23379086461E+04  0.21726768811E+04 0.  0.
        3    1    3    3  502    0 -0.40008977875E+03  0.10032168565E+04 -0.30609299292E+03  0.11225902292E+04  0.10100000352E+00 0.  1.
       -3    1    3    3    0  502  0.40008977875E+03 -0.10032168565E+04 -0.55720997108E+03  0.12153184169E+04  0.10100000352E+00 0. -1.
</event>
<event>
 5   0  0.4174030E-05  0.2162078E+04  0.7818609E-02  0.8534380E-01
        1   -1    0    0  501    0  0.00000000000E+00  0.00000000000E+00  0.20861780276E+04  0.20861780276E+04  0.50400001928E-02 0.  1.
       -1   -1    0    0    0  501  0.00000000000E+00  0.00000000000E+00 -0.56018481392E+03  0.56018481394E+03  0.50400001928E-02 0. -1.
    10030    2    1    2    0    0  0.00000000000E+00  0.00000000000E+00  0.15259932136E+04  0.26463628415E+04  0.21620779359E+04 0.  0.
        2    1    3    3  502    0  0.38389794445E+03 -0.99255228803E+03  0.53041401822E+03  0.11890654763E+04  0.25500000920E-02 0. -1.
       -2    1    3    3    0  502 -0.38389794445E+03  0.99255228803E+03  0.99557919542E+03  0.14572973652E+04  0.25500000920E-02 0.  1.
</event>
<event>
 5   0  0.3283125E-05  0.2225433E+04  0.7818609E-02  0.8507916E-01
        3   -1    0    0  501    0  0.00000000000E+00  0.00000000000E+00  0.56691897196E+03  0.56691898096E+03  0.10100000352E+00 0.  1.
       -3   -1    0    0    0  501  0.00000000000E+00  0.00000000000E+00 -0.21839777795E+04  0.21839777818E+04  0.10100000352E+00 0. -1.
    10030    2    1    2    0    0  0.00000000000E+00  0.00000000000E+00 -0.16170588075E+04  0.27508967628E+04  0.22254333988E+04 0.  0.
        5    1    3    3  502    0 -0.76325771713E+03 -0.71897944567E+03 -0.12687612585E+04  0.16459863326E+04  0.46999998093E+01 0.  1.
       -5    1    3    3    0  502  0.76325771713E+03  0.71897944567E+03 -0.34829754903E+03  0.11049104302E+04  0.46999998093E+01 0. -1.
</event>
<event>
 5   0  0.4174075E-05  0.2239352E+04  0.7818609E-02  0.8502225E-01
        1   -1    0    0  501    0  0.00000000000E+00  0.00000000000E+00  0.16967850999E+04  0.16967851000E+04  0.50400001928E-02 0. -1.
       -1   -1    0    0    0  501  0.00000000000E+00  0.00000000000E+00 -0.73885279392E+03  0.73885279393E+03  0.50400001928E-02 0.  1.
    10030    2    1    2    0    0  0.00000000000E+00  0.00000000000E+00  0.95793230603E+03  0.24356378939E+04  0.22393520597E+04 0.  0.
        5    1    3    3  502    0  0.72500246430E+03  0.67768967158E+03 -0.84896112062E+02  0.99605286208E+03  0.46999998093E+01 0.  1.
       -5    1    3    3    0  502 -0.72500246430E+03 -0.67768967158E+03  0.10428284181E+04  0.14395850318E+04  0.46999998093E+01 0. -1.
</event>
<event>
 5   0  0.9938176E-05  0.2171874E+04  0.7818609E-02  0.8530227E-01
        2   -1    0    0  501    0  0.00000000000E+00  0.00000000000E+00  0.25381626415E+04  0.25381626415E+04  0.25500000920E-02 0. -1.
       -2   -1    0    0    0  501  0.00000000000E+00  0.00000000000E+00 -0.46461150563E+03  0.46461150563E+03  0.25500000920E-02 0.  1.
    10030    2    1    2    0    0  0.00000000000E+00  0.00000000000E+00  0.20735511358E+04  0.30027741471E+04  0.21718743669E+04 0.  0.
        5    1    3    3  502    0 -0.53436178362E+03 -0.18946479586E+03  0.23172782609E+04  0.23856320029E+04  0.46999998093E+01 0. -1.
       -5    1    3    3    0  502  0.53436178362E+03  0.18946479586E+03 -0.24372712508E+03  0.61714214421E+03  0.46999998093E+01 0.  1.
</event>
<event>
 5   0  0.9457742E-05  0.2247830E+04  0.7818609E-02  0.8498780E-01
       -2   -1    0    0    0  501  0.00000000000E+00  0.00000000000E+00  0.63050976472E+03  0.63050976473E+03  0.25500000920E-02 0. -1.
        2   -1    0    0  501    0  0.00000000000E+00  0.00000000000E+00 -0.20034344221E+04  0.20034344221E+04  0.25500000920E-02 0.  1.
    10030    2    1    2    0    0  0.00000000000E+00  0.00000000000E+00 -0.13729246573E+04  0.26339441868E+04  0.22478300346E+04 0.  0.
        1    1    3    3  502    0  0.10687433863E+04  0.74567354684E+01 -0.27900074603E+03  0.11045856440E+04  0.50400001928E-02 0. -1.
       -1    1    3    3    0  502 -0.10687433863E+04 -0.74567354684E+01 -0.10939239113E+04  0.15293585428E+04  0.50400001928E-02 0.  1.
</event>
<event>
 5   0  0.4174075E-05  0.2153829E+04  0.7818609E-02  0.8537895E-01
        1   -1    0    0  501    0  0.00000000000E+00  0.00000000000E+00  0.85404529303E+03  0.85404529305E+03  0.50400001928E-02 0.  1.
       -1   -1    0    0    0  501  0.00000000000E+00  0.00000000000E+00 -0.13579432563E+04  0.13579432563E+04  0.50400001928E-02 0. -1.
    10030    2    1    2    0    0  0.00000000000E+00  0.00000000000E+00 -0.50389796323E+03  0.22119885493E+04  0.21538291912E+04 0.  0.
        5    1    3    3  502    0  0.10631714075E+03  0.97610608556E+03 -0.70620071479E+03  0.12094742512E+04  0.46999998093E+01 0. -1.
       -5    1    3    3    0  502 -0.10631714075E+03 -0.97610608556E+03  0.20230275156E+03  0.10025142981E+04  0.46999998093E+01 0.  1.
</event>
<event>
 5   0  0.4133418E-05  0.2258180E+04  0.7818609E-02  0.8494595E-01
        1   -1    0    0  501    0  0.00000000000E+00  0.00000000000E+00  0.11752424537E+04  0.11752424537E+04  0.50400001928E-02 0.  1.
       -1   -1    0    0    0  501  0.00000000000E+00  0.00000000000E+00 -0.10847497510E+04  0.10847497510E+04  0.50400001928E-02 0. -1.
    10030    2    1    2    0    0  0.00000000000E+00  0.00000000000E+00  0.90492702682E+02  0.22599922047E+04  0.22581797616E+04 0.  0.
        4    1    3    3  502    0  0.32938220930E+03  0.71362706277E+03  0.85650544420E+03  0.11624798550E+04  0.12699999809E+01 0.  1.
       -4    1    3    3    0  502 -0.32938220930E+03 -0.71362706277E+03 -0.76601274152E+03  0.10975123496E+04  0.12699999809E+01 0. -1.
</event>
<event>
 5   0  0.9442578E-05  0.2206398E+04  0.7818609E-02  0.8515770E-01
       -2   -1    0    0    0  501  0.00000000000E+00  0.00000000000E+00  0.80586763560E+03  0.80586763560E+03  0.25500000920E-02 0. -1.
        2   -1    0    0  501    0  0.00000000000E+00  0.00000000000E+00 -0.15102331544E+04  0.15102331544E+04  0.25500000920E-02 0.  1.
    10030    2    1    2    0    0  0.00000000000E+00  0.00000000000E+00 -0.70436551877E+03  0.23161007900E+04  0.22063979889E+04 0.  0.
        4    1    3    3  502    0 -0.13401486322E+02  0.40264422450E+03  0.72588789249E+03  0.83019083151E+03  0.12699999809E+01 0. -1.
       -4    1    3    3    0  502  0.13401486322E+02 -0.40264422450E+03 -0.14302534113E+04  0.14859099585E+04  0.12699999809E+01 0.  1.
</event>
<event>
 5   0  0.9179618E-05  0.2232516E+04  0.7818609E-02  0.8505015E-01
       -2   -1    0    0    0  501  0.00000000000E+00  0.00000000000E+00  0.54268661803E+03  0.54268661804E+03  0.25500000920E-02 0.  1.
        2   -1    0    0  501    0  0.00000000000E+00  0.00000000000E+00 -0.22960436980E+04  0.22960436980E+04  0.25500000920E-02 0. -1.
    10030    2    1    2    0    0  0.00000000000E+00  0.00000000000E+00 -0.17533570800E+04  0.28387303160E+04  0.22325162390E+04 0.  0.
        3    1    3    3  502    0  0.63394285216E+03 -0.42255025935E+03 -0.19140544033E+04  0.20601059513E+04  0.10100000352E+00 0. -1.
       -3    1    3    3    0  502 -0.63394285216E+03  0.42255025935E+03  0.16069732333E+03  0.77862436476E+03  0.10100000352E+00 0.  1.
</event>
<event>
 5   0  0.9938176E-05  0.2222165E+04  0.7818609E-02  0.8509259E-01
       -2   -1    0    0    0  501  0.00000000000E+00  0.00000000000E+00  0.60950287765E+03  0.60950287766E+03  0.25500000920E-02 0. -1.
        2   -1    0    0  501    0  0.00000000000E+00  0.00000000000E+00 -0.20254276758E+04  0.20254276758E+04  0.25500000920E-02 0.  1.
    10030    2    1    2    0    0  0.00000000000E+00  0.00000000000E+00 -0.14159247981E+04  0.26349305534E+04  0.22221647076E+04 0.  0.
        5    1    3    3  502    0 -0.21758703679E+03 -0.53715495329E+03  0.41606449160E+03  0.71345028810E+03  0.46999998093E+01 0. -1.
       -5    1    3    3    0  502  0.21758703679E+03  0.53715495329E+03 -0.18319892897E+04  0.19214802653E+04  0.46999998093E+01 0.  1.
</event>
<event>
 5   0  0.9938176E-05  0.2195119E+04  0.7818609E-02  0.8520462E-01
        2   -1    0    0  501    0  0.00000000000E+00  0.00000000000E+00  0.13080949438E+04  0.13080949438E+04  0.25500000920E-02 0.  1.
       -2   -1    0    0    0  501  0.00000000000E+00  0.00000000000E+00 -0.92090952687E+03  0.92090952688E+03  0.25500000920E-02 0. -1.
    10030    2    1    2    0    0  0.00000000000E+00  0.00000000000E+00  0.38718541689E+03  0.22290044706E+04  0.21951192184E+04 0.  0.
        5    1    3    3  502    0 -0.76411541482E+03  0.39292178376E+03 -0.49985097672E+03  0.99404878363E+03  0.46999998093E+01 0. -1.
       -5    1    3    3    0  502  0.76411541482E+03 -0.39292178376E+03  0.88703639361E+03  0.12349556870E+04  0.46999998093E+01 0.  1.
</event>
<event>
 5   0  0.9938176E-05  0.2177094E+04  0.7818609E-02  0.8528023E-01
        2   -1    0    0  501    0  0.00000000000E+00  0.00000000000E+00  0.11303065160E+04  0.11303065160E+04  0.25500000920E-02 0. -1.
       -2   -1    0    0    0  501  0.00000000000E+00  0.00000000000E+00 -0.10483300690E+04  0.10483300690E+04  0.25500000920E-02 0.  1.
    10030    2    1    2    0    0  0.00000000000E+00  0.00000000000E+00  0.81976447038E+02  0.21786365850E+04  0.21770937581E+04 0.  0.
        5    1    3    3  502    0  0.10811871120E+04 -0.79438084672E+02  0.13922212805E+03  0.10930145797E+04  0.46999998093E+01 0.  1.
       -5    1    3    3    0  502 -0.10811871120E+04  0.79438084672E+02 -0.57245681016E+02  0.10856220053E+04  0.46999998093E+01 0. -1.
</event>
<event>
 5   0  0.4174075E-05  0.2170795E+04  0.7818609E-02  0.8530683E-01
        1   -1    0    0  501    0  0.00000000000E+00  0.00000000000E+00  0.18788553486E+04  0.18788553486E+04  0.50400001928E-02 0. -1.
       -1   -1    0    0    0  501  0.00000000000E+00  0.00000000000E+00 -0.62702434929E+03  0.62702434931E+03  0.50400001928E-02 0.  1.
    10030    2    1    2    0    0  0.00000000000E+00  0.00000000000E+00  0.12518309993E+04  0.25058796979E+04  0.21707952943E+04 0.  0.
        5    1    3    3  502    0 -0.61844581417E+03  0.32959844988E+02  0.16548541845E+04  0.17669538869E+04  0.46999998093E+01 0. -1.
       -5    1    3    3    0  502  0.61844581417E+03 -0.32959844988E+02 -0.40302318516E+03  0.73892581104E+03  0.46999998093E+01 0.  1.
</event>
<event>
 5   0  0.9457742E-05  0.2197594E+04  0.7818609E-02  0.8519430E-01
        2   -1    0    0  501    0  0.00000000000E+00  0.00000000000E+00  0.89784566973E+03  0.89784566973E+03  0.25500000920E-02 0. -1.
       -2   -1    0    0    0  501  0.00000000000E+00  0.00000000000E+00 -0.13447236486E+04  0.13447236486E+04  0.25500000920E-02 0.  1.
    10030    2    1    2    0    0  0.00000000000E+00  0.00000000000E+00 -0.44687797887E+03  0.22425693183E+04  0.21975935064E+04 0.  0.
        1    1    3    3  502    0 -0.68944645946E+03  0.60760652432E+03 -0.83812229993E+03  0.12437729288E+04  0.50400001928E-02 0.  1.
       -1    1    3    3    0  502  0.68944645946E+03 -0.60760652432E+03  0.39124432106E+03  0.99879638949E+03  0.50400001928E-02 0. -1.
</event>
<event>
 5   0  0.4174030E-05  0.2185509E+04  0.7818609E-02  0.8524484E-01
        1   -1    0    0  501    0  0.00000000000E+00  0.00000000000E+00  0.22884569883E+04  0.22884569883E+04  0.50400001928E-02 0. -1.
       -1   -1    0    0    0  501  0.00000000000E+00  0.00000000000E+00 -0.52179815712E+03  0.52179815714E+03  0.50400001928E-02 0.  1.
    10030    2    1    2    0    0  0.00000000000E+00  0.00000000000E+00  0.17666588311E+04  0.28102551454E+04  0.21855092214E+04 0.  0.
        2    1    3    3  502    0  0.21819331216E+03  0.77170448034E+03  0.18377936328E+04  0.20051487633E+04  0.25500000920E-02 0. -1.
       -2    1    3    3    0  502 -0.21819331216E+03 -0.77170448034E+03 -0.71134801630E+02  0.80510638207E+03  0.25500000920E-02 0.  1.
</event>
<event>
 5   0  0.4133418E-05  0.2167172E+04  0.7818609E-02  0.8532217E-01
        1   -1    0    0  501    0  0.00000000000E+00  0.00000000000E+00  0.22237729726E+04  0.22237729726E+04  0.50400001928E-02 0. -1.
       -1   -1    0    0    0  501  0.00000000000E+00  0.00000000000E+00 -0.52800304745E+03  0.52800304747E+03  0.50400001928E-02 0.  1.
    10030    2    1    2    0    0  0.00000000000E+00  0.00000000000E+00  0.16957699252E+04  0.27517760201E+04  0.21671722649E+04 0.  0.
        4    1    3    3  502    0 -0.26131070673E+03 -0.49854691750E+03  0.20235737775E+04  0.21004010951E+04  0.12699999809E+01 0. -1.
       -4    1    3    3    0  502  0.26131070673E+03  0.49854691750E+03 -0.32780385233E+03  0.65137492499E+03  0.12699999809E+01 0.  1.
</event>
<event>
 5   0  0.4188865E-05  0.2197888E+04  0.7818609E-02  0.8519308E-01
        1   -1    0    0  501    0  0.00000000000E+00  0.00000000000E+00  0.79708655882E+03  0.79708655884E+03  0.50400001928E-02 0. -1.
       -1   -1    0    0    0  501  0.00000000000E+00  0.00000000000E+00 -0.15151152156E+04  0.15151152156E+04  0.50400001928E-02 0.  1.
    10030    2    1    2    0    0  0.00000000000E+00  0.00000000000E+00 -0.71802865676E+03  0.23122017744E+04  0.21978880531E+04 0.  0.
        3    1    3    3  502    0  0.96356000680E+03 -0.19696044077E+03 -0.87486084969E+03  0.13162913122E+04  0.10100000352E+00 0.  1.
       -3    1    3    3    0  502 -0.96356000680E+03  0.19696044077E+03  0.15683219293E+03  0.99591046228E+03  0.10100000352E+00 0. -1.
</event>
<event>
 5   0  0.9457742E-05  0.2233750E+04  0.7818609E-02  0.8504511E-01
       -2   -1    0    0    0  501  0.00000000000E+00  0.00000000000E+00  0.81371470108E+03  0.81371470108E+03  0.25500000920E-02 0. -1.
        2   -1    0    0  501    0  0.00000000000E+00  0.00000000000E+00 -0.15329811539E+04  0.15329811539E+04  0.25500000920E-02 0.  1.
    10030    2    1    2    0    0  0.00000000000E+00  0.00000000000E+00 -0.71926645282E+03  0.23466958550E+04  0.22337495844E+04 0.  0.
        1    1    3    3  502    0  0.96762936938E+03 -0.27474809081E+03 -0.86958004584E+03  0.13296475345E+04  0.50400001928E-02 0.  1.
       -1    1    3    3    0  502 -0.96762936938E+03  0.27474809081E+03  0.15031359302E+03  0.10170483205E+04  0.50400001928E-02 0. -1.
</event>
<event>
 5   0  0.4133418E-05  0.2205553E+04  0.7818609E-02  0.8516120E-01
        1   -1    0    0  501    0  0.00000000000E+00  0.00000000000E+00  0.17960184731E+04  0.17960184731E+04  0.50400001928E-02 0.  1.
       -1   -1    0    0    0  501  0.00000000000E+00  0.00000000000E+00 -0.67711802274E+03  0.67711802276E+03  0.50400001928E-02 0. -1.
    10030    2    1    2    0    0  0.00000000000E+00  0.00000000000E+00  0.11189004504E+04  0.24731364959E+04  0.22055534248E+04 0.  0.
        4    1    3    3  502    0  0.32312425576E+03  0.98895747693E+03  0.96941387222E+03  0.14220446703E+04  0.12699999809E+01 0.  1.
       -4    1    3    3    0  502 -0.32312425576E+03 -0.98895747693E+03  0.14948657818E+03  0.10510918256E+04  0.12699999809E+01 0. -1.
</event>
<event>
 5   0  0.4133418E-05  0.2187335E+04  0.7818609E-02  0.8523718E-01
        1   -1    0    0  501    0  0.00000000000E+00  0.00000000000E+00  0.28523294260E+04  0.28523294260E+04  0.50400001928E-02 0.  1.
       -1   -1    0    0    0  501  0.00000000000E+00  0.00000000000E+00 -0.41934440488E+03  0.41934440491E+03  0.50400001928E-02 0. -1.
    10030    2    1    2    0    0  0.00000000000E+00  0.00000000000E+00  0.24329850211E+04  0.32716738309E+04  0.21873348036E+04 0.  0.
        4    1    3    3  502    0  0.26216217119E+03  0.68745791019E+03  0.24268181617E+04  0.25358973530E+04  0.12699999809E+01 0.  1.
       -4    1    3    3    0  502 -0.26216217119E+03 -0.68745791019E+03  0.61668593673E+01  0.73577647783E+03  0.12699999809E+01 0. -1.
</event>
<event>
 5   0  0.4174075E-05  0.2219178E+04  0.7818609E-02  0.8510488E-01
       -1   -1    0    0    0  501  0.00000000000E+00  0.00000000000E+00  0.61844247744E+03  0.61844247746E+03  0.50400001928E-02 0.  1.
        1   -1    0    0  501    0  0.00000000000E+00  0.00000000000E+00 -0.19907879604E+04  0.19907879604E+04  0.50400001928E-02 0. -1.
    10030    2    1    2    0    0  0.00000000000E+00  0.00000000000E+00 -0.13723454829E+04  0.26092304378E+04  0.22191780806E+04 0.  0.
        5    1    3    3  502    0  0.77246302729E+03 -0.39851727725E+03 -0.14970671509E+04  0.17311115773E+04  0.46999998093E+01 0. -1.
       -5    1    3    3    0  502 -0.77246302729E+03  0.39851727725E+03  0.12472166795E+03  0.87811886055E+03  0.46999998093E+01 0.  1.
</event>
<event>
 5   0  0.9254673E-05  0.2163651E+04  0.7818609E-02  0.8533711E-01
        2   -1    0    0  501    0  0.00000000000E+00  0.00000000000E+00  0.10573812096E+04  0.10573812096E+04  0.25500000920E-02 0.  1.
       -2   -1    0    0    0  501  0.00000000000E+00  0.00000000000E+00 -0.11068348515E+04  0.11068348515E+04  0.25500000920E-02 0. -1.
    10030    2    1    2    0    0  0.00000000000E+00  0.00000000000E+00 -0.49453641926E+02  0.21642160611E+04  0.21636509646E+04 0.  0.
        2    1    3    3  502    0  0.88119406171E+03 -0.56282494054E+03  0.25296320401E+03  0.10757626461E+04  0.25500000920E-02 0.  1.
       -2    1    3    3    0  502 -0.88119406171E+03  0.56282494054E+03 -0.30241684593E+03  0.10884534151E+04  0.25500000920E-02 0. -1.
</event>
<event>
 5   0  0.9442578E-05  0.2194007E+04  0.7818609E-02  0.8520927E-01
       -2   -1    0    0    0  501  0.00000000000E+00  0.00000000000E+00  0.91208127298E+03  0.91208127298E+03  0.25500000920E-02 0. -1.
        2   -1    0    0  501    0  0.00000000000E+00  0.00000000000E+00 -0.13194182666E+04  0.13194182666E+04  0.25500000920E-02 0.  1.
    10030    2    1    2    0    0  0.00000000000E+00  0.00000000000E+00 -0.40733699362E+03  0.22314995396E+04  0.21940070120E+04 0.  0.
        4    1    3    3  502    0  0.54056017307E+03 -0.83217117441E+03 -0.67931476139E+03  0.12025740402E+04  0.12699999809E+01 0.  1.
       -4    1    3    3    0  502 -0.54056017307E+03  0.83217117441E+03  0.27197776777E+03  0.10289254994E+04  0.12699999809E+01 0. -1.
</event>
<event>
 5   0  0.9938176E-05  0.2195180E+04  0.7818609E-02  0.8520437E-01
        2   -1    0    0  501    0  0.00000000000E+00  0.00000000000E+00  0.99372564154E+03  0.99372564154E+03  0.25500000920E-02 0. -1.
       -2   -1    0    0    0  501  0.00000000000E+00  0.00000000000E+00 -0.12123100959E+04  0.12123100959E+04  0.25500000920E-02 0.  1.
    10030    2    1    2    0    0  0.00000000000E+00  0.00000000000E+00 -0.21858445432E+03  0.22060357374E+04  0.21951798357E+04 0.  0.
        5    1    3    3  502    0  0.72130760934E+03 -0.75512220035E+03 -0.44887949878E+03  0.11366657817E+04  0.46999998093E+01 0.  1.
       -5    1    3    3    0  502 -0.72130760934E+03  0.75512220035E+03  0.23029504446E+03  0.10693699557E+04  0.46999998093E+01 0. -1.
</event>
<event>
 5   0  0.9179618E-05  0.2197170E+04  0.7818609E-02  0.8519607E-01
       -2   -1    0    0    0  501  0.00000000000E+00  0.00000000000E+00  0.99689355309E+03  0.99689355309E+03  0.25500000920E-02 0. -1.
        2   -1    0    0  501    0  0.00000000000E+00  0.00000000000E+00 -0.12106494858E+04  0.12106494858E+04  0.25500000920E-02 0.  1.
    10030    2    1    2    0    0  0.00000000000E+00  0.00000000000E+00 -0.21375593270E+03  0.22075430389E+04  0.21971696953E+04 0.  0.
        3    1    3    3  502    0  0.68408794205E+02 -0.75812368959E+03 -0.90273982157E+03  0.11808346571E+04  0.10100000352E+00 0.  1.
       -3    1    3    3    0  502 -0.68408794205E+02  0.75812368959E+03  0.68898388887E+03  0.10267083817E+04  0.10100000352E+00 0. -1.
</event>
<event>
 5   0  0.9938176E-05  0.2185950E+04  0.7818609E-02  0.8524299E-01
       -2   -1    0    0    0  501  0.00000000000E+00  0.00000000000E+00  0.82749621381E+03  0.82749621381E+03  0.25500000920E-02 0. -1.
        2   -1    0    0  501    0  0.00000000000E+00  0.00000000000E+00 -0.14436256382E+04  0.14436256382E+04  0.25500000920E-02 0.  1.
    10030    2    1    2    0    0  0.00000000000E+00  0.00000000000E+00 -0.61612942435E+03  0.22711218520E+04  0.21859503652E+04 0.  0.
        5    1    3    3  502    0 -0.90441963832E+03  0.61305303219E+03 -0.27935176171E+03  0.11277714304E+04  0.46999998093E+01 0.  1.
       -5    1    3    3    0  502  0.90441963832E+03 -0.61305303219E+03 -0.33677766263E+03  0.11433504216E+04  0.46999998093E+01 0. -1.
</event>
<event>
 5   0  0.9254673E-05  0.2168862E+04  0.7818609E-02  0.8531501E-01
        2   -1    0    0  501    0  0.00000000000E+00  0.00000000000E+00  0.11487333357E+04  0.11487333357E+04  0.25500000920E-02 0. -1.
       -2   -1    0    0    0  501  0.00000000000E+00  0.00000000000E+00 -0.10237280001E+04  0.10237280001E+04  0.25500000920E-02 0.  1.
    10030    2    1    2    0    0  0.00000000000E+00  0.00000000000E+00  0.12500533555E+03  0.21724613358E+04  0.21688618954E+04 0.  0.
        2    1    3    3  502    0 -0.80948202297E+03 -0.45957965427E+03  0.61976748184E+03  0.11182961753E+04  0.25500000920E-02 0. -1.
       -2    1    3    3    0  502  0.80948202297E+03  0.45957965427E+03 -0.49476214629E+03  0.10541651605E+04  0.25500000920E-02 0.  1.
</event>
<event>
 5   0  0.4063293E-05  0.2216450E+04  0.7818609E-02  0.8511612E-01
        1   -1    0    0  501    0  0.00000000000E+00  0.00000000000E+00  0.16734804887E+04  0.16734804887E+04  0.50400001928E-02 0. -1.
       -1   -1    0    0    0  501  0.00000000000E+00  0.00000000000E+00 -0.73389733395E+03  0.73389733397E+03  0.50400001928E-02 0.  1.
    10030    2    1    2    0    0  0.00000000000E+00  0.00000000000E+00  0.93958315475E+03  0.24073778227E+04  0.22164501972E+04 0.  0.
        1    1    3    3  502    0 -0.44931026593E+03  0.96641786155E+03  0.13977678877E+03  0.10748863888E+04  0.50400001928E-02 0.  1.
       -1    1    3    3    0  502  0.44931026593E+03 -0.96641786155E+03  0.79980636598E+03  0.13324914338E+04  0.50400001928E-02 0. -1.
</event>
<event>
 5   0  0.4133418E-05  0.2180219E+04  0.7818609E-02  0.8526707E-01
        1   -1    0    0  501    0  0.00000000000E+00  0.00000000000E+00  0.13981685347E+04  0.13981685347E+04  0.50400001928E-02 0. -1.
       -1   -1    0    0    0  501  0.00000000000E+00  0.00000000000E+00 -0.84992500247E+03  0.84992500249E+03  0.50400001928E-02 0.  1.
    10030    2    1    2    0    0  0.00000000000E+00  0.00000000000E+00  0.54824353222E+03  0.22480935372E+04  0.21802187003E+04 0.  0.
        4    1    3    3  502    0  0.67789915986E+03  0.92240123066E+02  0.11492372697E+04  0.13374615607E+04  0.12699999809E+01 0.  1.
       -4    1    3    3    0  502 -0.67789915986E+03 -0.92240123066E+02 -0.60099373750E+03  0.91063197652E+03  0.12699999809E+01 0. -1.
</event>
<event>
 5   0  0.9442578E-05  0.2231098E+04  0.7818609E-02  0.8505595E-01
        2   -1    0    0  501    0  0.00000000000E+00  0.00000000000E+00  0.59688321886E+03  0.59688321887E+03  0.25500000920E-02 0.  1.
       -2   -1    0    0    0  501  0.00000000000E+00  0.00000000000E+00 -0.20849132058E+04  0.20849132058E+04  0.25500000920E-02 0. -1.
    10030    2    1    2    0    0  0.00000000000E+00  0.00000000000E+00 -0.14880299869E+04  0.26817964246E+04  0.22310981200E+04 0.  0.
        4    1    3    3  502    0 -0.70031515403E+03  0.75365404263E+03 -0.12624305679E+04  0.16285479062E+04  0.12699999809E+01 0. -1.
       -4    1    3    3    0  502  0.70031515403E+03 -0.75365404263E+03 -0.22559941899E+03  0.10532485185E+04  0.12699999809E+01 0.  1.
</event>
<event>
 5   0  0.9442578E-05  0.1646913E+04  0.7818609E-02  0.8792235E-01
       -2   -1    0    0    0  501  0.00000000000E+00  0.00000000000E+00  0.55154232628E+03  0.55154232628E+03  0.25500000920E-02 0. -1.
        2   -1    0    0  501    0  0.00000000000E+00  0.00000000000E+00 -0.12294259259E+04  0.12294259259E+04  0.25500000920E-02 0.  1.
    10030    2    1    2    0    0  0.00000000000E+00  0.00000000000E+00 -0.67788359965E+03  0.17809682522E+04  0.16469127909E+04 0.  0.
        4    1    3    3  502    0 -0.48198845015E+03 -0.31204199993E+02  0.38227225737E+03  0.61597098944E+03  0.12699999809E+01 0. -1.
       -4    1    3    3    0  502  0.48198845015E+03  0.31204199993E+02 -0.10601558570E+04  0.11649972628E+04  0.12699999809E+01 0.  1.
</event>
<event>
 5   0  0.4174030E-05  0.2280066E+04  0.7818609E-02  0.8485823E-01
       -1   -1    0    0    0  501  0.00000000000E+00  0.00000000000E+00  0.96615719973E+03  0.96615719974E+03  0.50400001928E-02 0. -1.
        1   -1    0    0  501    0  0.00000000000E+00  0.00000000000E+00 -0.13452002487E+04  0.13452002487E+04  0.50400001928E-02 0.  1.
    10030    2    1    2    0    0  0.00000000000E+00  0.00000000000E+00 -0.37904304900E+03  0.23113574485E+04  0.22800657056E+04 0.  0.
        2    1    3    3  502    0 -0.33632503434E+03  0.10842871459E+04 -0.83774207076E+02  0.11383370596E+04  0.25500000920E-02 0. -1.
       -2    1    3    3    0  502  0.33632503434E+03 -0.10842871459E+04 -0.29526884192E+03  0.11730203888E+04  0.25500000920E-02 0.  1.
</event>
<event>
 5   0  0.4174030E-05  0.2265566E+04  0.7818609E-02  0.8491623E-01
       -1   -1    0    0    0  501  0.00000000000E+00  0.00000000000E+00  0.10670324297E+04  0.10670324297E+04  0.50400001928E-02 0. -1.
        1   -1    0    0  501    0  0.00000000000E+00  0.00000000000E+00 -0.12025853459E+04  0.12025853459E+04  0.50400001928E-02 0.  1.
    10030    2    1    2    0    0  0.00000000000E+00  0.00000000000E+00 -0.13555291619E+03  0.22696177757E+04  0.22655662106E+04 0.  0.
        2    1    3    3  502    0  0.40305892871E+03 -0.31352424054E+02 -0.11278550634E+04  0.11981220800E+04  0.25500000920E-02 0.  1.
       -2    1    3    3    0  502 -0.40305892871E+03  0.31352424054E+02  0.99230214720E+03  0.10714956957E+04  0.25500000920E-02 0. -1.
</event>
<event>
 5   0  0.9254673E-05  0.2274308E+04  0.7818609E-02  0.8488121E-01
       -2   -1    0    0    0  501  0.00000000000E+00  0.00000000000E+00  0.46649460887E+03  0.46649460887E+03  0.25500000920E-02 0.  1.
        2   -1    0    0  501    0  0.00000000000E+00  0.00000000000E+00 -0.27719906670E+04  0.27719906670E+04  0.25500000920E-02 0. -1.
    10030    2    1    2    0    0  0.00000000000E+00  0.00000000000E+00 -0.23054960582E+04  0.32384852759E+04  0.22743075447E+04 0.  0.
        2    1    3    3  502    0 -0.36131988753E+02  0.12495007998E+03  0.45586735212E+03  0.47406021330E+03  0.25500000920E-02 0.  1.
       -2    1    3    3    0  502  0.36131988753E+02 -0.12495007998E+03 -0.27613634103E+04  0.27644250626E+04  0.25500000920E-02 0. -1.
</event>
<event>
 5   0  0.9179618E-05  0.2227834E+04  0.7818609E-02  0.8506931E-01
       -2   -1    0    0    0  501  0.00000000000E+00  0.00000000000E+00  0.85067890707E+03  0.85067890708E+03  0.25500000920E-02 0.  1.
        2   -1    0    0  501    0  0.00000000000E+00  0.00000000000E+00 -0.14586129343E+04  0.14586129343E+04  0.25500000920E-02 0. -1.
    10030    2    1    2    0    0  0.00000000000E+00  0.00000000000E+00 -0.60793402726E+03  0.23092918414E+04  0.22278341562E+04 0.  0.
        3    1    3    3  502    0 -0.67501921007E+03 -0.60904099481E+03 -0.97110614045E+03  0.13302740370E+04  0.10100000352E+00 0. -1.
       -3    1    3    3    0  502  0.67501921007E+03  0.60904099481E+03  0.36317211319E+03  0.97901780440E+03  0.10100000352E+00 0.  1.
</event>
<event>
 5   0  0.9254673E-05  0.2188064E+04  0.7818609E-02  0.8523413E-01
        2   -1    0    0  501    0  0.00000000000E+00  0.00000000000E+00  0.87394772936E+03  0.87394772936E+03  0.25500000920E-02 0. -1.
       -2   -1    0    0    0  501  0.00000000000E+00  0.00000000000E+00 -0.13695394211E+04  0.13695394211E+04  0.25500000920E-02 0.  1.
    10030    2    1    2    0    0  0.00000000000E+00  0.00000000000E+00 -0.49559169174E+03  0.22434871505E+04  0.21880638632E+04 0.  0.
        2    1    3    3  502    0 -0.10242366000E+03 -0.56174975824E+03  0.70903658506E+03  0.91037699662E+03  0.25500000920E-02 0. -1.
       -2    1    3    3    0  502  0.10242366000E+03  0.56174975824E+03 -0.12046282768E+04  0.13331101538E+04  0.25500000920E-02 0.  1.
</event>
<event>
 5   0  0.9457742E-05  0.2209889E+04  0.7818609E-02  0.8514323E-01
       -2   -1    0    0    0  501  0.00000000000E+00  0.00000000000E+00  0.58317721083E+03  0.58317721084E+03  0.25500000920E-02 0.  1.
        2   -1    0    0  501    0  0.00000000000E+00  0.00000000000E+00 -0.20935357899E+04  0.20935357899E+04  0.25500000920E-02 0. -1.
    10030    2    1    2    0    0  0.00000000000E+00  0.00000000000E+00 -0.15103585791E+04  0.26767130008E+04  0.22098890133E+04 0.  0.
        1    1    3    3  502    0  0.36866963556E+03  0.46256357683E+03 -0.18856138045E+04  0.19762140022E+04  0.50400001928E-02 0. -1.
       -1    1    3    3    0  502 -0.36866963556E+03 -0.46256357683E+03  0.37525522539E+03  0.70049899857E+03  0.50400001928E-02 0.  1.
</event>
<event>
 5   0  0.4174075E-05  0.1916663E+04  0.7818609E-02  0.8646606E-01
        1   -1    0    0  501    0  0.00000000000E+00  0.00000000000E+00  0.15540546078E+04  0.15540546078E+04  0.50400001928E-02 0.  1.
       -1   -1    0    0    0  501  0.00000000000E+00  0.00000000000E+00 -0.59096989093E+03  0.59096989095E+03  0.50400001928E-02 0. -1.
    10030    2    1    2    0    0  0.00000000000E+00  0.00000000000E+00  0.96308471684E+03  0.21450244987E+04  0.19166632277E+04 0.  0.
        5    1    3    3  502    0 -0.78527826773E+03  0.17265915698E+03  0.10651143553E+04  0.13345275651E+04  0.46999998093E+01 0.  1.
       -5    1    3    3    0  502  0.78527826773E+03 -0.17265915698E+03 -0.10202963846E+03  0.81049693360E+03  0.46999998093E+01 0. -1.
</event>
<event>
 5   0  0.9938176E-05  0.2168328E+04  0.7818609E-02  0.8531727E-01
        2   -1    0    0  501    0  0.00000000000E+00  0.00000000000E+00  0.16909026646E+04  0.16909026646E+04  0.25500000920E-02 0.  1.
       -2   -1    0    0    0  501  0.00000000000E+00  0.00000000000E+00 -0.69513864645E+03  0.69513864645E+03  0.25500000920E-02 0. -1.
    10030    2    1    2    0    0  0.00000000000E+00  0.00000000000E+00  0.99576401818E+03  0.23860413111E+04  0.21683281943E+04 0.  0.
        5    1    3    3  502    0  0.99393999297E+03 -0.41072087173E+03  0.34707677747E+03  0.11300852727E+04  0.46999998093E+01 0. -1.
       -5    1    3    3    0  502 -0.99393999297E+03  0.41072087173E+03  0.64868724071E+03  0.12559560384E+04  0.46999998093E+01 0.  1.
</event>
<event>
 5   0  0.9442578E-05  0.2134857E+04  0.7818609E-02  0.8546042E-01
       -2   -1    0    0    0  501  0.00000000000E+00  0.00000000000E+00  0.65760717846E+03  0.65760717846E+03  0.25500000920E-02 0.  1.
        2   -1    0    0  501    0  0.00000000000E+00  0.00000000000E+00 -0.17326503939E+04  0.17326503939E+04  0.25500000920E-02 0. -1.
    10030    2    1    2    0    0  0.00000000000E+00  0.00000000000E+00 -0.10750432155E+04  0.23902575724E+04  0.21348567510E+04 0.  0.
        4    1    3    3  502    0  0.97030542700E+03  0.26909108048E+03 -0.93416137681E+03  0.13735216497E+04  0.12699999809E+01 0. -1.
       -4    1    3    3    0  502 -0.97030542700E+03 -0.26909108048E+03 -0.14088183868E+03  0.10167359228E+04  0.12699999809E+01 0.  1.
</event>
<event>
 5   0  0.9254673E-05  0.2186355E+04  0.7818609E-02  0.8524129E-01
        2   -1    0    0  501    0  0.00000000000E+00  0.00000000000E+00  0.93905492246E+03  0.93905492246E+03  0.25500000920E-02 0. -1.
       -2   -1    0    0    0  501  0.00000000000E+00  0.00000000000E+00 -0.12725949265E+04  0.12725949265E+04  0.25500000920E-02 0.  1.
    10030    2    1    2    0    0  0.00000000000E+00  0.00000000000E+00 -0.33354000402E+03  0.22116498489E+04  0.21863545275E+04 0.  0.
        2    1    3    3  502    0  0.38806238236E+03  0.71794565520E+03 -0.90250745064E+03  0.12167818518E+04  0.25500000920E-02 0.  1.
       -2    1    3    3    0  502 -0.38806238236E+03 -0.71794565520E+03  0.56896744662E+03  0.99486799714E+03  0.25500000920E-02 0. -1.
</event>
<event>
 5   0  0.4188865E-05  0.2080994E+04  0.7818609E-02  0.8569662E-01
        1   -1    0    0  501    0  0.00000000000E+00  0.00000000000E+00  0.15850574381E+04  0.15850574381E+04  0.50400001928E-02 0. -1.
       -1   -1    0    0    0  501  0.00000000000E+00  0.00000000000E+00 -0.68302491533E+03  0.68302491535E+03  0.50400001928E-02 0.  1.
    10030    2    1    2    0    0  0.00000000000E+00  0.00000000000E+00  0.90203252275E+03  0.22680823534E+04  0.20809937265E+04 0.  0.
        3    1    3    3  502    0  0.50934722558E+02  0.69944033163E+03  0.12887704237E+04  0.14672219800E+04  0.10100000352E+00 0. -1.
       -3    1    3    3    0  502 -0.50934722558E+02 -0.69944033163E+03 -0.38673790094E+03  0.80086037341E+03  0.10100000352E+00 0.  1.
</event>
<event>
 5   0  0.4174075E-05  0.2225274E+04  0.7818609E-02  0.8507982E-01
        1   -1    0    0  501    0  0.00000000000E+00  0.00000000000E+00  0.14877129771E+04  0.14877129772E+04  0.50400001928E-02 0. -1.
       -1   -1    0    0    0  501  0.00000000000E+00  0.00000000000E+00 -0.83212345512E+03  0.83212345514E+03  0.50400001928E-02 0.  1.
    10030    2    1    2    0    0  0.00000000000E+00  0.00000000000E+00  0.65558952202E+03  0.23198364323E+04  0.22252737924E+04 0.  0.
        5    1    3    3  502    0  0.11073951824E+04  0.69249888929E+02  0.41388195940E+03  0.11842465974E+04  0.46999998093E+01 0. -1.
       -5    1    3    3    0  502 -0.11073951824E+04 -0.69249888929E+02  0.24170756263E+03  0.11355898349E+04  0.46999998093E+01 0.  1.
</event>
<event>
 5   0  0.9457742E-05  0.2137320E+04  0.7818609E-02  0.8544980E-01
        2   -1    0    0  501    0  0.00000000000E+00  0.00000000000E+00  0.11439861948E+04  0.11439861948E+04  0.25500000920E-02 0. -1.
       -2   -1    0    0    0  501  0.00000000000E+00  0.00000000000E+00 -0.99829362217E+03  0.99829362217E+03  0.25500000920E-02 0.  1.
    10030    2    1    2    0    0  0.00000000000E+00  0.00000000000E+00  0.14569257265E+03  0.21422798170E+04  0.21373199313E+04 0.  0.
        1    1    3    3  502    0 -0.60229133564E+03  0.70688338610E+03  0.60284092385E+03  0.11071838845E+04  0.50400001928E-02 0. -1.
       -1    1    3    3    0  502  0.60229133564E+03 -0.70688338610E+03 -0.45714835119E+03  0.10350959325E+04  0.50400001928E-02 0.  1.
</event>
<event>
 5   0  0.9938176E-05  0.2204511E+04  0.7818609E-02  0.8516553E-01
       -2   -1    0    0    0  501  0.00000000000E+00  0.00000000000E+00  0.70102108881E+03  0.70102108882E+03  0.25500000920E-02 0.  1.
        2   -1    0    0  501    0  0.00000000000E+00  0.00000000000E+00 -0.17331393246E+04  0.17331393246E+04  0.25500000920E-02 0. -1.
    10030    2    1    2    0    0  0.00000000000E+00  0.00000000000E+00 -0.10321182358E+04  0.24341604134E+04  0.22045110264E+04 0.  0.
        5    1    3    3  502    0 -0.90757491703E+02 -0.10964009673E+04 -0.59105448538E+03  0.12488792968E+04  0.46999998093E+01 0.  1.
       -5    1    3    3    0  502  0.90757491703E+02  0.10964009673E+04 -0.44106375043E+03  0.11852811166E+04  0.46999998093E+01 0. -1.
</event>
<event>
 5   0  0.9938176E-05  0.2198688E+04  0.7818609E-02  0.8518975E-01
       -2   -1    0    0    0  501  0.00000000000E+00  0.00000000000E+00  0.13933781401E+04  0.13933781401E+04  0.25500000920E-02 0. -1.
        2   -1    0    0  501    0  0.00000000000E+00  0.00000000000E+00 -0.86735744390E+03  0.86735744391E+03  0.25500000920E-02 0.  1.
    10030    2    1    2    0    0  0.00000000000E+00  0.00000000000E+00  0.52602069620E+03  0.22607355840E+04  0.21986877013E+04 0.  0.
        5    1    3    3  502    0  0.56614454835E+03 -0.33726087343E+03 -0.64174782233E+03  0.91985156620E+03  0.46999998093E+01 0.  1.
       -5    1    3    3    0  502 -0.56614454835E+03  0.33726087343E+03  0.11677685185E+04  0.13408840178E+04  0.46999998093E+01 0. -1.
</event>
<event>
 5   0  0.4133418E-05  0.1961218E+04  0.7818609E-02  0.8624970E-01
        1   -1    0    0  501    0  0.00000000000E+00  0.00000000000E+00  0.16251900745E+04  0.16251900745E+04  0.50400001928E-02 0. -1.
       -1   -1    0    0    0  501  0.00000000000E+00  0.00000000000E+00 -0.59168117483E+03  0.59168117485E+03  0.50400001928E-02 0.  1.
    10030    2    1    2    0    0  0.00000000000E+00  0.00000000000E+00  0.10335088997E+04  0.22168712494E+04  0.19612183689E+04 0.  0.
        4    1    3    3  502    0 -0.25233453508E+03  0.57460692486E+03  0.13684647782E+04  0.15055043334E+04  0.12699999809E+01 0. -1.
       -4    1    3    3    0  502  0.25233453508E+03 -0.57460692486E+03 -0.33495587855E+03  0.71136691599E+03  0.12699999809E+01 0.  1.
</event>
<event>
 5   0  0.4133418E-05  0.2239797E+04  0.7818609E-02  0.8502044E-01
       -1   -1    0    0    0  501  0.00000000000E+00  0.00000000000E+00  0.10120602887E+04  0.10120602887E+04  0.50400001928E-02 0. -1.
        1   -1    0    0  501    0  0.00000000000E+00  0.00000000000E+00 -0.12392269468E+04  0.12392269468E+04  0.50400001928E-02 0.  1.
    10030    2    1    2    0    0  0.00000000000E+00  0.00000000000E+00 -0.22716665811E+03  0.22512872355E+04  0.22397967600E+04 0.  0.
        4    1    3    3  502    0  0.10465064270E+04  0.25045374993E+03 -0.42544588944E+03  0.11571121814E+04  0.12699999809E+01 0.  1.
       -4    1    3    3    0  502 -0.10465064270E+04 -0.25045374993E+03  0.19827923133E+03  0.10941750541E+04  0.12699999809E+01 0. -1.
</event>
<event>
 5   0  0.4174030E-05  0.2230395E+04  0.7818609E-02  0.8505883E-01
       -1   -1    0    0    0  501  0.00000000000E+00  0.00000000000E+00  0.11503607092E+04  0.11503607092E+04  0.50400001928E-02 0. -1.
        1   -1    0    0  501    0  0.00000000000E+00  0.00000000000E+00 -0.10811086893E+04  0.10811086893E+04  0.50400001928E-02 0.  1.
    10030    2    1    2    0    0  0.00000000000E+00  0.00000000000E+00  0.69252019901E+02  0.22314693984E+04  0.22303945467E+04 0.  0.
        2    1    3    3  502    0  0.41733578752E+03 -0.11521919761E+02 -0.99997244759E+03  0.10836266932E+04  0.25500000920E-02 0.  1.
       -2    1    3    3    0  502 -0.41733578752E+03  0.11521919761E+02  0.10692244675E+04  0.11478427053E+04  0.25500000920E-02 0. -1.
</event>
<event>
 5   0  0.9457742E-05  0.2219997E+04  0.7818609E-02  0.8510151E-01
       -2   -1    0    0    0  501  0.00000000000E+00  0.00000000000E+00  0.89675673863E+03  0.89675673863E+03  0.25500000920E-02 0. -1.
        2   -1    0    0  501    0  0.00000000000E+00  0.00000000000E+00 -0.13739476411E+04  0.13739476411E+04  0.25500000920E-02 0.  1.
    10030    2    1    2    0    0  0.00000000000E+00  0.00000000000E+00 -0.47719090249E+03  0.22707043798E+04  0.22199971223E+04 0.  0.
        1    1    3    3  502    0 -0.34689075508E+03 -0.99165970755E+03  0.12788245332E+03  0.10583364746E+04  0.50400001928E-02 0. -1.
       -1    1    3    3    0  502  0.34689075508E+03  0.99165970755E+03 -0.60507335581E+03  0.12123679052E+04  0.50400001928E-02 0.  1.
</event>
<event>
 5   0  0.9938176E-05  0.1680837E+04  0.7818609E-02  0.8772370E-01
       -2   -1    0    0    0  501  0.00000000000E+00  0.00000000000E+00  0.83649346502E+03  0.83649346502E+03  0.25500000920E-02 0. -1.
        2   -1    0    0  501    0  0.00000000000E+00  0.00000000000E+00 -0.84436223367E+03  0.84436223367E+03  0.25500000920E-02 0.  1.
    10030    2    1    2    0    0  0.00000000000E+00  0.00000000000E+00 -0.78687686527E+01  0.16808556987E+04  0.16808372801E+04 0.  0.
        5    1    3    3  502    0 -0.76586434559E+03 -0.26486433390E+03 -0.22660269361E+03  0.84147025020E+03  0.46999998093E+01 0. -1.
       -5    1    3    3    0  502  0.76586434559E+03  0.26486433390E+03  0.21873392496E+03  0.83938544850E+03  0.46999998093E+01 0.  1.
</event>
<event>
 5   0  0.9179618E-05  0.2310791E+04  0.7818609E-02  0.8473679E-01
        2   -1    0    0  501    0  0.00000000000E+00  0.00000000000E+00  0.20571781539E+04  0.20571781539E+04  0.25500000920E-02 0. -1.
       -2   -1    0    0    0  501  0.00000000000E+00  0.00000000000E+00 -0.64891723439E+03  0.64891723439E+03  0.25500000920E-02 0.  1.
    10030    2    1    2    0    0  0.00000000000E+00  0.00000000000E+00  0.14082609195E+04  0.27060953883E+04  0.23107906511E+04 0.  0.
        3    1    3    3  502    0 -0.79316382185E+03  0.81382089235E+03  0.45981431678E+03  0.12259047717E+04  0.10100000352E+00 0.  1.
       -3    1    3    3    0  502  0.79316382185E+03 -0.81382089235E+03  0.94844660276E+03  0.14801906166E+04  0.10100000352E+00 0. -1.
</event>
<event>
 5   0  0.4133418E-05  0.2046913E+04  0.7818609E-02  0.8584996E-01
       -1   -1    0    0    0  501  0.00000000000E+00  0.00000000000E+00  0.59897668782E+03  0.59897668784E+03  0.50400001928E-02 0. -1.
        1   -1    0    0  501    0  0.00000000000E+00  0.00000000000E+00 -0.17487553429E+04  0.17487553429E+04  0.50400001928E-02 0.  1.
    10030    2    1    2    0    0  0.00000000000E+00  0.00000000000E+00 -0.11497786551E+04  0.23477320308E+04  0.20469134648E+04 0.  0.
        4    1    3    3  502    0 -0.89796906188E+03 -0.49022583795E+03 -0.60717303811E+03  0.11896766449E+04  0.12699999809E+01 0. -1.
       -4    1    3    3    0  502  0.89796906188E+03  0.49022583795E+03 -0.54260561700E+03  0.11580553859E+04  0.12699999809E+01 0.  1.
</event>
<event>
 5   0  0.9457742E-05  0.2204898E+04  0.7818609E-02  0.8516392E-01
       -2   -1    0    0    0  501  0.00000000000E+00  0.00000000000E+00  0.46160569059E+03  0.46160569059E+03  0.25500000920E-02 0.  1.
        2   -1    0    0  501    0  0.00000000000E+00  0.00000000000E+00 -0.26329685576E+04  0.26329685576E+04  0.25500000920E-02 0. -1.
    10030    2    1    2    0    0  0.00000000000E+00  0.00000000000E+00 -0.21713628670E+04  0.30945742482E+04  0.22048975208E+04 0.  0.
        1    1    3    3  502    0 -0.14562951521E+03  0.70414972799E+03 -0.22585563591E+04  0.23702556027E+04  0.50400001928E-02 0. -1.
       -1    1    3    3    0  502  0.14562951521E+03 -0.70414972799E+03  0.87193492035E+02  0.72431864549E+03  0.50400001928E-02 0.  1.
</event>
<event>
 5   0  0.4133418E-05  0.2216653E+04  0.7818609E-02  0.8511529E-01
        1   -1    0    0  501    0  0.00000000000E+00  0.00000000000E+00  0.88930746886E+03  0.88930746887E+03  0.50400001928E-02 0. -1.
       -1   -1    0    0    0  501  0.00000000000E+00  0.00000000000E+00 -0.13812855658E+04  0.13812855658E+04  0.50400001928E-02 0.  1.
    10030    2    1    2    0    0  0.00000000000E+00  0.00000000000E+00 -0.49197809695E+03  0.22705930347E+04  0.22166529456E+04 0.  0.
        4    1    3    3  502    0  0.22749610858E+03 -0.66439210717E+03 -0.11243007365E+04  0.13256036777E+04  0.12699999809E+01 0.  1.
       -4    1    3    3    0  502 -0.22749610858E+03  0.66439210717E+03  0.63232263950E+03  0.94498935698E+03  0.12699999809E+01 0. -1.
</event>
<event>
 5   0  0.9179618E-05  0.2193594E+04  0.7818609E-02  0.8521099E-01
       -2   -1    0    0    0  501  0.00000000000E+00  0.00000000000E+00  0.61655510242E+03  0.61655510242E+03  0.25500000920E-02 0.  1.
        2   -1    0    0  501    0  0.00000000000E+00  0.00000000000E+00 -0.19511041095E+04  0.19511041095E+04  0.25500000920E-02 0. -1.
    10030    2    1    2    0    0  0.00000000000E+00  0.00000000000E+00 -0.13345490071E+04  0.25676592119E+04  0.21935935759E+04 0.  0.
        3    1    3    3  502    0 -0.69402872356E+03 -0.11079759747E+03 -0.16528905527E+04  0.17961066689E+04  0.10100000352E+00 0. -1.
       -3    1    3    3    0  502  0.69402872356E+03  0.11079759747E+03  0.31834154562E+03  0.77155254300E+03  0.10100000352E+00 0.  1.
</event>
<event>
 5   0  0.9442578E-05  0.2273662E+04  0.7818609E-02  0.8488379E-01
        2   -1    0    0  501    0  0.00000000000E+00  0.00000000000E+00  0.24783184920E+04  0.24783184920E+04  0.25500000920E-02 0. -1.
       -2   -1    0    0    0  501  0.00000000000E+00  0.00000000000E+00 -0.52147655238E+03  0.52147655238E+03  0.25500000920E-02 0.  1.
    10030    2    1    2    0    0  0.00000000000E+00  0.00000000000E+00  0.19568419397E+04  0.29997950444E+04  0.22736622290E+04 0.  0.
        4    1    3    3  502    0  0.73520529300E+03  0.49394806460E+03  0.19186696011E+04  0.21132454103E+04  0.12699999809E+01 0. -1.
       -4    1    3    3    0  502 -0.73520529300E+03 -0.49394806460E+03  0.38172338605E+02  0.88654963409E+03  0.12699999809E+01 0.  1.
</event>
<event>
 5   0  0.4063293E-05  0.2170630E+04  0.7818609E-02  0.8530753E-01
       -1   -1    0    0    0  501  0.00000000000E+00  0.00000000000E+00  0.71886690125E+03  0.71886690126E+03  0.50400001928E-02 0. -1.
        1   -1    0    0  501    0  0.00000000000E+00  0.00000000000E+00 -0.16385624353E+04  0.16385624353E+04  0.50400001928E-02 0.  1.
    10030    2    1    2    0    0  0.00000000000E+00  0.00000000000E+00 -0.91969553406E+03  0.23574293366E+04  0.21706296786E+04 0.  0.
        1    1    3    3  502    0 -0.97104056100E+02 -0.69023704120E+02  0.71174378534E+03  0.72164581717E+03  0.50400001928E-02 0. -1.
       -1    1    3    3    0  502  0.97104056100E+02  0.69023704120E+02 -0.16314393194E+04  0.16357835194E+04  0.50400001928E-02 0.  1.
</event>
<event>
 5   0  0.9457742E-05  0.2191608E+04  0.7818609E-02  0.8521929E-01
       -2   -1    0    0    0  501  0.00000000000E+00  0.00000000000E+00  0.11527838792E+04  0.11527838792E+04  0.25500000920E-02 0.  1.
        2   -1    0    0  501    0  0.00000000000E+00  0.00000000000E+00 -0.10416408894E+04  0.10416408894E+04  0.25500000920E-02 0. -1.
    10030    2    1    2    0    0  0.00000000000E+00  0.00000000000E+00  0.11114298976E+03  0.21944247686E+04  0.21916083821E+04 0.  0.
        1    1    3    3  502    0  0.61779070093E+03  0.80511695433E+02  0.95819505584E+03  0.11429283654E+04  0.50400001928E-02 0.  1.
       -1    1    3    3    0  502 -0.61779070093E+03 -0.80511695433E+02 -0.84705206608E+03  0.10514964032E+04  0.50400001928E-02 0. -1.
</event>
<event>
 5   0  0.4174075E-05  0.2210208E+04  0.7818609E-02  0.8514191E-01
       -1   -1    0    0    0  501  0.00000000000E+00  0.00000000000E+00  0.17916090934E+04  0.17916090934E+04  0.50400001928E-02 0.  1.
        1   -1    0    0  501    0  0.00000000000E+00  0.00000000000E+00 -0.68165279237E+03  0.68165279239E+03  0.50400001928E-02 0. -1.
    10030    2    1    2    0    0  0.00000000000E+00  0.00000000000E+00  0.11099563011E+04  0.24732618858E+04  0.22102084439E+04 0.  0.
        5    1    3    3  502    0 -0.93936702099E+03  0.12408354316E+03  0.11913697236E+04  0.15222322537E+04  0.46999998093E+01 0.  1.
       -5    1    3    3    0  502  0.93936702099E+03 -0.12408354316E+03 -0.81413422564E+02  0.95102963213E+03  0.46999998093E+01 0. -1.
</event>
<event>
 5   0  0.4174075E-05  0.2164239E+04  0.7818609E-02  0.8533462E-01
        1   -1    0    0  501    0  0.00000000000E+00  0.00000000000E+00  0.15402133731E+04  0.15402133731E+04  0.50400001928E-02 0. -1.
       -1   -1    0    0    0  501  0.00000000000E+00  0.00000000000E+00 -0.76027267226E+03  0.76027267228E+03  0.50400001928E-02 0.  1.
    10030    2    1    2    0    0  0.00000000000E+00  0.00000000000E+00  0.77994070080E+03  0.23004860453E+04  0.21642385608E+04 0.  0.
        5    1    3    3  502    0  0.10280229888E+03  0.36972851169E+03 -0.68550199233E+03  0.78562240071E+03  0.46999998093E+01 0.  1.
       -5    1    3    3    0  502 -0.10280229888E+03 -0.36972851169E+03  0.14654426931E+04  0.15148636446E+04  0.46999998093E+01 0. -1.
</event>
<event>
 5   0  0.4063293E-05  0.2184546E+04  0.7818609E-02  0.8524888E-01
       -1   -1    0    0    0  501  0.00000000000E+00  0.00000000000E+00  0.97078894953E+03  0.97078894955E+03  0.50400001928E-02 0. -1.
        1   -1    0    0  501    0  0.00000000000E+00  0.00000000000E+00 -0.12289598427E+04  0.12289598427E+04  0.50400001928E-02 0.  1.
    10030    2    1    2    0    0  0.00000000000E+00  0.00000000000E+00 -0.25817089314E+03  0.21997487922E+04  0.21845463005E+04 0.  0.
        1    1    3    3  502    0 -0.18043200631E+03 -0.35436957552E+03  0.89530783141E+03  0.97964770094E+03  0.50400001928E-02 0. -1.
       -1    1    3    3    0  502  0.18043200631E+03  0.35436957552E+03 -0.11534787245E+04  0.12201010913E+04  0.50400001928E-02 0.  1.
</event>
<event>
 5   0  0.4188865E-05  0.2210784E+04  0.7818609E-02  0.8513953E-01
       -1   -1    0    0    0  501  0.00000000000E+00  0.00000000000E+00  0.90756079815E+03  0.90756079817E+03  0.50400001928E-02 0. -1.
        1   -1    0    0  501    0  0.00000000000E+00  0.00000000000E+00 -0.13463468964E+04  0.13463468965E+04  0.50400001928E-02 0.  1.
    10030    2    1    2    0    0  0.00000000000E+00  0.00000000000E+00 -0.43878609829E+03  0.22539076946E+04  0.22107841722E+04 0.  0.
        3    1    3    3  502    0 -0.54955328735E+03 -0.68072078258E+03  0.46943551445E+03  0.99285412418E+03  0.10100000352E+00 0. -1.
       -3    1    3    3    0  502  0.54955328735E+03  0.68072078258E+03 -0.90822161274E+03  0.12610535704E+04  0.10100000352E+00 0.  1.
</event>
<event>
 5   0  0.4188865E-05  0.2249181E+04  0.7818609E-02  0.8498232E-01
       -1   -1    0    0    0  501  0.00000000000E+00  0.00000000000E+00  0.12133876605E+04  0.12133876605E+04  0.50400001928E-02 0.  1.
        1   -1    0    0  501    0  0.00000000000E+00  0.00000000000E+00 -0.10422916537E+04  0.10422916537E+04  0.50400001928E-02 0. -1.
    10030    2    1    2    0    0  0.00000000000E+00  0.00000000000E+00  0.17109600673E+03  0.22556793142E+04  0.22491810343E+04 0.  0.
        3    1    3    3  502    0 -0.84760675385E+03 -0.71078162074E+03 -0.11766045810E+03  0.11124260493E+04  0.10100000352E+00 0. -1.
       -3    1    3    3    0  502  0.84760675385E+03  0.71078162074E+03  0.28875646483E+03  0.11432532649E+04  0.10100000352E+00 0.  1.
</event>
<event>
 5   0  0.4133418E-05  0.2199122E+04  0.7818609E-02  0.8518794E-01
       -1   -1    0    0    0  501  0.00000000000E+00  0.00000000000E+00  0.95238724765E+03  0.95238724767E+03  0.50400001928E-02 0. -1.
        1   -1    0    0  501    0  0.00000000000E+00  0.00000000000E+00 -0.12694777249E+04  0.12694777249E+04  0.50400001928E-02 0.  1.
    10030    2    1    2    0    0  0.00000000000E+00  0.00000000000E+00 -0.31709047720E+03  0.22218649725E+04  0.21991220033E+04 0.  0.
        4    1    3    3  502    0  0.60572898240E+03  0.91714480187E+03 -0.12706865934E+03  0.11064403485E+04  0.12699999809E+01 0. -1.
       -4    1    3    3    0  502 -0.60572898240E+03 -0.91714480187E+03 -0.19002181786E+03  0.11154246240E+04  0.12699999809E+01 0.  1.
</event>
<event>
 5   0  0.4188865E-05  0.2187433E+04  0.7818609E-02  0.8523677E-01
        1   -1    0    0  501    0  0.00000000000E+00  0.00000000000E+00  0.55715946681E+03  0.55715946683E+03  0.50400001928E-02 0.  1.
       -1   -1    0    0    0  501  0.00000000000E+00  0.00000000000E+00 -0.21469899254E+04  0.21469899255E+04  0.50400001928E-02 0. -1.
    10030    2    1    2    0    0  0.00000000000E+00  0.00000000000E+00 -0.15898304586E+04  0.27041493923E+04  0.21874329815E+04 0.  0.
        3    1    3    3  502    0 -0.52162336610E+03 -0.86972541628E+03 -0.28866443912E+03  0.10544384308E+04  0.10100000352E+00 0.  1.
       -3    1    3    3    0  502  0.52162336610E+03  0.86972541628E+03 -0.13011660195E+04  0.16497109615E+04  0.10100000352E+00 0. -1.
</event>
<event>
 5   0  0.4063293E-05  0.2374822E+04  0.7818609E-02  0.8448990E-01
       -1   -1    0    0    0  501  0.00000000000E+00  0.00000000000E+00  0.13849389370E+04  0.13849389370E+04  0.50400001928E-02 0.  1.
        1   -1    0    0  501    0  0.00000000000E+00  0.00000000000E+00 -0.10180555963E+04  0.10180555963E+04  0.50400001928E-02 0. -1.
    10030    2    1    2    0    0  0.00000000000E+00  0.00000000000E+00  0.36688334065E+03  0.24029945333E+04  0.23748219600E+04 0.  0.
        1    1    3    3  502    0  0.71120618349E+03 -0.78494800114E+03  0.72645231854E+03  0.12844028072E+04  0.50400001928E-02 0.  1.
       -1    1    3    3    0  502 -0.71120618349E+03  0.78494800114E+03 -0.35956897788E+03  0.11185917261E+04  0.50400001928E-02 0. -1.
</event>
<event>
 5   0  0.4174075E-05  0.2209432E+04  0.7818609E-02  0.8514512E-01
       -1   -1    0    0    0  501  0.00000000000E+00  0.00000000000E+00  0.61626490395E+03  0.61626490397E+03  0.50400001928E-02 0. -1.
        1   -1    0    0  501    0  0.00000000000E+00  0.00000000000E+00 -0.19803138631E+04  0.19803138631E+04  0.50400001928E-02 0.  1.
    10030    2    1    2    0    0  0.00000000000E+00  0.00000000000E+00 -0.13640489592E+04  0.25965787671E+04  0.22094324454E+04 0.  0.
        5    1    3    3  502    0 -0.20118039265E+03  0.10645139310E+04 -0.93602627467E+03  0.14317229957E+04  0.46999998093E+01 0.  1.
       -5    1    3    3    0  502  0.20118039265E+03 -0.10645139310E+04 -0.42802268448E+03  0.11648557714E+04  0.46999998093E+01 0. -1.
</event>
<event>
 5   0  0.9179618E-05  0.2303296E+04  0.7818609E-02  0.8476623E-01
        2   -1    0    0  501    0  0.00000000000E+00  0.00000000000E+00  0.17708452538E+04  0.17708452538E+04  0.25500000920E-02 0.  1.
       -2   -1    0    0    0  501  0.00000000000E+00  0.00000000000E+00 -0.74896035788E+03  0.74896035788E+03  0.25500000920E-02 0. -1.
    10030    2    1    2    0    0  0.00000000000E+00  0.00000000000E+00  0.10218848959E+04  0.25198056117E+04  0.23032958082E+04 0.  0.
        3    1    3    3  502    0 -0.24504448270E+03  0.28434713534E+03  0.17020431011E+04  0.17429431488E+04  0.10100000352E+00 0.  1.
       -3    1    3    3    0  502  0.24504448270E+03 -0.28434713534E+03 -0.68015820519E+03  0.77686246284E+03  0.10100000352E+00 0. -1.
</event>
<event>
 5   0  0.9254673E-05  0.2205184E+04  0.7818609E-02  0.8516274E-01
        2   -1    0    0  501    0  0.00000000000E+00  0.00000000000E+00  0.20238449785E+04  0.20238449785E+04  0.25500000920E-02 0. -1.
       -2   -1    0    0    0  501  0.00000000000E+00  0.00000000000E+00 -0.60069258306E+03  0.60069258306E+03  0.25500000920E-02 0.  1.
    10030    2    1    2    0    0  0.00000000000E+00  0.00000000000E+00  0.14231523954E+04  0.26245375616E+04  0.22051835913E+04 0.  0.
        2    1    3    3  502    0  0.49812178076E+03  0.71735018055E+03 -0.89462217303E+02  0.87790664557E+03  0.25500000920E-02 0.  1.
       -2    1    3    3    0  502 -0.49812178076E+03 -0.71735018055E+03  0.15126146127E+04  0.17466309160E+04  0.25500000920E-02 0. -1.
</event>
<event>
 5   0  0.4174075E-05  0.2197317E+04  0.7818609E-02  0.8519546E-01
       -1   -1    0    0    0  501  0.00000000000E+00  0.00000000000E+00  0.14850199379E+04  0.14850199379E+04  0.50400001928E-02 0. -1.
        1   -1    0    0  501    0  0.00000000000E+00  0.00000000000E+00 -0.81281763764E+03  0.81281763766E+03  0.50400001928E-02 0.  1.
    10030    2    1    2    0    0  0.00000000000E+00  0.00000000000E+00  0.67220230022E+03  0.22978375755E+04  0.21973169073E+04 0.  0.
        5    1    3    3  502    0  0.42089310034E+03 -0.38319011640E+03  0.13187932559E+04  0.14363924982E+04  0.46999998093E+01 0. -1.
       -5    1    3    3    0  502 -0.42089310034E+03  0.38319011640E+03 -0.64659095567E+03  0.86144507728E+03  0.46999998093E+01 0.  1.
</event>
<event>
 5   0  0.9179618E-05  0.2219622E+04  0.7818609E-02  0.8510305E-01
       -2   -1    0    0    0  501  0.00000000000E+00  0.00000000000E+00  0.72176877715E+03  0.72176877716E+03  0.25500000920E-02 0. -1.
        2   -1    0    0  501    0  0.00000000000E+00  0.00000000000E+00 -0.17064744789E+04  0.17064744789E+04  0.25500000920E-02 0.  1.
    10030    2    1    2    0    0  0.00000000000E+00  0.00000000000E+00 -0.98470570178E+03  0.24282432561E+04  0.22196215875E+04 0.  0.
        3    1    3    3  502    0  0.43577180706E+03  0.89215458520E+03  0.50075370877E+02  0.99415513110E+03  0.10100000352E+00 0. -1.
       -3    1    3    3    0  502 -0.43577180706E+03 -0.89215458520E+03 -0.10347810727E+04  0.14340881250E+04  0.10100000352E+00 0.  1.
</event>
<event>
 5   0  0.9457742E-05  0.2208221E+04  0.7818609E-02  0.8515014E-01
       -2   -1    0    0    0  501  0.00000000000E+00  0.00000000000E+00  0.60433374398E+03  0.60433374399E+03  0.25500000920E-02 0. -1.
        2   -1    0    0  501    0  0.00000000000E+00  0.00000000000E+00 -0.20171970843E+04  0.20171970843E+04  0.25500000920E-02 0.  1.
    10030    2    1    2    0    0  0.00000000000E+00  0.00000000000E+00 -0.14128633403E+04  0.26215308282E+04  0.22082212446E+04 0.  0.
        1    1    3    3  502    0 -0.12872828381E+03  0.12357028924E+03 -0.19999659094E+04  0.20079104129E+04  0.50400001928E-02 0.  1.
       -1    1    3    3    0  502  0.12872828381E+03 -0.12357028924E+03  0.58710256913E+03  0.61362041535E+03  0.50400001928E-02 0. -1.
</event>
<event>
 5   0  0.9442578E-05  0.2187167E+04  0.7818609E-02  0.8523788E-01
        2   -1    0    0  501    0  0.00000000000E+00  0.00000000000E+00  0.20492062127E+04  0.20492062127E+04  0.25500000920E-02 0.  1.
       -2   -1    0    0    0  501  0.00000000000E+00  0.00000000000E+00 -0.58360416875E+03  0.58360416875E+03  0.25500000920E-02 0. -1.
    10030    2    1    2    0    0  0.00000000000E+00  0.00000000000E+00  0.14656020439E+04  0.26328103814E+04  0.21871673812E+04 0.  0.
        4    1    3    3  502    0 -0.10500389857E+04  0.26728743436E+03  0.91093714528E+03  0.14155679213E+04  0.12699999809E+01 0.  1.
       -4    1    3    3    0  502  0.10500389857E+04 -0.26728743436E+03  0.55466489866E+03  0.12172424602E+04  0.12699999809E+01 0. -1.
</event>
<event>
 5   0  0.9254673E-05  0.2181672E+04  0.7818609E-02  0.8526095E-01
        2   -1    0    0  501    0  0.00000000000E+00  0.00000000000E+00  0.21184544065E+04  0.21184544065E+04  0.25500000920E-02 0. -1.
       -2   -1    0    0    0  501  0.00000000000E+00  0.00000000000E+00 -0.56169411969E+03  0.56169411969E+03  0.25500000920E-02 0.  1.
    10030    2    1    2    0    0  0.00000000000E+00  0.00000000000E+00  0.15567602868E+04  0.26801485262E+04  0.21816721871E+04 0.  0.
        2    1    3    3  502    0 -0.55045976848E+03  0.93121189032E+03  0.95107645954E+03  0.14403846616E+04  0.25500000920E-02 0.  1.
       -2    1    3    3    0  502  0.55045976848E+03 -0.93121189032E+03  0.60568382726E+03  0.12397638646E+04  0.25500000920E-02 0. -1.
</event>
<event>
 5   0  0.4174075E-05  0.2168776E+04  0.7818609E-02  0.8531538E-01
       -1   -1    0    0    0  501  0.00000000000E+00  0.00000000000E+00  0.13750403792E+04  0.13750403792E+04  0.50400001928E-02 0. -1.
        1   -1    0    0  501    0  0.00000000000E+00  0.00000000000E+00 -0.85517322296E+03  0.85517322298E+03  0.50400001928E-02 0.  1.
    10030    2    1    2    0    0  0.00000000000E+00  0.00000000000E+00  0.51986715624E+03  0.22302136022E+04  0.21687763488E+04 0.  0.
        5    1    3    3  502    0 -0.48660652513E+03  0.53871222309E+03 -0.56841570782E+03  0.92201696107E+03  0.46999998093E+01 0.  1.
       -5    1    3    3    0  502  0.48660652513E+03 -0.53871222309E+03  0.10882828641E+04  0.13081966411E+04  0.46999998093E+01 0. -1.
</event>
<event>
 5   0  0.9254673E-05  0.2115395E+04  0.7818609E-02  0.8554492E-01
       -2   -1    0    0    0  501  0.00000000000E+00  0.00000000000E+00  0.75308445709E+03  0.75308445710E+03  0.25500000920E-02 0.  1.
        2   -1    0    0  501    0  0.00000000000E+00  0.00000000000E+00 -0.14855225658E+04  0.14855225658E+04  0.25500000920E-02 0. -1.
    10030    2    1    2    0    0  0.00000000000E+00  0.00000000000E+00 -0.73243810868E+03  0.22386070229E+04  0.21153949560E+04 0.  0.
        2    1    3    3  502    0 -0.10155067345E+04 -0.14896903286E+03 -0.63659662616E+03  0.12077669332E+04  0.25500000920E-02 0. -1.
       -2    1    3    3    0  502  0.10155067345E+04  0.14896903286E+03 -0.95841482518E+02  0.10308400896E+04  0.25500000920E-02 0.  1.
</event>
<event>
 5   0  0.4174075E-05  0.2207255E+04  0.7818609E-02  0.8515414E-01
        1   -1    0    0  501    0  0.00000000000E+00  0.00000000000E+00  0.17092446498E+04  0.17092446498E+04  0.50400001928E-02 0. -1.
       -1   -1    0    0    0  501  0.00000000000E+00  0.00000000000E+00 -0.71259194391E+03  0.71259194393E+03  0.50400001928E-02 0.  1.
    10030    2    1    2    0    0  0.00000000000E+00  0.00000000000E+00  0.99665270590E+03  0.24218365938E+04  0.22072552799E+04 0.  0.
        5    1    3    3  502    0  0.12083153082E+03 -0.12221425512E+03 -0.69780821983E+03  0.71867585506E+03  0.46999998093E+01 0.  1.
       -5    1    3    3    0  502 -0.12083153082E+03  0.12221425512E+03  0.16944609257E+04  0.17031607387E+04  0.46999998093E+01 0. -1.
</event>
<event>
 5   0  0.4133418E-05  0.2185855E+04  0.7818609E-02  0.8524339E-01
       -1   -1    0    0    0  501  0.00000000000E+00  0.00000000000E+00  0.80796282553E+03  0.80796282555E+03  0.50400001928E-02 0. -1.
        1   -1    0    0  501    0  0.00000000000E+00  0.00000000000E+00 -0.14783984682E+04  0.14783984682E+04  0.50400001928E-02 0.  1.
    10030    2    1    2    0    0  0.00000000000E+00  0.00000000000E+00 -0.67043564269E+03  0.22863612938E+04  0.21858554423E+04 0.  0.
        4    1    3    3  502    0 -0.26952233313E+03  0.10481775966E+04 -0.17599907326E+03  0.10964925211E+04  0.12699999809E+01 0.  1.
       -4    1    3    3    0  502  0.26952233313E+03 -0.10481775966E+04 -0.49443656943E+03  0.11898687727E+04  0.12699999809E+01 0. -1.
</event>
<event>
 5   0  0.4174030E-05  0.2194890E+04  0.7818609E-02  0.8520558E-01
        1   -1    0    0  501    0  0.00000000000E+00  0.00000000000E+00  0.90946293493E+03  0.90946293495E+03  0.50400001928E-02 0. -1.
       -1   -1    0    0    0  501  0.00000000000E+00  0.00000000000E+00 -0.13242817172E+04  0.13242817173E+04  0.50400001928E-02 0.  1.
    10030    2    1    2    0    0  0.00000000000E+00  0.00000000000E+00 -0.41481878231E+03  0.22337446522E+04  0.21948896439E+04 0.  0.
        2    1    3    3  502    0  0.72007355391E+03 -0.82747908980E+03 -0.17278401505E+03  0.11104422015E+04  0.25500000920E-02 0. -1.
       -2    1    3    3    0  502 -0.72007355391E+03  0.82747908980E+03 -0.24203476726E+03  0.11233024507E+04  0.25500000920E-02 0.  1.
</event>
<event>
 5   0  0.4133418E-05  0.2213737E+04  0.7818609E-02  0.8512732E-01
       -1   -1    0    0    0  501  0.00000000000E+00  0.00000000000E+00  0.11063737691E+04  0.11063737691E+04  0.50400001928E-02 0.  1.
        1   -1    0    0  501    0  0.00000000000E+00  0.00000000000E+00 -0.11073634380E+04  0.11073634380E+04  0.50400001928E-02 0. -1.
    10030    2    1    2    0    0  0.00000000000E+00  0.00000000000E+00 -0.98966889267E+00  0.22137372071E+04  0.22137369859E+04 0.  0.
        4    1    3    3  502    0  0.39473318266E+03  0.52608397269E+03 -0.89076320658E+03  0.11072666052E+04  0.12699999809E+01 0. -1.
       -4    1    3    3    0  502 -0.39473318266E+03 -0.52608397269E+03  0.88977353768E+03  0.11064706020E+04  0.12699999809E+01 0.  1.
</event>
<event>
 5   0  0.9457742E-05  0.2155364E+04  0.7818609E-02  0.8537240E-01
       -2   -1    0    0    0  501  0.00000000000E+00  0.00000000000E+00  0.55709186479E+03  0.55709186480E+03  0.25500000920E-02 0. -1.
        2   -1    0    0  501    0  0.00000000000E+00  0.00000000000E+00 -0.20847521732E+04  0.20847521732E+04  0.25500000920E-02 0.  1.
    10030    2    1    2    0    0  0.00000000000E+00  0.00000000000E+00 -0.15276603084E+04  0.26418440380E+04  0.21553639839E+04 0.  0.
        1    1    3    3  502    0  0.37475356447E+03 -0.21646337631E+03 -0.19735609528E+04  0.20204552611E+04  0.50400001928E-02 0.  1.
       -1    1    3    3    0  502 -0.37475356447E+03  0.21646337631E+03  0.44590064443E+03  0.62138877693E+03  0.50400001928E-02 0. -1.
</event>
<event>
 5   0  0.9442578E-05  0.2192725E+04  0.7818609E-02  0.8521462E-01
       -2   -1    0    0    0  501  0.00000000000E+00  0.00000000000E+00  0.59717003688E+03  0.59717003688E+03  0.25500000920E-02 0. -1.
        2   -1    0    0  501    0  0.00000000000E+00  0.00000000000E+00 -0.20128454565E+04  0.20128454565E+04  0.25500000920E-02 0.  1.
    10030    2    1    2    0    0  0.00000000000E+00  0.00000000000E+00 -0.14156754197E+04  0.26100154934E+04  0.21927252409E+04 0.  0.
        4    1    3    3  502    0 -0.26050981910E+03  0.36299585163E+03 -0.18995588373E+04  0.19513986633E+04  0.12699999809E+01 0.  1.
       -4    1    3    3    0  502  0.26050981910E+03 -0.36299585163E+03  0.48388341760E+03  0.65861683009E+03  0.12699999809E+01 0. -1.
</event>
<event>
 5   0  0.4188865E-05  0.2201558E+04  0.7818609E-02  0.8517780E-01
       -1   -1    0    0    0  501  0.00000000000E+00  0.00000000000E+00  0.66008389821E+03  0.66008389823E+03  0.50400001928E-02 0. -1.
        1   -1    0    0  501    0  0.00000000000E+00  0.00000000000E+00 -0.18356983857E+04  0.18356983857E+04  0.50400001928E-02 0.  1.
    10030    2    1    2    0    0  0.00000000000E+00  0.00000000000E+00 -0.11756144875E+04  0.24957822839E+04  0.22015584902E+04 0.  0.
        3    1    3    3  502    0  0.96967114799E+03 -0.93651917965E+02 -0.11688281041E+04  0.15215754875E+04  0.10100000352E+00 0.  1.
       -3    1    3    3    0  502 -0.96967114799E+03  0.93651917965E+02 -0.67863833513E+01  0.97420679642E+03  0.10100000352E+00 0. -1.
</event>
<event>
 5   0  0.9179618E-05  0.1978374E+04  0.7818609E-02  0.8616799E-01
       -2   -1    0    0    0  501  0.00000000000E+00  0.00000000000E+00  0.79433693329E+03  0.79433693329E+03  0.25500000920E-02 0.  1.
        2   -1    0    0  501    0  0.00000000000E+00  0.00000000000E+00 -0.12318334775E+04  0.12318334775E+04  0.25500000920E-02 0. -1.
    10030    2    1    2    0    0  0.00000000000E+00  0.00000000000E+00 -0.43749654418E+03  0.20261704108E+04  0.19783739048E+04 0.  0.
        3    1    3    3  502    0 -0.44855892414E+03  0.29060237290E+03  0.63372899596E+03  0.82901586117E+03  0.10100000352E+00 0.  1.
       -3    1    3    3    0  502  0.44855892414E+03 -0.29060237290E+03 -0.10712255401E+04  0.11971545496E+04  0.10100000352E+00 0. -1.
</event>
<event>
 5   0  0.4188865E-05  0.1688110E+04  0.7818609E-02  0.8768175E-01
        1   -1    0    0  501    0  0.00000000000E+00  0.00000000000E+00  0.69514902040E+03  0.69514902042E+03  0.50400001928E-02 0. -1.
       -1   -1    0    0    0  501  0.00000000000E+00  0.00000000000E+00 -0.10248580893E+04  0.10248580893E+04  0.50400001928E-02 0.  1.
    10030    2    1    2    0    0  0.00000000000E+00  0.00000000000E+00 -0.32970906888E+03  0.17200071097E+04  0.16881103007E+04 0.  0.
        3    1    3    3  502    0 -0.50946405471E+03  0.56740999484E+03 -0.53352188548E+03  0.93067359358E+03  0.10100000352E+00 0.  1.
       -3    1    3    3    0  502  0.50946405471E+03 -0.56740999484E+03  0.20381281660E+03  0.78933351614E+03  0.10100000352E+00 0. -1.
</event>
<event>
 5   0  0.4174030E-05  0.2293219E+04  0.7818609E-02  0.8480600E-01
       -1   -1    0    0    0  501  0.00000000000E+00  0.00000000000E+00  0.11436334372E+04  0.11436334372E+04  0.50400001928E-02 0.  1.
        1   -1    0    0  501    0  0.00000000000E+00  0.00000000000E+00 -0.11495931105E+04  0.11495931105E+04  0.50400001928E-02 0. -1.
    10030    2    1    2    0    0  0.00000000000E+00  0.00000000000E+00 -0.59596732760E+01  0.22932265477E+04  0.22932188037E+04 0.  0.
        2    1    3    3  502    0  0.92110622491E+02  0.10832290582E+04  0.36149850069E+03  0.11456660618E+04  0.25500000920E-02 0.  1.
       -2    1    3    3    0  502 -0.92110622491E+02 -0.10832290582E+04 -0.36745817396E+03  0.11475604859E+04  0.25500000920E-02 0. -1.
</event>
<event>
 5   0  0.9254673E-05  0.2200011E+04  0.7818609E-02  0.8518423E-01
        2   -1    0    0  501    0  0.00000000000E+00  0.00000000000E+00  0.81894855687E+03  0.81894855688E+03  0.25500000920E-02 0.  1.
       -2   -1    0    0    0  501  0.00000000000E+00  0.00000000000E+00 -0.14775194200E+04  0.14775194200E+04  0.25500000920E-02 0. -1.
    10030    2    1    2    0    0  0.00000000000E+00  0.00000000000E+00 -0.65857086311E+03  0.22964679769E+04  0.22000112697E+04 0.  0.
        2    1    3    3  502    0 -0.93311832254E+03 -0.48511693961E+03  0.72860288621E+01  0.10517135233E+04  0.25500000920E-02 0.  1.
       -2    1    3    3    0  502  0.93311832254E+03  0.48511693961E+03 -0.66585689197E+03  0.12447544535E+04  0.25500000920E-02 0. -1.
</event>
<event>
 5   0  0.4174075E-05  0.2193057E+04  0.7818609E-02  0.8521323E-01
        1   -1    0    0  501    0  0.00000000000E+00  0.00000000000E+00  0.91934125642E+03  0.91934125643E+03  0.50400001928E-02 0.  1.
       -1   -1    0    0    0  501  0.00000000000E+00  0.00000000000E+00 -0.13078659305E+04  0.13078659305E+04  0.50400001928E-02 0. -1.
    10030    2    1    2    0    0  0.00000000000E+00  0.00000000000E+00 -0.38852467410E+03  0.22272071870E+04  0.21930573251E+04 0.  0.
        5    1    3    3  502    0  0.65006497119E+03  0.69017673176E+03  0.36515516651E+03  0.10160161285E+04  0.46999998093E+01 0.  1.
       -5    1    3    3    0  502 -0.65006497119E+03 -0.69017673176E+03 -0.75367984062E+03  0.12111910584E+04  0.46999998093E+01 0. -1.
</event>
<event>
 5   0  0.4063293E-05  0.2207782E+04  0.7818609E-02  0.8515196E-01
       -1   -1    0    0    0  501  0.00000000000E+00  0.00000000000E+00  0.11565193903E+04  0.11565193903E+04  0.50400001928E-02 0. -1.
        1   -1    0    0  501    0  0.00000000000E+00  0.00000000000E+00 -0.10536574207E+04  0.10536574207E+04  0.50400001928E-02 0.  1.
    10030    2    1    2    0    0  0.00000000000E+00  0.00000000000E+00  0.10286196961E+03  0.22101768110E+04  0.22077819075E+04 0.  0.
        1    1    3    3  502    0 -0.85219327169E+01  0.28342976405E+03  0.11194388477E+04  0.11547936561E+04  0.50400001928E-02 0. -1.
       -1    1    3    3    0  502  0.85219327169E+01 -0.28342976405E+03 -0.10165768781E+04  0.10553831549E+04  0.50400001928E-02 0.  1.
</event>
<event>
 5   0  0.9442578E-05  0.2203725E+04  0.7818609E-02  0.8516879E-01
       -2   -1    0    0    0  501  0.00000000000E+00  0.00000000000E+00  0.56067454746E+03  0.56067454746E+03  0.25500000920E-02 0. -1.
        2   -1    0    0  501    0  0.00000000000E+00  0.00000000000E+00 -0.21654287743E+04  0.21654287743E+04  0.25500000920E-02 0.  1.
    10030    2    1    2    0    0  0.00000000000E+00  0.00000000000E+00 -0.16047542269E+04  0.27261033218E+04  0.22037248450E+04 0.  0.
        4    1    3    3  502    0  0.85306550027E+02  0.54190007998E+03  0.37973829253E+03  0.66718489781E+03  0.12699999809E+01 0. -1.
       -4    1    3    3    0  502 -0.85306550027E+02 -0.54190007998E+03 -0.19844925194E+04  0.20589184240E+04  0.12699999809E+01 0.  1.
</event>
<event>
 5   0  0.4063293E-05  0.1836832E+04  0.7818609E-02  0.8686954E-01
        1   -1    0    0  501    0  0.00000000000E+00  0.00000000000E+00  0.12467222875E+04  0.12467222875E+04  0.50400001928E-02 0.  1.
       -1   -1    0    0    0  501  0.00000000000E+00  0.00000000000E+00 -0.67656472552E+03  0.67656472554E+03  0.50400001928E-02 0. -1.
    10030    2    1    2    0    0  0.00000000000E+00  0.00000000000E+00  0.57015756200E+03  0.19232870131E+04  0.18368324064E+04 0.  0.
        1    1    3    3  502    0  0.56590246254E+03  0.42705768383E+03 -0.32623674666E+03  0.78041929585E+03  0.50400001928E-02 0. -1.
       -1    1    3    3    0  502 -0.56590246254E+03 -0.42705768383E+03  0.89639430866E+03  0.11428677172E+04  0.50400001928E-02 0.  1.
</event>
<event>
 5   0  0.9442578E-05  0.2209821E+04  0.7818609E-02  0.8514351E-01
        2   -1    0    0  501    0  0.00000000000E+00  0.00000000000E+00  0.21790210078E+04  0.21790210078E+04  0.25500000920E-02 0.  1.
       -2   -1    0    0    0  501  0.00000000000E+00  0.00000000000E+00 -0.56026433500E+03  0.56026433500E+03  0.25500000920E-02 0. -1.
    10030    2    1    2    0    0  0.00000000000E+00  0.00000000000E+00  0.16187566728E+04  0.27392853428E+04  0.22098214913E+04 0.  0.
        4    1    3    3  502    0  0.93397720250E+03 -0.41717934257E+03  0.13271587219E+04  0.16756204536E+04  0.12699999809E+01 0.  1.
       -4    1    3    3    0  502 -0.93397720250E+03  0.41717934257E+03  0.29159795097E+03  0.10636648892E+04  0.12699999809E+01 0. -1.
</event>
<event>
 5   0  0.9938176E-05  0.2196980E+04  0.7818609E-02  0.8519686E-01
        2   -1    0    0  501    0  0.00000000000E+00  0.00000000000E+00  0.94228380611E+03  0.94228380612E+03  0.25500000920E-02 0. -1.
       -2   -1    0    0    0  501  0.00000000000E+00  0.00000000000E+00 -0.12805910133E+04  0.12805910133E+04  0.25500000920E-02 0.  1.
    10030    2    1    2    0    0  0.00000000000E+00  0.00000000000E+00 -0.33830720715E+03  0.22228748194E+04  0.21969799035E+04 0.  0.
        5    1    3    3  502    0 -0.43179618791E+03  0.82910547422E+03  0.41452910559E+03  0.10226046668E+04  0.46999998093E+01 0. -1.
       -5    1    3    3    0  502  0.43179618791E+03 -0.82910547422E+03 -0.75283631275E+03  0.12002701525E+04  0.46999998093E+01 0.  1.
</event>
<event>
 5   0  0.4133418E-05  0.2213021E+04  0.7818609E-02  0.8513028E-01
        1   -1    0    0  501    0  0.00000000000E+00  0.00000000000E+00  0.13259215281E+04  0.13259215281E+04  0.50400001928E-02 0.  1.
       -1   -1    0    0    0  501  0.00000000000E+00  0.00000000000E+00 -0.92340735791E+03  0.92340735792E+03  0.50400001928E-02 0. -1.
    10030    2    1    2    0    0  0.00000000000E+00  0.00000000000E+00  0.40251417018E+03  0.22493288860E+04  0.22130211884E+04 0.  0.
        4    1    3    3  502    0 -0.41614202134E+03 -0.68490107761E+02  0.12410259254E+04  0.13107295821E+04  0.12699999809E+01 0.  1.
       -4    1    3    3    0  502  0.41614202134E+03  0.68490107761E+02 -0.83851175526E+03  0.93859930396E+03  0.12699999809E+01 0. -1.
</event>
<event>
 5   0  0.9938176E-05  0.2207418E+04  0.7818609E-02  0.8515347E-01
       -2   -1    0    0    0  501  0.00000000000E+00  0.00000000000E+00  0.17454965260E+04  0.17454965260E+04  0.25500000920E-02 0.  1.
        2   -1    0    0  501    0  0.00000000000E+00  0.00000000000E+00 -0.69789544351E+03  0.69789544351E+03  0.25500000920E-02 0. -1.
    10030    2    1    2    0    0  0.00000000000E+00  0.00000000000E+00  0.10476010825E+04  0.24433919695E+04  0.22074184670E+04 0.  0.
        5    1    3    3  502    0 -0.14965293554E+02 -0.55739552559E+03 -0.53051145201E+03  0.76966110898E+03  0.46999998093E+01 0. -1.
       -5    1    3    3    0  502  0.14965293554E+02  0.55739552559E+03  0.15781125345E+04  0.16737308605E+04  0.46999998093E+01 0.  1.
</event>
<event>
 5   0  0.4174030E-05  0.2198601E+04  0.7818609E-02  0.8519010E-01
       -1   -1    0    0    0  501  0.00000000000E+00  0.00000000000E+00  0.11924747991E+04  0.11924747991E+04  0.50400001928E-02 0.  1.
        1   -1    0    0  501    0  0.00000000000E+00  0.00000000000E+00 -0.10134067993E+04  0.10134067993E+04  0.50400001928E-02 0. -1.
    10030    2    1    2    0    0  0.00000000000E+00  0.00000000000E+00  0.17906799974E+03  0.22058815984E+04  0.21986014367E+04 0.  0.
        2    1    3    3  502    0 -0.29360474640E+03 -0.97968463773E+03  0.49395224894E+03  0.11357704701E+04  0.25500000920E-02 0.  1.
       -2    1    3    3    0  502  0.29360474640E+03  0.97968463773E+03 -0.31488424919E+03  0.10701111283E+04  0.25500000920E-02 0. -1.
</event>
<event>
 5   0  0.9254673E-05  0.2181722E+04  0.7818609E-02  0.8526075E-01
       -2   -1    0    0    0  501  0.00000000000E+00  0.00000000000E+00  0.17333859274E+04  0.17333859274E+04  0.25500000920E-02 0.  1.
        2   -1    0    0  501    0  0.00000000000E+00  0.00000000000E+00 -0.68650464144E+03  0.68650464145E+03  0.25500000920E-02 0. -1.
    10030    2    1    2    0    0  0.00000000000E+00  0.00000000000E+00  0.10468812860E+04  0.24198905688E+04  0.21817217830E+04 0.  0.
        2    1    3    3  502    0  0.68088330471E+02 -0.56847853701E+03  0.15533374783E+04  0.16554942432E+04  0.25500000920E-02 0.  1.
       -2    1    3    3    0  502 -0.68088330471E+02  0.56847853701E+03 -0.50645619238E+03  0.76439632560E+03  0.25500000920E-02 0. -1.
</event>
<event>
 5   0  0.4174075E-05  0.2205771E+04  0.7818609E-02  0.8516030E-01
        1   -1    0    0  501    0  0.00000000000E+00  0.00000000000E+00  0.14638492623E+04  0.14638492623E+04  0.50400001928E-02 0.  1.
       -1   -1    0    0    0  501  0.00000000000E+00  0.00000000000E+00 -0.83093036854E+03  0.83093036856E+03  0.50400001928E-02 0. -1.
    10030    2    1    2    0    0  0.00000000000E+00  0.00000000000E+00  0.63291889374E+03  0.22947796309E+04  0.22057713454E+04 0.  0.
        5    1    3    3  502    0  0.16420609861E+03  0.26013049117E+03  0.14183018342E+04  0.14512869110E+04  0.46999998093E+01 0.  1.
       -5    1    3    3    0  502 -0.16420609861E+03 -0.26013049117E+03 -0.78538294044E+03  0.84349271983E+03  0.46999998093E+01 0. -1.
</event>
</LesHouchesEvents>
